 Entering Gaussian System, Link 0=g09
 Input=FuranAM1Best2.com
 Output=FuranAM1Best2.log
 Initial command:
 /home/Applications/g09/g09/l1.exe "/home/Applications/g09/scratch/Gau-10492.inp" -scrdir="/home/Applications/g09/scratch/"
 Entering Link 1 = /home/Applications/g09/g09/l1.exe PID=     10494.
  
 Copyright (c) 1988,1990,1992,1993,1995,1998,2003,2009,2013,
            Gaussian, Inc.  All Rights Reserved.
  
 This is part of the Gaussian(R) 09 program.  It is based on
 the Gaussian(R) 03 system (copyright 2003, Gaussian, Inc.),
 the Gaussian(R) 98 system (copyright 1998, Gaussian, Inc.),
 the Gaussian(R) 94 system (copyright 1995, Gaussian, Inc.),
 the Gaussian 92(TM) system (copyright 1992, Gaussian, Inc.),
 the Gaussian 90(TM) system (copyright 1990, Gaussian, Inc.),
 the Gaussian 88(TM) system (copyright 1988, Gaussian, Inc.),
 the Gaussian 86(TM) system (copyright 1986, Carnegie Mellon
 University), and the Gaussian 82(TM) system (copyright 1983,
 Carnegie Mellon University). Gaussian is a federally registered
 trademark of Gaussian, Inc.
  
 This software contains proprietary and confidential information,
 including trade secrets, belonging to Gaussian, Inc.
  
 This software is provided under written license and may be
 used, copied, transmitted, or stored only in accord with that
 written license.
  
 The following legend is applicable only to US Government
 contracts under FAR:
  
                    RESTRICTED RIGHTS LEGEND
  
 Use, reproduction and disclosure by the US Government is
 subject to restrictions as set forth in subparagraphs (a)
 and (c) of the Commercial Computer Software - Restricted
 Rights clause in FAR 52.227-19.
  
 Gaussian, Inc.
 340 Quinnipiac St., Bldg. 40, Wallingford CT 06492
  
  
 ---------------------------------------------------------------
 Warning -- This program may not be used in any manner that
 competes with the business of Gaussian, Inc. or will provide
 assistance to any competitor of Gaussian, Inc.  The licensee
 of this program is prohibited from giving any competitor of
 Gaussian, Inc. access to this program.  By using this program,
 the user acknowledges that Gaussian, Inc. is engaged in the
 business of creating and licensing software in the field of
 computational chemistry and represents and warrants to the
 licensee that it is not a competitor of Gaussian, Inc. and that
 it will not use this program in any manner prohibited above.
 ---------------------------------------------------------------
  

 Cite this work as:
 Gaussian 09, Revision D.01,
 M. J. Frisch, G. W. Trucks, H. B. Schlegel, G. E. Scuseria, 
 M. A. Robb, J. R. Cheeseman, G. Scalmani, V. Barone, B. Mennucci, 
 G. A. Petersson, H. Nakatsuji, M. Caricato, X. Li, H. P. Hratchian, 
 A. F. Izmaylov, J. Bloino, G. Zheng, J. L. Sonnenberg, M. Hada, 
 M. Ehara, K. Toyota, R. Fukuda, J. Hasegawa, M. Ishida, T. Nakajima, 
 Y. Honda, O. Kitao, H. Nakai, T. Vreven, J. A. Montgomery, Jr., 
 J. E. Peralta, F. Ogliaro, M. Bearpark, J. J. Heyd, E. Brothers, 
 K. N. Kudin, V. N. Staroverov, T. Keith, R. Kobayashi, J. Normand, 
 K. Raghavachari, A. Rendell, J. C. Burant, S. S. Iyengar, J. Tomasi, 
 M. Cossi, N. Rega, J. M. Millam, M. Klene, J. E. Knox, J. B. Cross, 
 V. Bakken, C. Adamo, J. Jaramillo, R. Gomperts, R. E. Stratmann, 
 O. Yazyev, A. J. Austin, R. Cammi, C. Pomelli, J. W. Ochterski, 
 R. L. Martin, K. Morokuma, V. G. Zakrzewski, G. A. Voth, 
 P. Salvador, J. J. Dannenberg, S. Dapprich, A. D. Daniels, 
 O. Farkas, J. B. Foresman, J. V. Ortiz, J. Cioslowski, 
 and D. J. Fox, Gaussian, Inc., Wallingford CT, 2013.
 
 ******************************************
 Gaussian 09:  ES64L-G09RevD.01 24-Apr-2013
                 7-Dec-2015 
 ******************************************
 ----------------------------
 #P AM1(Input,print) Opt Freq
 ----------------------------
 1/14=-1,18=20,19=15,26=1,38=1/1,3;
 2/9=110,12=2,17=6,18=5,40=1/2;
 3/5=2,16=1,25=1,41=700000,71=1,135=100,136=1/1,2,3;
 4/35=1/1;
 5/5=2,35=1,38=5/2;
 6/7=2,8=2,9=2,10=2,28=1/1;
 7//1,2,3,16;
 1/14=-1,18=20,19=15,26=1/3(2);
 2/9=110/2;
 99//99;
 2/9=110/2;
 3/5=2,16=1,25=1,41=700000,71=1,135=20,136=1/1,2,3;
 4/5=5,16=3,35=1/1;
 5/5=2,35=1,38=5/2;
 7//1,2,3,16;
 1/14=-1,18=20,19=15,26=1/3(-5);
 2/9=110/2;
 6/7=2,8=2,9=2,10=2,19=2,28=1/1;
 99/9=1/99;
 Leave Link    1 at Mon Dec  7 14:51:15 2015, MaxMem=           0 cpu:         0.0
 (Enter /home/Applications/g09/g09/l101.exe)
 -----------------
 AM1-Reparam Input
 -----------------
 Symbolic Z-matrix:
 Charge =  0 Multiplicity = 1
 6                     0.96071  -0.70733  -0.0043 
 6                    -0.35739  -1.04381   0.0459 
 8                    -1.15638  -0.01742   0.00657 
 6                    -0.37728   1.10881  -0.02654 
 6                     0.91596   0.74799  -0.03963 
 1                     1.79015   1.38754  -0.01152 
 1                    -0.87698   2.02513  -0.01015 
 1                    -0.83514  -2.06576   0.00203 
 1                     1.83391  -1.33895  -0.04681 
 
 NAtoms=      9 NQM=        9 NQMF=       0 NMMI=      0 NMMIF=      0
                NMic=       0 NMicF=      0.
                    Isotopes and Nuclear Properties:
 (Nuclear quadrupole moments (NQMom) in fm**2, nuclear magnetic moments (NMagM)
  in nuclear magnetons)

  Atom         1           2           3           4           5           6           7           8           9
 IAtWgt=          12          12          16          12          12           1           1           1           1
 AtmWgt=  12.0000000  12.0000000  15.9949146  12.0000000  12.0000000   1.0078250   1.0078250   1.0078250   1.0078250
 NucSpn=           0           0           0           0           0           1           1           1           1
 AtZEff=   0.0000000   0.0000000   0.0000000   0.0000000   0.0000000   0.0000000   0.0000000   0.0000000   0.0000000
 NQMom=    0.0000000   0.0000000   0.0000000   0.0000000   0.0000000   0.0000000   0.0000000   0.0000000   0.0000000
 NMagM=    0.0000000   0.0000000   0.0000000   0.0000000   0.0000000   2.7928460   2.7928460   2.7928460   2.7928460
 AtZNuc=   6.0000000   6.0000000   8.0000000   6.0000000   6.0000000   1.0000000   1.0000000   1.0000000   1.0000000
 Leave Link  101 at Mon Dec  7 14:51:15 2015, MaxMem=    33554432 cpu:         0.0
 (Enter /home/Applications/g09/g09/l103.exe)

 GradGradGradGradGradGradGradGradGradGradGradGradGradGradGradGradGradGrad
 Berny optimization.
 Initialization pass.
                           ----------------------------
                           !    Initial Parameters    !
                           ! (Angstroms and Degrees)  !
 --------------------------                            --------------------------
 ! Name  Definition              Value          Derivative Info.                !
 --------------------------------------------------------------------------------
 ! R1    R(1,2)                  1.3613         estimate D2E/DX2                !
 ! R2    R(1,5)                  1.4564         estimate D2E/DX2                !
 ! R3    R(1,9)                  1.0785         estimate D2E/DX2                !
 ! R4    R(2,3)                  1.3013         estimate D2E/DX2                !
 ! R5    R(2,8)                  1.129          estimate D2E/DX2                !
 ! R6    R(3,4)                  1.3698         estimate D2E/DX2                !
 ! R7    R(4,5)                  1.3427         estimate D2E/DX2                !
 ! R8    R(4,7)                  1.0438         estimate D2E/DX2                !
 ! R9    R(5,6)                  1.0835         estimate D2E/DX2                !
 ! A1    A(2,1,5)              102.5993         estimate D2E/DX2                !
 ! A2    A(2,1,9)              129.839          estimate D2E/DX2                !
 ! A3    A(5,1,9)              127.5242         estimate D2E/DX2                !
 ! A4    A(1,2,3)              113.481          estimate D2E/DX2                !
 ! A5    A(1,2,8)              129.2024         estimate D2E/DX2                !
 ! A6    A(3,2,8)              116.9343         estimate D2E/DX2                !
 ! A7    A(2,3,4)              107.4566         estimate D2E/DX2                !
 ! A8    A(3,4,5)              109.093          estimate D2E/DX2                !
 ! A9    A(3,4,7)              116.6845         estimate D2E/DX2                !
 ! A10   A(5,4,7)              134.1965         estimate D2E/DX2                !
 ! A11   A(1,5,4)              107.3299         estimate D2E/DX2                !
 ! A12   A(1,5,6)              124.3592         estimate D2E/DX2                !
 ! A13   A(4,5,6)              128.1863         estimate D2E/DX2                !
 ! D1    D(5,1,2,3)              1.8554         estimate D2E/DX2                !
 ! D2    D(5,1,2,8)            174.4431         estimate D2E/DX2                !
 ! D3    D(9,1,2,3)           -176.0119         estimate D2E/DX2                !
 ! D4    D(9,1,2,8)             -3.4241         estimate D2E/DX2                !
 ! D5    D(2,1,5,4)             -0.8355         estimate D2E/DX2                !
 ! D6    D(2,1,5,6)            175.3922         estimate D2E/DX2                !
 ! D7    D(9,1,5,4)            177.0997         estimate D2E/DX2                !
 ! D8    D(9,1,5,6)             -6.6726         estimate D2E/DX2                !
 ! D9    D(1,2,3,4)             -2.1502         estimate D2E/DX2                !
 ! D10   D(8,2,3,4)           -175.7118         estimate D2E/DX2                !
 ! D11   D(2,3,4,5)              1.4915         estimate D2E/DX2                !
 ! D12   D(2,3,4,7)           -176.9161         estimate D2E/DX2                !
 ! D13   D(3,4,5,1)             -0.3583         estimate D2E/DX2                !
 ! D14   D(3,4,5,6)           -176.396          estimate D2E/DX2                !
 ! D15   D(7,4,5,1)            177.6571         estimate D2E/DX2                !
 ! D16   D(7,4,5,6)              1.6194         estimate D2E/DX2                !
 --------------------------------------------------------------------------------
 Trust Radius=3.00D-01 FncErr=1.00D-07 GrdErr=1.00D-07
 Number of steps in this run=     48 maximum allowed number of steps=    100.
 GradGradGradGradGradGradGradGradGradGradGradGradGradGradGradGradGradGrad

 Leave Link  103 at Mon Dec  7 14:51:15 2015, MaxMem=    33554432 cpu:         0.0
 (Enter /home/Applications/g09/g09/l202.exe)
                          Input orientation:                          
 ---------------------------------------------------------------------
 Center     Atomic      Atomic             Coordinates (Angstroms)
 Number     Number       Type             X           Y           Z
 ---------------------------------------------------------------------
      1          6           0        0.960710   -0.707331   -0.004296
      2          6           0       -0.357385   -1.043806    0.045895
      3          8           0       -1.156383   -0.017421    0.006574
      4          6           0       -0.377284    1.108809   -0.026542
      5          6           0        0.915964    0.747992   -0.039633
      6          1           0        1.790151    1.387538   -0.011521
      7          1           0       -0.876976    2.025134   -0.010148
      8          1           0       -0.835136   -2.065759    0.002030
      9          1           0        1.833908   -1.338947   -0.046811
 ---------------------------------------------------------------------
                    Distance matrix (angstroms):
                    1          2          3          4          5
     1  C    0.000000
     2  C    1.361289   0.000000
     3  O    2.226696   1.301311   0.000000
     4  C    2.255901   2.153925   1.369849   0.000000
     5  C    1.456439   2.199835   2.209664   1.342703   0.000000
     6  H    2.253109   3.244479   3.264399   2.185335   1.083518
     7  H    3.292945   3.113119   2.061645   1.043845   2.201498
     8  H    2.251761   1.128963   2.073381   3.207542   3.314405
     9  H    1.078527   2.213022   3.269728   3.298680   2.279909
                    6          7          8          9
     6  H    0.000000
     7  H    2.742280   0.000000
     8  H    4.337923   4.091125   0.000000
     9  H    2.727064   4.320564   2.766665   0.000000
 Stoichiometry    C4H4O
 Framework group  C1[X(C4H4O)]
 Deg. of freedom    21
 Full point group                 C1      NOp   1
 Largest Abelian subgroup         C1      NOp   1
 Largest concise Abelian subgroup C1      NOp   1
                         Standard orientation:                         
 ---------------------------------------------------------------------
 Center     Atomic      Atomic             Coordinates (Angstroms)
 Number     Number       Type             X           Y           Z
 ---------------------------------------------------------------------
      1          6           0        0.776693    0.930674    0.000790
      2          6           0        1.036673   -0.405327    0.025741
      3          8           0       -0.035035   -1.142784   -0.005978
      4          6           0       -1.114392   -0.299296   -0.006928
      5          6           0       -0.679164    0.970911   -0.008115
      6          1           0       -1.266116    1.880160    0.044464
      7          1           0       -2.057827   -0.745227    0.019313
      8          1           0        2.028131   -0.940777   -0.043993
      9          1           0        1.457235    1.766345   -0.040894
 ---------------------------------------------------------------------
 Rotational constants (GHZ):      9.5811974      9.3955317      4.7450418
 Leave Link  202 at Mon Dec  7 14:51:15 2015, MaxMem=    33554432 cpu:         0.0
 (Enter /home/Applications/g09/g09/l301.exe)

 Semi-emprical parameters in input format:
 Method=8 CoreType=1 PeptideFC=0.0112330000 RIJScale=0.5291770000
 ****
 H       
 PQN=1 NValence=1 F0ss=0.5237600000 ZetaOverlap=0.9601790000 U=-0.5223910000
 Beta=-0.2029260000 CoreKO=1.0644050000 KON=0,0,0,0.9730020000 KON=1,0,1,0.9833730000
 KON=0,1,1,1.0628700000 KON=2,1,1,1.0792230000 EISol=-0.4395468110 EHeat=0.0830298228
 Alpha=1.8213180000
 GCore=0.0075240000,1.9935190000,2.0426320000
 GCore=0.0049980000,1.7363170000,3.8655940000
 GCore=-0.0024160000,0.8585610000,2.9505260000
 ****
 C       
 PQN=2,2 NValence=4 F0ss=0.4547130000 F0sp=0.4023160000 F0pp=0.3368050000 F2pp=0.1899800000
 G1sp=0.1791820000
 ZetaOverlap=1.8501880000,1.4010880000
 U=-1.7437090000,-1.4903460000
 Beta=-0.6190810000,-0.3684690000 DDN=0,1,0.8264550000 DDN=1,1,0.7060810000
 CoreKO=0.9473960000 KON=0,0,0,1.0423320000 KON=1,0,1,0.9918320000 KON=0,1,1,0.9192110000
 KON=2,1,1,0.7447560000 EISol=-4.3315453857 EHeat=0.2723305520 Alpha=1.5254470000
 DipHyp=1.6528149066
 GCore=0.0051870000,1.6071440000,1.9728170000
 GCore=0.0008530000,1.8170010000,3.5594500000
 GCore=0.0020350000,1.8721920000,3.6278330000
 GCore=-0.0001990000,2.2720510000,4.7447420000
 ****
 O       
 PQN=2,2 NValence=6 F0ss=0.5599030000 F0sp=0.5456060000 F0pp=0.4568310000 F2pp=0.2547350000
 G1sp=0.3905540000
 ZetaOverlap=3.1793690000,2.5536190000
 U=-3.7487950000,-3.0290820000
 Beta=-1.1275620000,-1.0712800000 DDN=0,1,0.5230310000 DDN=1,1,0.4557020000
 CoreKO=1.0453130000 KON=0,0,0,0.9095110000 KON=1,0,1,0.4967410000 KON=0,1,1,0.8841900000
 KON=2,1,1,0.5885470000 EISol=-11.4672725099 EHeat=0.0949133088 Alpha=2.3276720000
 DipHyp=1.0460018191
 GCore=0.0166740000,1.4612690000,1.7069520000
 GCore=0.0053330000,2.1558110000,2.7169520000
 ****
 
 Standard basis: VSTO-6G (5D, 7F)
 Ernie: Thresh=  0.10000D-02 Tol=  0.10000D-05 Strict=F.
  NNHCO=     0 NNPyr=     0 NCTC=     0               EPep=         0.000000000
    EC=        70.486300797  ECS=         1.364557522   EG=         0.579282145
   EHC=         0.000000000  EAt=       -30.551641297  AtH=         1.516354808
 EPDDG=         0.000000000  ECC=        72.430140464 EAtT=        32.067996105
 There are    24 symmetry adapted cartesian basis functions of A   symmetry.
 There are    24 symmetry adapted basis functions of A   symmetry.
    24 basis functions,   144 primitive gaussians,    24 cartesian basis functions
    13 alpha electrons       13 beta electrons
       nuclear repulsion energy       104.4981365689 Hartrees.
 IExCor=    0 DFT=F Ex=HF Corr=None ExCW=0 ScaHFX=  1.000000
 ScaDFX=  1.000000  1.000000  1.000000  1.000000 ScalE2=  1.000000  1.000000
 IRadAn=      0 IRanWt=     -1 IRanGd=            0 ICorTp=0 IEmpDi=  4
 Integral buffers will be    131072 words long.
 Regular integral format.
 Two-electron integral symmetry is turned off.
 Leave Link  301 at Mon Dec  7 14:51:15 2015, MaxMem=    33554432 cpu:         0.0
 (Enter /home/Applications/g09/g09/l302.exe)
 Do NDO integrals.
 NPDir=0 NMtPBC=     1 NCelOv=     1 NCel=       1 NClECP=     1 NCelD=      1
         NCelK=      1 NCelE2=     1 NClLst=     1 CellRange=     0.0.
 One-electron integrals computed using PRISM.
 NBasis=    24 RedAO= F EigKep=  0.00D+00  NBF=    24
 NBsUse=    24 1.00D-04 EigRej=  0.00D+00 NBFU=    24
 Leave Link  302 at Mon Dec  7 14:51:15 2015, MaxMem=    33554432 cpu:         0.0
 (Enter /home/Applications/g09/g09/l303.exe)
 DipDrv:  MaxL=1.
 Leave Link  303 at Mon Dec  7 14:51:15 2015, MaxMem=    33554432 cpu:         0.0
 (Enter /home/Applications/g09/g09/l401.exe)
 Simple Huckel Guess.
 JPrj=0 DoOrth=F DoCkMO=F.
 Leave Link  401 at Mon Dec  7 14:51:15 2015, MaxMem=    33554432 cpu:         0.0
 (Enter /home/Applications/g09/g09/l502.exe)
 Closed shell SCF:
 Using DIIS extrapolation, IDIIS=  1040.
 Overlap will be assumed to be unity.
 Two-electron integral symmetry not used.
 Keep J ints in memory in canonical form, NReq=888082.
 IVT=       79475 IEndB=       79475 NGot=    33554432 MDV=    33473473
 LenX=    33473473 LenY=    33472456
 Requested convergence on RMS density matrix=1.00D-08 within 128 cycles.
 Requested convergence on MAX density matrix=1.00D-06.
 Requested convergence on             energy=1.00D-06.
 No special actions if energy rises.
 FoFCou: FMM=F IPFlag=           0 FMFlag=           0 FMFlg1=           0
         NFxFlg=           0 DoJE=F BraDBF=F KetDBF=F FulRan=T
         wScrn=  0.000000 ICntrl=     600 IOpCl=  2 I1Cent=           0 NGrid=           0
         NMat0=    1 NMatS0=     54 NMatT0=    0 NMatD0=    1 NMtDS0=    0 NMtDT0=    0
 Symmetry not used in FoFCou.

 Cycle   1  Pass 1  IDiag  1:
 E= -3.64075922881200    
 DIIS: error= 4.83D-02 at cycle   1 NSaved=   1.
 NSaved= 1 IEnMin= 1 EnMin= -3.64075922881200     IErMin= 1 ErrMin= 4.83D-02
 ErrMax= 4.83D-02  0.00D+00 EMaxC= 1.00D-01 BMatC= 1.02D-01 BMatP= 1.02D-01
 IDIUse=3 WtCom= 5.17D-01 WtEn= 4.83D-01
 Coeff-Com:  0.100D+01
 Coeff-En:   0.100D+01
 Coeff:      0.100D+01
 GapD=    2.000 DampG=2.000 DampE=0.500 DampFc=1.0000 IDamp=-1.
 RMSDP=1.56D-02 MaxDP=1.23D-01              OVMax= 0.00D+00

 Cycle   2  Pass 1  IDiag  1:
 E= -3.83791244938108     Delta-E=       -0.197153220569 Rises=F Damp=F
 DIIS: error= 1.11D-02 at cycle   2 NSaved=   2.
 NSaved= 2 IEnMin= 2 EnMin= -3.83791244938108     IErMin= 2 ErrMin= 1.11D-02
 ErrMax= 1.11D-02  0.00D+00 EMaxC= 1.00D-01 BMatC= 7.34D-03 BMatP= 1.02D-01
 IDIUse=3 WtCom= 8.89D-01 WtEn= 1.11D-01
 Coeff-Com: -0.252D+00 0.125D+01
 Coeff-En:   0.000D+00 0.100D+01
 Coeff:     -0.224D+00 0.122D+01
 RMSDP=6.75D-03 MaxDP=5.05D-02 DE=-1.97D-01 OVMax= 0.00D+00

 Cycle   3  Pass 1  IDiag  3:
 E= -3.86272243763551     Delta-E=       -0.024809988254 Rises=F Damp=F
 DIIS: error= 5.13D-03 at cycle   3 NSaved=   3.
 NSaved= 3 IEnMin= 3 EnMin= -3.86272243763551     IErMin= 3 ErrMin= 5.13D-03
 ErrMax= 5.13D-03  0.00D+00 EMaxC= 1.00D-01 BMatC= 1.26D-03 BMatP= 7.34D-03
 IDIUse=3 WtCom= 9.49D-01 WtEn= 5.13D-02
 Coeff-Com:  0.886D-01-0.706D+00 0.162D+01
 Coeff-En:   0.000D+00 0.000D+00 0.100D+01
 Coeff:      0.840D-01-0.669D+00 0.159D+01
 Gap=     0.452 Goal=   None    Shift=    0.000
 RMSDP=4.67D-03 MaxDP=3.31D-02 DE=-2.48D-02 OVMax= 5.25D-02

 Cycle   4  Pass 1  IDiag  3:
 E= -3.87034180907234     Delta-E=       -0.007619371437 Rises=F Damp=F
 DIIS: error= 2.43D-03 at cycle   4 NSaved=   4.
 NSaved= 4 IEnMin= 4 EnMin= -3.87034180907234     IErMin= 4 ErrMin= 2.43D-03
 ErrMax= 2.43D-03  0.00D+00 EMaxC= 1.00D-01 BMatC= 2.46D-04 BMatP= 1.26D-03
 IDIUse=3 WtCom= 9.76D-01 WtEn= 2.43D-02
 Coeff-Com:  0.493D-02 0.103D+00-0.963D+00 0.186D+01
 Coeff-En:   0.000D+00 0.000D+00 0.000D+00 0.100D+01
 Coeff:      0.481D-02 0.100D+00-0.940D+00 0.183D+01
 Gap=     0.456 Goal=   None    Shift=    0.000
 RMSDP=3.36D-03 MaxDP=2.28D-02 DE=-7.62D-03 OVMax= 3.58D-02

 Cycle   5  Pass 1  IDiag  3:
 E= -3.87218439408345     Delta-E=       -0.001842585011 Rises=F Damp=F
 DIIS: error= 3.75D-04 at cycle   5 NSaved=   5.
 NSaved= 5 IEnMin= 5 EnMin= -3.87218439408345     IErMin= 5 ErrMin= 3.75D-04
 ErrMax= 3.75D-04  0.00D+00 EMaxC= 1.00D-01 BMatC= 5.67D-06 BMatP= 2.46D-04
 IDIUse=3 WtCom= 9.96D-01 WtEn= 3.75D-03
 Coeff-Com: -0.340D-02-0.250D-01 0.329D+00-0.742D+00 0.144D+01
 Coeff-En:   0.000D+00 0.000D+00 0.000D+00 0.000D+00 0.100D+01
 Coeff:     -0.339D-02-0.249D-01 0.328D+00-0.739D+00 0.144D+01
 Gap=     0.456 Goal=   None    Shift=    0.000
 RMSDP=3.25D-04 MaxDP=2.35D-03 DE=-1.84D-03 OVMax= 1.96D-03

 Cycle   6  Pass 1  IDiag  3:
 E= -3.87221033578237     Delta-E=       -0.000025941699 Rises=F Damp=F
 DIIS: error= 5.17D-05 at cycle   6 NSaved=   6.
 NSaved= 6 IEnMin= 6 EnMin= -3.87221033578237     IErMin= 6 ErrMin= 5.17D-05
 ErrMax= 5.17D-05  0.00D+00 EMaxC= 1.00D-01 BMatC= 1.97D-07 BMatP= 5.67D-06
 IDIUse=1 WtCom= 1.00D+00 WtEn= 0.00D+00
 Coeff-Com:  0.130D-02 0.729D-02-0.111D+00 0.256D+00-0.580D+00 0.143D+01
 Coeff:      0.130D-02 0.729D-02-0.111D+00 0.256D+00-0.580D+00 0.143D+01
 Gap=     0.456 Goal=   None    Shift=    0.000
 RMSDP=5.02D-05 MaxDP=3.08D-04 DE=-2.59D-05 OVMax= 2.23D-04

 Cycle   7  Pass 1  IDiag  3:
 E= -3.87221113680673     Delta-E=       -0.000000801024 Rises=F Damp=F
 DIIS: error= 1.13D-05 at cycle   7 NSaved=   7.
 NSaved= 7 IEnMin= 7 EnMin= -3.87221113680673     IErMin= 7 ErrMin= 1.13D-05
 ErrMax= 1.13D-05  0.00D+00 EMaxC= 1.00D-01 BMatC= 7.26D-09 BMatP= 1.97D-07
 IDIUse=1 WtCom= 1.00D+00 WtEn= 0.00D+00
 Coeff-Com: -0.401D-03-0.300D-02 0.415D-01-0.928D-01 0.214D+00-0.624D+00
 Coeff-Com:  0.146D+01
 Coeff:     -0.401D-03-0.300D-02 0.415D-01-0.928D-01 0.214D+00-0.624D+00
 Coeff:      0.146D+01
 Gap=     0.456 Goal=   None    Shift=    0.000
 RMSDP=1.19D-05 MaxDP=7.75D-05 DE=-8.01D-07 OVMax= 9.76D-05

 Cycle   8  Pass 1  IDiag  3:
 E= -3.87221117500249     Delta-E=       -0.000000038196 Rises=F Damp=F
 DIIS: error= 6.89D-06 at cycle   8 NSaved=   8.
 NSaved= 8 IEnMin= 8 EnMin= -3.87221117500249     IErMin= 8 ErrMin= 6.89D-06
 ErrMax= 6.89D-06  0.00D+00 EMaxC= 1.00D-01 BMatC= 1.34D-09 BMatP= 7.26D-09
 IDIUse=1 WtCom= 1.00D+00 WtEn= 0.00D+00
 Coeff-Com:  0.450D-04 0.892D-03-0.987D-02 0.205D-01-0.474D-01 0.156D+00
 Coeff-Com: -0.570D+00 0.145D+01
 Coeff:      0.450D-04 0.892D-03-0.987D-02 0.205D-01-0.474D-01 0.156D+00
 Coeff:     -0.570D+00 0.145D+01
 Gap=     0.456 Goal=   None    Shift=    0.000
 RMSDP=5.10D-06 MaxDP=4.55D-05 DE=-3.82D-08 OVMax= 4.95D-05

 Cycle   9  Pass 1  IDiag  3:
 E= -3.87221118442329     Delta-E=       -0.000000009421 Rises=F Damp=F
 DIIS: error= 4.92D-06 at cycle   9 NSaved=   9.
 NSaved= 9 IEnMin= 9 EnMin= -3.87221118442329     IErMin= 9 ErrMin= 4.92D-06
 ErrMax= 4.92D-06  0.00D+00 EMaxC= 1.00D-01 BMatC= 6.07D-10 BMatP= 1.34D-09
 IDIUse=1 WtCom= 1.00D+00 WtEn= 0.00D+00
 Coeff-Com:  0.115D-04-0.845D-03 0.752D-02-0.140D-01 0.321D-01-0.118D+00
 Coeff-Com:  0.507D+00-0.242D+01 0.300D+01
 Coeff:      0.115D-04-0.845D-03 0.752D-02-0.140D-01 0.321D-01-0.118D+00
 Coeff:      0.507D+00-0.242D+01 0.300D+01
 Gap=     0.456 Goal=   None    Shift=    0.000
 RMSDP=7.98D-06 MaxDP=7.24D-05 DE=-9.42D-09 OVMax= 8.68D-05

 Cycle  10  Pass 1  IDiag  3:
 E= -3.87221119235652     Delta-E=       -0.000000007933 Rises=F Damp=F
 DIIS: error= 1.33D-06 at cycle  10 NSaved=  10.
 NSaved=10 IEnMin=10 EnMin= -3.87221119235652     IErMin=10 ErrMin= 1.33D-06
 ErrMax= 1.33D-06  0.00D+00 EMaxC= 1.00D-01 BMatC= 6.24D-11 BMatP= 6.07D-10
 IDIUse=1 WtCom= 1.00D+00 WtEn= 0.00D+00
 Coeff-Com: -0.278D-04 0.126D-03-0.256D-03-0.637D-03 0.130D-02 0.543D-02
 Coeff-Com: -0.875D-01 0.794D+00-0.143D+01 0.172D+01
 Coeff:     -0.278D-04 0.126D-03-0.256D-03-0.637D-03 0.130D-02 0.543D-02
 Coeff:     -0.875D-01 0.794D+00-0.143D+01 0.172D+01
 Gap=     0.456 Goal=   None    Shift=    0.000
 RMSDP=2.92D-06 MaxDP=2.45D-05 DE=-7.93D-09 OVMax= 3.04D-05

 Cycle  11  Pass 1  IDiag  3:
 E= -3.87221119307321     Delta-E=       -0.000000000717 Rises=F Damp=F
 DIIS: error= 1.43D-07 at cycle  11 NSaved=  11.
 NSaved=11 IEnMin=11 EnMin= -3.87221119307321     IErMin=11 ErrMin= 1.43D-07
 ErrMax= 1.43D-07  0.00D+00 EMaxC= 1.00D-01 BMatC= 1.68D-12 BMatP= 6.24D-11
 IDIUse=1 WtCom= 1.00D+00 WtEn= 0.00D+00
 Coeff-Com:  0.733D-05-0.350D-04 0.955D-04 0.207D-03-0.347D-03-0.227D-02
 Coeff-Com:  0.311D-01-0.277D+00 0.521D+00-0.718D+00 0.145D+01
 Coeff:      0.733D-05-0.350D-04 0.955D-04 0.207D-03-0.347D-03-0.227D-02
 Coeff:      0.311D-01-0.277D+00 0.521D+00-0.718D+00 0.145D+01
 Gap=     0.456 Goal=   None    Shift=    0.000
 RMSDP=1.69D-07 MaxDP=1.26D-06 DE=-7.17D-10 OVMax= 7.91D-07

 Cycle  12  Pass 1  IDiag  3:
 E= -3.87221119308012     Delta-E=       -0.000000000007 Rises=F Damp=F
 DIIS: error= 2.90D-08 at cycle  12 NSaved=  12.
 NSaved=12 IEnMin=12 EnMin= -3.87221119308012     IErMin=12 ErrMin= 2.90D-08
 ErrMax= 2.90D-08  0.00D+00 EMaxC= 1.00D-01 BMatC= 6.25D-14 BMatP= 1.68D-12
 IDIUse=1 WtCom= 1.00D+00 WtEn= 0.00D+00
 Coeff-Com: -0.190D-05 0.550D-05 0.959D-05-0.141D-03 0.272D-03 0.138D-03
 Coeff-Com: -0.740D-02 0.753D-01-0.145D+00 0.207D+00-0.499D+00 0.137D+01
 Coeff:     -0.190D-05 0.550D-05 0.959D-05-0.141D-03 0.272D-03 0.138D-03
 Coeff:     -0.740D-02 0.753D-01-0.145D+00 0.207D+00-0.499D+00 0.137D+01
 Gap=     0.456 Goal=   None    Shift=    0.000
 RMSDP=3.32D-08 MaxDP=1.88D-07 DE=-6.91D-12 OVMax= 2.72D-07

 Cycle  13  Pass 1  IDiag  3:
 E= -3.87221119308029     Delta-E=        0.000000000000 Rises=F Damp=F
 DIIS: error= 4.69D-09 at cycle  13 NSaved=  13.
 NSaved=13 IEnMin=13 EnMin= -3.87221119308029     IErMin=13 ErrMin= 4.69D-09
 ErrMax= 4.69D-09  0.00D+00 EMaxC= 1.00D-01 BMatC= 1.61D-15 BMatP= 6.25D-14
 IDIUse=1 WtCom= 1.00D+00 WtEn= 0.00D+00
 Coeff-Com:  0.505D-06-0.994D-06-0.701D-05 0.537D-04-0.102D-03-0.351D-05
 Coeff-Com:  0.223D-02-0.237D-01 0.461D-01-0.664D-01 0.163D+00-0.510D+00
 Coeff-Com:  0.139D+01
 Coeff:      0.505D-06-0.994D-06-0.701D-05 0.537D-04-0.102D-03-0.351D-05
 Coeff:      0.223D-02-0.237D-01 0.461D-01-0.664D-01 0.163D+00-0.510D+00
 Coeff:      0.139D+01
 Gap=     0.456 Goal=   None    Shift=    0.000
 RMSDP=6.24D-09 MaxDP=5.19D-08 DE=-1.71D-13 OVMax= 4.65D-08

 Cycle  14  Pass 2  IDiag  1:
 SCF Done:  E(RAM1) =  -3.87221119308     A.U. after   14 cycles
            NFock= 13  Conv=0.62D-08     -V/T= 0.8078
 KE=-2.014170119752D+01 PE=-1.737490672957D+02 EE= 8.552042073119D+01
 Leave Link  502 at Mon Dec  7 14:51:15 2015, MaxMem=    33554432 cpu:         0.0
 (Enter /home/Applications/g09/g09/l601.exe)
 Copying SCF densities to generalized density rwf, IOpCl= 0 IROHF=0.

 **********************************************************************

            Population analysis using the SCF density.

 **********************************************************************

 Orbital symmetries:
       Occupied  (A) (A) (A) (A) (A) (A) (A) (A) (A) (A) (A) (A)
                 (A)
       Virtual   (A) (A) (A) (A) (A) (A) (A) (A) (A) (A) (A)
 The electronic state is 1-A.
 Alpha  occ. eigenvalues --   -1.67410  -1.28268  -1.15086  -0.99492  -0.92794
 Alpha  occ. eigenvalues --   -0.89314  -0.85372  -0.69418  -0.66413  -0.64249
 Alpha  occ. eigenvalues --   -0.60350  -0.57921  -0.46409
 Alpha virt. eigenvalues --   -0.00827   0.03003   0.07584   0.11568   0.15210
 Alpha virt. eigenvalues --    0.15880   0.18862   0.19679   0.23759   0.25962
 Alpha virt. eigenvalues --    0.29463
          Condensed to atoms (all electrons):
               1          2          3          4          5          6
     1  C    4.625309   0.000000   0.000000   0.000000   0.000000   0.000000
     2  C    0.000000   2.982895   0.000000   0.000000   0.000000   0.000000
     3  O    0.000000   0.000000   7.016970   0.000000   0.000000   0.000000
     4  C    0.000000   0.000000   0.000000   3.105329   0.000000   0.000000
     5  C    0.000000   0.000000   0.000000   0.000000   4.493286   0.000000
     6  H    0.000000   0.000000   0.000000   0.000000   0.000000   0.825231
     7  H    0.000000   0.000000   0.000000   0.000000   0.000000   0.000000
     8  H    0.000000   0.000000   0.000000   0.000000   0.000000   0.000000
     9  H    0.000000   0.000000   0.000000   0.000000   0.000000   0.000000
               7          8          9
     1  C    0.000000   0.000000   0.000000
     2  C    0.000000   0.000000   0.000000
     3  O    0.000000   0.000000   0.000000
     4  C    0.000000   0.000000   0.000000
     5  C    0.000000   0.000000   0.000000
     6  H    0.000000   0.000000   0.000000
     7  H    1.057152   0.000000   0.000000
     8  H    0.000000   1.077279   0.000000
     9  H    0.000000   0.000000   0.816549
 Mulliken charges:
               1
     1  C   -0.625309
     2  C    1.017105
     3  O   -1.016970
     4  C    0.894671
     5  C   -0.493286
     6  H    0.174769
     7  H   -0.057152
     8  H   -0.077279
     9  H    0.183451
 Sum of Mulliken charges =   0.00000
 Mulliken charges with hydrogens summed into heavy atoms:
               1
     1  C   -0.441858
     2  C    0.939826
     3  O   -1.016970
     4  C    0.837519
     5  C   -0.318517
 Charge=              0.0000 electrons
 Dipole moment (field-independent basis, Debye):
    X=             -0.2890    Y=              0.7885    Z=              0.1513  Tot=              0.8533
 N-N= 1.044981365689D+02 E-N=-1.737490673562D+02  KE=-2.014170119752D+01
 Leave Link  601 at Mon Dec  7 14:51:15 2015, MaxMem=    33554432 cpu:         0.0
 (Enter /home/Applications/g09/g09/l701.exe)
 Compute integral first derivatives.
 ... and contract with generalized density number  0.
 Leave Link  701 at Mon Dec  7 14:51:15 2015, MaxMem=    33554432 cpu:         0.0
 (Enter /home/Applications/g09/g09/l702.exe)
 L702 exits ... SP integral derivatives will be done elsewhere.
 Leave Link  702 at Mon Dec  7 14:51:15 2015, MaxMem=    33554432 cpu:         0.0
 (Enter /home/Applications/g09/g09/l703.exe)
 Compute integral first derivatives, UseDBF=F ICtDFT=           0.
 Integral derivatives from FoFJK, PRISM(SPDF).
 Calling FoFJK, ICntrl=      2127 FMM=F ISym2X=0 I1Cent= 0 IOpClX= 0 NMat=1 NMatS=1 NMatT=0.
 FoFJK:  IHMeth= 8 ICntrl=    2127 DoSepK=F KAlg= 0 I1Cent=   0 FoldK=F
 IRaf=         0 NMat=   1 IRICut=       1 DoRegI=T DoRafI=F ISym2E= 0.
 FoFCou: FMM=F IPFlag=           0 FMFlag=      100000 FMFlg1=         800
         NFxFlg=           0 DoJE=F BraDBF=F KetDBF=F FulRan=T
         wScrn=  0.000000 ICntrl=    2127 IOpCl=  0 I1Cent=           0 NGrid=           0
         NMat0=    1 NMatS0=      1 NMatT0=    0 NMatD0=    1 NMtDS0=    0 NMtDT0=    0
 Symmetry not used in FoFCou.
 Leave Link  703 at Mon Dec  7 14:51:16 2015, MaxMem=    33554432 cpu:         0.0
 (Enter /home/Applications/g09/g09/l716.exe)
 Dipole        =-1.13697510D-01 3.10221016D-01 5.95096688D-02
 ***** Axes restored to original set *****
 -------------------------------------------------------------------
 Center     Atomic                   Forces (Hartrees/Bohr)
 Number     Number              X              Y              Z
 -------------------------------------------------------------------
      1        6          -0.075047533    0.008204817    0.002069558
      2        6           0.090997745   -0.107469706   -0.017131103
      3        8          -0.029516390    0.035458349    0.003960170
      4        6           0.066982540    0.025020089   -0.000815449
      5        6          -0.042177684   -0.000650952    0.007357842
      6        1          -0.005214619   -0.003385304   -0.003481102
      7        1          -0.009489994   -0.004207905   -0.001656543
      8        1           0.008006388    0.042977523    0.007118077
      9        1          -0.004540453    0.004053090    0.002578551
 -------------------------------------------------------------------
 Cartesian Forces:  Max     0.107469706 RMS     0.037061206
 Leave Link  716 at Mon Dec  7 14:51:16 2015, MaxMem=    33554432 cpu:         0.0
 (Enter /home/Applications/g09/g09/l103.exe)

 GradGradGradGradGradGradGradGradGradGradGradGradGradGradGradGradGradGrad
 Berny optimization.
 FormGI is forming the generalized inverse of G from B-inverse, IUseBI=4.
 Internal  Forces:  Max     0.068320785 RMS     0.019895864
 Search for a local minimum.
 Step number   1 out of a maximum of   48
 All quantities printed in internal units (Hartrees-Bohrs-Radians)
 RMS Force = .19896D-01 SwitMx=.10000D-02 MixMth= 1
 Mixed Optimization -- RFO/linear search
 Second derivative matrix not updated -- first step.
 ITU=  0
     Eigenvalues ---    0.01838   0.02178   0.02199   0.02590   0.02717
     Eigenvalues ---    0.02748   0.15903   0.15942   0.15983   0.15993
     Eigenvalues ---    0.22001   0.22919   0.30672   0.35573   0.35940
     Eigenvalues ---    0.36173   0.40741   0.46056   0.50449   0.54548
     Eigenvalues ---    0.63949
 RFO step:  Lambda=-3.40471014D-02 EMin= 1.83795528D-02
 Linear search not attempted -- first point.
 Iteration  1 RMS(Cart)=  0.03821022 RMS(Int)=  0.00284361
 Iteration  2 RMS(Cart)=  0.00246423 RMS(Int)=  0.00130772
 Iteration  3 RMS(Cart)=  0.00000849 RMS(Int)=  0.00130770
 Iteration  4 RMS(Cart)=  0.00000002 RMS(Int)=  0.00130770
 ITry= 1 IFail=0 DXMaxC= 1.06D-01 DCOld= 1.00D+10 DXMaxT= 3.00D-01 DXLimC= 3.00D+00 Rises=F
 Variable       Old X    -DE/DX   Delta X   Delta X   Delta X     New X
                                 (Linear)    (Quad)   (Total)
    R1        2.57246  -0.06832   0.00000  -0.12252  -0.12175   2.45071
    R2        2.75227   0.00153   0.00000  -0.00855  -0.00750   2.74478
    R3        2.03812  -0.00615   0.00000  -0.01554  -0.01554   2.02258
    R4        2.45912   0.05513   0.00000   0.08489   0.08431   2.54343
    R5        2.13343  -0.04257   0.00000  -0.12492  -0.12492   2.00851
    R6        2.58864   0.01486   0.00000   0.03395   0.03282   2.62146
    R7        2.53734  -0.04960   0.00000  -0.08629  -0.08642   2.45092
    R8        1.97258   0.00082   0.00000   0.00186   0.00186   1.97445
    R9        2.04755  -0.00630   0.00000  -0.01615  -0.01615   2.03140
    A1        1.79070   0.02274   0.00000   0.06700   0.06881   1.85950
    A2        2.26612  -0.01084   0.00000  -0.03067  -0.03165   2.23446
    A3        2.22572  -0.01187   0.00000  -0.03585  -0.03675   2.18896
    A4        1.98062  -0.02423   0.00000  -0.08207  -0.08286   1.89775
    A5        2.25501   0.02423   0.00000   0.10729   0.10604   2.36104
    A6        2.04089   0.00056   0.00000  -0.01556  -0.01705   2.02383
    A7        1.87547   0.00242   0.00000   0.04472   0.04277   1.91824
    A8        1.90403  -0.01369   0.00000  -0.05115  -0.05209   1.85194
    A9        2.03653  -0.00330   0.00000  -0.02672  -0.02626   2.01027
   A10        2.34217   0.01700   0.00000   0.07801   0.07848   2.42065
   A11        1.87326   0.01286   0.00000   0.02321   0.02402   1.89728
   A12        2.17048  -0.00594   0.00000  -0.00840  -0.00898   2.16150
   A13        2.23727  -0.00680   0.00000  -0.01295  -0.01360   2.22367
    D1        0.03238  -0.00221   0.00000  -0.03650  -0.03513  -0.00275
    D2        3.04461   0.00262   0.00000   0.05317   0.05562   3.10023
    D3       -3.07199  -0.00296   0.00000  -0.04968  -0.04904  -3.12103
    D4       -0.05976   0.00187   0.00000   0.03999   0.04172  -0.01805
    D5       -0.01458  -0.00001   0.00000   0.00961   0.01050  -0.00409
    D6        3.06117   0.00166   0.00000   0.03739   0.03763   3.09881
    D7        3.09097   0.00071   0.00000   0.02244   0.02399   3.11497
    D8       -0.11646   0.00239   0.00000   0.05022   0.05113  -0.06533
    D9       -0.03753   0.00286   0.00000   0.04699   0.04589   0.00836
   D10       -3.06675  -0.00353   0.00000  -0.04156  -0.03626  -3.10301
   D11        0.02603  -0.00235   0.00000  -0.03712  -0.03683  -0.01080
   D12       -3.08777  -0.00295   0.00000  -0.04285  -0.04236  -3.13013
   D13       -0.00625   0.00084   0.00000   0.01537   0.01508   0.00883
   D14       -3.07869  -0.00100   0.00000  -0.01412  -0.01361  -3.09230
   D15        3.10070   0.00095   0.00000   0.01942   0.01919   3.11990
   D16        0.02826  -0.00089   0.00000  -0.01007  -0.00949   0.01877
         Item               Value     Threshold  Converged?
 Maximum Force            0.068321     0.000450     NO 
 RMS     Force            0.019896     0.000300     NO 
 Maximum Displacement     0.105694     0.001800     NO 
 RMS     Displacement     0.038951     0.001200     NO 
 Predicted change in Energy=-1.884887D-02
 Lowest energy point so far.  Saving SCF results.
 GradGradGradGradGradGradGradGradGradGradGradGradGradGradGradGradGradGrad

 Leave Link  103 at Mon Dec  7 14:51:16 2015, MaxMem=    33554432 cpu:         0.0
 (Enter /home/Applications/g09/g09/l202.exe)
                          Input orientation:                          
 ---------------------------------------------------------------------
 Center     Atomic      Atomic             Coordinates (Angstroms)
 Number     Number       Type             X           Y           Z
 ---------------------------------------------------------------------
      1          6           0        0.916529   -0.708316   -0.009545
      2          6           0       -0.319554   -1.099737    0.017621
      3          8           0       -1.116519   -0.015135    0.017834
      4          6           0       -0.345619    1.137479   -0.021779
      5          6           0        0.890103    0.743748   -0.031697
      6          1           0        1.771585    1.358863   -0.018100
      7          1           0       -0.884022    2.032873   -0.013705
      8          1           0       -0.814157   -2.040468    0.009761
      9          1           0        1.799221   -1.313099   -0.034843
 ---------------------------------------------------------------------
                    Distance matrix (angstroms):
                    1          2          3          4          5
     1  C    0.000000
     2  C    1.296862   0.000000
     3  O    2.148147   1.345925   0.000000
     4  C    2.236096   2.237715   1.387218   0.000000
     5  C    1.452473   2.205479   2.145900   1.296970   0.000000
     6  H    2.237057   3.227825   3.198485   2.128750   1.074971
     7  H    3.279652   3.183213   2.061404   1.044832   2.193100
     8  H    2.184096   1.062859   2.047794   3.212455   3.264671
     9  H    1.070303   2.130138   3.192025   3.256661   2.248805
                    6          7          8          9
     6  H    0.000000
     7  H    2.739810   0.000000
     8  H    4.271099   4.074007   0.000000
     9  H    2.672158   4.289029   2.713080   0.000000
 Stoichiometry    C4H4O
 Framework group  C1[X(C4H4O)]
 Deg. of freedom    21
 Full point group                 C1      NOp   1
 RotChk:  IX=0 Diff= 4.34D-02
 Largest Abelian subgroup         C1      NOp   1
 Largest concise Abelian subgroup C1      NOp   1
                         Standard orientation:                         
 ---------------------------------------------------------------------
 Center     Atomic      Atomic             Coordinates (Angstroms)
 Number     Number       Type             X           Y           Z
 ---------------------------------------------------------------------
      1          6           0        0.743905    0.901796    0.001868
      2          6           0        1.100504   -0.345073    0.004592
      3          8           0       -0.006126   -1.111157    0.004938
      4          6           0       -1.136859   -0.307643   -0.008630
      5          6           0       -0.708483    0.916529   -0.003446
      6          1           0       -1.298233    1.814601    0.031568
      7          1           0       -2.046967   -0.820745    0.001465
      8          1           0        2.026722   -0.865708   -0.022362
      9          1           0        1.373077    1.767448   -0.016483
 ---------------------------------------------------------------------
 Rotational constants (GHZ):     10.1065979      9.2438173      4.8282852
 Leave Link  202 at Mon Dec  7 14:51:16 2015, MaxMem=    33554432 cpu:         0.0
 (Enter /home/Applications/g09/g09/l301.exe)

 Semi-emprical parameters in input format:
 Method=8 CoreType=1 PeptideFC=0.0112330000 RIJScale=0.5291770000
 ****
 H       
 PQN=1 NValence=1 F0ss=0.5237600000 ZetaOverlap=0.9601790000 U=-0.5223910000
 Beta=-0.2029260000 CoreKO=1.0644050000 KON=0,0,0,0.9730020000 KON=1,0,1,0.9833730000
 KON=0,1,1,1.0628700000 KON=2,1,1,1.0792230000 EISol=-0.4395468110 EHeat=0.0830298228
 Alpha=1.8213180000
 GCore=0.0075240000,1.9935190000,2.0426320000
 GCore=0.0049980000,1.7363170000,3.8655940000
 GCore=-0.0024160000,0.8585610000,2.9505260000
 ****
 C       
 PQN=2,2 NValence=4 F0ss=0.4547130000 F0sp=0.4023160000 F0pp=0.3368050000 F2pp=0.1899800000
 G1sp=0.1791820000
 ZetaOverlap=1.8501880000,1.4010880000
 U=-1.7437090000,-1.4903460000
 Beta=-0.6190810000,-0.3684690000 DDN=0,1,0.8264550000 DDN=1,1,0.7060810000
 CoreKO=0.9473960000 KON=0,0,0,1.0423320000 KON=1,0,1,0.9918320000 KON=0,1,1,0.9192110000
 KON=2,1,1,0.7447560000 EISol=-4.3315453857 EHeat=0.2723305520 Alpha=1.5254470000
 DipHyp=1.6528149066
 GCore=0.0051870000,1.6071440000,1.9728170000
 GCore=0.0008530000,1.8170010000,3.5594500000
 GCore=0.0020350000,1.8721920000,3.6278330000
 GCore=-0.0001990000,2.2720510000,4.7447420000
 ****
 O       
 PQN=2,2 NValence=6 F0ss=0.5599030000 F0sp=0.5456060000 F0pp=0.4568310000 F2pp=0.2547350000
 G1sp=0.3905540000
 ZetaOverlap=3.1793690000,2.5536190000
 U=-3.7487950000,-3.0290820000
 Beta=-1.1275620000,-1.0712800000 DDN=0,1,0.5230310000 DDN=1,1,0.4557020000
 CoreKO=1.0453130000 KON=0,0,0,0.9095110000 KON=1,0,1,0.4967410000 KON=0,1,1,0.8841900000
 KON=2,1,1,0.5885470000 EISol=-11.4672725099 EHeat=0.0949133088 Alpha=2.3276720000
 DipHyp=1.0460018191
 GCore=0.0166740000,1.4612690000,1.7069520000
 GCore=0.0053330000,2.1558110000,2.7169520000
 ****
 
 Standard basis: VSTO-6G (5D, 7F)
 Ernie: Thresh=  0.10000D-02 Tol=  0.10000D-05 Strict=F.
  NNHCO=     0 NNPyr=     0 NCTC=     0               EPep=         0.000000000
    EC=        70.939324600  ECS=         1.440882732   EG=         0.581241138
   EHC=         0.000000000  EAt=       -30.551641297  AtH=         1.516354808
 EPDDG=         0.000000000  ECC=        72.961448470 EAtT=        32.067996105
 There are    24 symmetry adapted cartesian basis functions of A   symmetry.
 There are    24 symmetry adapted basis functions of A   symmetry.
    24 basis functions,   144 primitive gaussians,    24 cartesian basis functions
    13 alpha electrons       13 beta electrons
       nuclear repulsion energy       105.0294445747 Hartrees.
 IExCor=    0 DFT=F Ex=HF Corr=None ExCW=0 ScaHFX=  1.000000
 ScaDFX=  1.000000  1.000000  1.000000  1.000000 ScalE2=  1.000000  1.000000
 IRadAn=      0 IRanWt=     -1 IRanGd=            0 ICorTp=0 IEmpDi=  4
 Integral buffers will be    131072 words long.
 Regular integral format.
 Two-electron integral symmetry is turned off.
 Leave Link  301 at Mon Dec  7 14:51:16 2015, MaxMem=    33554432 cpu:         0.0
 (Enter /home/Applications/g09/g09/l302.exe)
 Do NDO integrals.
 NPDir=0 NMtPBC=     1 NCelOv=     1 NCel=       1 NClECP=     1 NCelD=      1
         NCelK=      1 NCelE2=     1 NClLst=     1 CellRange=     0.0.
 One-electron integrals computed using PRISM.
 NBasis=    24 RedAO= F EigKep=  0.00D+00  NBF=    24
 NBsUse=    24 1.00D-04 EigRej=  0.00D+00 NBFU=    24
 Leave Link  302 at Mon Dec  7 14:51:16 2015, MaxMem=    33554432 cpu:         0.0
 (Enter /home/Applications/g09/g09/l303.exe)
 DipDrv:  MaxL=1.
 Leave Link  303 at Mon Dec  7 14:51:16 2015, MaxMem=    33554432 cpu:         0.0
 (Enter /home/Applications/g09/g09/l401.exe)
 Initial guess from the checkpoint file:  "/home/Applications/g09/scratch/Gau-10494.chk"
 B after Tr=     0.000000    0.000000    0.000000
         Rot=    0.999891    0.000052   -0.000270   -0.014758 Ang=   1.69 deg.
 Guess basis will be translated and rotated to current coordinates.
 JPrj=0 DoOrth=T DoCkMO=T.
 Leave Link  401 at Mon Dec  7 14:51:16 2015, MaxMem=    33554432 cpu:         0.0
 (Enter /home/Applications/g09/g09/l502.exe)
 Closed shell SCF:
 Using DIIS extrapolation, IDIIS=  1040.
 Overlap will be assumed to be unity.
 Two-electron integral symmetry not used.
 Keep J ints in memory in canonical form, NReq=888082.
 IVT=       79475 IEndB=       79475 NGot=    33554432 MDV=    33473473
 LenX=    33473473 LenY=    33472456
 Requested convergence on RMS density matrix=1.00D-08 within 128 cycles.
 Requested convergence on MAX density matrix=1.00D-06.
 Requested convergence on             energy=1.00D-06.
 No special actions if energy rises.
 FoFCou: FMM=F IPFlag=           0 FMFlag=           0 FMFlg1=           0
         NFxFlg=           0 DoJE=F BraDBF=F KetDBF=F FulRan=T
         wScrn=  0.000000 ICntrl=     600 IOpCl=  2 I1Cent=           0 NGrid=           0
         NMat0=    1 NMatS0=     54 NMatT0=    0 NMatD0=    1 NMtDS0=    0 NMtDT0=    0
 Symmetry not used in FoFCou.

 Cycle   1  Pass 1  IDiag  1:
 E= -3.88119409172082    
 DIIS: error= 9.20D-03 at cycle   1 NSaved=   1.
 NSaved= 1 IEnMin= 1 EnMin= -3.88119409172082     IErMin= 1 ErrMin= 9.20D-03
 ErrMax= 9.20D-03  0.00D+00 EMaxC= 1.00D-01 BMatC= 3.62D-03 BMatP= 3.62D-03
 IDIUse=3 WtCom= 9.08D-01 WtEn= 9.20D-02
 Coeff-Com:  0.100D+01
 Coeff-En:   0.100D+01
 Coeff:      0.100D+01
 GapD=    2.000 DampG=2.000 DampE=1.000 DampFc=2.0000 IDamp=-1.
 RMSDP=3.15D-03 MaxDP=1.47D-02              OVMax= 0.00D+00

 Cycle   2  Pass 1  IDiag  3:
 E= -3.88893757702553     Delta-E=       -0.007743485305 Rises=F Damp=F
 DIIS: error= 2.14D-03 at cycle   2 NSaved=   2.
 NSaved= 2 IEnMin= 2 EnMin= -3.88893757702553     IErMin= 2 ErrMin= 2.14D-03
 ErrMax= 2.14D-03  0.00D+00 EMaxC= 1.00D-01 BMatC= 2.59D-04 BMatP= 3.62D-03
 IDIUse=3 WtCom= 9.79D-01 WtEn= 2.14D-02
 Coeff-Com: -0.319D+00 0.132D+01
 Coeff-En:   0.000D+00 0.100D+01
 Coeff:     -0.312D+00 0.131D+01
 Gap=     0.485 Goal=   None    Shift=    0.000
 RMSDP=1.30D-03 MaxDP=7.03D-03 DE=-7.74D-03 OVMax= 6.30D-03

 Cycle   3  Pass 1  IDiag  3:
 E= -3.88970940323490     Delta-E=       -0.000771826209 Rises=F Damp=F
 DIIS: error= 5.88D-04 at cycle   3 NSaved=   3.
 NSaved= 3 IEnMin= 3 EnMin= -3.88970940323490     IErMin= 3 ErrMin= 5.88D-04
 ErrMax= 5.88D-04  0.00D+00 EMaxC= 1.00D-01 BMatC= 9.69D-06 BMatP= 2.59D-04
 IDIUse=3 WtCom= 9.94D-01 WtEn= 5.88D-03
 Coeff-Com:  0.109D+00-0.525D+00 0.142D+01
 Coeff-En:   0.000D+00 0.000D+00 0.100D+01
 Coeff:      0.109D+00-0.522D+00 0.141D+01
 Gap=     0.485 Goal=   None    Shift=    0.000
 RMSDP=3.84D-04 MaxDP=3.42D-03 DE=-7.72D-04 OVMax= 3.32D-03

 Cycle   4  Pass 1  IDiag  3:
 E= -3.88976169821483     Delta-E=       -0.000052294980 Rises=F Damp=F
 DIIS: error= 2.85D-04 at cycle   4 NSaved=   4.
 NSaved= 4 IEnMin= 4 EnMin= -3.88976169821483     IErMin= 4 ErrMin= 2.85D-04
 ErrMax= 2.85D-04  0.00D+00 EMaxC= 1.00D-01 BMatC= 1.75D-06 BMatP= 9.69D-06
 IDIUse=3 WtCom= 9.97D-01 WtEn= 2.85D-03
 Coeff-Com: -0.415D-01 0.209D+00-0.813D+00 0.165D+01
 Coeff-En:   0.000D+00 0.000D+00 0.000D+00 0.100D+01
 Coeff:     -0.414D-01 0.209D+00-0.811D+00 0.164D+01
 Gap=     0.485 Goal=   None    Shift=    0.000
 RMSDP=1.97D-04 MaxDP=1.98D-03 DE=-5.23D-05 OVMax= 1.66D-03

 Cycle   5  Pass 1  IDiag  3:
 E= -3.88977356932945     Delta-E=       -0.000011871115 Rises=F Damp=F
 DIIS: error= 1.39D-04 at cycle   5 NSaved=   5.
 NSaved= 5 IEnMin= 5 EnMin= -3.88977356932945     IErMin= 5 ErrMin= 1.39D-04
 ErrMax= 1.39D-04  0.00D+00 EMaxC= 1.00D-01 BMatC= 4.34D-07 BMatP= 1.75D-06
 IDIUse=3 WtCom= 9.99D-01 WtEn= 1.39D-03
 Coeff-Com:  0.122D-01-0.705D-01 0.457D+00-0.156D+01 0.216D+01
 Coeff-En:   0.000D+00 0.000D+00 0.000D+00 0.000D+00 0.100D+01
 Coeff:      0.122D-01-0.704D-01 0.456D+00-0.156D+01 0.216D+01
 Gap=     0.485 Goal=   None    Shift=    0.000
 RMSDP=1.44D-04 MaxDP=1.42D-03 DE=-1.19D-05 OVMax= 1.08D-03

 Cycle   6  Pass 1  IDiag  3:
 E= -3.88977737431161     Delta-E=       -0.000003804982 Rises=F Damp=F
 DIIS: error= 4.32D-05 at cycle   6 NSaved=   6.
 NSaved= 6 IEnMin= 6 EnMin= -3.88977737431161     IErMin= 6 ErrMin= 4.32D-05
 ErrMax= 4.32D-05  0.00D+00 EMaxC= 1.00D-01 BMatC= 5.98D-08 BMatP= 4.34D-07
 IDIUse=1 WtCom= 1.00D+00 WtEn= 0.00D+00
 Coeff-Com: -0.445D-02 0.290D-01-0.240D+00 0.952D+00-0.160D+01 0.187D+01
 Coeff:     -0.445D-02 0.290D-01-0.240D+00 0.952D+00-0.160D+01 0.187D+01
 Gap=     0.485 Goal=   None    Shift=    0.000
 RMSDP=4.96D-05 MaxDP=4.24D-04 DE=-3.80D-06 OVMax= 4.66D-04

 Cycle   7  Pass 1  IDiag  3:
 E= -3.88977792041261     Delta-E=       -0.000000546101 Rises=F Damp=F
 DIIS: error= 2.88D-05 at cycle   7 NSaved=   7.
 NSaved= 7 IEnMin= 7 EnMin= -3.88977792041261     IErMin= 7 ErrMin= 2.88D-05
 ErrMax= 2.88D-05  0.00D+00 EMaxC= 1.00D-01 BMatC= 1.76D-08 BMatP= 5.98D-08
 IDIUse=1 WtCom= 1.00D+00 WtEn= 0.00D+00
 Coeff-Com:  0.552D-02-0.355D-01 0.304D+00-0.125D+01 0.221D+01-0.326D+01
 Coeff-Com:  0.303D+01
 Coeff:      0.552D-02-0.355D-01 0.304D+00-0.125D+01 0.221D+01-0.326D+01
 Coeff:      0.303D+01
 Gap=     0.485 Goal=   None    Shift=    0.000
 RMSDP=4.41D-05 MaxDP=3.80D-04 DE=-5.46D-07 OVMax= 4.38D-04

 Cycle   8  Pass 1  IDiag  3:
 E= -3.88977813589506     Delta-E=       -0.000000215482 Rises=F Damp=F
 DIIS: error= 5.60D-06 at cycle   8 NSaved=   8.
 NSaved= 8 IEnMin= 8 EnMin= -3.88977813589506     IErMin= 8 ErrMin= 5.60D-06
 ErrMax= 5.60D-06  0.00D+00 EMaxC= 1.00D-01 BMatC= 8.20D-10 BMatP= 1.76D-08
 IDIUse=1 WtCom= 1.00D+00 WtEn= 0.00D+00
 Coeff-Com: -0.219D-02 0.144D-01-0.126D+00 0.523D+00-0.930D+00 0.140D+01
 Coeff-Com: -0.150D+01 0.161D+01
 Coeff:     -0.219D-02 0.144D-01-0.126D+00 0.523D+00-0.930D+00 0.140D+01
 Coeff:     -0.150D+01 0.161D+01
 Gap=     0.485 Goal=   None    Shift=    0.000
 RMSDP=8.55D-06 MaxDP=7.74D-05 DE=-2.15D-07 OVMax= 8.05D-05

 Cycle   9  Pass 1  IDiag  3:
 E= -3.88977814352559     Delta-E=       -0.000000007631 Rises=F Damp=F
 DIIS: error= 5.35D-07 at cycle   9 NSaved=   9.
 NSaved= 9 IEnMin= 9 EnMin= -3.88977814352559     IErMin= 9 ErrMin= 5.35D-07
 ErrMax= 5.35D-07  0.00D+00 EMaxC= 1.00D-01 BMatC= 1.95D-11 BMatP= 8.20D-10
 IDIUse=1 WtCom= 1.00D+00 WtEn= 0.00D+00
 Coeff-Com:  0.838D-03-0.546D-02 0.473D-01-0.196D+00 0.348D+00-0.527D+00
 Coeff-Com:  0.572D+00-0.705D+00 0.147D+01
 Coeff:      0.838D-03-0.546D-02 0.473D-01-0.196D+00 0.348D+00-0.527D+00
 Coeff:      0.572D+00-0.705D+00 0.147D+01
 Gap=     0.485 Goal=   None    Shift=    0.000
 RMSDP=7.14D-07 MaxDP=4.40D-06 DE=-7.63D-09 OVMax= 4.55D-06

 Cycle  10  Pass 1  IDiag  3:
 E= -3.88977814362548     Delta-E=       -0.000000000100 Rises=F Damp=F
 DIIS: error= 9.13D-08 at cycle  10 NSaved=  10.
 NSaved=10 IEnMin=10 EnMin= -3.88977814362548     IErMin=10 ErrMin= 9.13D-08
 ErrMax= 9.13D-08  0.00D+00 EMaxC= 1.00D-01 BMatC= 5.72D-13 BMatP= 1.95D-11
 IDIUse=1 WtCom= 1.00D+00 WtEn= 0.00D+00
 Coeff-Com: -0.279D-03 0.183D-02-0.159D-01 0.660D-01-0.118D+00 0.179D+00
 Coeff-Com: -0.194D+00 0.246D+00-0.593D+00 0.143D+01
 Coeff:     -0.279D-03 0.183D-02-0.159D-01 0.660D-01-0.118D+00 0.179D+00
 Coeff:     -0.194D+00 0.246D+00-0.593D+00 0.143D+01
 Gap=     0.485 Goal=   None    Shift=    0.000
 RMSDP=1.01D-07 MaxDP=5.11D-07 DE=-9.99D-11 OVMax= 7.77D-07

 Cycle  11  Pass 1  IDiag  3:
 E= -3.88977814362875     Delta-E=       -0.000000000003 Rises=F Damp=F
 DIIS: error= 1.71D-08 at cycle  11 NSaved=  11.
 NSaved=11 IEnMin=11 EnMin= -3.88977814362875     IErMin=11 ErrMin= 1.71D-08
 ErrMax= 1.71D-08  0.00D+00 EMaxC= 1.00D-01 BMatC= 1.49D-14 BMatP= 5.72D-13
 IDIUse=1 WtCom= 1.00D+00 WtEn= 0.00D+00
 Coeff-Com:  0.572D-04-0.379D-03 0.335D-02-0.139D-01 0.248D-01-0.378D-01
 Coeff-Com:  0.410D-01-0.536D-01 0.134D+00-0.419D+00 0.132D+01
 Coeff:      0.572D-04-0.379D-03 0.335D-02-0.139D-01 0.248D-01-0.378D-01
 Coeff:      0.410D-01-0.536D-01 0.134D+00-0.419D+00 0.132D+01
 Gap=     0.485 Goal=   None    Shift=    0.000
 RMSDP=1.90D-08 MaxDP=1.27D-07 DE=-3.27D-12 OVMax= 1.18D-07

 Cycle  12  Pass 1  IDiag  3:
 E= -3.88977814362833     Delta-E=        0.000000000000 Rises=F Damp=F
 DIIS: error= 2.45D-09 at cycle  12 NSaved=  12.
 NSaved=12 IEnMin=11 EnMin= -3.88977814362875     IErMin=12 ErrMin= 2.45D-09
 ErrMax= 2.45D-09  0.00D+00 EMaxC= 1.00D-01 BMatC= 4.72D-16 BMatP= 1.49D-14
 IDIUse=1 WtCom= 1.00D+00 WtEn= 0.00D+00
 Coeff-Com: -0.493D-05 0.340D-04-0.311D-03 0.129D-02-0.233D-02 0.359D-02
 Coeff-Com: -0.386D-02 0.543D-02-0.147D-01 0.601D-01-0.349D+00 0.130D+01
 Coeff:     -0.493D-05 0.340D-04-0.311D-03 0.129D-02-0.233D-02 0.359D-02
 Coeff:     -0.386D-02 0.543D-02-0.147D-01 0.601D-01-0.349D+00 0.130D+01
 Gap=     0.485 Goal=   None    Shift=    0.000
 RMSDP=2.92D-09 MaxDP=1.38D-08 DE= 4.12D-13 OVMax= 2.04D-08

 Cycle  13  Pass 2  IDiag  1:
 SCF Done:  E(RAM1) =  -3.88977814363     A.U. after   13 cycles
            NFock= 12  Conv=0.29D-08     -V/T= 0.8076
 KE=-2.022027093777D+01 PE=-1.748011060872D+02 EE= 8.610215430664D+01
 Leave Link  502 at Mon Dec  7 14:51:16 2015, MaxMem=    33554432 cpu:         0.0
 (Enter /home/Applications/g09/g09/l701.exe)
 Compute integral first derivatives.
 ... and contract with generalized density number  0.
 Leave Link  701 at Mon Dec  7 14:51:16 2015, MaxMem=    33554432 cpu:         0.0
 (Enter /home/Applications/g09/g09/l702.exe)
 L702 exits ... SP integral derivatives will be done elsewhere.
 Leave Link  702 at Mon Dec  7 14:51:16 2015, MaxMem=    33554432 cpu:         0.0
 (Enter /home/Applications/g09/g09/l703.exe)
 Compute integral first derivatives, UseDBF=F ICtDFT=           0.
 Integral derivatives from FoFJK, PRISM(SPDF).
 Calling FoFJK, ICntrl=      2127 FMM=F ISym2X=0 I1Cent= 0 IOpClX= 0 NMat=1 NMatS=1 NMatT=0.
 FoFJK:  IHMeth= 8 ICntrl=    2127 DoSepK=F KAlg= 0 I1Cent=   0 FoldK=F
 IRaf=         0 NMat=   1 IRICut=       1 DoRegI=T DoRafI=F ISym2E= 0.
 FoFCou: FMM=F IPFlag=           0 FMFlag=      100000 FMFlg1=         800
         NFxFlg=           0 DoJE=F BraDBF=F KetDBF=F FulRan=T
         wScrn=  0.000000 ICntrl=    2127 IOpCl=  0 I1Cent=           0 NGrid=           0
         NMat0=    1 NMatS0=      1 NMatT0=    0 NMatD0=    1 NMtDS0=    0 NMtDT0=    0
 Symmetry not used in FoFCou.
 Leave Link  703 at Mon Dec  7 14:51:16 2015, MaxMem=    33554432 cpu:         0.0
 (Enter /home/Applications/g09/g09/l716.exe)
 Dipole        =-6.55470981D-02 5.00744390D-01-3.44117848D-03
 ***** Axes restored to original set *****
 -------------------------------------------------------------------
 Center     Atomic                   Forces (Hartrees/Bohr)
 Number     Number              X              Y              Z
 -------------------------------------------------------------------
      1        6           0.019053886    0.005105849   -0.002248613
      2        6           0.001367169   -0.044867441   -0.002508956
      3        8          -0.031172133    0.019229999   -0.001274972
      4        6          -0.003126408    0.007920688    0.003314547
      5        6           0.021663723    0.003506557    0.002827186
      6        1           0.000205975   -0.000598744   -0.002213704
      7        1          -0.006344748   -0.004060888   -0.001051075
      8        1          -0.003688356    0.013380300    0.002133810
      9        1           0.002040892    0.000383681    0.001021776
 -------------------------------------------------------------------
 Cartesian Forces:  Max     0.044867441 RMS     0.013048841
 Leave Link  716 at Mon Dec  7 14:51:16 2015, MaxMem=    33554432 cpu:         0.0
 (Enter /home/Applications/g09/g09/l103.exe)

 GradGradGradGradGradGradGradGradGradGradGradGradGradGradGradGradGradGrad
 Berny optimization.
 Using GEDIIS/GDIIS optimizer.
 FormGI is forming the generalized inverse of G from B-inverse, IUseBI=4.
 Internal  Forces:  Max     0.027447402 RMS     0.007994280
 Search for a local minimum.
 Step number   2 out of a maximum of   48
 All quantities printed in internal units (Hartrees-Bohrs-Radians)
 RMS Force = .79943D-02 SwitMx=.10000D-02 MixMth= 1
 Mixed Optimization -- RFO/linear search
 Update second derivatives using D2CorX and points    1    2
 DE= -1.76D-02 DEPred=-1.88D-02 R= 9.32D-01
 TightC=F SS=  1.41D+00  RLast= 3.24D-01 DXNew= 5.0454D-01 9.7211D-01
 Trust test= 9.32D-01 RLast= 3.24D-01 DXMaxT set to 5.05D-01
 ITU=  1  0
 Use linear search instead of GDIIS.
     Eigenvalues ---    0.01821   0.02147   0.02181   0.02612   0.02704
     Eigenvalues ---    0.02751   0.14024   0.15984   0.15992   0.15998
     Eigenvalues ---    0.21685   0.24318   0.28723   0.35560   0.36031
     Eigenvalues ---    0.36257   0.40742   0.46666   0.49254   0.57342
     Eigenvalues ---    0.77120
 RFO step:  Lambda=-6.30249678D-03 EMin= 1.82136225D-02
 Quartic linear search produced a step of  0.01583.
 Iteration  1 RMS(Cart)=  0.02807847 RMS(Int)=  0.00138663
 Iteration  2 RMS(Cart)=  0.00105517 RMS(Int)=  0.00065176
 Iteration  3 RMS(Cart)=  0.00000183 RMS(Int)=  0.00065176
 Iteration  4 RMS(Cart)=  0.00000000 RMS(Int)=  0.00065176
 ITry= 1 IFail=0 DXMaxC= 7.54D-02 DCOld= 1.00D+10 DXMaxT= 5.05D-01 DXLimC= 3.00D+00 Rises=F
 Variable       Old X    -DE/DX   Delta X   Delta X   Delta X     New X
                                 (Linear)    (Quad)   (Total)
    R1        2.45071   0.02510  -0.00193   0.03086   0.02896   2.47968
    R2        2.74478   0.00669  -0.00012   0.01517   0.01507   2.75985
    R3        2.02258   0.00144  -0.00025   0.00162   0.00138   2.02396
    R4        2.54343   0.02745   0.00133   0.05555   0.05687   2.60030
    R5        2.00851  -0.01014  -0.00198  -0.05137  -0.05335   1.95516
    R6        2.62146   0.00611   0.00052   0.01652   0.01702   2.63848
    R7        2.45092   0.02070  -0.00137   0.02120   0.01982   2.47074
    R8        1.97445  -0.00022   0.00003  -0.00025  -0.00022   1.97422
    R9        2.03140  -0.00020  -0.00026  -0.00299  -0.00324   2.02816
    A1        1.85950   0.00084   0.00109   0.01507   0.01625   1.87576
    A2        2.23446   0.00103  -0.00050   0.00189   0.00121   2.23567
    A3        2.18896  -0.00186  -0.00058  -0.01644  -0.01721   2.17176
    A4        1.89775  -0.00174  -0.00131  -0.01263  -0.01403   1.88372
    A5        2.36104   0.01045   0.00168   0.07396   0.07531   2.43636
    A6        2.02383  -0.00869  -0.00027  -0.06014  -0.06073   1.96310
    A7        1.91824  -0.00531   0.00068  -0.01102  -0.01018   1.90806
    A8        1.85194   0.00750  -0.00082   0.01891   0.01793   1.86987
    A9        2.01027  -0.01115  -0.00042  -0.06160  -0.06232   1.94795
   A10        2.42065   0.00369   0.00124   0.04372   0.04462   2.46527
   A11        1.89728  -0.00129   0.00038  -0.01019  -0.00990   1.88738
   A12        2.16150   0.00007  -0.00014   0.00246   0.00201   2.16351
   A13        2.22367   0.00125  -0.00022   0.00915   0.00863   2.23230
    D1       -0.00275   0.00028  -0.00056   0.00245   0.00195  -0.00080
    D2        3.10023   0.00098   0.00088   0.04197   0.04403  -3.13893
    D3       -3.12103  -0.00021  -0.00078  -0.02133  -0.02253   3.13963
    D4       -0.01805   0.00050   0.00066   0.01819   0.01955   0.00151
    D5       -0.00409   0.00007   0.00017   0.00497   0.00511   0.00102
    D6        3.09881   0.00101   0.00060   0.04230   0.04293  -3.14145
    D7        3.11497   0.00058   0.00038   0.02826   0.02875  -3.13946
    D8       -0.06533   0.00152   0.00081   0.06559   0.06658   0.00125
    D9        0.00836  -0.00050   0.00073  -0.00872  -0.00802   0.00034
   D10       -3.10301  -0.00150  -0.00057  -0.04278  -0.04067   3.13950
   D11       -0.01080   0.00050  -0.00058   0.01157   0.01112   0.00032
   D12       -3.13013  -0.00067  -0.00067  -0.02451  -0.02300   3.13006
   D13        0.00883  -0.00028   0.00024  -0.00973  -0.00961  -0.00079
   D14       -3.09230  -0.00123  -0.00022  -0.04855  -0.04916  -3.14146
   D15        3.11990   0.00105   0.00030   0.03734   0.03851  -3.12477
   D16        0.01877   0.00010  -0.00015  -0.00148  -0.00103   0.01774
         Item               Value     Threshold  Converged?
 Maximum Force            0.027447     0.000450     NO 
 RMS     Force            0.007994     0.000300     NO 
 Maximum Displacement     0.075415     0.001800     NO 
 RMS     Displacement     0.027971     0.001200     NO 
 Predicted change in Energy=-3.288782D-03
 Lowest energy point so far.  Saving SCF results.
 GradGradGradGradGradGradGradGradGradGradGradGradGradGradGradGradGradGrad

 Leave Link  103 at Mon Dec  7 14:51:16 2015, MaxMem=    33554432 cpu:         0.0
 (Enter /home/Applications/g09/g09/l202.exe)
                          Input orientation:                          
 ---------------------------------------------------------------------
 Center     Atomic      Atomic             Coordinates (Angstroms)
 Number     Number       Type             X           Y           Z
 ---------------------------------------------------------------------
      1          6           0        0.930053   -0.711633   -0.015061
      2          6           0       -0.316006   -1.122553    0.002757
      3          8           0       -1.128266   -0.011867    0.009470
      4          6           0       -0.337616    1.138823   -0.005454
      5          6           0        0.910174    0.748666   -0.021108
      6          1           0        1.792045    1.360206   -0.035234
      7          1           0       -0.920283    2.005933   -0.012109
      8          1           0       -0.854065   -2.006176    0.015288
      9          1           0        1.821532   -1.305190   -0.023000
 ---------------------------------------------------------------------
                    Distance matrix (angstroms):
                    1          2          3          4          5
     1  C    0.000000
     2  C    1.312188   0.000000
     3  O    2.174155   1.376021   0.000000
     4  C    2.243048   2.261494   1.396223   0.000000
     5  C    1.460447   2.237309   2.175910   1.307458   0.000000
     6  H    2.244094   3.257210   3.226887   2.141344   1.073256
     7  H    3.287692   3.186346   2.028606   1.044713   2.220670
     8  H    2.204505   1.034628   2.013080   3.187188   3.271548
     9  H    1.071031   2.145481   3.221032   3.261200   2.246976
                    6          7          8          9
     6  H    0.000000
     7  H    2.788229   0.000000
     8  H    4.282171   4.012749   0.000000
     9  H    2.665587   4.298977   2.766165   0.000000
 Stoichiometry    C4H4O
 Framework group  C1[X(C4H4O)]
 Deg. of freedom    21
 Full point group                 C1      NOp   1
 RotChk:  IX=2 Diff= 3.23D-02
 Largest Abelian subgroup         C1      NOp   1
 Largest concise Abelian subgroup C1      NOp   1
                         Standard orientation:                         
 ---------------------------------------------------------------------
 Center     Atomic      Atomic             Coordinates (Angstroms)
 Number     Number       Type             X           Y           Z
 ---------------------------------------------------------------------
      1          6           0        0.725581    0.927164   -0.000472
      2          6           0        1.128219   -0.321723   -0.000806
      3          8           0        0.012157   -1.126608    0.000639
      4          6           0       -1.133265   -0.328206    0.001471
      5          6           0       -0.734832    0.917064    0.000177
      6          1           0       -1.340506    1.803086    0.000425
      7          1           0       -2.004283   -0.904965   -0.008626
      8          1           0        2.008264   -0.865757    0.000523
      9          1           0        1.325056    1.814709    0.000348
 ---------------------------------------------------------------------
 Rotational constants (GHZ):      9.8379940      9.1586316      4.7430924
 Leave Link  202 at Mon Dec  7 14:51:16 2015, MaxMem=    33554432 cpu:         0.0
 (Enter /home/Applications/g09/g09/l301.exe)

 Semi-emprical parameters in input format:
 Method=8 CoreType=1 PeptideFC=0.0112330000 RIJScale=0.5291770000
 ****
 H       
 PQN=1 NValence=1 F0ss=0.5237600000 ZetaOverlap=0.9601790000 U=-0.5223910000
 Beta=-0.2029260000 CoreKO=1.0644050000 KON=0,0,0,0.9730020000 KON=1,0,1,0.9833730000
 KON=0,1,1,1.0628700000 KON=2,1,1,1.0792230000 EISol=-0.4395468110 EHeat=0.0830298228
 Alpha=1.8213180000
 GCore=0.0075240000,1.9935190000,2.0426320000
 GCore=0.0049980000,1.7363170000,3.8655940000
 GCore=-0.0024160000,0.8585610000,2.9505260000
 ****
 C       
 PQN=2,2 NValence=4 F0ss=0.4547130000 F0sp=0.4023160000 F0pp=0.3368050000 F2pp=0.1899800000
 G1sp=0.1791820000
 ZetaOverlap=1.8501880000,1.4010880000
 U=-1.7437090000,-1.4903460000
 Beta=-0.6190810000,-0.3684690000 DDN=0,1,0.8264550000 DDN=1,1,0.7060810000
 CoreKO=0.9473960000 KON=0,0,0,1.0423320000 KON=1,0,1,0.9918320000 KON=0,1,1,0.9192110000
 KON=2,1,1,0.7447560000 EISol=-4.3315453857 EHeat=0.2723305520 Alpha=1.5254470000
 DipHyp=1.6528149066
 GCore=0.0051870000,1.6071440000,1.9728170000
 GCore=0.0008530000,1.8170010000,3.5594500000
 GCore=0.0020350000,1.8721920000,3.6278330000
 GCore=-0.0001990000,2.2720510000,4.7447420000
 ****
 O       
 PQN=2,2 NValence=6 F0ss=0.5599030000 F0sp=0.5456060000 F0pp=0.4568310000 F2pp=0.2547350000
 G1sp=0.3905540000
 ZetaOverlap=3.1793690000,2.5536190000
 U=-3.7487950000,-3.0290820000
 Beta=-1.1275620000,-1.0712800000 DDN=0,1,0.5230310000 DDN=1,1,0.4557020000
 CoreKO=1.0453130000 KON=0,0,0,0.9095110000 KON=1,0,1,0.4967410000 KON=0,1,1,0.8841900000
 KON=2,1,1,0.5885470000 EISol=-11.4672725099 EHeat=0.0949133088 Alpha=2.3276720000
 DipHyp=1.0460018191
 GCore=0.0166740000,1.4612690000,1.7069520000
 GCore=0.0053330000,2.1558110000,2.7169520000
 ****
 
 Standard basis: VSTO-6G (5D, 7F)
 Ernie: Thresh=  0.10000D-02 Tol=  0.10000D-05 Strict=F.
  NNHCO=     0 NNPyr=     0 NCTC=     0               EPep=         0.000000000
    EC=        70.539208794  ECS=         1.400837995   EG=         0.556237212
   EHC=         0.000000000  EAt=       -30.551641297  AtH=         1.516354808
 EPDDG=         0.000000000  ECC=        72.496284000 EAtT=        32.067996105
 There are    24 symmetry adapted cartesian basis functions of A   symmetry.
 There are    24 symmetry adapted basis functions of A   symmetry.
    24 basis functions,   144 primitive gaussians,    24 cartesian basis functions
    13 alpha electrons       13 beta electrons
       nuclear repulsion energy       104.5642801050 Hartrees.
 IExCor=    0 DFT=F Ex=HF Corr=None ExCW=0 ScaHFX=  1.000000
 ScaDFX=  1.000000  1.000000  1.000000  1.000000 ScalE2=  1.000000  1.000000
 IRadAn=      0 IRanWt=     -1 IRanGd=            0 ICorTp=0 IEmpDi=  4
 Integral buffers will be    131072 words long.
 Regular integral format.
 Two-electron integral symmetry is turned off.
 Leave Link  301 at Mon Dec  7 14:51:16 2015, MaxMem=    33554432 cpu:         0.0
 (Enter /home/Applications/g09/g09/l302.exe)
 Do NDO integrals.
 NPDir=0 NMtPBC=     1 NCelOv=     1 NCel=       1 NClECP=     1 NCelD=      1
         NCelK=      1 NCelE2=     1 NClLst=     1 CellRange=     0.0.
 One-electron integrals computed using PRISM.
 NBasis=    24 RedAO= F EigKep=  0.00D+00  NBF=    24
 NBsUse=    24 1.00D-04 EigRej=  0.00D+00 NBFU=    24
 Leave Link  302 at Mon Dec  7 14:51:16 2015, MaxMem=    33554432 cpu:         0.0
 (Enter /home/Applications/g09/g09/l303.exe)
 DipDrv:  MaxL=1.
 Leave Link  303 at Mon Dec  7 14:51:16 2015, MaxMem=    33554432 cpu:         0.0
 (Enter /home/Applications/g09/g09/l401.exe)
 Initial guess from the checkpoint file:  "/home/Applications/g09/scratch/Gau-10494.chk"
 B after Tr=     0.000000    0.000000    0.000000
         Rot=    0.999945    0.000006   -0.000018   -0.010459 Ang=   1.20 deg.
 Guess basis will be translated and rotated to current coordinates.
 JPrj=0 DoOrth=T DoCkMO=T.
 Leave Link  401 at Mon Dec  7 14:51:16 2015, MaxMem=    33554432 cpu:         0.0
 (Enter /home/Applications/g09/g09/l502.exe)
 Closed shell SCF:
 Using DIIS extrapolation, IDIIS=  1040.
 Overlap will be assumed to be unity.
 Two-electron integral symmetry not used.
 Keep J ints in memory in canonical form, NReq=888082.
 IVT=       79475 IEndB=       79475 NGot=    33554432 MDV=    33473473
 LenX=    33473473 LenY=    33472456
 Requested convergence on RMS density matrix=1.00D-08 within 128 cycles.
 Requested convergence on MAX density matrix=1.00D-06.
 Requested convergence on             energy=1.00D-06.
 No special actions if energy rises.
 FoFCou: FMM=F IPFlag=           0 FMFlag=           0 FMFlg1=           0
         NFxFlg=           0 DoJE=F BraDBF=F KetDBF=F FulRan=T
         wScrn=  0.000000 ICntrl=     600 IOpCl=  2 I1Cent=           0 NGrid=           0
         NMat0=    1 NMatS0=     54 NMatT0=    0 NMatD0=    1 NMtDS0=    0 NMtDT0=    0
 Symmetry not used in FoFCou.

 Cycle   1  Pass 1  IDiag  1:
 E= -3.89152591658139    
 DIIS: error= 4.65D-03 at cycle   1 NSaved=   1.
 NSaved= 1 IEnMin= 1 EnMin= -3.89152591658139     IErMin= 1 ErrMin= 4.65D-03
 ErrMax= 4.65D-03  0.00D+00 EMaxC= 1.00D-01 BMatC= 5.15D-04 BMatP= 5.15D-04
 IDIUse=3 WtCom= 9.53D-01 WtEn= 4.65D-02
 Coeff-Com:  0.100D+01
 Coeff-En:   0.100D+01
 Coeff:      0.100D+01
 GapD=    2.000 DampG=2.000 DampE=1.000 DampFc=2.0000 IDamp=-1.
 RMSDP=1.26D-03 MaxDP=5.86D-03              OVMax= 0.00D+00

 Cycle   2  Pass 1  IDiag  3:
 E= -3.89272600745206     Delta-E=       -0.001200090871 Rises=F Damp=F
 DIIS: error= 1.17D-03 at cycle   2 NSaved=   2.
 NSaved= 2 IEnMin= 2 EnMin= -3.89272600745206     IErMin= 2 ErrMin= 1.17D-03
 ErrMax= 1.17D-03  0.00D+00 EMaxC= 1.00D-01 BMatC= 4.31D-05 BMatP= 5.15D-04
 IDIUse=3 WtCom= 9.88D-01 WtEn= 1.17D-02
 Coeff-Com: -0.360D+00 0.136D+01
 Coeff-En:   0.000D+00 0.100D+01
 Coeff:     -0.356D+00 0.136D+01
 Gap=     0.480 Goal=   None    Shift=    0.000
 RMSDP=5.77D-04 MaxDP=2.23D-03 DE=-1.20D-03 OVMax= 3.08D-03

 Cycle   3  Pass 1  IDiag  3:
 E= -3.89286548899467     Delta-E=       -0.000139481543 Rises=F Damp=F
 DIIS: error= 2.12D-04 at cycle   3 NSaved=   3.
 NSaved= 3 IEnMin= 3 EnMin= -3.89286548899467     IErMin= 3 ErrMin= 2.12D-04
 ErrMax= 2.12D-04  0.00D+00 EMaxC= 1.00D-01 BMatC= 1.66D-06 BMatP= 4.31D-05
 IDIUse=3 WtCom= 9.98D-01 WtEn= 2.12D-03
 Coeff-Com:  0.152D+00-0.626D+00 0.147D+01
 Coeff-En:   0.000D+00 0.000D+00 0.100D+01
 Coeff:      0.151D+00-0.625D+00 0.147D+01
 Gap=     0.480 Goal=   None    Shift=    0.000
 RMSDP=1.63D-04 MaxDP=1.19D-03 DE=-1.39D-04 OVMax= 1.48D-03

 Cycle   4  Pass 1  IDiag  3:
 E= -3.89287514007391     Delta-E=       -0.000009651079 Rises=F Damp=F
 DIIS: error= 1.43D-04 at cycle   4 NSaved=   4.
 NSaved= 4 IEnMin= 4 EnMin= -3.89287514007391     IErMin= 4 ErrMin= 1.43D-04
 ErrMax= 1.43D-04  0.00D+00 EMaxC= 1.00D-01 BMatC= 4.34D-07 BMatP= 1.66D-06
 IDIUse=3 WtCom= 9.99D-01 WtEn= 1.43D-03
 Coeff-Com: -0.626D-01 0.277D+00-0.969D+00 0.175D+01
 Coeff-En:   0.000D+00 0.000D+00 0.000D+00 0.100D+01
 Coeff:     -0.625D-01 0.277D+00-0.967D+00 0.175D+01
 Gap=     0.480 Goal=   None    Shift=    0.000
 RMSDP=1.07D-04 MaxDP=9.98D-04 DE=-9.65D-06 OVMax= 1.06D-03

 Cycle   5  Pass 1  IDiag  3:
 E= -3.89287862089323     Delta-E=       -0.000003480819 Rises=F Damp=F
 DIIS: error= 7.61D-05 at cycle   5 NSaved=   5.
 NSaved= 5 IEnMin= 5 EnMin= -3.89287862089323     IErMin= 5 ErrMin= 7.61D-05
 ErrMax= 7.61D-05  0.00D+00 EMaxC= 1.00D-01 BMatC= 1.53D-07 BMatP= 4.34D-07
 IDIUse=1 WtCom= 1.00D+00 WtEn= 0.00D+00
 Coeff-Com:  0.223D-01-0.108D+00 0.620D+00-0.209D+01 0.256D+01
 Coeff:      0.223D-01-0.108D+00 0.620D+00-0.209D+01 0.256D+01
 Gap=     0.480 Goal=   None    Shift=    0.000
 RMSDP=1.17D-04 MaxDP=1.05D-03 DE=-3.48D-06 OVMax= 1.14D-03

 Cycle   6  Pass 1  IDiag  3:
 E= -3.89288043262251     Delta-E=       -0.000001811729 Rises=F Damp=F
 DIIS: error= 2.42D-05 at cycle   6 NSaved=   6.
 NSaved= 6 IEnMin= 6 EnMin= -3.89288043262251     IErMin= 6 ErrMin= 2.42D-05
 ErrMax= 2.42D-05  0.00D+00 EMaxC= 1.00D-01 BMatC= 1.63D-08 BMatP= 1.53D-07
 IDIUse=1 WtCom= 1.00D+00 WtEn= 0.00D+00
 Coeff-Com: -0.591D-02 0.309D-01-0.241D+00 0.103D+01-0.162D+01 0.180D+01
 Coeff:     -0.591D-02 0.309D-01-0.241D+00 0.103D+01-0.162D+01 0.180D+01
 Gap=     0.480 Goal=   None    Shift=    0.000
 RMSDP=3.54D-05 MaxDP=2.71D-04 DE=-1.81D-06 OVMax= 3.43D-04

 Cycle   7  Pass 1  IDiag  3:
 E= -3.89288059516120     Delta-E=       -0.000000162539 Rises=F Damp=F
 DIIS: error= 1.00D-05 at cycle   7 NSaved=   7.
 NSaved= 7 IEnMin= 7 EnMin= -3.89288059516120     IErMin= 7 ErrMin= 1.00D-05
 ErrMax= 1.00D-05  0.00D+00 EMaxC= 1.00D-01 BMatC= 2.12D-09 BMatP= 1.63D-08
 IDIUse=1 WtCom= 1.00D+00 WtEn= 0.00D+00
 Coeff-Com:  0.138D-02-0.104D-01 0.148D+00-0.743D+00 0.127D+01-0.176D+01
 Coeff-Com:  0.209D+01
 Coeff:      0.138D-02-0.104D-01 0.148D+00-0.743D+00 0.127D+01-0.176D+01
 Coeff:      0.209D+01
 Gap=     0.480 Goal=   None    Shift=    0.000
 RMSDP=1.04D-05 MaxDP=1.06D-04 DE=-1.63D-07 OVMax= 8.38D-05

 Cycle   8  Pass 1  IDiag  3:
 E= -3.89288061291805     Delta-E=       -0.000000017757 Rises=F Damp=F
 DIIS: error= 2.38D-06 at cycle   8 NSaved=   8.
 NSaved= 8 IEnMin= 8 EnMin= -3.89288061291805     IErMin= 8 ErrMin= 2.38D-06
 ErrMax= 2.38D-06  0.00D+00 EMaxC= 1.00D-01 BMatC= 1.66D-10 BMatP= 2.12D-09
 IDIUse=1 WtCom= 1.00D+00 WtEn= 0.00D+00
 Coeff-Com: -0.918D-03 0.633D-02-0.820D-01 0.407D+00-0.697D+00 0.982D+00
 Coeff-Com: -0.140D+01 0.178D+01
 Coeff:     -0.918D-03 0.633D-02-0.820D-01 0.407D+00-0.697D+00 0.982D+00
 Coeff:     -0.140D+01 0.178D+01
 Gap=     0.480 Goal=   None    Shift=    0.000
 RMSDP=3.00D-06 MaxDP=3.02D-05 DE=-1.78D-08 OVMax= 2.25D-05

 Cycle   9  Pass 1  IDiag  3:
 E= -3.89288061418552     Delta-E=       -0.000000001267 Rises=F Damp=F
 DIIS: error= 2.45D-07 at cycle   9 NSaved=   9.
 NSaved= 9 IEnMin= 9 EnMin= -3.89288061418552     IErMin= 9 ErrMin= 2.45D-07
 ErrMax= 2.45D-07  0.00D+00 EMaxC= 1.00D-01 BMatC= 4.12D-12 BMatP= 1.66D-10
 IDIUse=1 WtCom= 1.00D+00 WtEn= 0.00D+00
 Coeff-Com:  0.353D-03-0.243D-02 0.313D-01-0.156D+00 0.267D+00-0.376D+00
 Coeff-Com:  0.550D+00-0.810D+00 0.150D+01
 Coeff:      0.353D-03-0.243D-02 0.313D-01-0.156D+00 0.267D+00-0.376D+00
 Coeff:      0.550D+00-0.810D+00 0.150D+01
 Gap=     0.480 Goal=   None    Shift=    0.000
 RMSDP=3.29D-07 MaxDP=1.84D-06 DE=-1.27D-09 OVMax= 3.04D-06

 Cycle  10  Pass 1  IDiag  3:
 E= -3.89288061420814     Delta-E=       -0.000000000023 Rises=F Damp=F
 DIIS: error= 2.91D-08 at cycle  10 NSaved=  10.
 NSaved=10 IEnMin=10 EnMin= -3.89288061420814     IErMin=10 ErrMin= 2.91D-08
 ErrMax= 2.91D-08  0.00D+00 EMaxC= 1.00D-01 BMatC= 9.00D-14 BMatP= 4.12D-12
 IDIUse=1 WtCom= 1.00D+00 WtEn= 0.00D+00
 Coeff-Com: -0.137D-03 0.932D-03-0.119D-01 0.587D-01-0.101D+00 0.142D+00
 Coeff-Com: -0.208D+00 0.314D+00-0.661D+00 0.147D+01
 Coeff:     -0.137D-03 0.932D-03-0.119D-01 0.587D-01-0.101D+00 0.142D+00
 Coeff:     -0.208D+00 0.314D+00-0.661D+00 0.147D+01
 Gap=     0.480 Goal=   None    Shift=    0.000
 RMSDP=4.16D-08 MaxDP=1.78D-07 DE=-2.26D-11 OVMax= 5.27D-07

 Cycle  11  Pass 1  IDiag  3:
 E= -3.89288061420898     Delta-E=       -0.000000000001 Rises=F Damp=F
 DIIS: error= 4.62D-09 at cycle  11 NSaved=  11.
 NSaved=11 IEnMin=11 EnMin= -3.89288061420898     IErMin=11 ErrMin= 4.62D-09
 ErrMax= 4.62D-09  0.00D+00 EMaxC= 1.00D-01 BMatC= 1.45D-15 BMatP= 9.00D-14
 IDIUse=1 WtCom= 1.00D+00 WtEn= 0.00D+00
 Coeff-Com:  0.493D-04-0.339D-03 0.438D-02-0.217D-01 0.373D-01-0.526D-01
 Coeff-Com:  0.770D-01-0.117D+00 0.248D+00-0.606D+00 0.143D+01
 Coeff:      0.493D-04-0.339D-03 0.438D-02-0.217D-01 0.373D-01-0.526D-01
 Coeff:      0.770D-01-0.117D+00 0.248D+00-0.606D+00 0.143D+01
 Gap=     0.480 Goal=   None    Shift=    0.000
 RMSDP=4.95D-09 MaxDP=2.10D-08 DE=-8.38D-13 OVMax= 4.56D-08

 Cycle  12  Pass 2  IDiag  1:
 SCF Done:  E(RAM1) =  -3.89288061421     A.U. after   12 cycles
            NFock= 11  Conv=0.49D-08     -V/T= 0.8070
 KE=-2.016817549843D+01 PE=-1.740436511362D+02 EE= 8.575466591540D+01
 Leave Link  502 at Mon Dec  7 14:51:16 2015, MaxMem=    33554432 cpu:         0.0
 (Enter /home/Applications/g09/g09/l701.exe)
 Compute integral first derivatives.
 ... and contract with generalized density number  0.
 Leave Link  701 at Mon Dec  7 14:51:16 2015, MaxMem=    33554432 cpu:         0.0
 (Enter /home/Applications/g09/g09/l702.exe)
 L702 exits ... SP integral derivatives will be done elsewhere.
 Leave Link  702 at Mon Dec  7 14:51:16 2015, MaxMem=    33554432 cpu:         0.0
 (Enter /home/Applications/g09/g09/l703.exe)
 Compute integral first derivatives, UseDBF=F ICtDFT=           0.
 Integral derivatives from FoFJK, PRISM(SPDF).
 Calling FoFJK, ICntrl=      2127 FMM=F ISym2X=0 I1Cent= 0 IOpClX= 0 NMat=1 NMatS=1 NMatT=0.
 FoFJK:  IHMeth= 8 ICntrl=    2127 DoSepK=F KAlg= 0 I1Cent=   0 FoldK=F
 IRaf=         0 NMat=   1 IRICut=       1 DoRegI=T DoRafI=F ISym2E= 0.
 FoFCou: FMM=F IPFlag=           0 FMFlag=      100000 FMFlg1=         800
         NFxFlg=           0 DoJE=F BraDBF=F KetDBF=F FulRan=T
         wScrn=  0.000000 ICntrl=    2127 IOpCl=  0 I1Cent=           0 NGrid=           0
         NMat0=    1 NMatS0=      1 NMatT0=    0 NMatD0=    1 NMtDS0=    0 NMtDT0=    0
 Symmetry not used in FoFCou.
 Leave Link  703 at Mon Dec  7 14:51:16 2015, MaxMem=    33554432 cpu:         0.0
 (Enter /home/Applications/g09/g09/l716.exe)
 Dipole        =-2.94066274D-02 5.66310299D-01 1.89466977D-03
 ***** Axes restored to original set *****
 -------------------------------------------------------------------
 Center     Atomic                   Forces (Hartrees/Bohr)
 Number     Number              X              Y              Z
 -------------------------------------------------------------------
      1        6          -0.008243300    0.006222857    0.000196474
      2        6           0.014080681    0.005397495    0.000138962
      3        8           0.001993984    0.008153234    0.000033328
      4        6           0.000816073   -0.009339307   -0.001444164
      5        6          -0.002386086   -0.005034049    0.000461292
      6        1           0.000277145   -0.000327418   -0.000019537
      7        1          -0.001524608   -0.001931325    0.000773853
      8        1          -0.006152046   -0.003151456   -0.000041170
      9        1           0.001138157    0.000009969   -0.000099038
 -------------------------------------------------------------------
 Cartesian Forces:  Max     0.014080681 RMS     0.004641722
 Leave Link  716 at Mon Dec  7 14:51:16 2015, MaxMem=    33554432 cpu:         0.0
 (Enter /home/Applications/g09/g09/l103.exe)

 GradGradGradGradGradGradGradGradGradGradGradGradGradGradGradGradGradGrad
 Berny optimization.
 Using GEDIIS/GDIIS optimizer.
 FormGI is forming the generalized inverse of G from B-inverse, IUseBI=4.
 Internal  Forces:  Max     0.009886118 RMS     0.002714863
 Search for a local minimum.
 Step number   3 out of a maximum of   48
 All quantities printed in internal units (Hartrees-Bohrs-Radians)
 RMS Force = .27149D-02 SwitMx=.10000D-02 MixMth= 1
 Mixed Optimization -- RFO/linear search
 Update second derivatives using D2CorX and points    1    2    3
 DE= -3.10D-03 DEPred=-3.29D-03 R= 9.43D-01
 TightC=F SS=  1.41D+00  RLast= 2.02D-01 DXNew= 8.4853D-01 6.0568D-01
 Trust test= 9.43D-01 RLast= 2.02D-01 DXMaxT set to 6.06D-01
 ITU=  1  1  0
 Use linear search instead of GDIIS.
     Eigenvalues ---    0.01864   0.02147   0.02189   0.02613   0.02693
     Eigenvalues ---    0.02800   0.10646   0.16000   0.16000   0.16012
     Eigenvalues ---    0.21628   0.24439   0.31778   0.35564   0.36240
[...]
     38  0.000000D+00  0.000000D+00  0.157583D-05 -0.170499D-05  0.000000D+00
               16            17            18            19            20 
     16  0.127608D+00
     17 -0.635755D-01  0.103781D+00
     18  0.315302D-01 -0.541570D-01  0.760769D-01
     19  0.320453D-01 -0.496242D-01 -0.219198D-01  0.715440D-01
     20 -0.245826D-03 -0.310784D-01  0.172805D-01  0.137980D-01  0.835559D-01
     21  0.489466D-02  0.163824D-01 -0.923659D-02 -0.714578D-02 -0.439768D-01
     22 -0.464884D-02  0.146960D-01 -0.804387D-02 -0.665217D-02 -0.395791D-01
     23 -0.112065D-04  0.280490D-05 -0.289713D-05  0.000000D+00 -0.637618D-05
     24 -0.864412D-05  0.330871D-05 -0.163327D-05 -0.286024D-05 -0.331413D-05
     25 -0.635777D-05  0.270658D-05 -0.183564D-05  0.000000D+00 -0.358227D-05
     26 -0.379539D-05  0.321038D-05  0.000000D+00 -0.254750D-05  0.000000D+00
     27 -0.324423D-05  0.161558D-05  0.000000D+00  0.000000D+00  0.000000D+00
     28  0.185639D-05  0.131501D-05  0.000000D+00  0.000000D+00  0.000000D+00
     29 -0.882008D-05  0.245231D-05 -0.183895D-05  0.000000D+00 -0.254401D-05
     30 -0.371946D-05  0.215174D-05  0.000000D+00 -0.163632D-05 -0.195637D-05
     31 -0.341506D-05  0.694253D-05  0.000000D+00 -0.844712D-05  0.000000D+00
     32 -0.123400D-04  0.644947D-05 -0.118371D-05 -0.613835D-05 -0.178070D-05
     33  0.196932D-05  0.223466D-05 -0.322772D-05  0.375751D-05  0.000000D+00
     34  0.122885D-05  0.658682D-05  0.782444D-05 -0.147174D-04 -0.222933D-05
     35  0.863900D-05 -0.133483D-05  0.201805D-05 -0.328187D-05 -0.107110D-05
     36  0.288282D-05  0.000000D+00  0.000000D+00 -0.183004D-05 -0.178314D-05
     37  0.183326D-05  0.377717D-05  0.000000D+00 -0.182702D-05  0.000000D+00
     38 -0.392292D-05  0.412687D-05 -0.143224D-05  0.000000D+00 -0.143890D-05
               21            22            23            24            25 
     21  0.614346D-01
     22 -0.174578D-01  0.570368D-01
     23  0.371276D-05  0.312809D-05  0.180081D-01
     24  0.182509D-05  0.159944D-05  0.241800D-02  0.150083D-01
     25  0.160778D-05  0.220544D-05  0.635176D-02 -0.790608D-02  0.135357D-01
     26  0.000000D+00  0.000000D+00 -0.923835D-02  0.468425D-02 -0.722195D-03
     27 -0.156006D-05  0.123156D-05 -0.156722D-01 -0.621649D-02 -0.171498D-02
     28  0.000000D+00  0.000000D+00 -0.619423D-02 -0.396467D-02  0.299569D-02
     29  0.000000D+00  0.232122D-05 -0.465828D-02  0.353859D-02 -0.850294D-02
     30  0.168572D-05  0.000000D+00  0.481969D-02  0.579041D-02 -0.379227D-02
     31  0.000000D+00  0.000000D+00 -0.146371D-01  0.195117D-02 -0.879422D-02
     32  0.000000D+00  0.156715D-05 -0.442425D-02 -0.629653D-02  0.545840D-03
     33  0.000000D+00  0.000000D+00  0.451218D-02 -0.596602D-02  0.768510D-02
     34  0.000000D+00  0.198357D-05  0.392887D-02 -0.132198D-02  0.210065D-02
     35  0.220245D-05  0.000000D+00  0.634638D-02  0.724073D-02 -0.368515D-02
     36 -0.263192D-05  0.408227D-05 -0.368344D-02  0.485779D-02 -0.867010D-02
     37  0.285455D-05 -0.164939D-05  0.723856D-02  0.137632D-03  0.485632D-02
     38 -0.197983D-05  0.302437D-05 -0.279127D-02 -0.224530D-02 -0.128631D-03
               26            27            28            29            30 
     26  0.132004D-01
     27  0.774072D-02  0.201709D-01
     28  0.522525D-02  0.698462D-02  0.106184D-01
     29 -0.306070D-03  0.698294D-02 -0.169880D-02  0.106157D-01
     30 -0.282154D-02 -0.620335D-02  0.193497D-02  0.193396D-02  0.100723D-01
     31  0.779401D-02  0.651750D-02  0.351664D-02  0.996689D-03 -0.200418D-02
     32 -0.132644D-02  0.323240D-03  0.205609D-02 -0.437293D-02 -0.264008D-02
     33 -0.279309D-02  0.651172D-02  0.995225D-03  0.351368D-02 -0.200282D-02
     34 -0.315020D-02  0.330667D-03 -0.436490D-02  0.205813D-02 -0.263744D-02
     35 -0.279080D-02 -0.156706D-01 -0.465918D-02 -0.619198D-02  0.481946D-02
     36 -0.128866D-03 -0.171657D-02 -0.850453D-02  0.299525D-02 -0.379271D-02
     37 -0.224461D-02 -0.621665D-02  0.353917D-02 -0.396571D-02  0.579011D-02
     38  0.417330D-03  0.773741D-02 -0.306179D-03  0.522152D-02 -0.282206D-02
               31            32            33            34            35 
     31  0.178220D-01
     32  0.695540D-02  0.818190D-02
     33 -0.136096D-01 -0.674549D-02  0.178132D-01
     34 -0.676492D-02 -0.332519D-02  0.697740D-02  0.817730D-02
     35  0.450639D-02  0.392052D-02 -0.146271D-01 -0.444121D-02  0.180016D-01
     36  0.768199D-02  0.208678D-02 -0.878945D-02  0.527753D-03  0.634899D-02
     37 -0.596254D-02 -0.131085D-02  0.194631D-02 -0.627646D-02  0.242211D-02
     38 -0.278695D-02 -0.314460D-02  0.778400D-02 -0.130750D-02 -0.923047D-02
               36            37            38 
     36  0.135322D-01
     37 -0.790174D-02  0.149989D-01
     38 -0.718550D-03  0.467505D-02  0.131870D-01
 Leave Link  716 at Mon Dec  7 14:51:17 2015, MaxMem=    33554432 cpu:         0.0
 (Enter /home/Applications/g09/g09/l103.exe)

 GradGradGradGradGradGradGradGradGradGradGradGradGradGradGradGradGradGrad
 Berny optimization.
 Red2BG is reusing G-inverse.
 Internal  Forces:  Max     0.000219526 RMS     0.000074098
 Search for a local minimum.
 Step number   1 out of a maximum of    2
 All quantities printed in internal units (Hartrees-Bohrs-Radians)
 Second derivative matrix not updated -- analytic derivatives used.
 ITU=  0
     Eigenvalues ---    0.01300   0.01626   0.02746   0.03501   0.06548
     Eigenvalues ---    0.06573   0.07211   0.07810   0.08814   0.09413
     Eigenvalues ---    0.16278   0.26220   0.30855   0.30943   0.33172
     Eigenvalues ---    0.33471   0.33696   0.42695   0.56859   0.67756
     Eigenvalues ---    0.91374
 Angle between quadratic step and forces=  43.92 degrees.
 Linear search not attempted -- first point.
 Iteration  1 RMS(Cart)=  0.00043927 RMS(Int)=  0.00000030
 Iteration  2 RMS(Cart)=  0.00000026 RMS(Int)=  0.00000006
 ITry= 1 IFail=0 DXMaxC= 1.51D-03 DCOld= 1.00D+10 DXMaxT= 3.00D-01 DXLimC= 3.00D+00 Rises=F
 Variable       Old X    -DE/DX   Delta X   Delta X   Delta X     New X
                                 (Linear)    (Quad)   (Total)
    R1        2.46979  -0.00013   0.00000  -0.00022  -0.00022   2.46957
    R2        2.75030   0.00018   0.00000   0.00029   0.00029   2.75058
    R3        2.02818  -0.00002   0.00000  -0.00005  -0.00005   2.02814
    R4        2.61242   0.00022   0.00000   0.00060   0.00060   2.61303
    R5        1.97316  -0.00020   0.00000  -0.00061  -0.00061   1.97255
    R6        2.61305   0.00011   0.00000  -0.00003  -0.00003   2.61303
    R7        2.46964  -0.00008   0.00000  -0.00007  -0.00007   2.46957
    R8        1.97249   0.00002   0.00000   0.00006   0.00006   1.97255
    R9        2.02815   0.00000   0.00000  -0.00001  -0.00001   2.02814
    A1        1.88049   0.00006   0.00000   0.00026   0.00026   1.88075
    A2        2.24015  -0.00003   0.00000  -0.00008  -0.00008   2.24007
    A3        2.16255  -0.00003   0.00000  -0.00018  -0.00018   2.16236
    A4        1.87990  -0.00007   0.00000  -0.00029  -0.00029   1.87961
    A5        2.47958  -0.00001   0.00000  -0.00011  -0.00011   2.47946
    A6        1.92371   0.00008   0.00000   0.00040   0.00040   1.92411
    A7        1.90398   0.00002   0.00000   0.00007   0.00007   1.90405
    A8        1.87956  -0.00003   0.00000   0.00005   0.00005   1.87961
    A9        1.92280   0.00014   0.00000   0.00132   0.00132   1.92411
   A10        2.48083  -0.00011   0.00000  -0.00137  -0.00137   2.47946
   A11        1.88085   0.00001   0.00000  -0.00010  -0.00010   1.88075
   A12        2.16242  -0.00001   0.00000  -0.00005  -0.00005   2.16236
   A13        2.23992   0.00000   0.00000   0.00016   0.00016   2.24007
    D1        0.00022  -0.00001   0.00000  -0.00022  -0.00022   0.00000
    D2        3.14144   0.00001   0.00000   0.00015   0.00015  -3.14159
    D3       -3.14122  -0.00001   0.00000  -0.00037  -0.00037  -3.14159
    D4        0.00000   0.00001   0.00000   0.00000   0.00000   0.00000
    D5       -0.00012   0.00001   0.00000   0.00012   0.00012   0.00000
    D6        3.14142   0.00001   0.00000   0.00017   0.00017   3.14159
    D7        3.14133   0.00001   0.00000   0.00026   0.00026  -3.14159
    D8       -0.00031   0.00001   0.00000   0.00031   0.00031   0.00000
    D9       -0.00025   0.00001   0.00000   0.00025   0.00025   0.00000
   D10        3.14159   0.00000   0.00000   0.00001   0.00000   3.14159
   D11        0.00017  -0.00001   0.00000  -0.00017  -0.00017   0.00000
   D12       -3.14124  -0.00001   0.00000  -0.00035  -0.00035   3.14159
   D13       -0.00003   0.00000   0.00000   0.00003   0.00003   0.00000
   D14       -3.14158   0.00000   0.00000  -0.00002  -0.00002  -3.14159
   D15        3.14129   0.00000   0.00000   0.00030   0.00030  -3.14159
   D16       -0.00025   0.00000   0.00000   0.00025   0.00025   0.00000
         Item               Value     Threshold  Converged?
 Maximum Force            0.000220     0.000450     YES
 RMS     Force            0.000074     0.000300     YES
 Maximum Displacement     0.001513     0.001800     YES
 RMS     Displacement     0.000439     0.001200     YES
 Predicted change in Energy=-3.922276D-07
 Optimization completed.
    -- Stationary point found.
                           ----------------------------
                           !   Optimized Parameters   !
                           ! (Angstroms and Degrees)  !
 --------------------------                            --------------------------
 ! Name  Definition              Value          Derivative Info.                !
 --------------------------------------------------------------------------------
 ! R1    R(1,2)                  1.307          -DE/DX =   -0.0001              !
 ! R2    R(1,5)                  1.4554         -DE/DX =    0.0002              !
 ! R3    R(1,9)                  1.0733         -DE/DX =    0.0                 !
 ! R4    R(2,3)                  1.3824         -DE/DX =    0.0002              !
 ! R5    R(2,8)                  1.0441         -DE/DX =   -0.0002              !
 ! R6    R(3,4)                  1.3828         -DE/DX =    0.0001              !
 ! R7    R(4,5)                  1.3069         -DE/DX =   -0.0001              !
 ! R8    R(4,7)                  1.0438         -DE/DX =    0.0                 !
 ! R9    R(5,6)                  1.0732         -DE/DX =    0.0                 !
 ! A1    A(2,1,5)              107.7441         -DE/DX =    0.0001              !
 ! A2    A(2,1,9)              128.3511         -DE/DX =    0.0                 !
 ! A3    A(5,1,9)              123.9048         -DE/DX =    0.0                 !
 ! A4    A(1,2,3)              107.7101         -DE/DX =   -0.0001              !
 ! A5    A(1,2,8)              142.0693         -DE/DX =    0.0                 !
 ! A6    A(3,2,8)              110.2206         -DE/DX =    0.0001              !
 ! A7    A(2,3,4)              109.0902         -DE/DX =    0.0                 !
 ! A8    A(3,4,5)              107.6906         -DE/DX =    0.0                 !
 ! A9    A(3,4,7)              110.1681         -DE/DX =    0.0001              !
 ! A10   A(5,4,7)              142.1412         -DE/DX =   -0.0001              !
 ! A11   A(1,5,4)              107.7649         -DE/DX =    0.0                 !
 ! A12   A(1,5,6)              123.8974         -DE/DX =    0.0                 !
 ! A13   A(4,5,6)              128.3377         -DE/DX =    0.0                 !
 ! D1    D(5,1,2,3)              0.0128         -DE/DX =    0.0                 !
 ! D2    D(5,1,2,8)           -180.0087         -DE/DX =    0.0                 !
 ! D3    D(9,1,2,3)           -179.9786         -DE/DX =    0.0                 !
 ! D4    D(9,1,2,8)             -0.0001         -DE/DX =    0.0                 !
 ! D5    D(2,1,5,4)             -0.0069         -DE/DX =    0.0                 !
 ! D6    D(2,1,5,6)            179.9903         -DE/DX =    0.0                 !
 ! D7    D(9,1,5,4)           -180.0151         -DE/DX =    0.0                 !
 ! D8    D(9,1,5,6)             -0.0179         -DE/DX =    0.0                 !
 ! D9    D(1,2,3,4)             -0.0144         -DE/DX =    0.0                 !
 ! D10   D(8,2,3,4)            179.9997         -DE/DX =    0.0                 !
 ! D11   D(2,3,4,5)              0.0099         -DE/DX =    0.0                 !
 ! D12   D(2,3,4,7)            180.0199         -DE/DX =    0.0                 !
 ! D13   D(3,4,5,1)             -0.002          -DE/DX =    0.0                 !
 ! D14   D(3,4,5,6)           -179.9991         -DE/DX =    0.0                 !
 ! D15   D(7,4,5,1)           -180.0173         -DE/DX =    0.0                 !
 ! D16   D(7,4,5,6)             -0.0144         -DE/DX =    0.0                 !
 --------------------------------------------------------------------------------
 GradGradGradGradGradGradGradGradGradGradGradGradGradGradGradGradGradGrad

 Leave Link  103 at Mon Dec  7 14:51:17 2015, MaxMem=    33554432 cpu:         0.0
 (Enter /home/Applications/g09/g09/l9999.exe)
 1\1\GINC-DUSTIN-DESKTOP\Freq\RAM1\ZDO\C4H4O1\DUSTIN\07-Dec-2015\0\\#P 
 Geom=AllCheck Guess=TCheck SCRF=Check GenChk RAM1/ZDO Freq\\AM1-Repara
 m Input\\0,1\C,0.9335443575,-0.7078957458,-0.0140197274\C,-0.305969200
 7,-1.1219466957,0.0035327767\O,-1.1220794511,-0.0061168435,0.006787404
 8\C,-0.3344492306,1.1302944975,-0.009260226\C,0.9150017389,0.747358605
 ,-0.0221867185\H,1.7980761592,1.35714783,-0.0363563958\H,-0.9346873745
 ,1.9842395144,-0.0067197921\H,-0.8836761105,-1.9916361427,0.0155191562
 \H,1.8318081119,-1.2952360191,-0.0217484779\\Version=ES64L-G09RevD.01\
 State=1-A\HF=-3.8933511\RMSD=4.454e-10\RMSF=1.111e-04\ZeroPoint=0.0714
 863\Thermal=0.0750724\Dipole=0.580783,0.0080747,-0.0068666\DipoleDeriv
 =-0.8158805,0.239703,0.0011697,0.2604849,-0.6343617,-0.0030671,0.00103
 1,-0.0027977,-0.605841,1.4443823,-0.148438,-0.005278,-0.39899,0.916048
 7,0.0050717,-0.0036872,0.0019927,0.94193,-1.6499561,-0.0104052,0.00865
 03,-0.0101143,-0.8374587,-0.0006823,0.0085534,-0.0004563,-0.9402876,1.
 4292292,0.1624043,-0.006749,0.4119828,0.929347,-0.0047729,-0.0082591,-
 0.0018638,0.9413368,-0.8024628,-0.2448603,0.0037637,-0.2647892,-0.6451
 163,0.0034289,0.0039219,0.0031655,-0.6051514,0.2775914,0.0106455,-0.00
 07158,0.0638651,0.2391815,-0.0008615,-0.0010252,-0.0002186,0.223582,-0
 .080527,-0.0284544,0.0000327,-0.0149715,-0.1030666,0.0002835,-0.000024
 1,0.0004117,-0.0895216,-0.0818993,0.0290279,-0.0002431,0.0153993,-0.10
 19684,-0.0000923,-0.000204,-0.0003052,-0.0896905,0.2795198,-0.0096219,
 -0.0006304,-0.0628651,0.2373945,0.000692,-0.0003059,0.0000727,0.223645
 3\Polar=34.1113517,0.0933989,26.3438928,-0.3440831,-0.1197766,5.892049
 8\HyperPolar=-33.9311004,1.5248565,-78.433939,-2.7625499,0.5574618,0.4
 855487,0.9772815,6.2215265,0.0676372,-0.2292226\PG=C01 [X(C4H4O1)]\NIm
 ag=0\\1.04870338,0.00578841,0.77556363,-0.01036591,-0.00336216,0.20424
 062,-0.63758931,-0.15620017,0.00726250,0.90331040,-0.24031030,-0.13652
 839,0.00304328,0.24468475,0.75575465,0.00774935,0.00201697,-0.11784656
 ,-0.00968162,-0.00607399,0.22499228,-0.11190074,0.03970905,0.00140635,
 -0.16151053,0.15481833,-0.00008228,0.52915513,0.08535300,0.00067536,-0
 .00089993,0.05854292,-0.20678077,-0.00003776,0.00054248,0.46166667,0.0
 0113941,-0.00035121,0.02324825,0.00048085,-0.00119303,-0.09294571,-0.0
 0509287,-0.00206523,0.10678387,-0.01739208,0.05816406,0.00004867,0.053
 22720,-0.03348457,-0.00011728,-0.15588509,-0.05697759,0.00108472,0.915
 79150,0.01258750,-0.04433094,0.00018567,0.03846672,-0.14260799,0.00053
 133,-0.15323902,-0.21175771,0.00252505,-0.24160197,0.74335720,0.000311
 24,-0.00036575,0.01428974,-0.00053767,0.00139401,0.02725898,0.00164218
 ,0.00136394,-0.09298534,-0.00700338,-0.00002409,0.22481351,-0.05819758
 ,-0.03558815,-0.00029092,-0.01557592,-0.01184429,0.00043155,-0.1086470
 0,-0.08808282,0.00210281,-0.64738665,0.22758663,0.00510928,1.04885196,
 0.04626823,-0.47729787,0.00162064,-0.05743839,-0.04597803,0.00104618,-
 0.04244782,-0.00264884,0.00066699,0.14351065,-0.12685644,-0.00168962,0
 .00079856,0.77537428,-0.00076226,0.00261554,-0.09871967,0.00069634,0.0
 0049256,0.01429035,0.00184011,0.00121738,0.02322920,0.00559009,-0.0027
 0726,-0.11775324,-0.01023201,-0.00329573,0.20420041,0.00214423,-0.0026
 0037,0.00008069,0.00074790,-0.00086213,0.00002132,-0.00249460,0.002058
 19,0.00012270,-0.01175212,-0.01176161,0.00027913,-0.20703345,-0.115445
 37,0.00250838,0.21848524,-0.01610654,-0.01475868,0.00032310,-0.0017233
 8,-0.00422951,0.00005795,0.00355254,0.00178966,-0.00000406,0.00262195,
 0.00713631,-0.00003974,-0.11642605,-0.11437446,0.00175156,0.12838676,0
 .12819908,0.00015822,0.00016120,0.00757096,0.00002548,0.00004639,0.002
 11140,0.00011507,0.00001396,0.00861894,0.00019548,0.00013504,0.0057315
 7,0.00251508,0.00173890,-0.05432650,-0.00301304,-0.00211434,0.03022263
 ,-0.00176828,0.00209888,0.00010891,-0.00388955,0.00149669,0.00005328,0
 .00700915,-0.02183135,0.00013449,-0.13338188,0.12847724,0.00011592,-0.
 01193375,0.02390045,0.00017102,-0.00083221,-0.00008725,0.00001327,0.14
 472206,-0.00076973,0.00112312,0.00004864,-0.00213187,-0.00339361,0.000
 05281,0.00670947,-0.02255163,0.00009076,0.12380426,-0.21740309,-0.0006
 5417,0.00633233,0.00496748,-0.00003061,0.00052841,-0.00069781,-0.00000
 116,-0.13458559,0.23880250,0.00012487,0.00001518,0.00817471,0.00007520
 ,0.00000760,0.00125916,-0.00002854,0.00043864,0.00771606,0.00014500,-0
 .00071375,-0.06472859,0.00026829,-0.00024234,0.01333914,0.00000986,0.0
 0000627,0.00022554,-0.00058418,0.00049420,0.03473895,-0.01115525,-0.02
 431813,0.00043835,-0.12673155,-0.12578693,0.00147537,0.00662245,0.0225
 6069,-0.00011963,-0.00390252,-0.00150095,0.00007118,-0.00173568,-0.002
 16983,0.00013267,-0.00004164,-0.00063341,-0.00000061,0.00013152,0.0001
 2807,-0.00000641,0.13763460,-0.00674578,0.00416721,0.00013483,-0.12109
 721,-0.22360174,0.00237818,-0.00598737,-0.02203565,0.00024701,0.002116
 04,-0.00337817,0.00000183,0.00069772,0.00109383,0.00003224,0.00001413,
 -0.00001345,-0.00000248,-0.00010220,-0.00084956,0.00000414,0.13163612,
 0.24532624,0.00033933,0.00035292,0.01334441,0.00144338,0.00243079,-0.0
 6485391,0.00004694,-0.00009594,0.00771857,0.00004853,0.00004287,0.0012
 6165,0.00011859,0.00006633,0.00816739,-0.00000439,0.00000568,-0.000396
 10,-0.00000490,0.00000147,-0.00032926,-0.00200324,-0.00280807,0.034863
 08,-0.21284388,0.11294756,0.00131134,-0.01198887,0.01128718,0.00015031
 ,-0.00234902,-0.00216563,0.00014754,0.00068138,0.00098688,0.00001211,0
 .00165862,0.00302231,0.00005567,0.00077675,0.00041527,-0.00000895,-0.0
 0005730,-0.00001527,-0.00000410,-0.00082215,-0.00053151,0.00001575,0.2
 2494457,0.11393502,-0.10861266,-0.00109408,-0.00310418,0.00736513,0.00
 002835,-0.00365760,0.00164214,0.00008371,0.00184808,-0.00415949,0.0000
 1358,0.01652607,-0.01427898,-0.00007567,-0.00031769,-0.00305163,0.0000
 2249,0.00063274,0.00000286,-0.00000993,0.00008478,-0.00070839,0.000003
 95,-0.12594709,0.12180054,0.00130573,-0.00108275,-0.05430226,0.0002355
 2,-0.00014750,0.00573387,0.00015306,0.00006481,0.00861623,0.00000817,0
 .00002521,0.00211162,-0.00002266,0.00008863,0.00757296,-0.00000465,0.0
 0001359,0.00024163,-0.00000782,-0.00000194,-0.00039581,0.00001233,0.00
 001234,0.00022410,-0.00167968,0.00102761,0.03019771\\0.00014873,0.0001
 7373,-0.00000749,-0.00007199,0.00037738,0.00005364,0.00007348,-0.00008
 613,-0.00003460,0.00003243,0.00000572,-0.00000848,0.00004556,-0.000233
 54,0.00000184,-0.00000236,0.00000254,0.00000222,-0.00009736,-0.0000879
 6,0.00001422,-0.00014531,-0.00014007,-0.00000863,0.00001682,-0.0000116
 6,-0.00001272\\\@


 Make no judgements where you have no compassion.
                               -- Anne McCaffrey
 Job cpu time:       0 days  0 hours  0 minutes  0.3 seconds.
 File lengths (MBytes):  RWF=      5 Int=      0 D2E=      0 Chk=      2 Scr=      1
 Normal termination of Gaussian 09 at Mon Dec  7 14:51:17 2015.
