 Entering Gaussian System, Link 0=g09
 Input=FuranAM1Best0.com
 Output=FuranAM1Best0.log
 Initial command:
 /home/Applications/g09/g09/l1.exe "/home/Applications/g09/scratch/Gau-10486.inp" -scrdir="/home/Applications/g09/scratch/"
 Entering Link 1 = /home/Applications/g09/g09/l1.exe PID=     10488.
  
 Copyright (c) 1988,1990,1992,1993,1995,1998,2003,2009,2013,
            Gaussian, Inc.  All Rights Reserved.
  
 This is part of the Gaussian(R) 09 program.  It is based on
 the Gaussian(R) 03 system (copyright 2003, Gaussian, Inc.),
 the Gaussian(R) 98 system (copyright 1998, Gaussian, Inc.),
 the Gaussian(R) 94 system (copyright 1995, Gaussian, Inc.),
 the Gaussian 92(TM) system (copyright 1992, Gaussian, Inc.),
 the Gaussian 90(TM) system (copyright 1990, Gaussian, Inc.),
 the Gaussian 88(TM) system (copyright 1988, Gaussian, Inc.),
 the Gaussian 86(TM) system (copyright 1986, Carnegie Mellon
 University), and the Gaussian 82(TM) system (copyright 1983,
 Carnegie Mellon University). Gaussian is a federally registered
 trademark of Gaussian, Inc.
  
 This software contains proprietary and confidential information,
 including trade secrets, belonging to Gaussian, Inc.
  
 This software is provided under written license and may be
 used, copied, transmitted, or stored only in accord with that
 written license.
  
 The following legend is applicable only to US Government
 contracts under FAR:
  
                    RESTRICTED RIGHTS LEGEND
  
 Use, reproduction and disclosure by the US Government is
 subject to restrictions as set forth in subparagraphs (a)
 and (c) of the Commercial Computer Software - Restricted
 Rights clause in FAR 52.227-19.
  
 Gaussian, Inc.
 340 Quinnipiac St., Bldg. 40, Wallingford CT 06492
  
  
 ---------------------------------------------------------------
 Warning -- This program may not be used in any manner that
 competes with the business of Gaussian, Inc. or will provide
 assistance to any competitor of Gaussian, Inc.  The licensee
 of this program is prohibited from giving any competitor of
 Gaussian, Inc. access to this program.  By using this program,
 the user acknowledges that Gaussian, Inc. is engaged in the
 business of creating and licensing software in the field of
 computational chemistry and represents and warrants to the
 licensee that it is not a competitor of Gaussian, Inc. and that
 it will not use this program in any manner prohibited above.
 ---------------------------------------------------------------
  

 Cite this work as:
 Gaussian 09, Revision D.01,
 M. J. Frisch, G. W. Trucks, H. B. Schlegel, G. E. Scuseria, 
 M. A. Robb, J. R. Cheeseman, G. Scalmani, V. Barone, B. Mennucci, 
 G. A. Petersson, H. Nakatsuji, M. Caricato, X. Li, H. P. Hratchian, 
 A. F. Izmaylov, J. Bloino, G. Zheng, J. L. Sonnenberg, M. Hada, 
 M. Ehara, K. Toyota, R. Fukuda, J. Hasegawa, M. Ishida, T. Nakajima, 
 Y. Honda, O. Kitao, H. Nakai, T. Vreven, J. A. Montgomery, Jr., 
 J. E. Peralta, F. Ogliaro, M. Bearpark, J. J. Heyd, E. Brothers, 
 K. N. Kudin, V. N. Staroverov, T. Keith, R. Kobayashi, J. Normand, 
 K. Raghavachari, A. Rendell, J. C. Burant, S. S. Iyengar, J. Tomasi, 
 M. Cossi, N. Rega, J. M. Millam, M. Klene, J. E. Knox, J. B. Cross, 
 V. Bakken, C. Adamo, J. Jaramillo, R. Gomperts, R. E. Stratmann, 
 O. Yazyev, A. J. Austin, R. Cammi, C. Pomelli, J. W. Ochterski, 
 R. L. Martin, K. Morokuma, V. G. Zakrzewski, G. A. Voth, 
 P. Salvador, J. J. Dannenberg, S. Dapprich, A. D. Daniels, 
 O. Farkas, J. B. Foresman, J. V. Ortiz, J. Cioslowski, 
 and D. J. Fox, Gaussian, Inc., Wallingford CT, 2013.
 
 ******************************************
 Gaussian 09:  ES64L-G09RevD.01 24-Apr-2013
                 7-Dec-2015 
 ******************************************
 ----------------------------
 #P AM1(Input,print) Opt Freq
 ----------------------------
 1/14=-1,18=20,19=15,26=1,38=1/1,3;
 2/9=110,12=2,17=6,18=5,40=1/2;
 3/5=2,16=1,25=1,41=700000,71=1,135=100,136=1/1,2,3;
 4/35=1/1;
 5/5=2,35=1,38=5/2;
 6/7=2,8=2,9=2,10=2,28=1/1;
 7//1,2,3,16;
 1/14=-1,18=20,19=15,26=1/3(2);
 2/9=110/2;
 99//99;
 2/9=110/2;
 3/5=2,16=1,25=1,41=700000,71=1,135=20,136=1/1,2,3;
 4/5=5,16=3,35=1/1;
 5/5=2,35=1,38=5/2;
 7//1,2,3,16;
 1/14=-1,18=20,19=15,26=1/3(-5);
 2/9=110/2;
 6/7=2,8=2,9=2,10=2,19=2,28=1/1;
 99/9=1/99;
 Leave Link    1 at Mon Dec  7 14:51:12 2015, MaxMem=           0 cpu:         0.0
 (Enter /home/Applications/g09/g09/l101.exe)
 -----------------
 AM1-Reparam Input
 -----------------
 Symbolic Z-matrix:
 Charge =  0 Multiplicity = 1
 6                     0.90716  -0.66796   0.04685 
 6                    -0.37497  -1.12126   0.02582 
 8                    -1.11083   0.0107    0.04177 
 6                    -0.31267   1.13378  -0.02855 
 6                     0.99093   0.71013  -0.04879 
 1                     1.7737    1.32745  -0.00212 
 1                    -0.81828   2.08457  -0.00595 
 1                    -0.82224  -2.03242  -0.0228 
 1                     1.76766  -1.33779   0.03944 
 
 NAtoms=      9 NQM=        9 NQMF=       0 NMMI=      0 NMMIF=      0
                NMic=       0 NMicF=      0.
                    Isotopes and Nuclear Properties:
 (Nuclear quadrupole moments (NQMom) in fm**2, nuclear magnetic moments (NMagM)
  in nuclear magnetons)

  Atom         1           2           3           4           5           6           7           8           9
 IAtWgt=          12          12          16          12          12           1           1           1           1
 AtmWgt=  12.0000000  12.0000000  15.9949146  12.0000000  12.0000000   1.0078250   1.0078250   1.0078250   1.0078250
 NucSpn=           0           0           0           0           0           1           1           1           1
 AtZEff=   0.0000000   0.0000000   0.0000000   0.0000000   0.0000000   0.0000000   0.0000000   0.0000000   0.0000000
 NQMom=    0.0000000   0.0000000   0.0000000   0.0000000   0.0000000   0.0000000   0.0000000   0.0000000   0.0000000
 NMagM=    0.0000000   0.0000000   0.0000000   0.0000000   0.0000000   2.7928460   2.7928460   2.7928460   2.7928460
 AtZNuc=   6.0000000   6.0000000   8.0000000   6.0000000   6.0000000   1.0000000   1.0000000   1.0000000   1.0000000
 Leave Link  101 at Mon Dec  7 14:51:12 2015, MaxMem=    33554432 cpu:         0.0
 (Enter /home/Applications/g09/g09/l103.exe)

 GradGradGradGradGradGradGradGradGradGradGradGradGradGradGradGradGradGrad
 Berny optimization.
 Initialization pass.
                           ----------------------------
                           !    Initial Parameters    !
                           ! (Angstroms and Degrees)  !
 --------------------------                            --------------------------
 ! Name  Definition              Value          Derivative Info.                !
 --------------------------------------------------------------------------------
 ! R1    R(1,2)                  1.3601         estimate D2E/DX2                !
 ! R2    R(1,5)                  1.3839         estimate D2E/DX2                !
 ! R3    R(1,9)                  1.0905         estimate D2E/DX2                !
 ! R4    R(2,3)                  1.3502         estimate D2E/DX2                !
 ! R5    R(2,8)                  1.0162         estimate D2E/DX2                !
 ! R6    R(3,4)                  1.3796         estimate D2E/DX2                !
 ! R7    R(4,5)                  1.3709         estimate D2E/DX2                !
 ! R8    R(4,7)                  1.0771         estimate D2E/DX2                !
 ! R9    R(5,6)                  0.998          estimate D2E/DX2                !
 ! A1    A(2,1,5)              112.8222         estimate D2E/DX2                !
 ! A2    A(2,1,9)              122.6191         estimate D2E/DX2                !
 ! A3    A(5,1,9)              124.2918         estimate D2E/DX2                !
 ! A4    A(1,2,3)              103.5428         estimate D2E/DX2                !
 ! A5    A(1,2,8)              135.6028         estimate D2E/DX2                !
 ! A6    A(3,2,8)              120.8238         estimate D2E/DX2                !
 ! A7    A(2,3,4)              111.5038         estimate D2E/DX2                !
 ! A8    A(3,4,5)              107.4171         estimate D2E/DX2                !
 ! A9    A(3,4,7)              116.484          estimate D2E/DX2                !
 ! A10   A(5,4,7)              136.0127         estimate D2E/DX2                !
 ! A11   A(1,5,4)              104.4277         estimate D2E/DX2                !
 ! A12   A(1,5,6)              131.3143         estimate D2E/DX2                !
 ! A13   A(4,5,6)              123.6423         estimate D2E/DX2                !
 ! D1    D(5,1,2,3)             -5.5838         estimate D2E/DX2                !
 ! D2    D(5,1,2,8)            172.3101         estimate D2E/DX2                !
 ! D3    D(9,1,2,3)           -179.8809         estimate D2E/DX2                !
 ! D4    D(9,1,2,8)             -1.987          estimate D2E/DX2                !
 ! D5    D(2,1,5,4)              4.5311         estimate D2E/DX2                !
 ! D6    D(2,1,5,6)            175.552          estimate D2E/DX2                !
 ! D7    D(9,1,5,4)            178.7167         estimate D2E/DX2                !
 ! D8    D(9,1,5,6)            -10.2624         estimate D2E/DX2                !
 ! D9    D(1,2,3,4)              4.4824         estimate D2E/DX2                !
 ! D10   D(8,2,3,4)           -173.8019         estimate D2E/DX2                !
 ! D11   D(2,3,4,5)             -1.911          estimate D2E/DX2                !
 ! D12   D(2,3,4,7)           -179.0776         estimate D2E/DX2                !
 ! D13   D(3,4,5,1)             -1.5132         estimate D2E/DX2                !
 ! D14   D(3,4,5,6)           -173.4184         estimate D2E/DX2                !
 ! D15   D(7,4,5,1)            174.8341         estimate D2E/DX2                !
 ! D16   D(7,4,5,6)              2.9289         estimate D2E/DX2                !
 --------------------------------------------------------------------------------
 Trust Radius=3.00D-01 FncErr=1.00D-07 GrdErr=1.00D-07
 Number of steps in this run=     48 maximum allowed number of steps=    100.
 GradGradGradGradGradGradGradGradGradGradGradGradGradGradGradGradGradGrad

 Leave Link  103 at Mon Dec  7 14:51:12 2015, MaxMem=    33554432 cpu:         0.0
 (Enter /home/Applications/g09/g09/l202.exe)
                          Input orientation:                          
 ---------------------------------------------------------------------
 Center     Atomic      Atomic             Coordinates (Angstroms)
 Number     Number       Type             X           Y           Z
 ---------------------------------------------------------------------
      1          6           0        0.907156   -0.667963    0.046845
      2          6           0       -0.374971   -1.121256    0.025822
      3          8           0       -1.110832    0.010697    0.041774
      4          6           0       -0.312669    1.133782   -0.028554
      5          6           0        0.990925    0.710125   -0.048790
      6          1           0        1.773700    1.327447   -0.002120
      7          1           0       -0.818277    2.084573   -0.005947
      8          1           0       -0.822237   -2.032416   -0.022801
      9          1           0        1.767658   -1.337787    0.039441
 ---------------------------------------------------------------------
                    Distance matrix (angstroms):
                    1          2          3          4          5
     1  C    0.000000
     2  C    1.360061   0.000000
     3  O    2.129056   1.350209   0.000000
     4  C    2.177141   2.256554   1.379612   0.000000
     5  C    1.383940   2.285869   2.216931   1.370858   0.000000
     6  H    2.175996   3.257870   3.171164   2.095505   0.997999
     7  H    3.249055   3.236490   2.094953   1.077104   2.272478
     8  H    2.203947   1.016181   2.064405   3.206946   3.287820
     9  H    1.090497   2.153585   3.178698   3.231259   2.192041
                    6          7          8          9
     6  H    0.000000
     7  H    2.700296   0.000000
     8  H    4.245939   4.117025   0.000000
     9  H    2.665565   4.289717   2.682152   0.000000
 Stoichiometry    C4H4O
 Framework group  C1[X(C4H4O)]
 Deg. of freedom    21
 Full point group                 C1      NOp   1
 Largest Abelian subgroup         C1      NOp   1
 Largest concise Abelian subgroup C1      NOp   1
                         Standard orientation:                         
 ---------------------------------------------------------------------
 Center     Atomic      Atomic             Coordinates (Angstroms)
 Number     Number       Type             X           Y           Z
 ---------------------------------------------------------------------
      1          6           0       -0.448202    1.035311   -0.031244
      2          6           0       -1.192411   -0.102191    0.013566
      3          8           0       -0.268446   -1.086121   -0.021539
      4          6           0        1.013507   -0.577541    0.014132
      5          6           0        0.912304    0.789472    0.031019
      6          1           0        1.696521    1.402837   -0.038191
      7          1           0        1.816085   -1.294782   -0.025711
      8          1           0       -2.182206   -0.319805    0.088224
      9          1           0       -0.894027    2.030407   -0.016851
 ---------------------------------------------------------------------
 Rotational constants (GHZ):      9.9154795      9.1706536      4.7682167
 Leave Link  202 at Mon Dec  7 14:51:12 2015, MaxMem=    33554432 cpu:         0.0
 (Enter /home/Applications/g09/g09/l301.exe)

 Semi-emprical parameters in input format:
 Method=8 CoreType=1 PeptideFC=0.0112330000 RIJScale=0.5291770000
 ****
 H       
 PQN=1 NValence=1 F0ss=0.5237600000 ZetaOverlap=0.9601790000 U=-0.5223910000
 Beta=-0.2029260000 CoreKO=1.0644050000 KON=0,0,0,0.9730020000 KON=1,0,1,0.9833730000
 KON=0,1,1,1.0628700000 KON=2,1,1,1.0792230000 EISol=-0.4395468110 EHeat=0.0830298228
 Alpha=1.8213180000
 GCore=0.0075240000,1.9935190000,2.0426320000
 GCore=0.0049980000,1.7363170000,3.8655940000
 GCore=-0.0024160000,0.8585610000,2.9505260000
 ****
 C       
 PQN=2,2 NValence=4 F0ss=0.4547130000 F0sp=0.4023160000 F0pp=0.3368050000 F2pp=0.1899800000
 G1sp=0.1791820000
 ZetaOverlap=1.8501880000,1.4010880000
 U=-1.7437090000,-1.4903460000
 Beta=-0.6190810000,-0.3684690000 DDN=0,1,0.8264550000 DDN=1,1,0.7060810000
 CoreKO=0.9473960000 KON=0,0,0,1.0423320000 KON=1,0,1,0.9918320000 KON=0,1,1,0.9192110000
 KON=2,1,1,0.7447560000 EISol=-4.3315453857 EHeat=0.2723305520 Alpha=1.5254470000
 DipHyp=1.6528149066
 GCore=0.0051870000,1.6071440000,1.9728170000
 GCore=0.0008530000,1.8170010000,3.5594500000
 GCore=0.0020350000,1.8721920000,3.6278330000
 GCore=-0.0001990000,2.2720510000,4.7447420000
 ****
 O       
 PQN=2,2 NValence=6 F0ss=0.5599030000 F0sp=0.5456060000 F0pp=0.4568310000 F2pp=0.2547350000
 G1sp=0.3905540000
 ZetaOverlap=3.1793690000,2.5536190000
 U=-3.7487950000,-3.0290820000
 Beta=-1.1275620000,-1.0712800000 DDN=0,1,0.5230310000 DDN=1,1,0.4557020000
 CoreKO=1.0453130000 KON=0,0,0,0.9095110000 KON=1,0,1,0.4967410000 KON=0,1,1,0.8841900000
 KON=2,1,1,0.5885470000 EISol=-11.4672725099 EHeat=0.0949133088 Alpha=2.3276720000
 DipHyp=1.0460018191
 GCore=0.0166740000,1.4612690000,1.7069520000
 GCore=0.0053330000,2.1558110000,2.7169520000
 ****
 
 Standard basis: VSTO-6G (5D, 7F)
 Ernie: Thresh=  0.10000D-02 Tol=  0.10000D-05 Strict=F.
  NNHCO=     0 NNPyr=     0 NCTC=     0               EPep=         0.000000000
    EC=        70.662722884  ECS=         1.406614896   EG=         0.566692625
   EHC=         0.000000000  EAt=       -30.551641297  AtH=         1.516354808
 EPDDG=         0.000000000  ECC=        72.636030404 EAtT=        32.067996105
 There are    24 symmetry adapted cartesian basis functions of A   symmetry.
 There are    24 symmetry adapted basis functions of A   symmetry.
    24 basis functions,   144 primitive gaussians,    24 cartesian basis functions
    13 alpha electrons       13 beta electrons
       nuclear repulsion energy       104.7040265089 Hartrees.
 IExCor=    0 DFT=F Ex=HF Corr=None ExCW=0 ScaHFX=  1.000000
 ScaDFX=  1.000000  1.000000  1.000000  1.000000 ScalE2=  1.000000  1.000000
 IRadAn=      0 IRanWt=     -1 IRanGd=            0 ICorTp=0 IEmpDi=  4
 Integral buffers will be    131072 words long.
 Regular integral format.
 Two-electron integral symmetry is turned off.
 Leave Link  301 at Mon Dec  7 14:51:12 2015, MaxMem=    33554432 cpu:         0.0
 (Enter /home/Applications/g09/g09/l302.exe)
 Do NDO integrals.
 NPDir=0 NMtPBC=     1 NCelOv=     1 NCel=       1 NClECP=     1 NCelD=      1
         NCelK=      1 NCelE2=     1 NClLst=     1 CellRange=     0.0.
 One-electron integrals computed using PRISM.
 NBasis=    24 RedAO= F EigKep=  0.00D+00  NBF=    24
 NBsUse=    24 1.00D-04 EigRej=  0.00D+00 NBFU=    24
 Leave Link  302 at Mon Dec  7 14:51:12 2015, MaxMem=    33554432 cpu:         0.0
 (Enter /home/Applications/g09/g09/l303.exe)
 DipDrv:  MaxL=1.
 Leave Link  303 at Mon Dec  7 14:51:12 2015, MaxMem=    33554432 cpu:         0.0
 (Enter /home/Applications/g09/g09/l401.exe)
 Simple Huckel Guess.
 JPrj=0 DoOrth=F DoCkMO=F.
 Leave Link  401 at Mon Dec  7 14:51:12 2015, MaxMem=    33554432 cpu:         0.0
 (Enter /home/Applications/g09/g09/l502.exe)
 Closed shell SCF:
 Using DIIS extrapolation, IDIIS=  1040.
 Overlap will be assumed to be unity.
 Two-electron integral symmetry not used.
 Keep J ints in memory in canonical form, NReq=888082.
 IVT=       79475 IEndB=       79475 NGot=    33554432 MDV=    33473473
 LenX=    33473473 LenY=    33472456
 Requested convergence on RMS density matrix=1.00D-08 within 128 cycles.
 Requested convergence on MAX density matrix=1.00D-06.
 Requested convergence on             energy=1.00D-06.
 No special actions if energy rises.
 FoFCou: FMM=F IPFlag=           0 FMFlag=           0 FMFlg1=           0
         NFxFlg=           0 DoJE=F BraDBF=F KetDBF=F FulRan=T
         wScrn=  0.000000 ICntrl=     600 IOpCl=  2 I1Cent=           0 NGrid=           0
         NMat0=    1 NMatS0=     54 NMatT0=    0 NMatD0=    1 NMtDS0=    0 NMtDT0=    0
 Symmetry not used in FoFCou.

 Cycle   1  Pass 1  IDiag  1:
 E= -3.64416037190489    
 DIIS: error= 5.06D-02 at cycle   1 NSaved=   1.
 NSaved= 1 IEnMin= 1 EnMin= -3.64416037190489     IErMin= 1 ErrMin= 5.06D-02
 ErrMax= 5.06D-02  0.00D+00 EMaxC= 1.00D-01 BMatC= 9.70D-02 BMatP= 9.70D-02
 IDIUse=3 WtCom= 4.94D-01 WtEn= 5.06D-01
 Coeff-Com:  0.100D+01
 Coeff-En:   0.100D+01
 Coeff:      0.100D+01
 GapD=    2.000 DampG=2.000 DampE=0.500 DampFc=1.0000 IDamp=-1.
 RMSDP=1.53D-02 MaxDP=1.21D-01              OVMax= 0.00D+00

 Cycle   2  Pass 1  IDiag  1:
 E= -3.83502405954934     Delta-E=       -0.190863687644 Rises=F Damp=F
 DIIS: error= 1.10D-02 at cycle   2 NSaved=   2.
 NSaved= 2 IEnMin= 2 EnMin= -3.83502405954934     IErMin= 2 ErrMin= 1.10D-02
 ErrMax= 1.10D-02  0.00D+00 EMaxC= 1.00D-01 BMatC= 7.09D-03 BMatP= 9.70D-02
 IDIUse=3 WtCom= 8.90D-01 WtEn= 1.10D-01
 Coeff-Com: -0.259D+00 0.126D+01
 Coeff-En:   0.000D+00 0.100D+01
 Coeff:     -0.230D+00 0.123D+01
 RMSDP=6.73D-03 MaxDP=4.64D-02 DE=-1.91D-01 OVMax= 0.00D+00

 Cycle   3  Pass 1  IDiag  3:
 E= -3.85928837154178     Delta-E=       -0.024264311992 Rises=F Damp=F
 DIIS: error= 4.79D-03 at cycle   3 NSaved=   3.
 NSaved= 3 IEnMin= 3 EnMin= -3.85928837154178     IErMin= 3 ErrMin= 4.79D-03
 ErrMax= 4.79D-03  0.00D+00 EMaxC= 1.00D-01 BMatC= 1.18D-03 BMatP= 7.09D-03
 IDIUse=3 WtCom= 9.52D-01 WtEn= 4.79D-02
 Coeff-Com:  0.112D+00-0.801D+00 0.169D+01
 Coeff-En:   0.000D+00 0.000D+00 0.100D+01
 Coeff:      0.107D+00-0.762D+00 0.166D+01
 Gap=     0.435 Goal=   None    Shift=    0.000
 RMSDP=4.77D-03 MaxDP=3.24D-02 DE=-2.43D-02 OVMax= 5.41D-02

 Cycle   4  Pass 1  IDiag  3:
 E= -3.86667141486433     Delta-E=       -0.007383043323 Rises=F Damp=F
 DIIS: error= 2.64D-03 at cycle   4 NSaved=   4.
 NSaved= 4 IEnMin= 4 EnMin= -3.86667141486433     IErMin= 4 ErrMin= 2.64D-03
 ErrMax= 2.64D-03  0.00D+00 EMaxC= 1.00D-01 BMatC= 2.07D-04 BMatP= 1.18D-03
 IDIUse=3 WtCom= 9.74D-01 WtEn= 2.64D-02
 Coeff-Com: -0.320D-02 0.134D+00-0.922D+00 0.179D+01
 Coeff-En:   0.000D+00 0.000D+00 0.000D+00 0.100D+01
 Coeff:     -0.312D-02 0.131D+00-0.898D+00 0.177D+01
 Gap=     0.439 Goal=   None    Shift=    0.000
 RMSDP=3.05D-03 MaxDP=2.05D-02 DE=-7.38D-03 OVMax= 3.27D-02

 Cycle   5  Pass 1  IDiag  3:
 E= -3.86820224269775     Delta-E=       -0.001530827833 Rises=F Damp=F
 DIIS: error= 4.33D-04 at cycle   5 NSaved=   5.
 NSaved= 5 IEnMin= 5 EnMin= -3.86820224269775     IErMin= 5 ErrMin= 4.33D-04
 ErrMax= 4.33D-04  0.00D+00 EMaxC= 1.00D-01 BMatC= 5.14D-06 BMatP= 2.07D-04
 IDIUse=3 WtCom= 9.96D-01 WtEn= 4.33D-03
 Coeff-Com: -0.129D-02-0.298D-01 0.287D+00-0.678D+00 0.142D+01
 Coeff-En:   0.000D+00 0.000D+00 0.000D+00 0.000D+00 0.100D+01
 Coeff:     -0.129D-02-0.297D-01 0.286D+00-0.675D+00 0.142D+01
 Gap=     0.439 Goal=   None    Shift=    0.000
 RMSDP=3.12D-04 MaxDP=2.27D-03 DE=-1.53D-03 OVMax= 1.79D-03

 Cycle   6  Pass 1  IDiag  3:
 E= -3.86822687271651     Delta-E=       -0.000024630019 Rises=F Damp=F
 DIIS: error= 1.00D-04 at cycle   6 NSaved=   6.
 NSaved= 6 IEnMin= 6 EnMin= -3.86822687271651     IErMin= 6 ErrMin= 1.00D-04
 ErrMax= 1.00D-04  0.00D+00 EMaxC= 1.00D-01 BMatC= 4.49D-07 BMatP= 5.14D-06
 IDIUse=3 WtCom= 9.99D-01 WtEn= 1.00D-03
 Coeff-Com:  0.118D-02 0.887D-02-0.115D+00 0.289D+00-0.724D+00 0.154D+01
 Coeff-En:   0.000D+00 0.000D+00 0.000D+00 0.000D+00 0.000D+00 0.100D+01
 Coeff:      0.118D-02 0.886D-02-0.115D+00 0.289D+00-0.723D+00 0.154D+01
 Gap=     0.439 Goal=   None    Shift=    0.000
 RMSDP=8.52D-05 MaxDP=5.81D-04 DE=-2.46D-05 OVMax= 7.76D-04

 Cycle   7  Pass 1  IDiag  3:
 E= -3.86822962429301     Delta-E=       -0.000002751577 Rises=F Damp=F
 DIIS: error= 6.73D-05 at cycle   7 NSaved=   7.
 NSaved= 7 IEnMin= 7 EnMin= -3.86822962429301     IErMin= 7 ErrMin= 6.73D-05
 ErrMax= 6.73D-05  0.00D+00 EMaxC= 1.00D-01 BMatC= 1.52D-07 BMatP= 4.49D-07
 IDIUse=1 WtCom= 1.00D+00 WtEn= 0.00D+00
 Coeff-Com: -0.166D-02-0.110D-01 0.151D+00-0.380D+00 0.972D+00-0.250D+01
 Coeff-Com:  0.277D+01
 Coeff:     -0.166D-02-0.110D-01 0.151D+00-0.380D+00 0.972D+00-0.250D+01
 Coeff:      0.277D+01
 Gap=     0.439 Goal=   None    Shift=    0.000
 RMSDP=1.00D-04 MaxDP=8.61D-04 DE=-2.75D-06 OVMax= 1.06D-03

 Cycle   8  Pass 1  IDiag  3:
 E= -3.86823137713135     Delta-E=       -0.000001752838 Rises=F Damp=F
 DIIS: error= 3.11D-05 at cycle   8 NSaved=   8.
 NSaved= 8 IEnMin= 8 EnMin= -3.86823137713135     IErMin= 8 ErrMin= 3.11D-05
 ErrMax= 3.11D-05  0.00D+00 EMaxC= 1.00D-01 BMatC= 3.26D-08 BMatP= 1.52D-07
 IDIUse=1 WtCom= 1.00D+00 WtEn= 0.00D+00
 Coeff-Com:  0.833D-03 0.627D-02-0.833D-01 0.205D+00-0.531D+00 0.150D+01
 Coeff-Com: -0.231D+01 0.221D+01
 Coeff:      0.833D-03 0.627D-02-0.833D-01 0.205D+00-0.531D+00 0.150D+01
 Coeff:     -0.231D+01 0.221D+01
 Gap=     0.439 Goal=   None    Shift=    0.000
 RMSDP=6.87D-05 MaxDP=5.90D-04 DE=-1.75D-06 OVMax= 7.07D-04

 Cycle   9  Pass 1  IDiag  3:
 E= -3.86823180152562     Delta-E=       -0.000000424394 Rises=F Damp=F
 DIIS: error= 6.78D-06 at cycle   9 NSaved=   9.
 NSaved= 9 IEnMin= 9 EnMin= -3.86823180152562     IErMin= 9 ErrMin= 6.78D-06
 ErrMax= 6.78D-06  0.00D+00 EMaxC= 1.00D-01 BMatC= 1.35D-09 BMatP= 3.26D-08
 IDIUse=1 WtCom= 1.00D+00 WtEn= 0.00D+00
 Coeff-Com: -0.414D-04-0.919D-03 0.996D-02-0.222D-01 0.586D-01-0.194D+00
 Coeff-Com:  0.386D+00-0.589D+00 0.135D+01
 Coeff:     -0.414D-04-0.919D-03 0.996D-02-0.222D-01 0.586D-01-0.194D+00
 Coeff:      0.386D+00-0.589D+00 0.135D+01
 Gap=     0.439 Goal=   None    Shift=    0.000
 RMSDP=8.90D-06 MaxDP=8.36D-05 DE=-4.24D-07 OVMax= 8.40D-05

 Cycle  10  Pass 1  IDiag  3:
 E= -3.86823181046182     Delta-E=       -0.000000008936 Rises=F Damp=F
 DIIS: error= 8.82D-07 at cycle  10 NSaved=  10.
 NSaved=10 IEnMin=10 EnMin= -3.86823181046182     IErMin=10 ErrMin= 8.82D-07
 ErrMax= 8.82D-07  0.00D+00 EMaxC= 1.00D-01 BMatC= 5.16D-11 BMatP= 1.35D-09
 IDIUse=1 WtCom= 1.00D+00 WtEn= 0.00D+00
 Coeff-Com: -0.720D-05 0.135D-03-0.108D-02 0.175D-02-0.500D-02 0.249D-01
 Coeff-Com: -0.645D-01 0.128D+00-0.450D+00 0.137D+01
 Coeff:     -0.720D-05 0.135D-03-0.108D-02 0.175D-02-0.500D-02 0.249D-01
 Coeff:     -0.645D-01 0.128D+00-0.450D+00 0.137D+01
 Gap=     0.439 Goal=   None    Shift=    0.000
 RMSDP=9.95D-07 MaxDP=7.14D-06 DE=-8.94D-09 OVMax= 7.90D-06

 Cycle  11  Pass 1  IDiag  3:
 E= -3.86823181068024     Delta-E=       -0.000000000218 Rises=F Damp=F
 DIIS: error= 1.17D-07 at cycle  11 NSaved=  11.
 NSaved=11 IEnMin=11 EnMin= -3.86823181068024     IErMin=11 ErrMin= 1.17D-07
 ErrMax= 1.17D-07  0.00D+00 EMaxC= 1.00D-01 BMatC= 1.13D-12 BMatP= 5.16D-11
 IDIUse=1 WtCom= 1.00D+00 WtEn= 0.00D+00
 Coeff-Com:  0.285D-05-0.207D-04 0.126D-03-0.130D-04 0.193D-03-0.410D-02
 Coeff-Com:  0.143D-01-0.330D-01 0.139D+00-0.502D+00 0.139D+01
 Coeff:      0.285D-05-0.207D-04 0.126D-03-0.130D-04 0.193D-03-0.410D-02
 Coeff:      0.143D-01-0.330D-01 0.139D+00-0.502D+00 0.139D+01
 Gap=     0.439 Goal=   None    Shift=    0.000
 RMSDP=1.35D-07 MaxDP=8.11D-07 DE=-2.18D-10 OVMax= 8.24D-07

 Cycle  12  Pass 1  IDiag  3:
 E= -3.86823181068522     Delta-E=       -0.000000000005 Rises=F Damp=F
 DIIS: error= 2.51D-08 at cycle  12 NSaved=  12.
 NSaved=12 IEnMin=12 EnMin= -3.86823181068522     IErMin=12 ErrMin= 2.51D-08
 ErrMax= 2.51D-08  0.00D+00 EMaxC= 1.00D-01 BMatC= 3.78D-14 BMatP= 1.13D-12
 IDIUse=1 WtCom= 1.00D+00 WtEn= 0.00D+00
 Coeff-Com: -0.152D-05 0.213D-05 0.188D-04-0.169D-03 0.359D-03 0.496D-03
 Coeff-Com: -0.408D-02 0.116D-01-0.543D-01 0.206D+00-0.658D+00 0.150D+01
 Coeff:     -0.152D-05 0.213D-05 0.188D-04-0.169D-03 0.359D-03 0.496D-03
 Coeff:     -0.408D-02 0.116D-01-0.543D-01 0.206D+00-0.658D+00 0.150D+01
 Gap=     0.439 Goal=   None    Shift=    0.000
 RMSDP=2.90D-08 MaxDP=1.24D-07 DE=-4.97D-12 OVMax= 2.12D-07

 Cycle  13  Pass 1  IDiag  3:
 E= -3.86823181068546     Delta-E=        0.000000000000 Rises=F Damp=F
 DIIS: error= 5.52D-09 at cycle  13 NSaved=  13.
 NSaved=13 IEnMin=13 EnMin= -3.86823181068546     IErMin=13 ErrMin= 5.52D-09
 ErrMax= 5.52D-09  0.00D+00 EMaxC= 1.00D-01 BMatC= 1.22D-15 BMatP= 3.78D-14
 IDIUse=1 WtCom= 1.00D+00 WtEn= 0.00D+00
 Coeff-Com:  0.314D-06-0.358D-07-0.696D-05 0.518D-04-0.107D-03-0.133D-03
 Coeff-Com:  0.116D-02-0.325D-02 0.153D-01-0.589D-01 0.191D+00-0.536D+00
 Coeff-Com:  0.139D+01
 Coeff:      0.314D-06-0.358D-07-0.696D-05 0.518D-04-0.107D-03-0.133D-03
 Coeff:      0.116D-02-0.325D-02 0.153D-01-0.589D-01 0.191D+00-0.536D+00
 Coeff:      0.139D+01
 Gap=     0.439 Goal=   None    Shift=    0.000
 RMSDP=5.67D-09 MaxDP=4.48D-08 DE=-2.42D-13 OVMax= 4.05D-08

 Cycle  14  Pass 2  IDiag  1:
 SCF Done:  E(RAM1) =  -3.86823181069     A.U. after   14 cycles
            NFock= 13  Conv=0.57D-08     -V/T= 0.8082
 KE=-2.017262770794D+01 PE=-1.742690440512D+02 EE= 8.586941343952D+01
 Leave Link  502 at Mon Dec  7 14:51:12 2015, MaxMem=    33554432 cpu:         0.0
 (Enter /home/Applications/g09/g09/l601.exe)
 Copying SCF densities to generalized density rwf, IOpCl= 0 IROHF=0.

 **********************************************************************

            Population analysis using the SCF density.

 **********************************************************************

 Orbital symmetries:
       Occupied  (A) (A) (A) (A) (A) (A) (A) (A) (A) (A) (A) (A)
                 (A)
       Virtual   (A) (A) (A) (A) (A) (A) (A) (A) (A) (A) (A)
 The electronic state is 1-A.
 Alpha  occ. eigenvalues --   -1.64211  -1.27319  -1.15522  -0.98407  -0.93829
 Alpha  occ. eigenvalues --   -0.87282  -0.85394  -0.68213  -0.67470  -0.64082
 Alpha  occ. eigenvalues --   -0.61370  -0.57041  -0.45002
 Alpha virt. eigenvalues --   -0.01090   0.03633   0.07594   0.12765   0.15818
 Alpha virt. eigenvalues --    0.16762   0.19491   0.19740   0.23788   0.26872
 Alpha virt. eigenvalues --    0.31089
          Condensed to atoms (all electrons):
               1          2          3          4          5          6
     1  C    4.541827   0.000000   0.000000   0.000000   0.000000   0.000000
     2  C    0.000000   3.051597   0.000000   0.000000   0.000000   0.000000
     3  O    0.000000   0.000000   7.034790   0.000000   0.000000   0.000000
     4  C    0.000000   0.000000   0.000000   3.079115   0.000000   0.000000
     5  C    0.000000   0.000000   0.000000   0.000000   4.493739   0.000000
     6  H    0.000000   0.000000   0.000000   0.000000   0.000000   0.845583
     7  H    0.000000   0.000000   0.000000   0.000000   0.000000   0.000000
     8  H    0.000000   0.000000   0.000000   0.000000   0.000000   0.000000
     9  H    0.000000   0.000000   0.000000   0.000000   0.000000   0.000000
               7          8          9
     1  C    0.000000   0.000000   0.000000
     2  C    0.000000   0.000000   0.000000
     3  O    0.000000   0.000000   0.000000
     4  C    0.000000   0.000000   0.000000
     5  C    0.000000   0.000000   0.000000
     6  H    0.000000   0.000000   0.000000
     7  H    1.057359   0.000000   0.000000
     8  H    0.000000   1.069364   0.000000
     9  H    0.000000   0.000000   0.826626
 Mulliken charges:
               1
     1  C   -0.541827
     2  C    0.948403
     3  O   -1.034790
     4  C    0.920885
     5  C   -0.493739
     6  H    0.154417
     7  H   -0.057359
     8  H   -0.069364
     9  H    0.173374
 Sum of Mulliken charges =   0.00000
 Mulliken charges with hydrogens summed into heavy atoms:
               1
     1  C   -0.368452
     2  C    0.879039
     3  O   -1.034790
     4  C    0.863525
     5  C   -0.339321
 Charge=              0.0000 electrons
 Dipole moment (field-independent basis, Debye):
    X=              0.0191    Y=              0.8706    Z=              0.1325  Tot=              0.8808
 N-N= 1.047040265089D+02 E-N=-1.742690440718D+02  KE=-2.017262770794D+01
 Leave Link  601 at Mon Dec  7 14:51:12 2015, MaxMem=    33554432 cpu:         0.0
 (Enter /home/Applications/g09/g09/l701.exe)
 Compute integral first derivatives.
 ... and contract with generalized density number  0.
 Leave Link  701 at Mon Dec  7 14:51:12 2015, MaxMem=    33554432 cpu:         0.0
 (Enter /home/Applications/g09/g09/l702.exe)
 L702 exits ... SP integral derivatives will be done elsewhere.
 Leave Link  702 at Mon Dec  7 14:51:12 2015, MaxMem=    33554432 cpu:         0.0
 (Enter /home/Applications/g09/g09/l703.exe)
 Compute integral first derivatives, UseDBF=F ICtDFT=           0.
 Integral derivatives from FoFJK, PRISM(SPDF).
 Calling FoFJK, ICntrl=      2127 FMM=F ISym2X=0 I1Cent= 0 IOpClX= 0 NMat=1 NMatS=1 NMatT=0.
 FoFJK:  IHMeth= 8 ICntrl=    2127 DoSepK=F KAlg= 0 I1Cent=   0 FoldK=F
 IRaf=         0 NMat=   1 IRICut=       1 DoRegI=T DoRafI=F ISym2E= 0.
 FoFCou: FMM=F IPFlag=           0 FMFlag=      100000 FMFlg1=         800
         NFxFlg=           0 DoJE=F BraDBF=F KetDBF=F FulRan=T
         wScrn=  0.000000 ICntrl=    2127 IOpCl=  0 I1Cent=           0 NGrid=           0
         NMat0=    1 NMatS0=      1 NMatT0=    0 NMatD0=    1 NMtDS0=    0 NMtDT0=    0
 Symmetry not used in FoFCou.
 Leave Link  703 at Mon Dec  7 14:51:12 2015, MaxMem=    33554432 cpu:         0.0
 (Enter /home/Applications/g09/g09/l716.exe)
 Dipole        = 7.51462433D-03 3.42523002D-01 5.21149917D-02
 ***** Axes restored to original set *****
 -------------------------------------------------------------------
 Center     Atomic                   Forces (Hartrees/Bohr)
 Number     Number              X              Y              Z
 -------------------------------------------------------------------
      1        6          -0.031786529   -0.104774329   -0.015403155
      2        6           0.092320643    0.030057831    0.008040073
      3        8          -0.025499449    0.020053878   -0.009823898
      4        6           0.070885542   -0.002117956    0.004487193
      5        6          -0.128208396    0.056296154    0.014664561
      6        1           0.043641972    0.026700241   -0.004277984
      7        1           0.001528404   -0.021934459   -0.003286818
      8        1          -0.018548489   -0.009958399    0.003028176
      9        1          -0.004333698    0.005677040    0.002571852
 -------------------------------------------------------------------
 Cartesian Forces:  Max     0.128208396 RMS     0.043621513
 Leave Link  716 at Mon Dec  7 14:51:12 2015, MaxMem=    33554432 cpu:         0.0
 (Enter /home/Applications/g09/g09/l103.exe)

 GradGradGradGradGradGradGradGradGradGradGradGradGradGradGradGradGradGrad
 Berny optimization.
 FormGI is forming the generalized inverse of G from B-inverse, IUseBI=4.
 Internal  Forces:  Max     0.070511091 RMS     0.021916114
 Search for a local minimum.
 Step number   1 out of a maximum of   48
 All quantities printed in internal units (Hartrees-Bohrs-Radians)
 RMS Force = .21916D-01 SwitMx=.10000D-02 MixMth= 1
 Mixed Optimization -- RFO/linear search
 Second derivative matrix not updated -- first step.
 ITU=  0
     Eigenvalues ---    0.02229   0.02352   0.02413   0.02471   0.02494
     Eigenvalues ---    0.02560   0.15698   0.15910   0.15974   0.15990
     Eigenvalues ---    0.21981   0.22909   0.34755   0.36346   0.43447
     Eigenvalues ---    0.44953   0.45401   0.48042   0.49111   0.51977
     Eigenvalues ---    0.53543
 RFO step:  Lambda=-4.03449778D-02 EMin= 2.22873436D-02
 Linear search not attempted -- first point.
 Iteration  1 RMS(Cart)=  0.04395873 RMS(Int)=  0.00290030
 Iteration  2 RMS(Cart)=  0.00185844 RMS(Int)=  0.00167805
 Iteration  3 RMS(Cart)=  0.00000760 RMS(Int)=  0.00167804
 Iteration  4 RMS(Cart)=  0.00000001 RMS(Int)=  0.00167804
 ITry= 1 IFail=0 DXMaxC= 9.21D-02 DCOld= 1.00D+10 DXMaxT= 3.00D-01 DXLimC= 3.00D+00 Rises=F
 Variable       Old X    -DE/DX   Delta X   Delta X   Delta X     New X
                                 (Linear)    (Quad)   (Total)
    R1        2.57014  -0.05954   0.00000  -0.10143  -0.10122   2.46892
    R2        2.61527   0.06523   0.00000   0.12523   0.12530   2.74057
    R3        2.06074  -0.00692   0.00000  -0.01785  -0.01785   2.04289
    R4        2.55152   0.02195   0.00000   0.03853   0.03856   2.59008
    R5        1.92030   0.01695   0.00000   0.03460   0.03460   1.95490
    R6        2.60709  -0.00474   0.00000  -0.01133  -0.01151   2.59558
    R7        2.59055  -0.07051   0.00000  -0.13157  -0.13170   2.45884
    R8        2.03543  -0.02015   0.00000  -0.04990  -0.04990   1.98554
    R9        1.88594   0.05055   0.00000   0.09706   0.09706   1.98301
    A1        1.96912  -0.01932   0.00000  -0.06531  -0.06645   1.90267
    A2        2.14011   0.01136   0.00000   0.04400   0.04337   2.18347
    A3        2.16930   0.00838   0.00000   0.02822   0.02743   2.19673
    A4        1.80716   0.00909   0.00000   0.04455   0.04406   1.85122
    A5        2.36671   0.00724   0.00000   0.03600   0.03562   2.40233
    A6        2.10877  -0.01643   0.00000  -0.08190  -0.08170   2.02707
    A7        1.94611  -0.00485   0.00000  -0.01784  -0.01887   1.92724
    A8        1.87478   0.00366   0.00000   0.00461   0.00351   1.87830
    A9        2.03303  -0.01089   0.00000  -0.04673  -0.04655   1.98648
   A10        2.37387   0.00737   0.00000   0.04423   0.04439   2.41826
   A11        1.82261   0.01211   0.00000   0.04478   0.04269   1.86530
   A12        2.29187  -0.01073   0.00000  -0.04192  -0.04322   2.24865
   A13        2.15796  -0.00050   0.00000   0.01087   0.00989   2.16786
    D1       -0.09746   0.00797   0.00000   0.10811   0.10498   0.00752
    D2        3.00738   0.00429   0.00000   0.06002   0.05748   3.06486
    D3       -3.13951   0.00321   0.00000   0.03346   0.03107  -3.10845
    D4       -0.03468  -0.00046   0.00000  -0.01463  -0.01643  -0.05111
    D5        0.07908  -0.00539   0.00000  -0.08904  -0.08913  -0.01005
    D6        3.06396   0.00158   0.00000   0.01342   0.01219   3.07615
    D7        3.11919  -0.00039   0.00000  -0.01201  -0.01352   3.10568
    D8       -0.17911   0.00659   0.00000   0.09044   0.08780  -0.09131
    D9        0.07823  -0.00416   0.00000  -0.07853  -0.08098  -0.00275
   D10       -3.03342  -0.00168   0.00000  -0.04192  -0.04772  -3.08114
   D11       -0.03335   0.00275   0.00000   0.03238   0.02966  -0.00369
   D12       -3.12549   0.00023   0.00000  -0.00397  -0.00473  -3.13022
   D13       -0.02641   0.00244   0.00000   0.03354   0.03437   0.00796
   D14       -3.02672  -0.00255   0.00000  -0.05242  -0.05473  -3.08146
   D15        3.05143   0.00486   0.00000   0.07601   0.07731   3.12874
   D16        0.05112  -0.00013   0.00000  -0.00994  -0.01180   0.03932
         Item               Value     Threshold  Converged?
 Maximum Force            0.070511     0.000450     NO 
 RMS     Force            0.021916     0.000300     NO 
 Maximum Displacement     0.092122     0.001800     NO 
 RMS     Displacement     0.044103     0.001200     NO 
 Predicted change in Energy=-2.287224D-02
 Lowest energy point so far.  Saving SCF results.
 GradGradGradGradGradGradGradGradGradGradGradGradGradGradGradGradGradGrad

 Leave Link  103 at Mon Dec  7 14:51:12 2015, MaxMem=    33554432 cpu:         0.0
 (Enter /home/Applications/g09/g09/l202.exe)
                          Input orientation:                          
 ---------------------------------------------------------------------
 Center     Atomic      Atomic             Coordinates (Angstroms)
 Number     Number       Type             X           Y           Z
 ---------------------------------------------------------------------
      1          6           0        0.910064   -0.716712    0.019915
      2          6           0       -0.334625   -1.113276    0.040381
      3          8           0       -1.096208    0.025960    0.013647
      4          6           0       -0.292353    1.139166   -0.020382
      5          6           0        0.943697    0.732812   -0.011194
      6          1           0        1.774840    1.372614    0.020645
      7          1           0       -0.823325    2.045767   -0.031109
      8          1           0       -0.852324   -2.008424    0.010956
      9          1           0        1.770687   -1.370704    0.002812
 ---------------------------------------------------------------------
                    Distance matrix (angstroms):
                    1          2          3          4          5
     1  C    0.000000
     2  C    1.306497   0.000000
     3  O    2.139329   1.370614   0.000000
     4  C    2.211721   2.253658   1.373524   0.000000
     5  C    1.450248   2.246065   2.159044   1.301163   0.000000
     6  H    2.261221   3.260350   3.171189   2.080737   1.049361
     7  H    3.261676   3.197419   2.038649   1.050700   2.201502
     8  H    2.185089   1.034489   2.048952   3.197166   3.277279
     9  H    1.081050   2.121325   3.189024   3.249018   2.260285
                    6          7          8          9
     6  H    0.000000
     7  H    2.684450   0.000000
     8  H    4.281764   4.054513   0.000000
     9  H    2.743379   4.289792   2.699433   0.000000
 Stoichiometry    C4H4O
 Framework group  C1[X(C4H4O)]
 Deg. of freedom    21
 Full point group                 C1      NOp   1
 RotChk:  IX=2 Diff= 2.57D-01
 Largest Abelian subgroup         C1      NOp   1
 Largest concise Abelian subgroup C1      NOp   1
                         Standard orientation:                         
 ---------------------------------------------------------------------
 Center     Atomic      Atomic             Coordinates (Angstroms)
 Number     Number       Type             X           Y           Z
 ---------------------------------------------------------------------
      1          6           0       -0.677185    0.938282   -0.000681
      2          6           0       -1.145854   -0.281214   -0.011364
      3          8           0       -0.052595   -1.107838   -0.003626
      4          6           0        1.105960   -0.370160    0.008590
      5          6           0        0.772164    0.887451    0.004155
      6          1           0        1.458588    1.679880   -0.040986
      7          1           0        1.980152   -0.953030    0.004044
      8          1           0       -2.068943   -0.745858    0.035321
      9          1           0       -1.279540    1.835557    0.026434
 ---------------------------------------------------------------------
 Rotational constants (GHZ):     10.1272615      9.1533456      4.8084041
 Leave Link  202 at Mon Dec  7 14:51:12 2015, MaxMem=    33554432 cpu:         0.0
 (Enter /home/Applications/g09/g09/l301.exe)

 Semi-emprical parameters in input format:
 Method=8 CoreType=1 PeptideFC=0.0112330000 RIJScale=0.5291770000
 ****
 H       
 PQN=1 NValence=1 F0ss=0.5237600000 ZetaOverlap=0.9601790000 U=-0.5223910000
 Beta=-0.2029260000 CoreKO=1.0644050000 KON=0,0,0,0.9730020000 KON=1,0,1,0.9833730000
 KON=0,1,1,1.0628700000 KON=2,1,1,1.0792230000 EISol=-0.4395468110 EHeat=0.0830298228
 Alpha=1.8213180000
 GCore=0.0075240000,1.9935190000,2.0426320000
 GCore=0.0049980000,1.7363170000,3.8655940000
 GCore=-0.0024160000,0.8585610000,2.9505260000
 ****
 C       
 PQN=2,2 NValence=4 F0ss=0.4547130000 F0sp=0.4023160000 F0pp=0.3368050000 F2pp=0.1899800000
 G1sp=0.1791820000
 ZetaOverlap=1.8501880000,1.4010880000
 U=-1.7437090000,-1.4903460000
 Beta=-0.6190810000,-0.3684690000 DDN=0,1,0.8264550000 DDN=1,1,0.7060810000
 CoreKO=0.9473960000 KON=0,0,0,1.0423320000 KON=1,0,1,0.9918320000 KON=0,1,1,0.9192110000
 KON=2,1,1,0.7447560000 EISol=-4.3315453857 EHeat=0.2723305520 Alpha=1.5254470000
 DipHyp=1.6528149066
 GCore=0.0051870000,1.6071440000,1.9728170000
 GCore=0.0008530000,1.8170010000,3.5594500000
 GCore=0.0020350000,1.8721920000,3.6278330000
 GCore=-0.0001990000,2.2720510000,4.7447420000
 ****
 O       
 PQN=2,2 NValence=6 F0ss=0.5599030000 F0sp=0.5456060000 F0pp=0.4568310000 F2pp=0.2547350000
 G1sp=0.3905540000
 ZetaOverlap=3.1793690000,2.5536190000
 U=-3.7487950000,-3.0290820000
 Beta=-1.1275620000,-1.0712800000 DDN=0,1,0.5230310000 DDN=1,1,0.4557020000
 CoreKO=1.0453130000 KON=0,0,0,0.9095110000 KON=1,0,1,0.4967410000 KON=0,1,1,0.8841900000
 KON=2,1,1,0.5885470000 EISol=-11.4672725099 EHeat=0.0949133088 Alpha=2.3276720000
 DipHyp=1.0460018191
 GCore=0.0166740000,1.4612690000,1.7069520000
 GCore=0.0053330000,2.1558110000,2.7169520000
 ****
 
 Standard basis: VSTO-6G (5D, 7F)
 Ernie: Thresh=  0.10000D-02 Tol=  0.10000D-05 Strict=F.
  NNHCO=     0 NNPyr=     0 NCTC=     0               EPep=         0.000000000
    EC=        70.868155673  ECS=         1.436904640   EG=         0.573983259
   EHC=         0.000000000  EAt=       -30.551641297  AtH=         1.516354808
 EPDDG=         0.000000000  ECC=        72.879043573 EAtT=        32.067996105
 There are    24 symmetry adapted cartesian basis functions of A   symmetry.
 There are    24 symmetry adapted basis functions of A   symmetry.
    24 basis functions,   144 primitive gaussians,    24 cartesian basis functions
    13 alpha electrons       13 beta electrons
       nuclear repulsion energy       104.9470396780 Hartrees.
 IExCor=    0 DFT=F Ex=HF Corr=None ExCW=0 ScaHFX=  1.000000
 ScaDFX=  1.000000  1.000000  1.000000  1.000000 ScalE2=  1.000000  1.000000
 IRadAn=      0 IRanWt=     -1 IRanGd=            0 ICorTp=0 IEmpDi=  4
 Integral buffers will be    131072 words long.
 Regular integral format.
 Two-electron integral symmetry is turned off.
 Leave Link  301 at Mon Dec  7 14:51:12 2015, MaxMem=    33554432 cpu:         0.0
 (Enter /home/Applications/g09/g09/l302.exe)
 Do NDO integrals.
 NPDir=0 NMtPBC=     1 NCelOv=     1 NCel=       1 NClECP=     1 NCelD=      1
         NCelK=      1 NCelE2=     1 NClLst=     1 CellRange=     0.0.
 One-electron integrals computed using PRISM.
 NBasis=    24 RedAO= F EigKep=  0.00D+00  NBF=    24
 NBsUse=    24 1.00D-04 EigRej=  0.00D+00 NBFU=    24
 Leave Link  302 at Mon Dec  7 14:51:12 2015, MaxMem=    33554432 cpu:         0.0
 (Enter /home/Applications/g09/g09/l303.exe)
 DipDrv:  MaxL=1.
 Leave Link  303 at Mon Dec  7 14:51:12 2015, MaxMem=    33554432 cpu:         0.0
 (Enter /home/Applications/g09/g09/l401.exe)
 Initial guess from the checkpoint file:  "/home/Applications/g09/scratch/Gau-10488.chk"
 B after Tr=     0.000000    0.000000    0.000000
         Rot=    0.995904   -0.000268   -0.000134   -0.090413 Ang= -10.37 deg.
 Guess basis will be translated and rotated to current coordinates.
 JPrj=0 DoOrth=T DoCkMO=T.
 Leave Link  401 at Mon Dec  7 14:51:12 2015, MaxMem=    33554432 cpu:         0.0
 (Enter /home/Applications/g09/g09/l502.exe)
 Closed shell SCF:
 Using DIIS extrapolation, IDIIS=  1040.
 Overlap will be assumed to be unity.
 Two-electron integral symmetry not used.
 Keep J ints in memory in canonical form, NReq=888082.
 IVT=       79475 IEndB=       79475 NGot=    33554432 MDV=    33473473
 LenX=    33473473 LenY=    33472456
 Requested convergence on RMS density matrix=1.00D-08 within 128 cycles.
 Requested convergence on MAX density matrix=1.00D-06.
 Requested convergence on             energy=1.00D-06.
 No special actions if energy rises.
 FoFCou: FMM=F IPFlag=           0 FMFlag=           0 FMFlg1=           0
         NFxFlg=           0 DoJE=F BraDBF=F KetDBF=F FulRan=T
         wScrn=  0.000000 ICntrl=     600 IOpCl=  2 I1Cent=           0 NGrid=           0
         NMat0=    1 NMatS0=     54 NMatT0=    0 NMatD0=    1 NMtDS0=    0 NMtDT0=    0
 Symmetry not used in FoFCou.

 Cycle   1  Pass 1  IDiag  1:
 E= -3.87773827087513    
 DIIS: error= 1.01D-02 at cycle   1 NSaved=   1.
 NSaved= 1 IEnMin= 1 EnMin= -3.87773827087513     IErMin= 1 ErrMin= 1.01D-02
 ErrMax= 1.01D-02  0.00D+00 EMaxC= 1.00D-01 BMatC= 4.40D-03 BMatP= 4.40D-03
 IDIUse=3 WtCom= 8.99D-01 WtEn= 1.01D-01
 Coeff-Com:  0.100D+01
 Coeff-En:   0.100D+01
 Coeff:      0.100D+01
 GapD=    2.000 DampG=2.000 DampE=0.500 DampFc=1.0000 IDamp=-1.
 RMSDP=3.86D-03 MaxDP=1.69D-02              OVMax= 0.00D+00

 Cycle   2  Pass 1  IDiag  3:
 E= -3.88855160984608     Delta-E=       -0.010813338971 Rises=F Damp=F
 DIIS: error= 2.66D-03 at cycle   2 NSaved=   2.
 NSaved= 2 IEnMin= 2 EnMin= -3.88855160984608     IErMin= 2 ErrMin= 2.66D-03
 ErrMax= 2.66D-03  0.00D+00 EMaxC= 1.00D-01 BMatC= 4.03D-04 BMatP= 4.40D-03
 IDIUse=3 WtCom= 9.73D-01 WtEn= 2.66D-02
 Coeff-Com: -0.379D+00 0.138D+01
 Coeff-En:   0.000D+00 0.100D+01
 Coeff:     -0.369D+00 0.137D+01
 Gap=     0.480 Goal=   None    Shift=    0.000
 RMSDP=1.94D-03 MaxDP=1.14D-02 DE=-1.08D-02 OVMax= 1.73D-02

 Cycle   3  Pass 1  IDiag  3:
 E= -3.89000073728828     Delta-E=       -0.001449127442 Rises=F Damp=F
 DIIS: error= 6.76D-04 at cycle   3 NSaved=   3.
 NSaved= 3 IEnMin= 3 EnMin= -3.89000073728828     IErMin= 3 ErrMin= 6.76D-04
 ErrMax= 6.76D-04  0.00D+00 EMaxC= 1.00D-01 BMatC= 1.82D-05 BMatP= 4.03D-04
 IDIUse=3 WtCom= 9.93D-01 WtEn= 6.76D-03
 Coeff-Com:  0.199D+00-0.796D+00 0.160D+01
 Coeff-En:   0.000D+00 0.000D+00 0.100D+01
 Coeff:      0.197D+00-0.791D+00 0.159D+01
 Gap=     0.481 Goal=   None    Shift=    0.000
 RMSDP=6.26D-04 MaxDP=4.47D-03 DE=-1.45D-03 OVMax= 7.31D-03

 Cycle   4  Pass 1  IDiag  3:
 E= -3.89011300660670     Delta-E=       -0.000112269318 Rises=F Damp=F
 DIIS: error= 3.20D-04 at cycle   4 NSaved=   4.
 NSaved= 4 IEnMin= 4 EnMin= -3.89011300660670     IErMin= 4 ErrMin= 3.20D-04
 ErrMax= 3.20D-04  0.00D+00 EMaxC= 1.00D-01 BMatC= 2.83D-06 BMatP= 1.82D-05
 IDIUse=3 WtCom= 9.97D-01 WtEn= 3.20D-03
 Coeff-Com: -0.112D+00 0.460D+00-0.116D+01 0.182D+01
 Coeff-En:   0.000D+00 0.000D+00 0.000D+00 0.100D+01
 Coeff:     -0.111D+00 0.459D+00-0.116D+01 0.181D+01
 Gap=     0.481 Goal=   None    Shift=    0.000
 RMSDP=2.79D-04 MaxDP=2.47D-03 DE=-1.12D-04 OVMax= 2.81D-03

 Cycle   5  Pass 1  IDiag  3:
 E= -3.89013251291540     Delta-E=       -0.000019506309 Rises=F Damp=F
 DIIS: error= 1.28D-04 at cycle   5 NSaved=   5.
 NSaved= 5 IEnMin= 5 EnMin= -3.89013251291540     IErMin= 5 ErrMin= 1.28D-04
 ErrMax= 1.28D-04  0.00D+00 EMaxC= 1.00D-01 BMatC= 4.20D-07 BMatP= 2.83D-06
 IDIUse=3 WtCom= 9.99D-01 WtEn= 1.28D-03
 Coeff-Com:  0.304D-01-0.129D+00 0.402D+00-0.105D+01 0.175D+01
 Coeff-En:   0.000D+00 0.000D+00 0.000D+00 0.000D+00 0.100D+01
 Coeff:      0.304D-01-0.129D+00 0.402D+00-0.105D+01 0.175D+01
 Gap=     0.481 Goal=   None    Shift=    0.000
 RMSDP=1.24D-04 MaxDP=1.15D-03 DE=-1.95D-05 OVMax= 8.26D-04

 Cycle   6  Pass 1  IDiag  3:
 E= -3.89013564729370     Delta-E=       -0.000003134378 Rises=F Damp=F
 DIIS: error= 3.99D-05 at cycle   6 NSaved=   6.
 NSaved= 6 IEnMin= 6 EnMin= -3.89013564729370     IErMin= 6 ErrMin= 3.99D-05
 ErrMax= 3.99D-05  0.00D+00 EMaxC= 1.00D-01 BMatC= 5.49D-08 BMatP= 4.20D-07
 IDIUse=1 WtCom= 1.00D+00 WtEn= 0.00D+00
 Coeff-Com: -0.798D-02 0.350D-01-0.129D+00 0.450D+00-0.103D+01 0.168D+01
 Coeff:     -0.798D-02 0.350D-01-0.129D+00 0.450D+00-0.103D+01 0.168D+01
 Gap=     0.481 Goal=   None    Shift=    0.000
 RMSDP=3.96D-05 MaxDP=3.20D-04 DE=-3.13D-06 OVMax= 3.61D-04

 Cycle   7  Pass 1  IDiag  3:
 E= -3.89013608380475     Delta-E=       -0.000000436511 Rises=F Damp=F
 DIIS: error= 2.69D-05 at cycle   7 NSaved=   7.
 NSaved= 7 IEnMin= 7 EnMin= -3.89013608380475     IErMin= 7 ErrMin= 2.69D-05
 ErrMax= 2.69D-05  0.00D+00 EMaxC= 1.00D-01 BMatC= 1.87D-08 BMatP= 5.49D-08
 IDIUse=1 WtCom= 1.00D+00 WtEn= 0.00D+00
 Coeff-Com:  0.729D-02-0.329D-01 0.137D+00-0.562D+00 0.143D+01-0.300D+01
 Coeff-Com:  0.302D+01
 Coeff:      0.729D-02-0.329D-01 0.137D+00-0.562D+00 0.143D+01-0.300D+01
 Coeff:      0.302D+01
 Gap=     0.481 Goal=   None    Shift=    0.000
 RMSDP=4.13D-05 MaxDP=3.33D-04 DE=-4.37D-07 OVMax= 4.17D-04

 Cycle   8  Pass 1  IDiag  3:
 E= -3.89013631020306     Delta-E=       -0.000000226398 Rises=F Damp=F
 DIIS: error= 8.27D-06 at cycle   8 NSaved=   8.
 NSaved= 8 IEnMin= 8 EnMin= -3.89013631020306     IErMin= 8 ErrMin= 8.27D-06
 ErrMax= 8.27D-06  0.00D+00 EMaxC= 1.00D-01 BMatC= 1.87D-09 BMatP= 1.87D-08
 IDIUse=1 WtCom= 1.00D+00 WtEn= 0.00D+00
 Coeff-Com: -0.299D-02 0.138D-01-0.638D-01 0.286D+00-0.762D+00 0.171D+01
 Coeff-Com: -0.209D+01 0.190D+01
 Coeff:     -0.299D-02 0.138D-01-0.638D-01 0.286D+00-0.762D+00 0.171D+01
 Coeff:     -0.209D+01 0.190D+01
 Gap=     0.481 Goal=   None    Shift=    0.000
 RMSDP=1.46D-05 MaxDP=1.25D-04 DE=-2.26D-07 OVMax= 1.46D-04

 Cycle   9  Pass 1  IDiag  3:
 E= -3.89013633071178     Delta-E=       -0.000000020509 Rises=F Damp=F
 DIIS: error= 9.03D-07 at cycle   9 NSaved=   9.
 NSaved= 9 IEnMin= 9 EnMin= -3.89013633071178     IErMin= 9 ErrMin= 9.03D-07
 ErrMax= 9.03D-07  0.00D+00 EMaxC= 1.00D-01 BMatC= 3.71D-11 BMatP= 1.87D-09
 IDIUse=1 WtCom= 1.00D+00 WtEn= 0.00D+00
 Coeff-Com:  0.114D-02-0.529D-02 0.242D-01-0.107D+00 0.287D+00-0.647D+00
 Coeff-Com:  0.803D+00-0.829D+00 0.147D+01
 Coeff:      0.114D-02-0.529D-02 0.242D-01-0.107D+00 0.287D+00-0.647D+00
 Coeff:      0.803D+00-0.829D+00 0.147D+01
 Gap=     0.481 Goal=   None    Shift=    0.000
 RMSDP=1.22D-06 MaxDP=1.08D-05 DE=-2.05D-08 OVMax= 8.66D-06

 Cycle  10  Pass 1  IDiag  3:
 E= -3.89013633094353     Delta-E=       -0.000000000232 Rises=F Damp=F
 DIIS: error= 9.74D-08 at cycle  10 NSaved=  10.
 NSaved=10 IEnMin=10 EnMin= -3.89013633094353     IErMin=10 ErrMin= 9.74D-08
 ErrMax= 9.74D-08  0.00D+00 EMaxC= 1.00D-01 BMatC= 7.95D-13 BMatP= 3.71D-11
 IDIUse=1 WtCom= 1.00D+00 WtEn= 0.00D+00
 Coeff-Com: -0.314D-03 0.145D-02-0.660D-02 0.290D-01-0.776D-01 0.175D+00
 Coeff-Com: -0.216D+00 0.226D+00-0.473D+00 0.134D+01
 Coeff:     -0.314D-03 0.145D-02-0.660D-02 0.290D-01-0.776D-01 0.175D+00
 Coeff:     -0.216D+00 0.226D+00-0.473D+00 0.134D+01
 Gap=     0.481 Goal=   None    Shift=    0.000
 RMSDP=1.14D-07 MaxDP=4.97D-07 DE=-2.32D-10 OVMax= 8.32D-07

 Cycle  11  Pass 1  IDiag  3:
 E= -3.89013633094726     Delta-E=       -0.000000000004 Rises=F Damp=F
 DIIS: error= 2.01D-08 at cycle  11 NSaved=  11.
 NSaved=11 IEnMin=11 EnMin= -3.89013633094726     IErMin=11 ErrMin= 2.01D-08
 ErrMax= 2.01D-08  0.00D+00 EMaxC= 1.00D-01 BMatC= 2.05D-14 BMatP= 7.95D-13
 IDIUse=1 WtCom= 1.00D+00 WtEn= 0.00D+00
 Coeff-Com:  0.530D-04-0.243D-03 0.110D-02-0.480D-02 0.128D-01-0.289D-01
 Coeff-Com:  0.355D-01-0.378D-01 0.839D-01-0.342D+00 0.128D+01
 Coeff:      0.530D-04-0.243D-03 0.110D-02-0.480D-02 0.128D-01-0.289D-01
 Coeff:      0.355D-01-0.378D-01 0.839D-01-0.342D+00 0.128D+01
 Gap=     0.481 Goal=   None    Shift=    0.000
 RMSDP=2.14D-08 MaxDP=1.42D-07 DE=-3.72D-12 OVMax= 1.91D-07

 Cycle  12  Pass 1  IDiag  3:
 E= -3.89013633094749     Delta-E=        0.000000000000 Rises=F Damp=F
 DIIS: error= 2.92D-09 at cycle  12 NSaved=  12.
 NSaved=12 IEnMin=12 EnMin= -3.89013633094749     IErMin=12 ErrMin= 2.92D-09
 ErrMax= 2.92D-09  0.00D+00 EMaxC= 1.00D-01 BMatC= 6.22D-16 BMatP= 2.05D-14
 IDIUse=1 WtCom= 1.00D+00 WtEn= 0.00D+00
 Coeff-Com: -0.231D-05 0.104D-04-0.463D-04 0.186D-03-0.508D-03 0.112D-02
 Coeff-Com: -0.135D-02 0.173D-02-0.520D-02 0.430D-01-0.330D+00 0.129D+01
 Coeff:     -0.231D-05 0.104D-04-0.463D-04 0.186D-03-0.508D-03 0.112D-02
 Coeff:     -0.135D-02 0.173D-02-0.520D-02 0.430D-01-0.330D+00 0.129D+01
 Gap=     0.481 Goal=   None    Shift=    0.000
 RMSDP=3.07D-09 MaxDP=1.16D-08 DE=-2.27D-13 OVMax= 2.26D-08

 Cycle  13  Pass 2  IDiag  1:
 SCF Done:  E(RAM1) =  -3.89013633095     A.U. after   13 cycles
            NFock= 12  Conv=0.31D-08     -V/T= 0.8076
 KE=-2.021378914463D+01 PE=-1.746812157344D+02 EE= 8.605782887006D+01
 Leave Link  502 at Mon Dec  7 14:51:12 2015, MaxMem=    33554432 cpu:         0.0
 (Enter /home/Applications/g09/g09/l701.exe)
 Compute integral first derivatives.
 ... and contract with generalized density number  0.
 Leave Link  701 at Mon Dec  7 14:51:12 2015, MaxMem=    33554432 cpu:         0.0
 (Enter /home/Applications/g09/g09/l702.exe)
 L702 exits ... SP integral derivatives will be done elsewhere.
 Leave Link  702 at Mon Dec  7 14:51:12 2015, MaxMem=    33554432 cpu:         0.0
 (Enter /home/Applications/g09/g09/l703.exe)
 Compute integral first derivatives, UseDBF=F ICtDFT=           0.
 Integral derivatives from FoFJK, PRISM(SPDF).
 Calling FoFJK, ICntrl=      2127 FMM=F ISym2X=0 I1Cent= 0 IOpClX= 0 NMat=1 NMatS=1 NMatT=0.
 FoFJK:  IHMeth= 8 ICntrl=    2127 DoSepK=F KAlg= 0 I1Cent=   0 FoldK=F
 IRaf=         0 NMat=   1 IRICut=       1 DoRegI=T DoRafI=F ISym2E= 0.
 FoFCou: FMM=F IPFlag=           0 FMFlag=      100000 FMFlg1=         800
         NFxFlg=           0 DoJE=F BraDBF=F KetDBF=F FulRan=T
         wScrn=  0.000000 ICntrl=    2127 IOpCl=  0 I1Cent=           0 NGrid=           0
         NMat0=    1 NMatS0=      1 NMatT0=    0 NMatD0=    1 NMtDS0=    0 NMtDT0=    0
 Symmetry not used in FoFCou.
 Leave Link  703 at Mon Dec  7 14:51:12 2015, MaxMem=    33554432 cpu:         0.0
 (Enter /home/Applications/g09/g09/l716.exe)
 Dipole        = 2.50672744D-03 4.74875976D-01-1.53478197D-02
 ***** Axes restored to original set *****
 -------------------------------------------------------------------
 Center     Atomic                   Forces (Hartrees/Bohr)
 Number     Number              X              Y              Z
 -------------------------------------------------------------------
      1        6           0.015094858   -0.011312766   -0.000665120
      2        6           0.015687263   -0.000028338   -0.007450667
      3        8          -0.025369513    0.001193961    0.000241642
      4        6          -0.001169619    0.013110755    0.001751579
      5        6          -0.003947405   -0.004510341    0.004173141
      6        1           0.014696946    0.003583116   -0.002391163
      7        1          -0.003498228   -0.006229319   -0.000722195
      8        1          -0.010386034   -0.001143806    0.003588671
      9        1          -0.001108268    0.005336740    0.001474112
 -------------------------------------------------------------------
 Cartesian Forces:  Max     0.025369513 RMS     0.008547693
 Leave Link  716 at Mon Dec  7 14:51:12 2015, MaxMem=    33554432 cpu:         0.0
 (Enter /home/Applications/g09/g09/l103.exe)

 GradGradGradGradGradGradGradGradGradGradGradGradGradGradGradGradGradGrad
 Berny optimization.
 Using GEDIIS/GDIIS optimizer.
 FormGI is forming the generalized inverse of G from B-inverse, IUseBI=4.
 Internal  Forces:  Max     0.015305724 RMS     0.005840306
 Search for a local minimum.
 Step number   2 out of a maximum of   48
 All quantities printed in internal units (Hartrees-Bohrs-Radians)
 RMS Force = .58403D-02 SwitMx=.10000D-02 MixMth= 1
 Mixed Optimization -- RFO/linear search
 Update second derivatives using D2CorX and points    1    2
 DE= -2.19D-02 DEPred=-2.29D-02 R= 9.58D-01
 TightC=F SS=  1.41D+00  RLast= 3.68D-01 DXNew= 5.0454D-01 1.1029D+00
 Trust test= 9.58D-01 RLast= 3.68D-01 DXMaxT set to 5.05D-01
 ITU=  1  0
 Use linear search instead of GDIIS.
     Eigenvalues ---    0.02224   0.02342   0.02404   0.02462   0.02564
     Eigenvalues ---    0.02697   0.14285   0.15970   0.15984   0.16016
     Eigenvalues ---    0.21301   0.22665   0.34568   0.36101   0.43184
     Eigenvalues ---    0.44059   0.45271   0.45974   0.49069   0.52743
     Eigenvalues ---    0.65361
 RFO step:  Lambda=-5.32420099D-03 EMin= 2.22407715D-02
 Quartic linear search produced a step of  0.07950.
 Iteration  1 RMS(Cart)=  0.03242523 RMS(Int)=  0.00151177
 Iteration  2 RMS(Cart)=  0.00112658 RMS(Int)=  0.00094796
 Iteration  3 RMS(Cart)=  0.00000145 RMS(Int)=  0.00094796
 Iteration  4 RMS(Cart)=  0.00000000 RMS(Int)=  0.00094796
 ITry= 1 IFail=0 DXMaxC= 7.98D-02 DCOld= 1.00D+10 DXMaxT= 5.05D-01 DXLimC= 3.00D+00 Rises=F
 Variable       Old X    -DE/DX   Delta X   Delta X   Delta X     New X
                                 (Linear)    (Quad)   (Total)
    R1        2.46892   0.00878  -0.00805   0.01355   0.00571   2.47463
    R2        2.74057   0.00333   0.00996   0.01129   0.02118   2.76175
    R3        2.04289  -0.00413  -0.00142  -0.01316  -0.01458   2.02831
    R4        2.59008   0.01158   0.00307   0.02377   0.02703   2.61711
    R5        1.95490   0.00609   0.00275   0.01556   0.01831   1.97321
    R6        2.59558   0.00785  -0.00091   0.01718   0.01619   2.61177
    R7        2.45884   0.01531  -0.01047   0.02791   0.01720   2.47604
    R8        1.98554  -0.00360  -0.00397  -0.01207  -0.01604   1.96950
    R9        1.98301   0.01375   0.00772   0.03378   0.04149   2.02450
    A1        1.90267  -0.00414  -0.00528  -0.02445  -0.02954   1.87313
    A2        2.18347   0.00566   0.00345   0.03593   0.03909   2.22256
    A3        2.19673  -0.00151   0.00218  -0.01115  -0.00926   2.18748
    A4        1.85122   0.00793   0.00350   0.03756   0.04042   1.89165
    A5        2.40233   0.00447   0.00283   0.03976   0.04111   2.44345
    A6        2.02707  -0.01221  -0.00650  -0.07111  -0.07903   1.94804
    A7        1.92724  -0.00767  -0.00150  -0.03296  -0.03405   1.89319
    A8        1.87830   0.00234   0.00028   0.01223   0.01228   1.89057
    A9        1.98648  -0.00728  -0.00370  -0.04651  -0.05027   1.93621
   A10        2.41826   0.00495   0.00353   0.03466   0.03811   2.45637
   A11        1.86530   0.00155   0.00339   0.00785   0.01081   1.87611
   A12        2.24865  -0.00671  -0.00344  -0.04262  -0.04634   2.20231
   A13        2.16786   0.00521   0.00079   0.03618   0.03674   2.20460
    D1        0.00752  -0.00053   0.00835  -0.02855  -0.02038  -0.01285
    D2        3.06486   0.00197   0.00457   0.06992   0.07634   3.14120
    D3       -3.10845  -0.00091   0.00247  -0.04148  -0.04028   3.13446
    D4       -0.05111   0.00159  -0.00131   0.05699   0.05644   0.00532
    D5       -0.01005   0.00041  -0.00709   0.02297   0.01583   0.00578
    D6        3.07615   0.00164   0.00097   0.05267   0.05242   3.12857
    D7        3.10568   0.00093  -0.00107   0.03688   0.03612  -3.14139
    D8       -0.09131   0.00216   0.00698   0.06658   0.07272  -0.01860
    D9       -0.00275   0.00052  -0.00644   0.02521   0.01826   0.01551
   D10       -3.08114  -0.00204  -0.00379  -0.05355  -0.05356  -3.13470
   D11       -0.00369  -0.00028   0.00236  -0.01094  -0.00802  -0.01171
   D12       -3.13022  -0.00086  -0.00038  -0.03074  -0.02999   3.12297
   D13        0.00796  -0.00003   0.00273  -0.00648  -0.00415   0.00381
   D14       -3.08146  -0.00072  -0.00435  -0.03137  -0.03749  -3.11895
   D15        3.12874   0.00059   0.00615   0.01964   0.02685  -3.12759
   D16        0.03932  -0.00010  -0.00094  -0.00525  -0.00649   0.03283
         Item               Value     Threshold  Converged?
 Maximum Force            0.015306     0.000450     NO 
 RMS     Force            0.005840     0.000300     NO 
 Maximum Displacement     0.079847     0.001800     NO 
 RMS     Displacement     0.032584     0.001200     NO 
 Predicted change in Energy=-2.936934D-03
 Lowest energy point so far.  Saving SCF results.
 GradGradGradGradGradGradGradGradGradGradGradGradGradGradGradGradGradGrad

 Leave Link  103 at Mon Dec  7 14:51:12 2015, MaxMem=    33554432 cpu:         0.0
 (Enter /home/Applications/g09/g09/l202.exe)
                          Input orientation:                          
 ---------------------------------------------------------------------
 Center     Atomic      Atomic             Coordinates (Angstroms)
 Number     Number       Type             X           Y           Z
 ---------------------------------------------------------------------
      1          6           0        0.932049   -0.727548    0.013979
      2          6           0       -0.321819   -1.105230    0.012249
      3          8           0       -1.119070    0.027194    0.011590
      4          6           0       -0.299371    1.139806   -0.007330
      5          6           0        0.946374    0.733734   -0.003466
      6          1           0        1.817093    1.357839    0.004658
      7          1           0       -0.862209    2.016761   -0.026587
      8          1           0       -0.894148   -1.978551    0.019596
      9          1           0        1.801555   -1.356804    0.020981
 ---------------------------------------------------------------------
                    Distance matrix (angstroms):
                    1          2          3          4          5
     1  C    0.000000
     2  C    1.309516   0.000000
     3  O    2.185573   1.384916   0.000000
     4  C    2.236931   2.245234   1.382089   0.000000
     5  C    1.461456   2.233909   2.182999   1.310263   0.000000
     6  H    2.265442   3.262163   3.223619   2.127699   1.071319
     7  H    3.279061   3.168653   2.006443   1.042213   2.217581
     8  H    2.213603   1.044176   2.018332   3.174687   3.277887
     9  H    1.073337   2.138243   3.231963   3.263090   2.258823
                    6          7          8          9
     6  H    0.000000
     7  H    2.759314   0.000000
     8  H    4.299133   3.995707   0.000000
     9  H    2.714737   4.298702   2.766475   0.000000
 Stoichiometry    C4H4O
 Framework group  C1[X(C4H4O)]
 Deg. of freedom    21
 Full point group                 C1      NOp   1
 RotChk:  IX=2 Diff= 8.83D-02
 Largest Abelian subgroup         C1      NOp   1
 Largest concise Abelian subgroup C1      NOp   1
                         Standard orientation:                         
 ---------------------------------------------------------------------
 Center     Atomic      Atomic             Coordinates (Angstroms)
 Number     Number       Type             X           Y           Z
 ---------------------------------------------------------------------
      1          6           0       -0.744829    0.916784   -0.001319
      2          6           0       -1.117956   -0.338436    0.004365
      3          8           0        0.017287   -1.131603   -0.005796
      4          6           0        1.127069   -0.307898    0.002128
      5          6           0        0.716492    0.936376    0.001927
      6          1           0        1.337347    1.809334   -0.012458
      7          1           0        2.006193   -0.867568    0.012992
      8          1           0       -1.989239   -0.913908    0.005633
      9          1           0       -1.377253    1.784016   -0.002404
 ---------------------------------------------------------------------
 Rotational constants (GHZ):      9.7823553      9.2182297      4.7460673
 Leave Link  202 at Mon Dec  7 14:51:12 2015, MaxMem=    33554432 cpu:         0.0
 (Enter /home/Applications/g09/g09/l301.exe)

 Semi-emprical parameters in input format:
 Method=8 CoreType=1 PeptideFC=0.0112330000 RIJScale=0.5291770000
 ****
 H       
 PQN=1 NValence=1 F0ss=0.5237600000 ZetaOverlap=0.9601790000 U=-0.5223910000
 Beta=-0.2029260000 CoreKO=1.0644050000 KON=0,0,0,0.9730020000 KON=1,0,1,0.9833730000
 KON=0,1,1,1.0628700000 KON=2,1,1,1.0792230000 EISol=-0.4395468110 EHeat=0.0830298228
 Alpha=1.8213180000
 GCore=0.0075240000,1.9935190000,2.0426320000
 GCore=0.0049980000,1.7363170000,3.8655940000
 GCore=-0.0024160000,0.8585610000,2.9505260000
 ****
 C       
 PQN=2,2 NValence=4 F0ss=0.4547130000 F0sp=0.4023160000 F0pp=0.3368050000 F2pp=0.1899800000
 G1sp=0.1791820000
 ZetaOverlap=1.8501880000,1.4010880000
 U=-1.7437090000,-1.4903460000
 Beta=-0.6190810000,-0.3684690000 DDN=0,1,0.8264550000 DDN=1,1,0.7060810000
 CoreKO=0.9473960000 KON=0,0,0,1.0423320000 KON=1,0,1,0.9918320000 KON=0,1,1,0.9192110000
 KON=2,1,1,0.7447560000 EISol=-4.3315453857 EHeat=0.2723305520 Alpha=1.5254470000
 DipHyp=1.6528149066
 GCore=0.0051870000,1.6071440000,1.9728170000
 GCore=0.0008530000,1.8170010000,3.5594500000
 GCore=0.0020350000,1.8721920000,3.6278330000
 GCore=-0.0001990000,2.2720510000,4.7447420000
 ****
 O       
 PQN=2,2 NValence=6 F0ss=0.5599030000 F0sp=0.5456060000 F0pp=0.4568310000 F2pp=0.2547350000
 G1sp=0.3905540000
 ZetaOverlap=3.1793690000,2.5536190000
 U=-3.7487950000,-3.0290820000
 Beta=-1.1275620000,-1.0712800000 DDN=0,1,0.5230310000 DDN=1,1,0.4557020000
 CoreKO=1.0453130000 KON=0,0,0,0.9095110000 KON=1,0,1,0.4967410000 KON=0,1,1,0.8841900000
 KON=2,1,1,0.5885470000 EISol=-11.4672725099 EHeat=0.0949133088 Alpha=2.3276720000
 DipHyp=1.0460018191
 GCore=0.0166740000,1.4612690000,1.7069520000
 GCore=0.0053330000,2.1558110000,2.7169520000
 ****
 
 Standard basis: VSTO-6G (5D, 7F)
 Ernie: Thresh=  0.10000D-02 Tol=  0.10000D-05 Strict=F.
  NNHCO=     0 NNPyr=     0 NCTC=     0               EPep=         0.000000000
    EC=        70.550821278  ECS=         1.400235920   EG=         0.557823483
   EHC=         0.000000000  EAt=       -30.551641297  AtH=         1.516354808
 EPDDG=         0.000000000  ECC=        72.508880680 EAtT=        32.067996105
 There are    24 symmetry adapted cartesian basis functions of A   symmetry.
 There are    24 symmetry adapted basis functions of A   symmetry.
    24 basis functions,   144 primitive gaussians,    24 cartesian basis functions
    13 alpha electrons       13 beta electrons
       nuclear repulsion energy       104.5768767851 Hartrees.
 IExCor=    0 DFT=F Ex=HF Corr=None ExCW=0 ScaHFX=  1.000000
 ScaDFX=  1.000000  1.000000  1.000000  1.000000 ScalE2=  1.000000  1.000000
 IRadAn=      0 IRanWt=     -1 IRanGd=            0 ICorTp=0 IEmpDi=  4
 Integral buffers will be    131072 words long.
 Regular integral format.
 Two-electron integral symmetry is turned off.
 Leave Link  301 at Mon Dec  7 14:51:12 2015, MaxMem=    33554432 cpu:         0.0
 (Enter /home/Applications/g09/g09/l302.exe)
 Do NDO integrals.
 NPDir=0 NMtPBC=     1 NCelOv=     1 NCel=       1 NClECP=     1 NCelD=      1
         NCelK=      1 NCelE2=     1 NClLst=     1 CellRange=     0.0.
 One-electron integrals computed using PRISM.
 NBasis=    24 RedAO= F EigKep=  0.00D+00  NBF=    24
 NBsUse=    24 1.00D-04 EigRej=  0.00D+00 NBFU=    24
 Leave Link  302 at Mon Dec  7 14:51:12 2015, MaxMem=    33554432 cpu:         0.0
 (Enter /home/Applications/g09/g09/l303.exe)
 DipDrv:  MaxL=1.
 Leave Link  303 at Mon Dec  7 14:51:12 2015, MaxMem=    33554432 cpu:         0.0
 (Enter /home/Applications/g09/g09/l401.exe)
 Initial guess from the checkpoint file:  "/home/Applications/g09/scratch/Gau-10488.chk"
 B after Tr=     0.000000    0.000000    0.000000
         Rot=    0.999550   -0.000058   -0.000022   -0.030012 Ang=  -3.44 deg.
 Guess basis will be translated and rotated to current coordinates.
 JPrj=0 DoOrth=T DoCkMO=T.
 Leave Link  401 at Mon Dec  7 14:51:12 2015, MaxMem=    33554432 cpu:         0.0
 (Enter /home/Applications/g09/g09/l502.exe)
 Closed shell SCF:
 Using DIIS extrapolation, IDIIS=  1040.
 Overlap will be assumed to be unity.
 Two-electron integral symmetry not used.
 Keep J ints in memory in canonical form, NReq=888082.
 IVT=       79475 IEndB=       79475 NGot=    33554432 MDV=    33473473
 LenX=    33473473 LenY=    33472456
 Requested convergence on RMS density matrix=1.00D-08 within 128 cycles.
 Requested convergence on MAX density matrix=1.00D-06.
 Requested convergence on             energy=1.00D-06.
 No special actions if energy rises.
 FoFCou: FMM=F IPFlag=           0 FMFlag=           0 FMFlg1=           0
         NFxFlg=           0 DoJE=F BraDBF=F KetDBF=F FulRan=T
         wScrn=  0.000000 ICntrl=     600 IOpCl=  2 I1Cent=           0 NGrid=           0
         NMat0=    1 NMatS0=     54 NMatT0=    0 NMatD0=    1 NMtDS0=    0 NMtDT0=    0
 Symmetry not used in FoFCou.

 Cycle   1  Pass 1  IDiag  1:
 E= -3.89148911157895    
 DIIS: error= 3.34D-03 at cycle   1 NSaved=   1.
 NSaved= 1 IEnMin= 1 EnMin= -3.89148911157895     IErMin= 1 ErrMin= 3.34D-03
 ErrMax= 3.34D-03  0.00D+00 EMaxC= 1.00D-01 BMatC= 4.94D-04 BMatP= 4.94D-04
 IDIUse=3 WtCom= 9.67D-01 WtEn= 3.34D-02
 Coeff-Com:  0.100D+01
 Coeff-En:   0.100D+01
 Coeff:      0.100D+01
 GapD=    2.000 DampG=2.000 DampE=1.000 DampFc=2.0000 IDamp=-1.
 RMSDP=1.29D-03 MaxDP=6.43D-03              OVMax= 0.00D+00

 Cycle   2  Pass 1  IDiag  3:
 E= -3.89271602930913     Delta-E=       -0.001226917730 Rises=F Damp=F
 DIIS: error= 1.06D-03 at cycle   2 NSaved=   2.
 NSaved= 2 IEnMin= 2 EnMin= -3.89271602930913     IErMin= 2 ErrMin= 1.06D-03
 ErrMax= 1.06D-03  0.00D+00 EMaxC= 1.00D-01 BMatC= 4.69D-05 BMatP= 4.94D-04
 IDIUse=3 WtCom= 9.89D-01 WtEn= 1.06D-02
 Coeff-Com: -0.393D+00 0.139D+01
 Coeff-En:   0.000D+00 0.100D+01
 Coeff:     -0.389D+00 0.139D+01
 Gap=     0.479 Goal=   None    Shift=    0.000
 RMSDP=6.39D-04 MaxDP=3.06D-03 DE=-1.23D-03 OVMax= 3.71D-03

 Cycle   3  Pass 1  IDiag  3:
 E= -3.89287694175749     Delta-E=       -0.000160912448 Rises=F Damp=F
 DIIS: error= 1.30D-04 at cycle   3 NSaved=   3.
 NSaved= 3 IEnMin= 3 EnMin= -3.89287694175749     IErMin= 3 ErrMin= 1.30D-04
 ErrMax= 1.30D-04  0.00D+00 EMaxC= 1.00D-01 BMatC= 1.14D-06 BMatP= 4.69D-05
 IDIUse=3 WtCom= 9.99D-01 WtEn= 1.30D-03
 Coeff-Com:  0.150D+00-0.601D+00 0.145D+01
 Coeff-En:   0.000D+00 0.000D+00 0.100D+01
 Coeff:      0.150D+00-0.601D+00 0.145D+01
 Gap=     0.479 Goal=   None    Shift=    0.000
 RMSDP=1.34D-04 MaxDP=5.67D-04 DE=-1.61D-04 OVMax= 8.85D-04

 Cycle   4  Pass 1  IDiag  3:
 E= -3.89288224964064     Delta-E=       -0.000005307883 Rises=F Damp=F
 DIIS: error= 2.94D-05 at cycle   4 NSaved=   4.
 NSaved= 4 IEnMin= 4 EnMin= -3.89288224964064     IErMin= 4 ErrMin= 2.94D-05
 ErrMax= 2.94D-05  0.00D+00 EMaxC= 1.00D-01 BMatC= 4.04D-08 BMatP= 1.14D-06
 IDIUse=1 WtCom= 1.00D+00 WtEn= 0.00D+00
 Coeff-Com: -0.278D-01 0.119D+00-0.396D+00 0.130D+01
 Coeff:     -0.278D-01 0.119D+00-0.396D+00 0.130D+01
 Gap=     0.479 Goal=   None    Shift=    0.000
 RMSDP=2.43D-05 MaxDP=1.29D-04 DE=-5.31D-06 OVMax= 2.07D-04

 Cycle   5  Pass 1  IDiag  3:
 E= -3.89288246108912     Delta-E=       -0.000000211448 Rises=F Damp=F
 DIIS: error= 2.00D-05 at cycle   5 NSaved=   5.
 NSaved= 5 IEnMin= 5 EnMin= -3.89288246108912     IErMin= 5 ErrMin= 2.00D-05
 ErrMax= 2.00D-05  0.00D+00 EMaxC= 1.00D-01 BMatC= 8.90D-09 BMatP= 4.04D-08
 IDIUse=1 WtCom= 1.00D+00 WtEn= 0.00D+00
 Coeff-Com:  0.964D-02-0.424D-01 0.167D+00-0.821D+00 0.169D+01
 Coeff:      0.964D-02-0.424D-01 0.167D+00-0.821D+00 0.169D+01
 Gap=     0.479 Goal=   None    Shift=    0.000
 RMSDP=1.41D-05 MaxDP=1.26D-04 DE=-2.11D-07 OVMax= 1.31D-04

 Cycle   6  Pass 1  IDiag  3:
 E= -3.89288252775226     Delta-E=       -0.000000066663 Rises=F Damp=F
 DIIS: error= 1.14D-05 at cycle   6 NSaved=   6.
 NSaved= 6 IEnMin= 6 EnMin= -3.89288252775226     IErMin= 6 ErrMin= 1.14D-05
 ErrMax= 1.14D-05  0.00D+00 EMaxC= 1.00D-01 BMatC= 3.33D-09 BMatP= 8.90D-09
 IDIUse=1 WtCom= 1.00D+00 WtEn= 0.00D+00
 Coeff-Com: -0.546D-02 0.258D-01-0.128D+00 0.855D+00-0.267D+01 0.292D+01
 Coeff:     -0.546D-02 0.258D-01-0.128D+00 0.855D+00-0.267D+01 0.292D+01
 Gap=     0.479 Goal=   None    Shift=    0.000
 RMSDP=1.81D-05 MaxDP=1.63D-04 DE=-6.67D-08 OVMax= 1.83D-04

 Cycle   7  Pass 1  IDiag  3:
 E= -3.89288256851110     Delta-E=       -0.000000040759 Rises=F Damp=F
 DIIS: error= 3.42D-06 at cycle   7 NSaved=   7.
 NSaved= 7 IEnMin= 7 EnMin= -3.89288256851110     IErMin= 7 ErrMin= 3.42D-06
 ErrMax= 3.42D-06  0.00D+00 EMaxC= 1.00D-01 BMatC= 3.10D-10 BMatP= 3.33D-09
 IDIUse=1 WtCom= 1.00D+00 WtEn= 0.00D+00
 Coeff-Com:  0.171D-02-0.882D-02 0.559D-01-0.446D+00 0.157D+01-0.204D+01
 Coeff-Com:  0.186D+01
 Coeff:      0.171D-02-0.882D-02 0.559D-01-0.446D+00 0.157D+01-0.204D+01
 Coeff:      0.186D+01
 Gap=     0.479 Goal=   None    Shift=    0.000
 RMSDP=5.13D-06 MaxDP=4.06D-05 DE=-4.08D-08 OVMax= 5.06D-05

 Cycle   8  Pass 1  IDiag  3:
 E= -3.89288257167917     Delta-E=       -0.000000003168 Rises=F Damp=F
 DIIS: error= 1.08D-06 at cycle   8 NSaved=   8.
 NSaved= 8 IEnMin= 8 EnMin= -3.89288257167917     IErMin= 8 ErrMin= 1.08D-06
 ErrMax= 1.08D-06  0.00D+00 EMaxC= 1.00D-01 BMatC= 3.04D-11 BMatP= 3.10D-10
 IDIUse=1 WtCom= 1.00D+00 WtEn= 0.00D+00
 Coeff-Com: -0.117D-02 0.593D-02-0.362D-01 0.288D+00-0.102D+01 0.135D+01
 Coeff-Com: -0.143D+01 0.185D+01
 Coeff:     -0.117D-02 0.593D-02-0.362D-01 0.288D+00-0.102D+01 0.135D+01
 Coeff:     -0.143D+01 0.185D+01
 Gap=     0.479 Goal=   None    Shift=    0.000
 RMSDP=1.12D-06 MaxDP=1.08D-05 DE=-3.17D-09 OVMax= 8.28D-06

 Cycle   9  Pass 1  IDiag  3:
 E= -3.89288257191282     Delta-E=       -0.000000000234 Rises=F Damp=F
 DIIS: error= 3.34D-07 at cycle   9 NSaved=   9.
 NSaved= 9 IEnMin= 9 EnMin= -3.89288257191282     IErMin= 9 ErrMin= 3.34D-07
 ErrMax= 3.34D-07  0.00D+00 EMaxC= 1.00D-01 BMatC= 3.83D-12 BMatP= 3.04D-11
 IDIUse=1 WtCom= 1.00D+00 WtEn= 0.00D+00
 Coeff-Com:  0.585D-03-0.305D-02 0.198D-01-0.163D+00 0.590D+00-0.788D+00
 Coeff-Com:  0.871D+00-0.144D+01 0.192D+01
 Coeff:      0.585D-03-0.305D-02 0.198D-01-0.163D+00 0.590D+00-0.788D+00
 Coeff:      0.871D+00-0.144D+01 0.192D+01
 Gap=     0.479 Goal=   None    Shift=    0.000
 RMSDP=4.13D-07 MaxDP=3.86D-06 DE=-2.34D-10 OVMax= 3.47D-06

 Cycle  10  Pass 1  IDiag  3:
 E= -3.89288257194154     Delta-E=       -0.000000000029 Rises=F Damp=F
 DIIS: error= 4.50D-08 at cycle  10 NSaved=  10.
 NSaved=10 IEnMin=10 EnMin= -3.89288257194154     IErMin=10 ErrMin= 4.50D-08
 ErrMax= 4.50D-08  0.00D+00 EMaxC= 1.00D-01 BMatC= 1.45D-13 BMatP= 3.83D-12
 IDIUse=1 WtCom= 1.00D+00 WtEn= 0.00D+00
 Coeff-Com: -0.245D-03 0.127D-02-0.822D-02 0.677D-01-0.245D+00 0.327D+00
 Coeff-Com: -0.362D+00 0.625D+00-0.985D+00 0.158D+01
 Coeff:     -0.245D-03 0.127D-02-0.822D-02 0.677D-01-0.245D+00 0.327D+00
 Coeff:     -0.362D+00 0.625D+00-0.985D+00 0.158D+01
 Gap=     0.479 Goal=   None    Shift=    0.000
 RMSDP=6.99D-08 MaxDP=5.40D-07 DE=-2.87D-11 OVMax= 5.26D-07

 Cycle  11  Pass 1  IDiag  3:
 E= -3.89288257194235     Delta-E=       -0.000000000001 Rises=F Damp=F
 DIIS: error= 4.98D-09 at cycle  11 NSaved=  11.
 NSaved=11 IEnMin=11 EnMin= -3.89288257194235     IErMin=11 ErrMin= 4.98D-09
 ErrMax= 4.98D-09  0.00D+00 EMaxC= 1.00D-01 BMatC= 1.71D-15 BMatP= 1.45D-13
 IDIUse=1 WtCom= 1.00D+00 WtEn= 0.00D+00
 Coeff-Com:  0.669D-04-0.351D-03 0.231D-02-0.192D-01 0.697D-01-0.931D-01
 Coeff-Com:  0.103D+00-0.180D+00 0.290D+00-0.528D+00 0.135D+01
 Coeff:      0.669D-04-0.351D-03 0.231D-02-0.192D-01 0.697D-01-0.931D-01
 Coeff:      0.103D+00-0.180D+00 0.290D+00-0.528D+00 0.135D+01
 Gap=     0.479 Goal=   None    Shift=    0.000
 RMSDP=5.24D-09 MaxDP=2.56D-08 DE=-8.10D-13 OVMax= 4.16D-08

 Cycle  12  Pass 2  IDiag  1:
 SCF Done:  E(RAM1) =  -3.89288257194     A.U. after   12 cycles
            NFock= 11  Conv=0.52D-08     -V/T= 0.8070
 KE=-2.016998429163D+01 PE=-1.740404150758D+02 EE= 8.574064001043D+01
 Leave Link  502 at Mon Dec  7 14:51:12 2015, MaxMem=    33554432 cpu:         0.0
 (Enter /home/Applications/g09/g09/l701.exe)
 Compute integral first derivatives.
 ... and contract with generalized density number  0.
 Leave Link  701 at Mon Dec  7 14:51:12 2015, MaxMem=    33554432 cpu:         0.0
 (Enter /home/Applications/g09/g09/l702.exe)
 L702 exits ... SP integral derivatives will be done elsewhere.
 Leave Link  702 at Mon Dec  7 14:51:12 2015, MaxMem=    33554432 cpu:         0.0
 (Enter /home/Applications/g09/g09/l703.exe)
 Compute integral first derivatives, UseDBF=F ICtDFT=           0.
 Integral derivatives from FoFJK, PRISM(SPDF).
 Calling FoFJK, ICntrl=      2127 FMM=F ISym2X=0 I1Cent= 0 IOpClX= 0 NMat=1 NMatS=1 NMatT=0.
 FoFJK:  IHMeth= 8 ICntrl=    2127 DoSepK=F KAlg= 0 I1Cent=   0 FoldK=F
 IRaf=         0 NMat=   1 IRICut=       1 DoRegI=T DoRafI=F ISym2E= 0.
 FoFCou: FMM=F IPFlag=           0 FMFlag=      100000 FMFlg1=         800
         NFxFlg=           0 DoJE=F BraDBF=F KetDBF=F FulRan=T
         wScrn=  0.000000 ICntrl=    2127 IOpCl=  0 I1Cent=           0 NGrid=           0
         NMat0=    1 NMatS0=      1 NMatT0=    0 NMatD0=    1 NMtDS0=    0 NMtDT0=    0
 Symmetry not used in FoFCou.
 Leave Link  703 at Mon Dec  7 14:51:12 2015, MaxMem=    33554432 cpu:         0.0
 (Enter /home/Applications/g09/g09/l716.exe)
 Dipole        =-4.15417024D-04 5.61111642D-01 1.16467192D-02
 ***** Axes restored to original set *****
 -------------------------------------------------------------------
 Center     Atomic                   Forces (Hartrees/Bohr)
 Number     Number              X              Y              Z
 -------------------------------------------------------------------
      1        6          -0.006425885    0.007909687   -0.001714310
      2        6           0.004919385   -0.001160341    0.002625786
      3        8           0.005640225   -0.002215648   -0.002261951
      4        6           0.005889840   -0.000268221   -0.000022177
      5        6          -0.008516631   -0.005705411    0.002094873
      6        1           0.002134602   -0.002101171   -0.000949141
      7        1          -0.001889450    0.000261561    0.000528617
      8        1          -0.002334945    0.001483111   -0.000257885
      9        1           0.000582860    0.001796432   -0.000043811
 -------------------------------------------------------------------
 Cartesian Forces:  Max     0.008516631 RMS     0.003602397
 Leave Link  716 at Mon Dec  7 14:51:12 2015, MaxMem=    33554432 cpu:         0.0
 (Enter /home/Applications/g09/g09/l103.exe)

 GradGradGradGradGradGradGradGradGradGradGradGradGradGradGradGradGradGrad
 Berny optimization.
 Using GEDIIS/GDIIS optimizer.
 FormGI is forming the generalized inverse of G from B-inverse, IUseBI=4.
 Internal  Forces:  Max     0.007693344 RMS     0.002453058
 Search for a local minimum.
 Step number   3 out of a maximum of   48
 All quantities printed in internal units (Hartrees-Bohrs-Radians)
 RMS Force = .24531D-02 SwitMx=.10000D-02 MixMth= 1
 Mixed Optimization -- RFO/linear search
 Update second derivatives using D2CorX and points    1    2    3
 DE= -2.75D-03 DEPred=-2.94D-03 R= 9.35D-01
 TightC=F SS=  1.41D+00  RLast= 2.29D-01 DXNew= 8.4853D-01 6.8574D-01
 Trust test= 9.35D-01 RLast= 2.29D-01 DXMaxT set to 6.86D-01
 ITU=  1  1  0
 Use linear search instead of GDIIS.
     Eigenvalues ---    0.02222   0.02348   0.02402   0.02486   0.02573
     Eigenvalues ---    0.02753   0.10605   0.15998   0.16003   0.16087
     Eigenvalues ---    0.21969   0.24979   0.34500   0.36375   0.42856
[...]
     38 -0.232758D-05 -0.602472D-05 -0.800609D-05  0.496986D-05  0.286276D-05
               16            17            18            19            20 
     16  0.127605D+00
     17 -0.635479D-01  0.103767D+00
     18  0.315149D-01 -0.541165D-01  0.760119D-01
     19  0.320330D-01 -0.496505D-01 -0.218953D-01  0.715459D-01
     20 -0.251732D-03 -0.310574D-01  0.172523D-01  0.138051D-01  0.835348D-01
     21  0.489866D-02  0.163713D-01 -0.921609D-02 -0.715527D-02 -0.439698D-01
     22 -0.464692D-02  0.146860D-01 -0.803621D-02 -0.664979D-02 -0.395650D-01
     23  0.183737D-04 -0.108617D-04  0.131782D-04 -0.283966D-05  0.628252D-04
     24  0.844937D-05  0.139325D-04 -0.775494D-05 -0.207138D-05  0.113914D-04
     25  0.216711D-04 -0.329817D-04  0.226030D-04  0.543909D-05  0.554414D-04
     26  0.117467D-04 -0.818747D-05  0.166983D-05  0.620737D-05  0.400765D-05
     27  0.277820D-04 -0.465928D-04  0.286823D-04  0.124477D-04  0.131666D-04
     28  0.271073D-04 -0.497584D-04  0.239720D-04  0.210523D-04  0.101515D-04
     29  0.179123D-04 -0.206383D-04  0.175838D-04  0.176518D-05  0.229500D-04
     30  0.172376D-04 -0.238039D-04  0.128735D-04  0.103698D-04  0.199349D-04
     31  0.287936D-05  0.250133D-04 -0.231059D-04  0.415423D-05 -0.108081D-04
     32  0.193440D-04  0.898647D-05 -0.922778D-05  0.326810D-05  0.236659D-04
     33  0.673440D-05  0.612881D-05  0.753130D-05 -0.232514D-04 -0.295616D-04
     34  0.346252D-04 -0.315814D-04 -0.188178D-04  0.514850D-04 -0.288466D-04
     35  0.360725D-04 -0.383302D-04  0.152386D-04  0.321030D-04 -0.172518D-04
     36  0.278693D-04 -0.342148D-04  0.200230D-04  0.224323D-04 -0.162454D-04
     37  0.207694D-04 -0.212340D-04  0.352637D-05  0.104306D-04 -0.785301D-05
     38  0.125662D-04 -0.171186D-04  0.831083D-05  0.000000D+00 -0.684663D-05
               21            22            23            24            25 
     21  0.614333D-01
     22 -0.174635D-01  0.570285D-01
     23 -0.346539D-04 -0.166127D-04  0.180184D-01
     24  0.158814D-05 -0.102320D-04  0.241577D-02  0.150114D-01
     25 -0.420155D-04 -0.768060D-05  0.636211D-02 -0.790559D-02  0.135396D-01
     26 -0.577346D-05 -0.129990D-05 -0.924057D-02  0.469004D-02 -0.728130D-03
     27 -0.321431D-05 -0.260317D-04 -0.156771D-01 -0.621717D-02 -0.172071D-02
     28 -0.330306D-04  0.273090D-04 -0.619282D-02 -0.396273D-02  0.299361D-02
     29  0.000000D+00 -0.329940D-04 -0.466227D-02  0.353616D-02 -0.850314D-02
     30 -0.303584D-04  0.203468D-04  0.482205D-02  0.579060D-02 -0.378882D-02
     31  0.133555D-04 -0.620656D-05 -0.146464D-01  0.195590D-02 -0.880464D-02
     32 -0.101311D-04 -0.114177D-04 -0.441776D-02 -0.630137D-02  0.548796D-03
     33  0.136298D-04  0.920372D-05  0.452026D-02 -0.597248D-02  0.769394D-02
     34  0.166268D-05  0.214636D-04  0.392673D-02 -0.131363D-02  0.208955D-02
     35  0.114953D-04  0.191825D-04  0.634093D-02  0.724461D-02 -0.368840D-02
     36 -0.275041D-04  0.354813D-04 -0.369127D-02  0.485991D-02 -0.867503D-02
     37  0.244085D-04 -0.466674D-05  0.724638D-02  0.137309D-03  0.486138D-02
     38 -0.145909D-04  0.116320D-04 -0.278583D-02 -0.224739D-02 -0.125254D-03
               26            27            28            29            30 
     26  0.132025D-01
     27  0.773926D-02  0.201762D-01
     28  0.522370D-02  0.698216D-02  0.106172D-01
     29 -0.304712D-03  0.698777D-02 -0.169873D-02  0.106173D-01
     30 -0.282027D-02 -0.620622D-02  0.193629D-02  0.193080D-02  0.100733D-01
     31  0.779763D-02  0.651822D-02  0.351573D-02  0.997981D-03 -0.200451D-02
     32 -0.133482D-02  0.316584D-03  0.205375D-02 -0.437663D-02 -0.263946D-02
     33 -0.279880D-02  0.651512D-02  0.994435D-03  0.351608D-02 -0.200460D-02
     34 -0.315082D-02  0.317147D-03 -0.437668D-02  0.205322D-02 -0.264061D-02
     35 -0.278472D-02 -0.156727D-01 -0.465606D-02 -0.619534D-02  0.482134D-02
     36 -0.123843D-03 -0.171657D-02 -0.850101D-02  0.299293D-02 -0.379151D-02
     37 -0.224770D-02 -0.621743D-02  0.353786D-02 -0.396368D-02  0.579161D-02
     38  0.413185D-03  0.773874D-02 -0.307091D-03  0.522459D-02 -0.282124D-02
               31            32            33            34            35 
     31  0.178344D-01
     32  0.695046D-02  0.818531D-02
     33 -0.136254D-01 -0.674666D-02  0.178357D-01
     34 -0.674792D-02 -0.331250D-02  0.695353D-02  0.818544D-02
     35  0.451836D-02  0.392594D-02 -0.146437D-01 -0.441951D-02  0.180118D-01
     36  0.769428D-02  0.208841D-02 -0.880406D-02  0.545500D-03  0.635867D-02
     37 -0.597351D-02 -0.131303D-02  0.195760D-02 -0.629878D-02  0.241434D-02
     38 -0.279758D-02 -0.315056D-02  0.779720D-02 -0.133377D-02 -0.923875D-02
               36            37            38 
     36  0.135351D-01
     37 -0.790452D-02  0.150099D-01
     38 -0.728093D-03  0.469101D-02  0.132017D-01
 Leave Link  716 at Mon Dec  7 14:51:14 2015, MaxMem=    33554432 cpu:         0.0
 (Enter /home/Applications/g09/g09/l103.exe)

 GradGradGradGradGradGradGradGradGradGradGradGradGradGradGradGradGradGrad
 Berny optimization.
 Red2BG is reusing G-inverse.
 Internal  Forces:  Max     0.000238507 RMS     0.000084608
 Search for a local minimum.
 Step number   1 out of a maximum of    2
 All quantities printed in internal units (Hartrees-Bohrs-Radians)
 Second derivative matrix not updated -- analytic derivatives used.
 ITU=  0
     Eigenvalues ---    0.01300   0.01628   0.02749   0.03500   0.06554
     Eigenvalues ---    0.06574   0.07210   0.07808   0.08813   0.09410
     Eigenvalues ---    0.16269   0.26221   0.30858   0.30953   0.33185
     Eigenvalues ---    0.33468   0.33715   0.42684   0.56864   0.67784
     Eigenvalues ---    0.91400
 Angle between quadratic step and forces=  53.84 degrees.
 Linear search not attempted -- first point.
 Iteration  1 RMS(Cart)=  0.00045025 RMS(Int)=  0.00000027
 Iteration  2 RMS(Cart)=  0.00000020 RMS(Int)=  0.00000019
 ITry= 1 IFail=0 DXMaxC= 1.14D-03 DCOld= 1.00D+10 DXMaxT= 3.00D-01 DXLimC= 3.00D+00 Rises=F
 Variable       Old X    -DE/DX   Delta X   Delta X   Delta X     New X
                                 (Linear)    (Quad)   (Total)
    R1        2.46933   0.00024   0.00000   0.00025   0.00025   2.46957
    R2        2.75030   0.00021   0.00000   0.00029   0.00029   2.75058
    R3        2.02832  -0.00005   0.00000  -0.00019  -0.00019   2.02814
    R4        2.61277   0.00017   0.00000   0.00025   0.00025   2.61303
    R5        1.97221   0.00012   0.00000   0.00033   0.00033   1.97255
    R6        2.61287   0.00012   0.00000   0.00015   0.00015   2.61303
    R7        2.46938   0.00020   0.00000   0.00019   0.00019   2.46957
    R8        1.97253   0.00002   0.00000   0.00002   0.00002   1.97255
    R9        2.02777   0.00011   0.00000   0.00036   0.00036   2.02814
    A1        1.88084  -0.00003   0.00000  -0.00009  -0.00009   1.88075
    A2        2.23993   0.00002   0.00000   0.00014   0.00014   2.24007
    A3        2.16241   0.00001   0.00000  -0.00005  -0.00005   2.16236
    A4        1.87973  -0.00004   0.00000  -0.00012  -0.00012   1.87961
    A5        2.47916   0.00004   0.00000   0.00030   0.00030   2.47946
    A6        1.92429   0.00000   0.00000  -0.00017  -0.00017   1.92411
    A7        1.90379   0.00009   0.00000   0.00027   0.00027   1.90405
    A8        1.87989  -0.00006   0.00000  -0.00028  -0.00028   1.87961
    A9        1.92411   0.00002   0.00000   0.00000   0.00000   1.92411
   A10        2.47919   0.00004   0.00000   0.00027   0.00027   2.47946
   A11        1.88053   0.00004   0.00000   0.00023   0.00023   1.88075
   A12        2.16289  -0.00005   0.00000  -0.00052  -0.00053   2.16236
   A13        2.23977   0.00001   0.00000   0.00030   0.00030   2.24007
    D1       -0.00109   0.00007   0.00000   0.00109   0.00109   0.00000
    D2        3.14101   0.00004   0.00000   0.00058   0.00058   3.14159
    D3        3.14152   0.00000   0.00000   0.00007   0.00007   3.14159
    D4        0.00045  -0.00003   0.00000  -0.00045  -0.00045   0.00000
    D5        0.00155  -0.00010   0.00000  -0.00155  -0.00155   0.00000
    D6       -3.14125  -0.00003   0.00000  -0.00034  -0.00034   3.14159
    D7       -3.14101  -0.00004   0.00000  -0.00058  -0.00058  -3.14159
    D8       -0.00063   0.00004   0.00000   0.00063   0.00063   0.00000
    D9        0.00032  -0.00002   0.00000  -0.00032  -0.00032   0.00000
   D10        3.14157   0.00000   0.00000   0.00002   0.00002  -3.14159
   D11        0.00068  -0.00004   0.00000  -0.00068  -0.00068   0.00000
   D12       -3.14151  -0.00001   0.00000  -0.00008  -0.00008   3.14159
   D13       -0.00132   0.00009   0.00000   0.00132   0.00132   0.00000
   D14        3.14155   0.00001   0.00000   0.00004   0.00004  -3.14159
   D15        3.14120   0.00003   0.00000   0.00039   0.00039   3.14159
   D16        0.00089  -0.00005   0.00000  -0.00089  -0.00089   0.00000
         Item               Value     Threshold  Converged?
 Maximum Force            0.000239     0.000450     YES
 RMS     Force            0.000085     0.000300     YES
 Maximum Displacement     0.001139     0.001800     YES
 RMS     Displacement     0.000450     0.001200     YES
 Predicted change in Energy=-4.767768D-07
 Optimization completed.
    -- Stationary point found.
                           ----------------------------
                           !   Optimized Parameters   !
                           ! (Angstroms and Degrees)  !
 --------------------------                            --------------------------
 ! Name  Definition              Value          Derivative Info.                !
 --------------------------------------------------------------------------------
 ! R1    R(1,2)                  1.3067         -DE/DX =    0.0002              !
 ! R2    R(1,5)                  1.4554         -DE/DX =    0.0002              !
 ! R3    R(1,9)                  1.0733         -DE/DX =    0.0                 !
 ! R4    R(2,3)                  1.3826         -DE/DX =    0.0002              !
 ! R5    R(2,8)                  1.0437         -DE/DX =    0.0001              !
 ! R6    R(3,4)                  1.3827         -DE/DX =    0.0001              !
 ! R7    R(4,5)                  1.3067         -DE/DX =    0.0002              !
 ! R8    R(4,7)                  1.0438         -DE/DX =    0.0                 !
 ! R9    R(5,6)                  1.0731         -DE/DX =    0.0001              !
 ! A1    A(2,1,5)              107.7644         -DE/DX =    0.0                 !
 ! A2    A(2,1,9)              128.3384         -DE/DX =    0.0                 !
 ! A3    A(5,1,9)              123.8972         -DE/DX =    0.0                 !
 ! A4    A(1,2,3)              107.7008         -DE/DX =    0.0                 !
 ! A5    A(1,2,8)              142.0457         -DE/DX =    0.0                 !
 ! A6    A(3,2,8)              110.2535         -DE/DX =    0.0                 !
 ! A7    A(2,3,4)              109.0789         -DE/DX =    0.0001              !
 ! A8    A(3,4,5)              107.7096         -DE/DX =   -0.0001              !
 ! A9    A(3,4,7)              110.2433         -DE/DX =    0.0                 !
 ! A10   A(5,4,7)              142.0472         -DE/DX =    0.0                 !
 ! A11   A(1,5,4)              107.7462         -DE/DX =    0.0                 !
 ! A12   A(1,5,6)              123.9243         -DE/DX =    0.0                 !
 ! A13   A(4,5,6)              128.3294         -DE/DX =    0.0                 !
 ! D1    D(5,1,2,3)             -0.0627         -DE/DX =    0.0001              !
 ! D2    D(5,1,2,8)            179.9669         -DE/DX =    0.0                 !
 ! D3    D(9,1,2,3)            179.9961         -DE/DX =    0.0                 !
 ! D4    D(9,1,2,8)              0.0256         -DE/DX =    0.0                 !
 ! D5    D(2,1,5,4)              0.0889         -DE/DX =   -0.0001              !
 ! D6    D(2,1,5,6)            180.0196         -DE/DX =    0.0                 !
 ! D7    D(9,1,5,4)           -179.9666         -DE/DX =    0.0                 !
 ! D8    D(9,1,5,6)             -0.0359         -DE/DX =    0.0                 !
 ! D9    D(1,2,3,4)              0.0182         -DE/DX =    0.0                 !
 ! D10   D(8,2,3,4)           -180.0012         -DE/DX =    0.0                 !
 ! D11   D(2,3,4,5)              0.0392         -DE/DX =    0.0                 !
 ! D12   D(2,3,4,7)            180.0045         -DE/DX =    0.0                 !
 ! D13   D(3,4,5,1)             -0.0755         -DE/DX =    0.0001              !
 ! D14   D(3,4,5,6)           -180.0022         -DE/DX =    0.0                 !
 ! D15   D(7,4,5,1)            179.9775         -DE/DX =    0.0                 !
 ! D16   D(7,4,5,6)              0.0508         -DE/DX =    0.0                 !
 --------------------------------------------------------------------------------
 GradGradGradGradGradGradGradGradGradGradGradGradGradGradGradGradGradGrad

 Leave Link  103 at Mon Dec  7 14:51:14 2015, MaxMem=    33554432 cpu:         0.0
 (Enter /home/Applications/g09/g09/l9999.exe)
 1\1\GINC-DUSTIN-DESKTOP\Freq\RAM1\ZDO\C4H4O1\DUSTIN\07-Dec-2015\0\\#P 
 Geom=AllCheck Guess=TCheck SCRF=Check GenChk RAM1/ZDO Freq\\AM1-Repara
 m Input\\0,1\C,0.9295039953,-0.7214801381,0.0151290798\C,-0.3181361177
 ,-1.1099234988,0.0140591123\O,-1.1110332628,0.0226694912,0.0003604751\
 C,-0.2997309888,1.1422711137,-0.0075416271\C,0.941500754,0.7337845223,
 -0.0000763694\H,1.8367918755,1.3252946701,-0.0028923227\H,-0.880833765
 6,2.009315643,-0.017860124\H,-0.913060799,-1.9673815152,0.0202242873\H
 ,1.8154513093,-1.3273482882,0.0242674889\\Version=ES64L-G09RevD.01\Sta
 te=1-A\HF=-3.893351\RMSD=1.534e-10\RMSF=1.285e-04\ZeroPoint=0.0714819\
 Thermal=0.075069\Dipole=0.5811244,-0.0048178,0.0023664\DipoleDeriv=-0.
 8054144,0.2437666,-0.0032791,0.2638583,-0.6440503,0.0015409,-0.0036455
 ,0.0013489,-0.6056201,1.4330712,-0.1598078,0.0038053,-0.409645,0.92786
 17,-0.0023483,0.0057246,-0.0006556,0.9418786,-1.6505331,0.0065752,-0.0
 02474,0.0065182,-0.838456,0.000882,-0.0026,-0.0010474,-0.9403511,1.442
 0497,0.1515039,-0.0002544,0.4014482,0.9188941,0.000486,-0.0021046,0.00
 04156,0.941772,-0.8133781,-0.2410072,0.0017464,-0.2612565,-0.6359733,-
 0.0001687,0.0022047,-0.0003415,-0.6055457,0.2791576,0.0097879,0.000063
 ,0.0631132,0.2377948,0.0000107,-0.0004052,-0.000108,0.223626,-0.081847
 1,-0.0289046,0.0003848,-0.0152949,-0.1021415,-0.0000583,0.0000757,0.00
 01946,-0.0896938,-0.0811632,0.0285421,-0.0003075,0.0149673,-0.1028784,
 0.0000809,-0.0000457,0.0003697,-0.0897273,0.2780538,-0.0104532,0.00031
 54,-0.0637105,0.2389487,-0.0004253,0.000797,-0.000183,0.2236617\Polar=
 34.1017421,-0.0645552,26.3368329,0.0953098,-0.1877711,5.8886814\HyperP
 olar=-33.97397,-0.9906782,-78.3894968,1.8791215,-0.1429843,0.7116736,-
 0.2653945,6.2140667,-0.0455982,0.0647925\PG=C01 [X(C4H4O1)]\NImag=0\\1
 .04919235,0.00063146,0.77531688,0.00322873,-0.00578696,0.20403756,-0.6
 4611719,-0.14598919,-0.00066458,0.91389564,-0.23007770,-0.12851750,-0.
 00079760,0.24229640,0.74607555,0.00018718,-0.00047860,-0.11762532,0.00
 027512,-0.00413482,0.22468098,-0.10928534,0.04198696,-0.00088902,-0.15
 702528,0.15364526,-0.00170995,0.52927518,0.08763532,-0.00199941,0.0005
 6054,0.05734401,-0.21096822,0.00135506,-0.00060548,0.46129028,-0.00134
 956,0.00039998,0.02326849,-0.00078243,0.00168139,-0.09298577,0.0014688
 3,-0.00346068,0.10677465,-0.01589498,0.05752682,-0.00068991,0.05327443
 ,-0.03756213,0.00045267,-0.16044177,-0.05812688,0.00032600,0.90585010,
 0.01194493,-0.04568496,0.00065390,0.03436874,-0.14257359,0.00175165,-0
 .15440899,-0.20746268,0.00056347,-0.24466212,0.75361723,-0.00021092,0.
 00078916,0.01429016,-0.00023731,0.00149380,0.02724792,0.00124999,0.000
 91649,-0.09297985,0.00437861,-0.00583091,0.22475803,-0.05813546,-0.044
 36867,0.00059747,-0.01707154,-0.01246433,0.00000496,-0.11134160,-0.085
 84508,0.00041607,-0.63986365,0.23828149,-0.00378909,1.04932452,0.03747
 504,-0.47735459,0.00407851,-0.05801503,-0.04458942,0.00038898,-0.04021
 243,0.00006905,0.00010125,0.15418306,-0.13470040,0.00058950,-0.0046248
 0,0.77553970,-0.00025172,0.00380353,-0.09876104,0.00048559,0.00056493,
 0.01429396,-0.00004291,-0.00005874,0.02326141,-0.00293581,0.00083516,-
 0.11765339,0.00253213,-0.00577473,0.20399747,0.00175293,-0.00294440,0.
 00001040,0.00069371,-0.00096460,0.00000559,-0.00237830,0.00214794,-0.0
 0005393,-0.01190276,-0.01137004,0.00005547,-0.21194522,-0.11360334,0.0
 0058970,0.22389043,-0.01646069,-0.01436839,0.00017366,-0.00182834,-0.0
 0417264,0.00005471,0.00364166,0.00166866,0.00008402,0.00301289,0.00732
 493,-0.00000842,-0.11456902,-0.10973912,0.00015974,0.12658407,0.123042
 17,0.00013981,0.00021088,0.00757184,0.00001778,0.00005689,0.00211143,-
 0.00007373,0.00007771,0.00861976,-0.00008319,-0.00005349,0.00573796,0.
 00060125,0.00017187,-0.05424323,-0.00060529,-0.00050198,0.03013219,-0.
 00174328,0.00216149,-0.00005139,-0.00390456,0.00149734,-0.00003096,0.0
 0670229,-0.02243833,0.00021148,-0.12786464,0.12644851,-0.00142718,-0.0
 1125724,0.02423313,-0.00031393,-0.00083319,-0.00008393,-0.00000301,0.1
 3881267,-0.00071148,0.00109977,0.00006952,-0.00211786,-0.00338482,0.00
 003544,0.00612011,-0.02205157,0.00030518,0.12175741,-0.22290845,0.0019
 3329,0.00665257,0.00433008,0.00010579,0.00053353,-0.00070655,0.0000094
 7,-0.13232814,0.24448320,-0.00001970,0.00007843,0.00817537,-0.00000274
 ,0.00006024,0.00125906,-0.00006371,0.00019414,0.00771142,-0.00138703,0
 .00196637,-0.06477123,-0.00013928,0.00014932,0.01335873,-0.00000863,0.
 00001003,0.00022488,0.00161839,-0.00246059,0.03476741,-0.01174301,-0.0
 2396879,0.00014269,-0.13195466,-0.12805508,0.00099491,0.00696523,0.021
 97281,-0.00021511,-0.00389470,-0.00148835,-0.00000510,-0.00176675,-0.0
 0211598,-0.00001657,-0.00005432,-0.00063254,0.00000766,0.00013212,0.00
 010802,0.00000140,0.14315471,-0.00638542,0.00483164,0.00005611,-0.1233
 5618,-0.21904986,0.00105310,-0.00659388,-0.02231240,0.00026623,0.00212
 500,-0.00339631,0.00005012,0.00075567,0.00112215,0.00007480,0.00001487
 ,-0.00000098,-0.00000411,-0.00012384,-0.00085039,0.00000497,0.13409430
 ,0.24035635,-0.00002854,-0.00001423,0.01336260,0.00094863,0.00104693,-
 0.06471785,0.00006247,0.00035514,0.00771060,-0.00003478,0.00004831,0.0
 0125965,-0.00004660,0.00006226,0.00817637,0.00000104,-0.00000713,-0.00
 039645,0.00000194,0.00000574,-0.00032949,-0.00090553,-0.00150735,0.034
 71020,-0.20802547,0.11496551,-0.00168440,-0.01179092,0.01168403,-0.000
 17951,-0.00247068,-0.00208471,-0.00002135,0.00073775,0.00088713,-0.000
 01450,0.00205757,0.00267896,-0.00004647,0.00077679,0.00033593,-0.00000
 128,-0.00004442,-0.00001399,0.00000130,-0.00083880,-0.00053061,0.00000
 137,0.21959825,0.11594846,-0.11332257,0.00099233,-0.00270337,0.0071802
 0,-0.00002553,-0.00357327,0.00176552,0.00005917,0.00174685,-0.00421605
 ,0.00006698,0.01618225,-0.01467656,0.00028951,-0.00039773,-0.00304857,
 0.00003276,0.00063336,-0.00001098,-0.00000292,0.00008602,-0.00069991,0
 .00001034,-0.12792257,0.12702846,-0.00169517,0.00099802,-0.05431969,-0
 .00003993,0.00002766,0.00573551,-0.00000193,0.00006134,0.00862017,-0.0
 0002669,0.00006493,0.00211071,-0.00017706,0.00023329,0.00756984,0.0000
 0564,0.00003534,0.00024139,-0.00000527,-0.00000395,-0.00039637,-0.0000
 0442,0.00000603,0.00022417,0.00194483,-0.00142266,0.03021402\\-0.00030
 282,0.00015557,0.00023550,0.00008196,0.00016803,-0.00011294,0.00007945
 ,-0.00003452,-0.00002733,0.00012972,-0.00023635,0.00018351,-0.00002436
 ,-0.00006193,-0.00027423,-0.00010791,-0.00003873,0.00002822,0.00002054
 ,-0.00000971,-0.00001113,0.00008504,0.00008960,-0.00000139,0.00003838,
 -0.00003197,-0.00002022\\\@


 HO!  SUCH BUGS AND GOBLINS IN MY LIFE!

                            -- HAMLET, ACT 5, SCENE 2
 Job cpu time:       0 days  0 hours  0 minutes  0.3 seconds.
 File lengths (MBytes):  RWF=      5 Int=      0 D2E=      0 Chk=      2 Scr=      1
 Normal termination of Gaussian 09 at Mon Dec  7 14:51:14 2015.
