 Entering Gaussian System, Link 0=g09
 Input=FuranAM1Best5.com
 Output=FuranAM1Best5.log
 Initial command:
 /home/Applications/g09/g09/l1.exe "/home/Applications/g09/scratch/Gau-7352.inp" -scrdir="/home/Applications/g09/scratch/"
 Entering Link 1 = /home/Applications/g09/g09/l1.exe PID=      7354.
  
 Copyright (c) 1988,1990,1992,1993,1995,1998,2003,2009,2013,
            Gaussian, Inc.  All Rights Reserved.
  
 This is part of the Gaussian(R) 09 program.  It is based on
 the Gaussian(R) 03 system (copyright 2003, Gaussian, Inc.),
 the Gaussian(R) 98 system (copyright 1998, Gaussian, Inc.),
 the Gaussian(R) 94 system (copyright 1995, Gaussian, Inc.),
 the Gaussian 92(TM) system (copyright 1992, Gaussian, Inc.),
 the Gaussian 90(TM) system (copyright 1990, Gaussian, Inc.),
 the Gaussian 88(TM) system (copyright 1988, Gaussian, Inc.),
 the Gaussian 86(TM) system (copyright 1986, Carnegie Mellon
 University), and the Gaussian 82(TM) system (copyright 1983,
 Carnegie Mellon University). Gaussian is a federally registered
 trademark of Gaussian, Inc.
  
 This software contains proprietary and confidential information,
 including trade secrets, belonging to Gaussian, Inc.
  
 This software is provided under written license and may be
 used, copied, transmitted, or stored only in accord with that
 written license.
  
 The following legend is applicable only to US Government
 contracts under FAR:
  
                    RESTRICTED RIGHTS LEGEND
  
 Use, reproduction and disclosure by the US Government is
 subject to restrictions as set forth in subparagraphs (a)
 and (c) of the Commercial Computer Software - Restricted
 Rights clause in FAR 52.227-19.
  
 Gaussian, Inc.
 340 Quinnipiac St., Bldg. 40, Wallingford CT 06492
  
  
 ---------------------------------------------------------------
 Warning -- This program may not be used in any manner that
 competes with the business of Gaussian, Inc. or will provide
 assistance to any competitor of Gaussian, Inc.  The licensee
 of this program is prohibited from giving any competitor of
 Gaussian, Inc. access to this program.  By using this program,
 the user acknowledges that Gaussian, Inc. is engaged in the
 business of creating and licensing software in the field of
 computational chemistry and represents and warrants to the
 licensee that it is not a competitor of Gaussian, Inc. and that
 it will not use this program in any manner prohibited above.
 ---------------------------------------------------------------
  

 Cite this work as:
 Gaussian 09, Revision D.01,
 M. J. Frisch, G. W. Trucks, H. B. Schlegel, G. E. Scuseria, 
 M. A. Robb, J. R. Cheeseman, G. Scalmani, V. Barone, B. Mennucci, 
 G. A. Petersson, H. Nakatsuji, M. Caricato, X. Li, H. P. Hratchian, 
 A. F. Izmaylov, J. Bloino, G. Zheng, J. L. Sonnenberg, M. Hada, 
 M. Ehara, K. Toyota, R. Fukuda, J. Hasegawa, M. Ishida, T. Nakajima, 
 Y. Honda, O. Kitao, H. Nakai, T. Vreven, J. A. Montgomery, Jr., 
 J. E. Peralta, F. Ogliaro, M. Bearpark, J. J. Heyd, E. Brothers, 
 K. N. Kudin, V. N. Staroverov, T. Keith, R. Kobayashi, J. Normand, 
 K. Raghavachari, A. Rendell, J. C. Burant, S. S. Iyengar, J. Tomasi, 
 M. Cossi, N. Rega, J. M. Millam, M. Klene, J. E. Knox, J. B. Cross, 
 V. Bakken, C. Adamo, J. Jaramillo, R. Gomperts, R. E. Stratmann, 
 O. Yazyev, A. J. Austin, R. Cammi, C. Pomelli, J. W. Ochterski, 
 R. L. Martin, K. Morokuma, V. G. Zakrzewski, G. A. Voth, 
 P. Salvador, J. J. Dannenberg, S. Dapprich, A. D. Daniels, 
 O. Farkas, J. B. Foresman, J. V. Ortiz, J. Cioslowski, 
 and D. J. Fox, Gaussian, Inc., Wallingford CT, 2013.
 
 ******************************************
 Gaussian 09:  ES64L-G09RevD.01 24-Apr-2013
                 7-Dec-2015 
 ******************************************
 ----------------------------
 #P AM1(Input,print) Opt Freq
 ----------------------------
 1/14=-1,18=20,19=15,26=1,38=1/1,3;
 2/9=110,12=2,17=6,18=5,40=1/2;
 3/5=2,16=1,25=1,41=700000,71=1,135=100,136=1/1,2,3;
 4/35=1/1;
 5/5=2,35=1,38=5/2;
 6/7=2,8=2,9=2,10=2,28=1/1;
 7//1,2,3,16;
 1/14=-1,18=20,19=15,26=1/3(2);
 2/9=110/2;
 99//99;
 2/9=110/2;
 3/5=2,16=1,25=1,41=700000,71=1,135=20,136=1/1,2,3;
 4/5=5,16=3,35=1/1;
 5/5=2,35=1,38=5/2;
 7//1,2,3,16;
 1/14=-1,18=20,19=15,26=1/3(-5);
 2/9=110/2;
 6/7=2,8=2,9=2,10=2,19=2,28=1/1;
 99/9=1/99;
 Leave Link    1 at Mon Dec  7 13:25:20 2015, MaxMem=           0 cpu:         0.0
 (Enter /home/Applications/g09/g09/l101.exe)
 -----------------
 AM1-Reparam Input
 -----------------
 Symbolic Z-matrix:
 Charge =  0 Multiplicity = 1
 6                     0.97827  -0.70571   0.03387 
 6                    -0.30925  -1.12263  -0.04081 
 8                    -1.11288   0.02593  -0.04642 
 6                    -0.37249   1.05215   0.01001 
 6                     0.96871   0.70634  -0.02561 
 1                     1.83712   1.39131  -0.02965 
 1                    -0.83888   2.05415  -0.04189 
 1                    -0.87507  -2.09029  -0.0237 
 1                     1.84403  -1.41257   0.02 
 
 NAtoms=      9 NQM=        9 NQMF=       0 NMMI=      0 NMMIF=      0
                NMic=       0 NMicF=      0.
                    Isotopes and Nuclear Properties:
 (Nuclear quadrupole moments (NQMom) in fm**2, nuclear magnetic moments (NMagM)
  in nuclear magnetons)

  Atom         1           2           3           4           5           6           7           8           9
 IAtWgt=          12          12          16          12          12           1           1           1           1
 AtmWgt=  12.0000000  12.0000000  15.9949146  12.0000000  12.0000000   1.0078250   1.0078250   1.0078250   1.0078250
 NucSpn=           0           0           0           0           0           1           1           1           1
 AtZEff=   0.0000000   0.0000000   0.0000000   0.0000000   0.0000000   0.0000000   0.0000000   0.0000000   0.0000000
 NQMom=    0.0000000   0.0000000   0.0000000   0.0000000   0.0000000   0.0000000   0.0000000   0.0000000   0.0000000
 NMagM=    0.0000000   0.0000000   0.0000000   0.0000000   0.0000000   2.7928460   2.7928460   2.7928460   2.7928460
 AtZNuc=   6.0000000   6.0000000   8.0000000   6.0000000   6.0000000   1.0000000   1.0000000   1.0000000   1.0000000
 Leave Link  101 at Mon Dec  7 13:25:20 2015, MaxMem=    33554432 cpu:         0.0
 (Enter /home/Applications/g09/g09/l103.exe)

 GradGradGradGradGradGradGradGradGradGradGradGradGradGradGradGradGradGrad
 Berny optimization.
 Initialization pass.
                           ----------------------------
                           !    Initial Parameters    !
                           ! (Angstroms and Degrees)  !
 --------------------------                            --------------------------
 ! Name  Definition              Value          Derivative Info.                !
 --------------------------------------------------------------------------------
 ! R1    R(1,2)                  1.3554         estimate D2E/DX2                !
 ! R2    R(1,5)                  1.4133         estimate D2E/DX2                !
 ! R3    R(1,9)                  1.1178         estimate D2E/DX2                !
 ! R4    R(2,3)                  1.4018         estimate D2E/DX2                !
 ! R5    R(2,8)                  1.1211         estimate D2E/DX2                !
 ! R6    R(3,4)                  1.2667         estimate D2E/DX2                !
 ! R7    R(4,5)                  1.3855         estimate D2E/DX2                !
 ! R8    R(4,7)                  1.1064         estimate D2E/DX2                !
 ! R9    R(5,6)                  1.1061         estimate D2E/DX2                !
 ! A1    A(2,1,5)              107.3721         estimate D2E/DX2                !
 ! A2    A(2,1,9)              122.7207         estimate D2E/DX2                !
 ! A3    A(5,1,9)              129.5345         estimate D2E/DX2                !
 ! A4    A(1,2,3)              107.0234         estimate D2E/DX2                !
 ! A5    A(1,2,8)              138.0819         estimate D2E/DX2                !
 ! A6    A(3,2,8)              114.7047         estimate D2E/DX2                !
 ! A7    A(2,3,4)              109.1798         estimate D2E/DX2                !
 ! A8    A(3,4,5)              111.2513         estimate D2E/DX2                !
 ! A9    A(3,4,7)              119.0265         estimate D2E/DX2                !
 ! A10   A(5,4,7)              129.2615         estimate D2E/DX2                !
 ! A11   A(1,5,4)              104.7636         estimate D2E/DX2                !
 ! A12   A(1,5,6)              127.8484         estimate D2E/DX2                !
 ! A13   A(4,5,6)              127.2689         estimate D2E/DX2                !
 ! D1    D(5,1,2,3)             -4.2491         estimate D2E/DX2                !
 ! D2    D(5,1,2,8)           -178.6839         estimate D2E/DX2                !
 ! D3    D(9,1,2,3)           -177.8494         estimate D2E/DX2                !
 ! D4    D(9,1,2,8)              7.7158         estimate D2E/DX2                !
 ! D5    D(2,1,5,4)              6.2296         estimate D2E/DX2                !
 ! D6    D(2,1,5,6)           -177.5417         estimate D2E/DX2                !
 ! D7    D(9,1,5,4)            179.2456         estimate D2E/DX2                !
 ! D8    D(9,1,5,6)             -4.5257         estimate D2E/DX2                !
 ! D9    D(1,2,3,4)              0.4496         estimate D2E/DX2                !
 ! D10   D(8,2,3,4)            176.3601         estimate D2E/DX2                !
 ! D11   D(2,3,4,5)              3.708          estimate D2E/DX2                !
 ! D12   D(2,3,4,7)            176.6334         estimate D2E/DX2                !
 ! D13   D(3,4,5,1)             -6.1978         estimate D2E/DX2                !
 ! D14   D(3,4,5,6)            177.5442         estimate D2E/DX2                !
 ! D15   D(7,4,5,1)           -178.2026         estimate D2E/DX2                !
 ! D16   D(7,4,5,6)              5.5394         estimate D2E/DX2                !
 --------------------------------------------------------------------------------
 Trust Radius=3.00D-01 FncErr=1.00D-07 GrdErr=1.00D-07
 Number of steps in this run=     48 maximum allowed number of steps=    100.
 GradGradGradGradGradGradGradGradGradGradGradGradGradGradGradGradGradGrad

 Leave Link  103 at Mon Dec  7 13:25:20 2015, MaxMem=    33554432 cpu:         0.0
 (Enter /home/Applications/g09/g09/l202.exe)
                          Input orientation:                          
 ---------------------------------------------------------------------
 Center     Atomic      Atomic             Coordinates (Angstroms)
 Number     Number       Type             X           Y           Z
 ---------------------------------------------------------------------
      1          6           0        0.978274   -0.705705    0.033865
      2          6           0       -0.309251   -1.122631   -0.040805
      3          8           0       -1.112883    0.025929   -0.046417
      4          6           0       -0.372493    1.052149    0.010005
      5          6           0        0.968709    0.706337   -0.025611
      6          1           0        1.837124    1.391311   -0.029648
      7          1           0       -0.838882    2.054147   -0.041886
      8          1           0       -0.875066   -2.090290   -0.023698
      9          1           0        1.844027   -1.412572    0.020001
 ---------------------------------------------------------------------
                    Distance matrix (angstroms):
                    1          2          3          4          5
     1  C    0.000000
     2  C    1.355405   0.000000
     3  O    2.216906   1.401801   0.000000
     4  C    2.217023   2.176293   1.266684   0.000000
     5  C    1.413326   2.231263   2.190072   1.385524   0.000000
     6  H    2.266966   3.305594   3.250706   2.235847   1.106052
     7  H    3.305235   3.220626   2.046647   1.106441   2.254826
     8  H    2.314143   1.121072   2.129661   3.182552   3.349721
     9  H    1.117757   2.173561   3.288923   3.314802   2.293041
                    6          7          8          9
     6  H    0.000000
     7  H    2.756902   0.000000
     8  H    4.413338   4.144635   0.000000
     9  H    2.804331   4.384059   2.802620   0.000000
 Stoichiometry    C4H4O
 Framework group  C1[X(C4H4O)]
 Deg. of freedom    21
 Full point group                 C1      NOp   1
 Largest Abelian subgroup         C1      NOp   1
 Largest concise Abelian subgroup C1      NOp   1
                         Standard orientation:                         
 ---------------------------------------------------------------------
 Center     Atomic      Atomic             Coordinates (Angstroms)
 Number     Number       Type             X           Y           Z
 ---------------------------------------------------------------------
      1          6           0        0.910553    0.762643    0.031926
      2          6           0        1.002242   -0.588679   -0.019512
      3          8           0       -0.306994   -1.089526   -0.009542
      4          6           0       -1.122606   -0.121354    0.034125
      5          6           0       -0.461907    1.094996   -0.026276
      6          1           0       -0.915725    2.103471   -0.045662
      7          1           0       -2.208077   -0.331473   -0.008457
      8          1           0        1.803782   -1.372021    0.007191
      9          1           0        1.806271    1.430593    0.001688
 ---------------------------------------------------------------------
 Rotational constants (GHZ):      9.6610988      9.2794084      4.7369667
 Leave Link  202 at Mon Dec  7 13:25:20 2015, MaxMem=    33554432 cpu:         0.0
 (Enter /home/Applications/g09/g09/l301.exe)

 Semi-emprical parameters in input format:
 Method=8 CoreType=1 PeptideFC=0.0116450000 RIJScale=0.5158180000
 ****
 H       
 PQN=1 NValence=1 F0ss=0.4432940000 ZetaOverlap=1.3883890000 U=-0.3921460000
 Beta=-0.2438840000 CoreKO=1.0458800000 KON=0,0,0,1.0908040000 KON=1,0,1,1.1059430000
 KON=0,1,1,1.1943580000 KON=2,1,1,1.0589200000 EISol=-0.4188110042 EHeat=0.0830298228
 Alpha=1.4192630000
 GCore=0.0081260000,1.5719360000,2.5406550000
 GCore=0.0003220000,1.5703530000,3.3301220000
 GCore=-0.0012960000,0.6303070000,3.6011390000
 ****
 C       
 PQN=2,2 NValence=4 F0ss=0.4585850000 F0sp=0.5740220000 F0pp=0.4084610000 F2pp=0.1576920000
 G1sp=0.2858760000
 ZetaOverlap=2.1124260000,1.3555900000
 U=-2.1220290000,-1.7029300000
 Beta=-0.7017530000,-0.3605290000 DDN=0,1,0.8928860000 DDN=1,1,0.7756800000
 CoreKO=1.0939600000 KON=0,0,0,1.0664980000 KON=1,0,1,0.7387540000 KON=0,1,1,0.9934050000
 KON=2,1,1,0.7411750000 EISol=-4.4398989268 EHeat=0.2723305520 Alpha=1.2672400000
 DipHyp=1.7856692630
 GCore=0.0008630000,1.6282610000,4.4492260000
 GCore=0.0034220000,1.2941510000,3.1400540000
 GCore=-0.0018340000,1.7522370000,3.6677590000
 GCore=-0.0000740000,1.4019530000,5.8699190000
 ****
 O       
 PQN=2,2 NValence=6 F0ss=0.5123020000 F0sp=0.6055480000 F0pp=0.4547400000 F2pp=0.2778070000
 G1sp=0.4361220000
 ZetaOverlap=3.1237390000,2.2636340000
 U=-3.9536060000,-3.3311940000
 Beta=-1.3664540000,-1.4118250000 DDN=0,1,0.5426100000 DDN=1,1,0.4654470000
 CoreKO=0.9408510000 KON=0,0,0,0.7177930000 KON=1,0,1,0.5588680000 KON=0,1,1,0.9626580000
 KON=2,1,1,0.4474500000 EISol=-11.6164441184 EHeat=0.0949133088 Alpha=2.4335810000
 DipHyp=1.0851575663
 GCore=0.0193040000,1.5791790000,1.5982320000
 GCore=0.0061610000,2.0391960000,3.4774980000
 ****
 
 Standard basis: VSTO-6G (5D, 7F)
 Ernie: Thresh=  0.10000D-02 Tol=  0.10000D-05 Strict=F.
  NNHCO=     0 NNPyr=     0 NCTC=     0               EPep=         0.000000000
    EC=        68.920068082  ECS=         2.521512179   EG=         0.335517311
   EHC=         0.000000000  EAt=       -31.051283842  AtH=         1.516354808
 EPDDG=         0.000000000  ECC=        71.777097572 EAtT=        32.567638650
 There are    24 symmetry adapted cartesian basis functions of A   symmetry.
 There are    24 symmetry adapted basis functions of A   symmetry.
    24 basis functions,   144 primitive gaussians,    24 cartesian basis functions
    13 alpha electrons       13 beta electrons
       nuclear repulsion energy       104.3447362225 Hartrees.
 IExCor=    0 DFT=F Ex=HF Corr=None ExCW=0 ScaHFX=  1.000000
 ScaDFX=  1.000000  1.000000  1.000000  1.000000 ScalE2=  1.000000  1.000000
 IRadAn=      0 IRanWt=     -1 IRanGd=            0 ICorTp=0 IEmpDi=  4
 Integral buffers will be    131072 words long.
 Regular integral format.
 Two-electron integral symmetry is turned off.
 Leave Link  301 at Mon Dec  7 13:25:20 2015, MaxMem=    33554432 cpu:         0.0
 (Enter /home/Applications/g09/g09/l302.exe)
 Do NDO integrals.
 NPDir=0 NMtPBC=     1 NCelOv=     1 NCel=       1 NClECP=     1 NCelD=      1
         NCelK=      1 NCelE2=     1 NClLst=     1 CellRange=     0.0.
 One-electron integrals computed using PRISM.
 NBasis=    24 RedAO= F EigKep=  0.00D+00  NBF=    24
 NBsUse=    24 1.00D-04 EigRej=  0.00D+00 NBFU=    24
 Leave Link  302 at Mon Dec  7 13:25:20 2015, MaxMem=    33554432 cpu:         0.0
 (Enter /home/Applications/g09/g09/l303.exe)
 DipDrv:  MaxL=1.
 Leave Link  303 at Mon Dec  7 13:25:20 2015, MaxMem=    33554432 cpu:         0.0
 (Enter /home/Applications/g09/g09/l401.exe)
 Simple Huckel Guess.
 JPrj=0 DoOrth=F DoCkMO=F.
 Leave Link  401 at Mon Dec  7 13:25:20 2015, MaxMem=    33554432 cpu:         0.0
 (Enter /home/Applications/g09/g09/l502.exe)
 Closed shell SCF:
 Using DIIS extrapolation, IDIIS=  1040.
 Overlap will be assumed to be unity.
 Two-electron integral symmetry not used.
 Keep J ints in memory in canonical form, NReq=888082.
 IVT=       79475 IEndB=       79475 NGot=    33554432 MDV=    33473473
 LenX=    33473473 LenY=    33472456
 Requested convergence on RMS density matrix=1.00D-08 within 128 cycles.
 Requested convergence on MAX density matrix=1.00D-06.
 Requested convergence on             energy=1.00D-06.
 No special actions if energy rises.
 FoFCou: FMM=F IPFlag=           0 FMFlag=           0 FMFlg1=           0
         NFxFlg=           0 DoJE=F BraDBF=F KetDBF=F FulRan=T
         wScrn=  0.000000 ICntrl=     600 IOpCl=  2 I1Cent=           0 NGrid=           0
         NMat0=    1 NMatS0=     54 NMatT0=    0 NMatD0=    1 NMtDS0=    0 NMtDT0=    0
 Symmetry not used in FoFCou.

 Cycle   1  Pass 1  IDiag  1:
 E= -4.84612538620023    
 DIIS: error= 6.07D-02 at cycle   1 NSaved=   1.
 NSaved= 1 IEnMin= 1 EnMin= -4.84612538620023     IErMin= 1 ErrMin= 6.07D-02
 ErrMax= 6.07D-02  0.00D+00 EMaxC= 1.00D-01 BMatC= 1.43D-01 BMatP= 1.43D-01
 IDIUse=3 WtCom= 3.93D-01 WtEn= 6.07D-01
 Coeff-Com:  0.100D+01
 Coeff-En:   0.100D+01
 Coeff:      0.100D+01
 GapD=    2.000 DampG=2.000 DampE=0.500 DampFc=1.0000 IDamp=-1.
 RMSDP=1.73D-02 MaxDP=1.11D-01              OVMax= 0.00D+00

 Cycle   2  Pass 1  IDiag  1:
 E= -5.09327517514420     Delta-E=       -0.247149788944 Rises=F Damp=F
 DIIS: error= 1.14D-02 at cycle   2 NSaved=   2.
 NSaved= 2 IEnMin= 2 EnMin= -5.09327517514420     IErMin= 2 ErrMin= 1.14D-02
 ErrMax= 1.14D-02  0.00D+00 EMaxC= 1.00D-01 BMatC= 6.66D-03 BMatP= 1.43D-01
 IDIUse=3 WtCom= 8.86D-01 WtEn= 1.14D-01
 Coeff-Com: -0.214D+00 0.121D+01
 Coeff-En:   0.000D+00 0.100D+01
 Coeff:     -0.190D+00 0.119D+01
 RMSDP=4.72D-03 MaxDP=2.43D-02 DE=-2.47D-01 OVMax= 0.00D+00

 Cycle   3  Pass 1  IDiag  3:
 E= -5.10752701229708     Delta-E=       -0.014251837153 Rises=F Damp=F
 DIIS: error= 3.01D-03 at cycle   3 NSaved=   3.
 NSaved= 3 IEnMin= 3 EnMin= -5.10752701229708     IErMin= 3 ErrMin= 3.01D-03
 ErrMax= 3.01D-03  0.00D+00 EMaxC= 1.00D-01 BMatC= 3.21D-04 BMatP= 6.66D-03
 IDIUse=3 WtCom= 9.70D-01 WtEn= 3.01D-02
 Coeff-Com:  0.132D-02-0.139D+00 0.114D+01
 Coeff-En:   0.000D+00 0.000D+00 0.100D+01
 Coeff:      0.128D-02-0.135D+00 0.113D+01
 Gap=     0.437 Goal=   None    Shift=    0.000
 RMSDP=1.27D-03 MaxDP=8.17D-03 DE=-1.43D-02 OVMax= 8.67D-03

 Cycle   4  Pass 1  IDiag  3:
 E= -5.10845430086978     Delta-E=       -0.000927288573 Rises=F Damp=F
 DIIS: error= 9.94D-04 at cycle   4 NSaved=   4.
 NSaved= 4 IEnMin= 4 EnMin= -5.10845430086978     IErMin= 4 ErrMin= 9.94D-04
 ErrMax= 9.94D-04  0.00D+00 EMaxC= 1.00D-01 BMatC= 2.86D-05 BMatP= 3.21D-04
 IDIUse=3 WtCom= 9.90D-01 WtEn= 9.94D-03
 Coeff-Com:  0.111D-01-0.590D-01-0.192D+00 0.124D+01
 Coeff-En:   0.000D+00 0.000D+00 0.000D+00 0.100D+01
 Coeff:      0.110D-01-0.584D-01-0.190D+00 0.124D+01
 Gap=     0.437 Goal=   None    Shift=    0.000
 RMSDP=6.28D-04 MaxDP=4.69D-03 DE=-9.27D-04 OVMax= 8.40D-03

 Cycle   5  Pass 1  IDiag  3:
 E= -5.10858768296546     Delta-E=       -0.000133382096 Rises=F Damp=F
 DIIS: error= 2.36D-04 at cycle   5 NSaved=   5.
 NSaved= 5 IEnMin= 5 EnMin= -5.10858768296546     IErMin= 5 ErrMin= 2.36D-04
 ErrMax= 2.36D-04  0.00D+00 EMaxC= 1.00D-01 BMatC= 3.74D-06 BMatP= 2.86D-05
 IDIUse=3 WtCom= 9.98D-01 WtEn= 2.36D-03
 Coeff-Com: -0.648D-02 0.511D-01-0.830D-01-0.391D+00 0.143D+01
 Coeff-En:   0.000D+00 0.000D+00 0.000D+00 0.000D+00 0.100D+01
 Coeff:     -0.647D-02 0.510D-01-0.828D-01-0.390D+00 0.143D+01
 Gap=     0.437 Goal=   None    Shift=    0.000
 RMSDP=2.32D-04 MaxDP=1.57D-03 DE=-1.33D-04 OVMax= 2.98D-03

 Cycle   6  Pass 1  IDiag  3:
 E= -5.10860312947986     Delta-E=       -0.000015446514 Rises=F Damp=F
 DIIS: error= 6.65D-05 at cycle   6 NSaved=   6.
 NSaved= 6 IEnMin= 6 EnMin= -5.10860312947986     IErMin= 6 ErrMin= 6.65D-05
 ErrMax= 6.65D-05  0.00D+00 EMaxC= 1.00D-01 BMatC= 2.09D-07 BMatP= 3.74D-06
 IDIUse=1 WtCom= 1.00D+00 WtEn= 0.00D+00
 Coeff-Com:  0.153D-02-0.147D-01 0.335D-01 0.118D+00-0.643D+00 0.150D+01
 Coeff:      0.153D-02-0.147D-01 0.335D-01 0.118D+00-0.643D+00 0.150D+01
 Gap=     0.437 Goal=   None    Shift=    0.000
 RMSDP=5.85D-05 MaxDP=3.83D-04 DE=-1.54D-05 OVMax= 6.74D-04

 Cycle   7  Pass 1  IDiag  3:
 E= -5.10860404542088     Delta-E=       -0.000000915941 Rises=F Damp=F
 DIIS: error= 1.51D-05 at cycle   7 NSaved=   7.
 NSaved= 7 IEnMin= 7 EnMin= -5.10860404542088     IErMin= 7 ErrMin= 1.51D-05
 ErrMax= 1.51D-05  0.00D+00 EMaxC= 1.00D-01 BMatC= 7.31D-09 BMatP= 2.09D-07
 IDIUse=1 WtCom= 1.00D+00 WtEn= 0.00D+00
 Coeff-Com:  0.149D-03-0.409D-03-0.263D-02 0.661D-02 0.163D-01-0.213D+00
 Coeff-Com:  0.119D+01
 Coeff:      0.149D-03-0.409D-03-0.263D-02 0.661D-02 0.163D-01-0.213D+00
 Coeff:      0.119D+01
 Gap=     0.437 Goal=   None    Shift=    0.000
 RMSDP=9.05D-06 MaxDP=5.53D-05 DE=-9.16D-07 OVMax= 6.93D-05

 Cycle   8  Pass 1  IDiag  3:
 E= -5.10860407281903     Delta-E=       -0.000000027398 Rises=F Damp=F
 DIIS: error= 3.42D-06 at cycle   8 NSaved=   8.
 NSaved= 8 IEnMin= 8 EnMin= -5.10860407281903     IErMin= 8 ErrMin= 3.42D-06
 ErrMax= 3.42D-06  0.00D+00 EMaxC= 1.00D-01 BMatC= 4.41D-10 BMatP= 7.31D-09
 IDIUse=1 WtCom= 1.00D+00 WtEn= 0.00D+00
 Coeff-Com: -0.113D-03 0.974D-03-0.185D-02-0.797D-02 0.376D-01-0.587D-01
 Coeff-Com: -0.215D+00 0.125D+01
 Coeff:     -0.113D-03 0.974D-03-0.185D-02-0.797D-02 0.376D-01-0.587D-01
 Coeff:     -0.215D+00 0.125D+01
 Gap=     0.437 Goal=   None    Shift=    0.000
 RMSDP=2.08D-06 MaxDP=1.34D-05 DE=-2.74D-08 OVMax= 1.28D-05

 Cycle   9  Pass 1  IDiag  3:
 E= -5.10860407441646     Delta-E=       -0.000000001597 Rises=F Damp=F
 DIIS: error= 7.86D-07 at cycle   9 NSaved=   9.
 NSaved= 9 IEnMin= 9 EnMin= -5.10860407441646     IErMin= 9 ErrMin= 7.86D-07
 ErrMax= 7.86D-07  0.00D+00 EMaxC= 1.00D-01 BMatC= 2.70D-11 BMatP= 4.41D-10
 IDIUse=1 WtCom= 1.00D+00 WtEn= 0.00D+00
 Coeff-Com:  0.364D-04-0.376D-03 0.879D-03 0.303D-02-0.163D-01 0.336D-01
 Coeff-Com:  0.480D-01-0.555D+00 0.149D+01
 Coeff:      0.364D-04-0.376D-03 0.879D-03 0.303D-02-0.163D-01 0.336D-01
 Coeff:      0.480D-01-0.555D+00 0.149D+01
 Gap=     0.437 Goal=   None    Shift=    0.000
 RMSDP=5.61D-07 MaxDP=3.00D-06 DE=-1.60D-09 OVMax= 2.95D-06

 Cycle  10  Pass 1  IDiag  3:
 E= -5.10860407452282     Delta-E=       -0.000000000106 Rises=F Damp=F
 DIIS: error= 1.76D-07 at cycle  10 NSaved=  10.
 NSaved=10 IEnMin=10 EnMin= -5.10860407452282     IErMin=10 ErrMin= 1.76D-07
 ErrMax= 1.76D-07  0.00D+00 EMaxC= 1.00D-01 BMatC= 1.20D-12 BMatP= 2.70D-11
 IDIUse=1 WtCom= 1.00D+00 WtEn= 0.00D+00
 Coeff-Com: -0.842D-05 0.110D-03-0.319D-03-0.846D-03 0.523D-02-0.122D-01
 Coeff-Com: -0.819D-02 0.171D+00-0.616D+00 0.146D+01
 Coeff:     -0.842D-05 0.110D-03-0.319D-03-0.846D-03 0.523D-02-0.122D-01
 Coeff:     -0.819D-02 0.171D+00-0.616D+00 0.146D+01
 Gap=     0.437 Goal=   None    Shift=    0.000
 RMSDP=1.21D-07 MaxDP=5.12D-07 DE=-1.06D-10 OVMax= 6.13D-07

 Cycle  11  Pass 1  IDiag  3:
 E= -5.10860407452807     Delta-E=       -0.000000000005 Rises=F Damp=F
 DIIS: error= 5.13D-08 at cycle  11 NSaved=  11.
 NSaved=11 IEnMin=11 EnMin= -5.10860407452807     IErMin=11 ErrMin= 5.13D-08
 ErrMax= 5.13D-08  0.00D+00 EMaxC= 1.00D-01 BMatC= 6.06D-14 BMatP= 1.20D-12
 IDIUse=1 WtCom= 1.00D+00 WtEn= 0.00D+00
 Coeff-Com:  0.180D-05-0.319D-04 0.105D-03 0.250D-03-0.165D-02 0.397D-02
 Coeff-Com:  0.321D-02-0.595D-01 0.231D+00-0.705D+00 0.153D+01
 Coeff:      0.180D-05-0.319D-04 0.105D-03 0.250D-03-0.165D-02 0.397D-02
 Coeff:      0.321D-02-0.595D-01 0.231D+00-0.705D+00 0.153D+01
 Gap=     0.437 Goal=   None    Shift=    0.000
 RMSDP=2.98D-08 MaxDP=1.67D-07 DE=-5.26D-12 OVMax= 2.05D-07

 Cycle  12  Pass 1  IDiag  3:
 E= -5.10860407452827     Delta-E=        0.000000000000 Rises=F Damp=F
 DIIS: error= 8.42D-09 at cycle  12 NSaved=  12.
 NSaved=12 IEnMin=12 EnMin= -5.10860407452827     IErMin=12 ErrMin= 8.42D-09
 ErrMax= 8.42D-09  0.00D+00 EMaxC= 1.00D-01 BMatC= 2.95D-15 BMatP= 6.06D-14
 IDIUse=1 WtCom= 1.00D+00 WtEn= 0.00D+00
 Coeff-Com: -0.297D-06 0.812D-05-0.307D-04-0.616D-04 0.449D-03-0.116D-02
 Coeff-Com: -0.418D-03 0.150D-01-0.647D-01 0.220D+00-0.633D+00 0.146D+01
 Coeff:     -0.297D-06 0.812D-05-0.307D-04-0.616D-04 0.449D-03-0.116D-02
 Coeff:     -0.418D-03 0.150D-01-0.647D-01 0.220D+00-0.633D+00 0.146D+01
 Gap=     0.437 Goal=   None    Shift=    0.000
 RMSDP=7.35D-09 MaxDP=6.71D-08 DE=-1.99D-13 OVMax= 7.42D-08

 Cycle  13  Pass 2  IDiag  1:
 SCF Done:  E(RAM1) =  -5.10860407453     A.U. after   13 cycles
            NFock= 12  Conv=0.74D-08     -V/T= 0.7276
 KE=-1.875132193219D+01 PE=-1.779800624385D+02 EE= 8.727804407360D+01
 Leave Link  502 at Mon Dec  7 13:25:20 2015, MaxMem=    33554432 cpu:         0.0
 (Enter /home/Applications/g09/g09/l601.exe)
 Copying SCF densities to generalized density rwf, IOpCl= 0 IROHF=0.

 **********************************************************************

            Population analysis using the SCF density.

 **********************************************************************

 Orbital symmetries:
       Occupied  (A) (A) (A) (A) (A) (A) (A) (A) (A) (A) (A) (A)
                 (A)
       Virtual   (A) (A) (A) (A) (A) (A) (A) (A) (A) (A) (A)
 The electronic state is 1-A.
 Alpha  occ. eigenvalues --   -1.71921  -1.31350  -1.22697  -1.07249  -0.98023
 Alpha  occ. eigenvalues --   -0.90681  -0.79443  -0.60326  -0.59097  -0.54165
 Alpha  occ. eigenvalues --   -0.49731  -0.48567  -0.35514
 Alpha virt. eigenvalues --    0.08230   0.14729   0.17944   0.21799   0.23718
 Alpha virt. eigenvalues --    0.24172   0.28560   0.31360   0.34315   0.37120
 Alpha virt. eigenvalues --    0.41440
          Condensed to atoms (all electrons):
               1          2          3          4          5          6
     1  C    4.094053   0.000000   0.000000   0.000000   0.000000   0.000000
     2  C    0.000000   3.671285   0.000000   0.000000   0.000000   0.000000
     3  O    0.000000   0.000000   6.935622   0.000000   0.000000   0.000000
     4  C    0.000000   0.000000   0.000000   3.598599   0.000000   0.000000
     5  C    0.000000   0.000000   0.000000   0.000000   4.155733   0.000000
     6  H    0.000000   0.000000   0.000000   0.000000   0.000000   0.898604
     7  H    0.000000   0.000000   0.000000   0.000000   0.000000   0.000000
     8  H    0.000000   0.000000   0.000000   0.000000   0.000000   0.000000
     9  H    0.000000   0.000000   0.000000   0.000000   0.000000   0.000000
               7          8          9
     1  C    0.000000   0.000000   0.000000
     2  C    0.000000   0.000000   0.000000
     3  O    0.000000   0.000000   0.000000
     4  C    0.000000   0.000000   0.000000
     5  C    0.000000   0.000000   0.000000
     6  H    0.000000   0.000000   0.000000
     7  H    0.886681   0.000000   0.000000
     8  H    0.000000   0.873875   0.000000
     9  H    0.000000   0.000000   0.885549
 Mulliken charges:
               1
     1  C   -0.094053
     2  C    0.328715
     3  O   -0.935622
     4  C    0.401401
     5  C   -0.155733
     6  H    0.101396
     7  H    0.113319
     8  H    0.126125
     9  H    0.114451
 Sum of Mulliken charges =   0.00000
 Mulliken charges with hydrogens summed into heavy atoms:
               1
     1  C    0.020398
     2  C    0.454841
     3  O   -0.935622
     4  C    0.514720
     5  C   -0.054337
 Charge=              0.0000 electrons
 Dipole moment (field-independent basis, Debye):
    X=              0.8794    Y=              2.3257    Z=              0.0657  Tot=              2.4873
 N-N= 1.043447362225D+02 E-N=-1.779800623976D+02  KE=-1.875132193219D+01
 Leave Link  601 at Mon Dec  7 13:25:20 2015, MaxMem=    33554432 cpu:         0.0
 (Enter /home/Applications/g09/g09/l701.exe)
 Compute integral first derivatives.
 ... and contract with generalized density number  0.
 Leave Link  701 at Mon Dec  7 13:25:20 2015, MaxMem=    33554432 cpu:         0.0
 (Enter /home/Applications/g09/g09/l702.exe)
 L702 exits ... SP integral derivatives will be done elsewhere.
 Leave Link  702 at Mon Dec  7 13:25:20 2015, MaxMem=    33554432 cpu:         0.0
 (Enter /home/Applications/g09/g09/l703.exe)
 Compute integral first derivatives, UseDBF=F ICtDFT=           0.
 Integral derivatives from FoFJK, PRISM(SPDF).
 Calling FoFJK, ICntrl=      2127 FMM=F ISym2X=0 I1Cent= 0 IOpClX= 0 NMat=1 NMatS=1 NMatT=0.
 FoFJK:  IHMeth= 8 ICntrl=    2127 DoSepK=F KAlg= 0 I1Cent=   0 FoldK=F
 IRaf=         0 NMat=   1 IRICut=       1 DoRegI=T DoRafI=F ISym2E= 0.
 FoFCou: FMM=F IPFlag=           0 FMFlag=      100000 FMFlg1=         800
         NFxFlg=           0 DoJE=F BraDBF=F KetDBF=F FulRan=T
         wScrn=  0.000000 ICntrl=    2127 IOpCl=  0 I1Cent=           0 NGrid=           0
         NMat0=    1 NMatS0=      1 NMatT0=    0 NMatD0=    1 NMtDS0=    0 NMtDT0=    0
 Symmetry not used in FoFCou.
 Leave Link  703 at Mon Dec  7 13:25:20 2015, MaxMem=    33554432 cpu:         0.0
 (Enter /home/Applications/g09/g09/l716.exe)
 Dipole        = 3.45976833D-01 9.14998884D-01 2.58316753D-02
 ***** Axes restored to original set *****
 -------------------------------------------------------------------
 Center     Atomic                   Forces (Hartrees/Bohr)
 Number     Number              X              Y              Z
 -------------------------------------------------------------------
      1        6           0.049954625   -0.089417559   -0.016367508
      2        6          -0.053926196    0.002286670    0.010660019
      3        8          -0.116540364   -0.164881885   -0.000581692
      4        6           0.088276075    0.147993530   -0.016126550
      5        6           0.040679971    0.079182836    0.015956429
      6        1          -0.014349982   -0.011468038    0.000718879
      7        1           0.002614488    0.003680668    0.004569834
      8        1           0.016266262    0.014447647   -0.002340934
      9        1          -0.012974880    0.018176132    0.003511523
 -------------------------------------------------------------------
 Cartesian Forces:  Max     0.164881885 RMS     0.059021990
 Leave Link  716 at Mon Dec  7 13:25:20 2015, MaxMem=    33554432 cpu:         0.0
 (Enter /home/Applications/g09/g09/l103.exe)

 GradGradGradGradGradGradGradGradGradGradGradGradGradGradGradGradGradGrad
 Berny optimization.
 FormGI is forming the generalized inverse of G from B-inverse, IUseBI=4.
 Internal  Forces:  Max     0.181282833 RMS     0.033964228
 Search for a local minimum.
 Step number   1 out of a maximum of   48
 All quantities printed in internal units (Hartrees-Bohrs-Radians)
 RMS Force = .33964D-01 SwitMx=.10000D-02 MixMth= 1
 Mixed Optimization -- RFO/linear search
 Second derivative matrix not updated -- first step.
 ITU=  0
     Eigenvalues ---    0.02078   0.02203   0.02260   0.02443   0.02585
     Eigenvalues ---    0.02739   0.15824   0.15876   0.15941   0.15955
     Eigenvalues ---    0.21989   0.22883   0.31455   0.31792   0.32980
     Eigenvalues ---    0.33022   0.40327   0.42923   0.46058   0.51644
     Eigenvalues ---    0.73278
 RFO step:  Lambda=-6.49414592D-02 EMin= 2.07781313D-02
 Linear search not attempted -- first point.
 Maximum step size (   0.300) exceeded in Quadratic search.
    -- Step size scaled by   0.978
 Iteration  1 RMS(Cart)=  0.04633974 RMS(Int)=  0.00358476
 Iteration  2 RMS(Cart)=  0.00285139 RMS(Int)=  0.00078492
 Iteration  3 RMS(Cart)=  0.00000633 RMS(Int)=  0.00078489
 Iteration  4 RMS(Cart)=  0.00000000 RMS(Int)=  0.00078489
 ITry= 1 IFail=0 DXMaxC= 1.21D-01 DCOld= 1.00D+10 DXMaxT= 3.00D-01 DXLimC= 3.00D+00 Rises=F
 Variable       Old X    -DE/DX   Delta X   Delta X   Delta X     New X
                                 (Linear)    (Quad)   (Total)
    R1        2.56134   0.04473   0.00000   0.06041   0.06036   2.62171
    R2        2.67080   0.07253   0.00000   0.13315   0.13297   2.80377
    R3        2.11226  -0.02159   0.00000  -0.05514  -0.05514   2.05712
    R4        2.64902  -0.00984   0.00000  -0.01829  -0.01814   2.63088
    R5        2.11852  -0.02072   0.00000  -0.05338  -0.05338   2.06514
    R6        2.39369   0.18128   0.00000   0.22004   0.22019   2.61388
    R7        2.61826   0.01698   0.00000   0.03921   0.03916   2.65742
    R8        2.09087   0.00202   0.00000   0.00500   0.00500   2.09587
    R9        2.09013  -0.01837   0.00000  -0.04546  -0.04546   2.04467
    A1        1.87400   0.01086   0.00000  -0.00079  -0.00247   1.87152
    A2        2.14188   0.00119   0.00000   0.03224   0.03186   2.17374
    A3        2.26080  -0.01133   0.00000  -0.02323  -0.02375   2.23705
    A4        1.86791   0.02309   0.00000   0.05409   0.05340   1.92131
    A5        2.40998  -0.01841   0.00000  -0.05619  -0.05614   2.35385
    A6        2.00197  -0.00441   0.00000   0.00485   0.00493   2.00691
    A7        1.90555  -0.02078   0.00000  -0.03504  -0.03552   1.87003
    A8        1.94170  -0.00815   0.00000   0.00860   0.00658   1.94828
    A9        2.07740   0.00869   0.00000   0.01909   0.01788   2.09528
   A10        2.25604   0.00058   0.00000  -0.01571  -0.01694   2.23910
   A11        1.82847  -0.00381   0.00000  -0.01360  -0.01488   1.81359
   A12        2.23137   0.00196   0.00000   0.00770   0.00768   2.23905
   A13        2.22126   0.00214   0.00000   0.00918   0.00919   2.23045
    D1       -0.07416   0.00594   0.00000   0.06517   0.06532  -0.00884
    D2       -3.11862   0.00139   0.00000   0.02239   0.02345  -3.09518
    D3       -3.10406   0.00053   0.00000  -0.00306  -0.00465  -3.10871
    D4        0.13467  -0.00403   0.00000  -0.04584  -0.04652   0.08814
    D5        0.10873  -0.00820   0.00000  -0.09996  -0.09981   0.00891
    D6       -3.09869  -0.00352   0.00000  -0.04792  -0.04776   3.13674
    D7        3.12843  -0.00105   0.00000  -0.02055  -0.02164   3.10679
    D8       -0.07899   0.00364   0.00000   0.03148   0.03042  -0.04857
    D9        0.00785  -0.00002   0.00000  -0.00177  -0.00271   0.00514
   D10        3.07806   0.00200   0.00000   0.02499   0.02547   3.10353
   D11        0.06472  -0.00541   0.00000  -0.06270  -0.06379   0.00093
   D12        3.08283   0.00311   0.00000   0.02747   0.02774   3.11057
   D13       -0.10817   0.01043   0.00000   0.10302   0.10213  -0.00605
   D14        3.09873   0.00579   0.00000   0.05146   0.05049  -3.13397
   D15       -3.11022   0.00018   0.00000  -0.00232  -0.00218  -3.11240
   D16        0.09668  -0.00446   0.00000  -0.05388  -0.05382   0.04286
         Item               Value     Threshold  Converged?
 Maximum Force            0.181283     0.000450     NO 
 RMS     Force            0.033964     0.000300     NO 
 Maximum Displacement     0.120777     0.001800     NO 
 RMS     Displacement     0.048210     0.001200     NO 
 Predicted change in Energy=-3.671261D-02
 Lowest energy point so far.  Saving SCF results.
 GradGradGradGradGradGradGradGradGradGradGradGradGradGradGradGradGradGrad

 Leave Link  103 at Mon Dec  7 13:25:20 2015, MaxMem=    33554432 cpu:         0.0
 (Enter /home/Applications/g09/g09/l202.exe)
                          Input orientation:                          
 ---------------------------------------------------------------------
 Center     Atomic      Atomic             Coordinates (Angstroms)
 Number     Number       Type             X           Y           Z
 ---------------------------------------------------------------------
      1          6           0        0.988206   -0.740203    0.002230
      2          6           0       -0.338695   -1.144299   -0.025553
      3          8           0       -1.176795   -0.032694   -0.037824
      4          6           0       -0.367053    1.088638   -0.024284
      5          6           0        0.996024    0.743452   -0.004418
      6          1           0        1.848489    1.409491    0.015683
      7          1           0       -0.819245    2.100710   -0.060368
      8          1           0       -0.851603   -2.108847    0.003374
      9          1           0        1.840230   -1.417572   -0.013033
 ---------------------------------------------------------------------
                    Distance matrix (angstroms):
                    1          2          3          4          5
     1  C    0.000000
     2  C    1.387347   0.000000
     3  O    2.278027   1.392203   0.000000
     4  C    2.276421   2.233118   1.383204   0.000000
     5  C    1.483690   2.312039   2.307523   1.406245   0.000000
     6  H    2.315481   3.362635   3.351881   2.239011   1.081993
     7  H    3.367727   3.280583   2.163276   1.109085   2.267263
     8  H    2.293052   1.092824   2.101871   3.234110   3.398440
     9  H    1.088580   2.196030   3.319781   3.339658   2.320082
                    6          7          8          9
     6  H    0.000000
     7  H    2.756878   0.000000
     8  H    4.435015   4.210164   0.000000
     9  H    2.827220   4.410596   2.779226   0.000000
 Stoichiometry    C4H4O
 Framework group  C1[X(C4H4O)]
 Deg. of freedom    21
 Full point group                 C1      NOp   1
 RotChk:  IX=2 Diff= 6.09D-01
 Largest Abelian subgroup         C1      NOp   1
 Largest concise Abelian subgroup C1      NOp   1
                         Standard orientation:                         
 ---------------------------------------------------------------------
 Center     Atomic      Atomic             Coordinates (Angstroms)
 Number     Number       Type             X           Y           Z
 ---------------------------------------------------------------------
      1          6           0        0.526535    1.099339    0.003206
      2          6           0        1.172839   -0.128240   -0.005286
      3          8           0        0.238584   -1.160412   -0.000890
      4          6           0       -1.014964   -0.575735    0.003748
      5          6           0       -0.932144    0.828067    0.001305
      6          1           0       -1.746544    1.540374    0.010346
      7          1           0       -1.924006   -1.210596   -0.021987
      8          1           0        2.216615   -0.450203    0.028440
      9          1           0        1.031668    2.063135   -0.027513
 ---------------------------------------------------------------------
 Rotational constants (GHZ):      9.0597112      8.8146414      4.4679661
 Leave Link  202 at Mon Dec  7 13:25:20 2015, MaxMem=    33554432 cpu:         0.0
 (Enter /home/Applications/g09/g09/l301.exe)

 Semi-emprical parameters in input format:
 Method=8 CoreType=1 PeptideFC=0.0116450000 RIJScale=0.5158180000
 ****
 H       
 PQN=1 NValence=1 F0ss=0.4432940000 ZetaOverlap=1.3883890000 U=-0.3921460000
 Beta=-0.2438840000 CoreKO=1.0458800000 KON=0,0,0,1.0908040000 KON=1,0,1,1.1059430000
 KON=0,1,1,1.1943580000 KON=2,1,1,1.0589200000 EISol=-0.4188110042 EHeat=0.0830298228
 Alpha=1.4192630000
 GCore=0.0081260000,1.5719360000,2.5406550000
 GCore=0.0003220000,1.5703530000,3.3301220000
 GCore=-0.0012960000,0.6303070000,3.6011390000
 ****
 C       
 PQN=2,2 NValence=4 F0ss=0.4585850000 F0sp=0.5740220000 F0pp=0.4084610000 F2pp=0.1576920000
 G1sp=0.2858760000
 ZetaOverlap=2.1124260000,1.3555900000
 U=-2.1220290000,-1.7029300000
 Beta=-0.7017530000,-0.3605290000 DDN=0,1,0.8928860000 DDN=1,1,0.7756800000
 CoreKO=1.0939600000 KON=0,0,0,1.0664980000 KON=1,0,1,0.7387540000 KON=0,1,1,0.9934050000
 KON=2,1,1,0.7411750000 EISol=-4.4398989268 EHeat=0.2723305520 Alpha=1.2672400000
 DipHyp=1.7856692630
 GCore=0.0008630000,1.6282610000,4.4492260000
 GCore=0.0034220000,1.2941510000,3.1400540000
 GCore=-0.0018340000,1.7522370000,3.6677590000
 GCore=-0.0000740000,1.4019530000,5.8699190000
 ****
 O       
 PQN=2,2 NValence=6 F0ss=0.5123020000 F0sp=0.6055480000 F0pp=0.4547400000 F2pp=0.2778070000
 G1sp=0.4361220000
 ZetaOverlap=3.1237390000,2.2636340000
 U=-3.9536060000,-3.3311940000
 Beta=-1.3664540000,-1.4118250000 DDN=0,1,0.5426100000 DDN=1,1,0.4654470000
 CoreKO=0.9408510000 KON=0,0,0,0.7177930000 KON=1,0,1,0.5588680000 KON=0,1,1,0.9626580000
 KON=2,1,1,0.4474500000 EISol=-11.6164441184 EHeat=0.0949133088 Alpha=2.4335810000
 DipHyp=1.0851575663
 GCore=0.0193040000,1.5791790000,1.5982320000
 GCore=0.0061610000,2.0391960000,3.4774980000
 ****
 
 Standard basis: VSTO-6G (5D, 7F)
 Ernie: Thresh=  0.10000D-02 Tol=  0.10000D-05 Strict=F.
  NNHCO=     0 NNPyr=     0 NCTC=     0               EPep=         0.000000000
    EC=        67.642184371  ECS=         2.314304831   EG=         0.299850689
   EHC=         0.000000000  EAt=       -31.051283842  AtH=         1.516354808
 EPDDG=         0.000000000  ECC=        70.256339891 EAtT=        32.567638650
 There are    24 symmetry adapted cartesian basis functions of A   symmetry.
 There are    24 symmetry adapted basis functions of A   symmetry.
    24 basis functions,   144 primitive gaussians,    24 cartesian basis functions
    13 alpha electrons       13 beta electrons
       nuclear repulsion energy       102.8239785415 Hartrees.
 IExCor=    0 DFT=F Ex=HF Corr=None ExCW=0 ScaHFX=  1.000000
 ScaDFX=  1.000000  1.000000  1.000000  1.000000 ScalE2=  1.000000  1.000000
 IRadAn=      0 IRanWt=     -1 IRanGd=            0 ICorTp=0 IEmpDi=  4
 Integral buffers will be    131072 words long.
 Regular integral format.
 Two-electron integral symmetry is turned off.
 Leave Link  301 at Mon Dec  7 13:25:20 2015, MaxMem=    33554432 cpu:         0.0
 (Enter /home/Applications/g09/g09/l302.exe)
 Do NDO integrals.
 NPDir=0 NMtPBC=     1 NCelOv=     1 NCel=       1 NClECP=     1 NCelD=      1
         NCelK=      1 NCelE2=     1 NClLst=     1 CellRange=     0.0.
 One-electron integrals computed using PRISM.
 NBasis=    24 RedAO= F EigKep=  0.00D+00  NBF=    24
 NBsUse=    24 1.00D-04 EigRej=  0.00D+00 NBFU=    24
 Leave Link  302 at Mon Dec  7 13:25:20 2015, MaxMem=    33554432 cpu:         0.0
 (Enter /home/Applications/g09/g09/l303.exe)
 DipDrv:  MaxL=1.
 Leave Link  303 at Mon Dec  7 13:25:20 2015, MaxMem=    33554432 cpu:         0.0
 (Enter /home/Applications/g09/g09/l401.exe)
 Initial guess from the checkpoint file:  "/home/Applications/g09/scratch/Gau-7354.chk"
 B after Tr=     0.000000    0.000000    0.000000
         Rot=    0.976196    0.000134    0.000011   -0.216889 Ang=  25.05 deg.
 Guess basis will be translated and rotated to current coordinates.
 JPrj=0 DoOrth=T DoCkMO=T.
 Leave Link  401 at Mon Dec  7 13:25:20 2015, MaxMem=    33554432 cpu:         0.0
 (Enter /home/Applications/g09/g09/l502.exe)
 Closed shell SCF:
 Using DIIS extrapolation, IDIIS=  1040.
 Overlap will be assumed to be unity.
 Two-electron integral symmetry not used.
 Keep J ints in memory in canonical form, NReq=888082.
 IVT=       79475 IEndB=       79475 NGot=    33554432 MDV=    33473473
 LenX=    33473473 LenY=    33472456
 Requested convergence on RMS density matrix=1.00D-08 within 128 cycles.
 Requested convergence on MAX density matrix=1.00D-06.
 Requested convergence on             energy=1.00D-06.
 No special actions if energy rises.
 FoFCou: FMM=F IPFlag=           0 FMFlag=           0 FMFlg1=           0
         NFxFlg=           0 DoJE=F BraDBF=F KetDBF=F FulRan=T
         wScrn=  0.000000 ICntrl=     600 IOpCl=  2 I1Cent=           0 NGrid=           0
         NMat0=    1 NMatS0=     54 NMatT0=    0 NMatD0=    1 NMtDS0=    0 NMtDT0=    0
 Symmetry not used in FoFCou.

 Cycle   1  Pass 1  IDiag  1:
 E= -5.11498421944525    
 DIIS: error= 1.39D-02 at cycle   1 NSaved=   1.
 NSaved= 1 IEnMin= 1 EnMin= -5.11498421944525     IErMin= 1 ErrMin= 1.39D-02
 ErrMax= 1.39D-02  0.00D+00 EMaxC= 1.00D-01 BMatC= 7.07D-03 BMatP= 7.07D-03
 IDIUse=3 WtCom= 8.61D-01 WtEn= 1.39D-01
 Coeff-Com:  0.100D+01
 Coeff-En:   0.100D+01
 Coeff:      0.100D+01
 GapD=    2.000 DampG=2.000 DampE=0.500 DampFc=1.0000 IDamp=-1.
 RMSDP=4.47D-03 MaxDP=1.76D-02              OVMax= 0.00D+00

 Cycle   2  Pass 1  IDiag  3:
 E= -5.13017435915863     Delta-E=       -0.015190139713 Rises=F Damp=F
 DIIS: error= 3.58D-03 at cycle   2 NSaved=   2.
 NSaved= 2 IEnMin= 2 EnMin= -5.13017435915863     IErMin= 2 ErrMin= 3.58D-03
 ErrMax= 3.58D-03  0.00D+00 EMaxC= 1.00D-01 BMatC= 5.54D-04 BMatP= 7.07D-03
 IDIUse=3 WtCom= 9.64D-01 WtEn= 3.58D-02
 Coeff-Com: -0.321D+00 0.132D+01
 Coeff-En:   0.000D+00 0.100D+01
 Coeff:     -0.310D+00 0.131D+01
 Gap=     0.434 Goal=   None    Shift=    0.000
 RMSDP=1.84D-03 MaxDP=9.38D-03 DE=-1.52D-02 OVMax= 9.93D-03

 Cycle   3  Pass 1  IDiag  3:
 E= -5.13171490207377     Delta-E=       -0.001540542915 Rises=F Damp=F
 DIIS: error= 5.73D-04 at cycle   3 NSaved=   3.
 NSaved= 3 IEnMin= 3 EnMin= -5.13171490207377     IErMin= 3 ErrMin= 5.73D-04
 ErrMax= 5.73D-04  0.00D+00 EMaxC= 1.00D-01 BMatC= 1.64D-05 BMatP= 5.54D-04
 IDIUse=3 WtCom= 9.94D-01 WtEn= 5.73D-03
 Coeff-Com:  0.252D-01-0.181D+00 0.116D+01
 Coeff-En:   0.000D+00 0.000D+00 0.100D+01
 Coeff:      0.250D-01-0.180D+00 0.115D+01
 Gap=     0.434 Goal=   None    Shift=    0.000
 RMSDP=3.98D-04 MaxDP=2.53D-03 DE=-1.54D-03 OVMax= 3.04D-03

 Cycle   4  Pass 1  IDiag  3:
 E= -5.13177969014866     Delta-E=       -0.000064788075 Rises=F Damp=F
 DIIS: error= 3.04D-04 at cycle   4 NSaved=   4.
 NSaved= 4 IEnMin= 4 EnMin= -5.13177969014866     IErMin= 4 ErrMin= 3.04D-04
 ErrMax= 3.04D-04  0.00D+00 EMaxC= 1.00D-01 BMatC= 1.95D-06 BMatP= 1.64D-05
 IDIUse=3 WtCom= 9.97D-01 WtEn= 3.04D-03
 Coeff-Com:  0.272D-01-0.107D+00-0.981D-01 0.118D+01
 Coeff-En:   0.000D+00 0.000D+00 0.000D+00 0.100D+01
 Coeff:      0.271D-01-0.107D+00-0.979D-01 0.118D+01
 Gap=     0.435 Goal=   None    Shift=    0.000
 RMSDP=1.70D-04 MaxDP=1.72D-03 DE=-6.48D-05 OVMax= 1.64D-03

 Cycle   5  Pass 1  IDiag  3:
 E= -5.13178885667196     Delta-E=       -0.000009166523 Rises=F Damp=F
 DIIS: error= 9.04D-05 at cycle   5 NSaved=   5.
 NSaved= 5 IEnMin= 5 EnMin= -5.13178885667196     IErMin= 5 ErrMin= 9.04D-05
 ErrMax= 9.04D-05  0.00D+00 EMaxC= 1.00D-01 BMatC= 2.24D-07 BMatP= 1.95D-06
 IDIUse=1 WtCom= 1.00D+00 WtEn= 0.00D+00
 Coeff-Com: -0.860D-02 0.400D-01-0.450D-01-0.375D+00 0.139D+01
 Coeff:     -0.860D-02 0.400D-01-0.450D-01-0.375D+00 0.139D+01
 Gap=     0.435 Goal=   None    Shift=    0.000
 RMSDP=6.27D-05 MaxDP=6.89D-04 DE=-9.17D-06 OVMax= 6.21D-04

 Cycle   6  Pass 1  IDiag  3:
 E= -5.13179000246242     Delta-E=       -0.000001145790 Rises=F Damp=F
 DIIS: error= 4.20D-05 at cycle   6 NSaved=   6.
 NSaved= 6 IEnMin= 6 EnMin= -5.13179000246242     IErMin= 6 ErrMin= 4.20D-05
 ErrMax= 4.20D-05  0.00D+00 EMaxC= 1.00D-01 BMatC= 2.74D-08 BMatP= 2.24D-07
 IDIUse=1 WtCom= 1.00D+00 WtEn= 0.00D+00
 Coeff-Com:  0.554D-03-0.417D-02 0.350D-01-0.195D-02-0.491D+00 0.146D+01
 Coeff:      0.554D-03-0.417D-02 0.350D-01-0.195D-02-0.491D+00 0.146D+01
 Gap=     0.435 Goal=   None    Shift=    0.000
 RMSDP=2.53D-05 MaxDP=3.21D-04 DE=-1.15D-06 OVMax= 2.86D-04

 Cycle   7  Pass 1  IDiag  3:
 E= -5.13179016427753     Delta-E=       -0.000000161815 Rises=F Damp=F
 DIIS: error= 8.88D-06 at cycle   7 NSaved=   7.
 NSaved= 7 IEnMin= 7 EnMin= -5.13179016427753     IErMin= 7 ErrMin= 8.88D-06
 ErrMax= 8.88D-06  0.00D+00 EMaxC= 1.00D-01 BMatC= 3.12D-09 BMatP= 2.74D-08
 IDIUse=1 WtCom= 1.00D+00 WtEn= 0.00D+00
 Coeff-Com:  0.141D-02-0.614D-02 0.468D-03 0.504D-01-0.910D-01-0.304D+00
 Coeff-Com:  0.135D+01
 Coeff:      0.141D-02-0.614D-02 0.468D-03 0.504D-01-0.910D-01-0.304D+00
 Coeff:      0.135D+01
 Gap=     0.435 Goal=   None    Shift=    0.000
 RMSDP=8.84D-06 MaxDP=9.39D-05 DE=-1.62D-07 OVMax= 1.07D-04

 Cycle   8  Pass 1  IDiag  3:
 E= -5.13179018045749     Delta-E=       -0.000000016180 Rises=F Damp=F
 DIIS: error= 2.18D-06 at cycle   8 NSaved=   8.
 NSaved= 8 IEnMin= 8 EnMin= -5.13179018045749     IErMin= 8 ErrMin= 2.18D-06
 ErrMax= 2.18D-06  0.00D+00 EMaxC= 1.00D-01 BMatC= 1.85D-10 BMatP= 3.12D-09
 IDIUse=1 WtCom= 1.00D+00 WtEn= 0.00D+00
 Coeff-Com: -0.498D-03 0.226D-02-0.341D-03-0.229D-01 0.728D-01 0.198D-01
 Coeff-Com: -0.515D+00 0.144D+01
 Coeff:     -0.498D-03 0.226D-02-0.341D-03-0.229D-01 0.728D-01 0.198D-01
 Coeff:     -0.515D+00 0.144D+01
 Gap=     0.435 Goal=   None    Shift=    0.000
 RMSDP=1.90D-06 MaxDP=1.91D-05 DE=-1.62D-08 OVMax= 1.98D-05

 Cycle   9  Pass 1  IDiag  3:
 E= -5.13179018139378     Delta-E=       -0.000000000936 Rises=F Damp=F
 DIIS: error= 7.78D-07 at cycle   9 NSaved=   9.
 NSaved= 9 IEnMin= 9 EnMin= -5.13179018139378     IErMin= 9 ErrMin= 7.78D-07
 ErrMax= 7.78D-07  0.00D+00 EMaxC= 1.00D-01 BMatC= 1.58D-11 BMatP= 1.85D-10
 IDIUse=1 WtCom= 1.00D+00 WtEn= 0.00D+00
 Coeff-Com:  0.155D-03-0.756D-03 0.103D-02 0.511D-02-0.278D-01 0.152D-01
 Coeff-Com:  0.140D+00-0.666D+00 0.153D+01
 Coeff:      0.155D-03-0.756D-03 0.103D-02 0.511D-02-0.278D-01 0.152D-01
 Coeff:      0.140D+00-0.666D+00 0.153D+01
 Gap=     0.435 Goal=   None    Shift=    0.000
 RMSDP=5.90D-07 MaxDP=7.13D-06 DE=-9.36D-10 OVMax= 6.49D-06

 Cycle  10  Pass 1  IDiag  3:
 E= -5.13179018147372     Delta-E=       -0.000000000080 Rises=F Damp=F
 DIIS: error= 1.77D-07 at cycle  10 NSaved=  10.
 NSaved=10 IEnMin=10 EnMin= -5.13179018147372     IErMin=10 ErrMin= 1.77D-07
 ErrMax= 1.77D-07  0.00D+00 EMaxC= 1.00D-01 BMatC= 9.76D-13 BMatP= 1.58D-11
 IDIUse=1 WtCom= 1.00D+00 WtEn= 0.00D+00
 Coeff-Com: -0.220D-04 0.121D-03-0.264D-03-0.741D-03 0.648D-02-0.799D-02
 Coeff-Com: -0.179D-01 0.167D+00-0.645D+00 0.150D+01
 Coeff:     -0.220D-04 0.121D-03-0.264D-03-0.741D-03 0.648D-02-0.799D-02
 Coeff:     -0.179D-01 0.167D+00-0.645D+00 0.150D+01
 Gap=     0.435 Goal=   None    Shift=    0.000
 RMSDP=1.41D-07 MaxDP=1.57D-06 DE=-7.99D-11 OVMax= 1.11D-06

 Cycle  11  Pass 1  IDiag  3:
 E= -5.13179018147842     Delta-E=       -0.000000000005 Rises=F Damp=F
 DIIS: error= 2.79D-08 at cycle  11 NSaved=  11.
 NSaved=11 IEnMin=11 EnMin= -5.13179018147842     IErMin=11 ErrMin= 2.79D-08
 ErrMax= 2.79D-08  0.00D+00 EMaxC= 1.00D-01 BMatC= 3.35D-14 BMatP= 9.76D-13
 IDIUse=1 WtCom= 1.00D+00 WtEn= 0.00D+00
 Coeff-Com:  0.425D-06-0.854D-05 0.665D-04-0.421D-04-0.982D-03 0.222D-02
 Coeff-Com: -0.451D-03-0.301D-01 0.168D+00-0.562D+00 0.142D+01
 Coeff:      0.425D-06-0.854D-05 0.665D-04-0.421D-04-0.982D-03 0.222D-02
 Coeff:     -0.451D-03-0.301D-01 0.168D+00-0.562D+00 0.142D+01
 Gap=     0.435 Goal=   None    Shift=    0.000
 RMSDP=2.40D-08 MaxDP=2.10D-07 DE=-4.70D-12 OVMax= 1.63D-07

 Cycle  12  Pass 1  IDiag  3:
 E= -5.13179018147841     Delta-E=        0.000000000000 Rises=F Damp=F
 DIIS: error= 4.21D-09 at cycle  12 NSaved=  12.
 NSaved=12 IEnMin=11 EnMin= -5.13179018147842     IErMin=12 ErrMin= 4.21D-09
 ErrMax= 4.21D-09  0.00D+00 EMaxC= 1.00D-01 BMatC= 8.88D-16 BMatP= 3.35D-14
 IDIUse=1 WtCom= 1.00D+00 WtEn= 0.00D+00
 Coeff-Com:  0.456D-06 0.220D-06-0.204D-04 0.327D-04 0.265D-03-0.781D-03
 Coeff-Com:  0.814D-03 0.821D-02-0.539D-01 0.201D+00-0.612D+00 0.146D+01
 Coeff:      0.456D-06 0.220D-06-0.204D-04 0.327D-04 0.265D-03-0.781D-03
 Coeff:      0.814D-03 0.821D-02-0.539D-01 0.201D+00-0.612D+00 0.146D+01
 Gap=     0.435 Goal=   None    Shift=    0.000
 RMSDP=3.79D-09 MaxDP=1.94D-08 DE= 1.42D-14 OVMax= 3.70D-08

 Cycle  13  Pass 2  IDiag  1:
 SCF Done:  E(RAM1) =  -5.13179018148     A.U. after   13 cycles
            NFock= 12  Conv=0.38D-08     -V/T= 0.7235
 KE=-1.855942975769D+01 PE=-1.755356129567D+02 EE= 8.613927399136D+01
 Leave Link  502 at Mon Dec  7 13:25:20 2015, MaxMem=    33554432 cpu:         0.0
 (Enter /home/Applications/g09/g09/l701.exe)
 Compute integral first derivatives.
 ... and contract with generalized density number  0.
 Leave Link  701 at Mon Dec  7 13:25:20 2015, MaxMem=    33554432 cpu:         0.0
 (Enter /home/Applications/g09/g09/l702.exe)
 L702 exits ... SP integral derivatives will be done elsewhere.
 Leave Link  702 at Mon Dec  7 13:25:20 2015, MaxMem=    33554432 cpu:         0.0
 (Enter /home/Applications/g09/g09/l703.exe)
 Compute integral first derivatives, UseDBF=F ICtDFT=           0.
 Integral derivatives from FoFJK, PRISM(SPDF).
 Calling FoFJK, ICntrl=      2127 FMM=F ISym2X=0 I1Cent= 0 IOpClX= 0 NMat=1 NMatS=1 NMatT=0.
 FoFJK:  IHMeth= 8 ICntrl=    2127 DoSepK=F KAlg= 0 I1Cent=   0 FoldK=F
 IRaf=         0 NMat=   1 IRICut=       1 DoRegI=T DoRafI=F ISym2E= 0.
 FoFCou: FMM=F IPFlag=           0 FMFlag=      100000 FMFlg1=         800
         NFxFlg=           0 DoJE=F BraDBF=F KetDBF=F FulRan=T
         wScrn=  0.000000 ICntrl=    2127 IOpCl=  0 I1Cent=           0 NGrid=           0
         NMat0=    1 NMatS0=      1 NMatT0=    0 NMatD0=    1 NMtDS0=    0 NMtDT0=    0
 Symmetry not used in FoFCou.
 Leave Link  703 at Mon Dec  7 13:25:20 2015, MaxMem=    33554432 cpu:         0.0
 (Enter /home/Applications/g09/g09/l716.exe)
 Dipole        =-2.24411378D-01 1.14512164D+00-2.90179954D-03
 ***** Axes restored to original set *****
 -------------------------------------------------------------------
 Center     Atomic                   Forces (Hartrees/Bohr)
 Number     Number              X              Y              Z
 -------------------------------------------------------------------
      1        6          -0.018657464   -0.020202812   -0.005018225
      2        6          -0.004038570    0.045047109    0.005252398
      3        8           0.054089486    0.008515221    0.000869183
      4        6           0.021915096   -0.022898082   -0.003444422
      5        6          -0.050501760    0.004240189    0.001034952
      6        1          -0.004205959   -0.004181820   -0.000521255
      7        1          -0.001134364   -0.013400560    0.001921248
      8        1           0.005030909   -0.004331458   -0.002204710
      9        1          -0.002497373    0.007212214    0.002110833
 -------------------------------------------------------------------
 Cartesian Forces:  Max     0.054089486 RMS     0.019023468
 Leave Link  716 at Mon Dec  7 13:25:20 2015, MaxMem=    33554432 cpu:         0.0
 (Enter /home/Applications/g09/g09/l103.exe)

 GradGradGradGradGradGradGradGradGradGradGradGradGradGradGradGradGradGrad
 Berny optimization.
 Using GEDIIS/GDIIS optimizer.
 FormGI is forming the generalized inverse of G from B-inverse, IUseBI=4.
 Internal  Forces:  Max     0.047563409 RMS     0.013566030
 Search for a local minimum.
 Step number   2 out of a maximum of   48
 All quantities printed in internal units (Hartrees-Bohrs-Radians)
 RMS Force = .13566D-01 SwitMx=.10000D-02 MixMth= 1
 Mixed Optimization -- RFO/linear search
 Update second derivatives using D2CorX and points    1    2
 DE= -2.32D-02 DEPred=-3.67D-02 R= 6.32D-01
 TightC=F SS=  1.41D+00  RLast= 3.63D-01 DXNew= 5.0454D-01 1.0881D+00
 Trust test= 6.32D-01 RLast= 3.63D-01 DXMaxT set to 5.05D-01
 ITU=  1  0
 Use linear search instead of GDIIS.
     Eigenvalues ---    0.02072   0.02192   0.02295   0.02460   0.02608
     Eigenvalues ---    0.02736   0.15675   0.15974   0.15998   0.16095
     Eigenvalues ---    0.21827   0.23230   0.30960   0.31589   0.32697
     Eigenvalues ---    0.33113   0.38714   0.42906   0.47589   0.52038
     Eigenvalues ---    1.03388
 RFO step:  Lambda=-7.67389605D-03 EMin= 2.07235922D-02
 Quartic linear search produced a step of -0.19094.
 Iteration  1 RMS(Cart)=  0.02242227 RMS(Int)=  0.00041774
 Iteration  2 RMS(Cart)=  0.00039946 RMS(Int)=  0.00020461
 Iteration  3 RMS(Cart)=  0.00000015 RMS(Int)=  0.00020461
 ITry= 1 IFail=0 DXMaxC= 6.64D-02 DCOld= 1.00D+10 DXMaxT= 5.05D-01 DXLimC= 3.00D+00 Rises=F
 Variable       Old X    -DE/DX   Delta X   Delta X   Delta X     New X
                                 (Linear)    (Quad)   (Total)
    R1        2.62171  -0.03225  -0.01153  -0.02657  -0.03806   2.58364
    R2        2.80377  -0.00525  -0.02539   0.03328   0.00789   2.81166
    R3        2.05712  -0.00647   0.01053  -0.03206  -0.02153   2.03559
    R4        2.63088  -0.03431   0.00346  -0.06662  -0.06314   2.56774
    R5        2.06514   0.00140   0.01019  -0.01200  -0.00181   2.06333
    R6        2.61388  -0.04095  -0.04204   0.02173  -0.02033   2.59354
    R7        2.65742  -0.04756  -0.00748  -0.06842  -0.07592   2.58150
    R8        2.09587  -0.01183  -0.00095  -0.02680  -0.02776   2.06811
    R9        2.04467  -0.00590   0.00868  -0.02733  -0.01864   2.02603
    A1        1.87152  -0.01086   0.00047  -0.02512  -0.02436   1.84717
    A2        2.17374   0.00969  -0.00608   0.04116   0.03509   2.20883
    A3        2.23705   0.00121   0.00453  -0.01467  -0.01012   2.22694
    A4        1.92131  -0.00204  -0.01020   0.01380   0.00370   1.92500
    A5        2.35385  -0.00553   0.01072  -0.04600  -0.03548   2.31837
    A6        2.00691   0.00763  -0.00094   0.03386   0.03273   2.03964
    A7        1.87003   0.01165   0.00678   0.01435   0.02135   1.89138
    A8        1.94828  -0.00321  -0.00126  -0.01891  -0.01986   1.92843
    A9        2.09528  -0.00518  -0.00341  -0.01783  -0.02109   2.07419
   A10        2.23910   0.00843   0.00323   0.03801   0.04140   2.28051
   A11        1.81359   0.00446   0.00284   0.01616   0.01921   1.83280
   A12        2.23905  -0.00295  -0.00147  -0.01159  -0.01304   2.22602
   A13        2.23045  -0.00151  -0.00175  -0.00441  -0.00615   2.22430
    D1       -0.00884   0.00060  -0.01247   0.02167   0.00922   0.00038
    D2       -3.09518  -0.00105  -0.00448  -0.02056  -0.02474  -3.11992
    D3       -3.10871  -0.00019   0.00089  -0.01058  -0.00981  -3.11852
    D4        0.08814  -0.00184   0.00888  -0.05280  -0.04377   0.04437
    D5        0.00891  -0.00066   0.01906  -0.02811  -0.00909  -0.00018
    D6        3.13674  -0.00044   0.00912  -0.01604  -0.00704   3.12970
    D7        3.10679   0.00042   0.00413   0.00743   0.01161   3.11840
    D8       -0.04857   0.00064  -0.00581   0.01949   0.01366  -0.03491
    D9        0.00514  -0.00015   0.00052  -0.00589  -0.00557  -0.00044
   D10        3.10353   0.00075  -0.00486   0.02445   0.02012   3.12365
   D11        0.00093  -0.00025   0.01218  -0.01327  -0.00062   0.00031
   D12        3.11057   0.00117  -0.00530   0.02601   0.02013   3.13070
   D13       -0.00605   0.00056  -0.01950   0.02545   0.00597  -0.00008
   D14       -3.13397   0.00036  -0.00964   0.01355   0.00399  -3.12997
   D15       -3.11240  -0.00067   0.00042  -0.01645  -0.01633  -3.12873
   D16        0.04286  -0.00087   0.01028  -0.02836  -0.01830   0.02456
         Item               Value     Threshold  Converged?
 Maximum Force            0.047563     0.000450     NO 
 RMS     Force            0.013566     0.000300     NO 
 Maximum Displacement     0.066350     0.001800     NO 
 RMS     Displacement     0.022538     0.001200     NO 
 Predicted change in Energy=-5.376928D-03
 Lowest energy point so far.  Saving SCF results.
 GradGradGradGradGradGradGradGradGradGradGradGradGradGradGradGradGradGrad

 Leave Link  103 at Mon Dec  7 13:25:20 2015, MaxMem=    33554432 cpu:         0.0
 (Enter /home/Applications/g09/g09/l202.exe)
                          Input orientation:                          
 ---------------------------------------------------------------------
 Center     Atomic      Atomic             Coordinates (Angstroms)
 Number     Number       Type             X           Y           Z
 ---------------------------------------------------------------------
      1          6           0        0.974853   -0.749483   -0.001010
      2          6           0       -0.340171   -1.123177   -0.018745
      3          8           0       -1.141684   -0.026104   -0.036473
      4          6           0       -0.345203    1.091562   -0.029818
      5          6           0        0.974241    0.738366   -0.008247
      6          1           0        1.823773    1.392102    0.011318
      7          1           0       -0.819171    2.077740   -0.052419
      8          1           0       -0.835685   -2.096020   -0.004032
      9          1           0        1.828606   -1.406310   -0.004768
 ---------------------------------------------------------------------
                    Distance matrix (angstroms):
                    1          2          3          4          5
     1  C    0.000000
     2  C    1.367206   0.000000
     3  O    2.237022   1.358789   0.000000
     4  C    2.265574   2.214772   1.372444   0.000000
     5  C    1.487867   2.278845   2.249967   1.366069   0.000000
     6  H    2.303737   3.318160   3.287480   2.190085   1.072127
     7  H    3.348785   3.236734   2.128480   1.094397   2.238795
     8  H    2.256373   1.091867   2.092664   3.225200   3.362975
     9  H    1.077186   2.187225   3.275454   3.311410   2.308590
                    6          7          8          9
     6  H    0.000000
     7  H    2.731175   0.000000
     8  H    4.386337   4.174073   0.000000
     9  H    2.798462   4.376254   2.752117   0.000000
 Stoichiometry    C4H4O
 Framework group  C1[X(C4H4O)]
 Deg. of freedom    21
 Full point group                 C1      NOp   1
 RotChk:  IX=2 Diff= 1.52D-01
 Largest Abelian subgroup         C1      NOp   1
 Largest concise Abelian subgroup C1      NOp   1
                         Standard orientation:                         
 ---------------------------------------------------------------------
 Center     Atomic      Atomic             Coordinates (Angstroms)
 Number     Number       Type             X           Y           Z
 ---------------------------------------------------------------------
      1          6           0        0.654951    1.019254    0.000373
      2          6           0        1.134359   -0.261144   -0.000586
      3          8           0        0.106097   -1.149392   -0.000911
      4          6           0       -1.072649   -0.446428    0.000410
      5          6           0       -0.827929    0.897542    0.001204
      6          1           0       -1.548552    1.691292    0.012164
      7          1           0       -2.017065   -0.999306   -0.010072
      8          1           0        2.144359   -0.675634    0.015940
      9          1           0        1.240088    1.923445   -0.019147
 ---------------------------------------------------------------------
 Rotational constants (GHZ):      9.2895097      9.0897216      4.5943407
 Leave Link  202 at Mon Dec  7 13:25:20 2015, MaxMem=    33554432 cpu:         0.0
 (Enter /home/Applications/g09/g09/l301.exe)

 Semi-emprical parameters in input format:
 Method=8 CoreType=1 PeptideFC=0.0116450000 RIJScale=0.5158180000
 ****
 H       
 PQN=1 NValence=1 F0ss=0.4432940000 ZetaOverlap=1.3883890000 U=-0.3921460000
 Beta=-0.2438840000 CoreKO=1.0458800000 KON=0,0,0,1.0908040000 KON=1,0,1,1.1059430000
 KON=0,1,1,1.1943580000 KON=2,1,1,1.0589200000 EISol=-0.4188110042 EHeat=0.0830298228
 Alpha=1.4192630000
 GCore=0.0081260000,1.5719360000,2.5406550000
 GCore=0.0003220000,1.5703530000,3.3301220000
 GCore=-0.0012960000,0.6303070000,3.6011390000
 ****
 C       
 PQN=2,2 NValence=4 F0ss=0.4585850000 F0sp=0.5740220000 F0pp=0.4084610000 F2pp=0.1576920000
 G1sp=0.2858760000
 ZetaOverlap=2.1124260000,1.3555900000
 U=-2.1220290000,-1.7029300000
 Beta=-0.7017530000,-0.3605290000 DDN=0,1,0.8928860000 DDN=1,1,0.7756800000
 CoreKO=1.0939600000 KON=0,0,0,1.0664980000 KON=1,0,1,0.7387540000 KON=0,1,1,0.9934050000
 KON=2,1,1,0.7411750000 EISol=-4.4398989268 EHeat=0.2723305520 Alpha=1.2672400000
 DipHyp=1.7856692630
 GCore=0.0008630000,1.6282610000,4.4492260000
 GCore=0.0034220000,1.2941510000,3.1400540000
 GCore=-0.0018340000,1.7522370000,3.6677590000
 GCore=-0.0000740000,1.4019530000,5.8699190000
 ****
 O       
 PQN=2,2 NValence=6 F0ss=0.5123020000 F0sp=0.6055480000 F0pp=0.4547400000 F2pp=0.2778070000
 G1sp=0.4361220000
 ZetaOverlap=3.1237390000,2.2636340000
 U=-3.9536060000,-3.3311940000
 Beta=-1.3664540000,-1.4118250000 DDN=0,1,0.5426100000 DDN=1,1,0.4654470000
 CoreKO=0.9408510000 KON=0,0,0,0.7177930000 KON=1,0,1,0.5588680000 KON=0,1,1,0.9626580000
 KON=2,1,1,0.4474500000 EISol=-11.6164441184 EHeat=0.0949133088 Alpha=2.4335810000
 DipHyp=1.0851575663
 GCore=0.0193040000,1.5791790000,1.5982320000
 GCore=0.0061610000,2.0391960000,3.4774980000
 ****
 
 Standard basis: VSTO-6G (5D, 7F)
 Ernie: Thresh=  0.10000D-02 Tol=  0.10000D-05 Strict=F.
  NNHCO=     0 NNPyr=     0 NCTC=     0               EPep=         0.000000000
    EC=        68.302727301  ECS=         2.439351827   EG=         0.309166135
   EHC=         0.000000000  EAt=       -31.051283842  AtH=         1.516354808
 EPDDG=         0.000000000  ECC=        71.051245264 EAtT=        32.567638650
 There are    24 symmetry adapted cartesian basis functions of A   symmetry.
 There are    24 symmetry adapted basis functions of A   symmetry.
    24 basis functions,   144 primitive gaussians,    24 cartesian basis functions
    13 alpha electrons       13 beta electrons
       nuclear repulsion energy       103.6188839142 Hartrees.
 IExCor=    0 DFT=F Ex=HF Corr=None ExCW=0 ScaHFX=  1.000000
 ScaDFX=  1.000000  1.000000  1.000000  1.000000 ScalE2=  1.000000  1.000000
 IRadAn=      0 IRanWt=     -1 IRanGd=            0 ICorTp=0 IEmpDi=  4
 Integral buffers will be    131072 words long.
 Regular integral format.
 Two-electron integral symmetry is turned off.
 Leave Link  301 at Mon Dec  7 13:25:20 2015, MaxMem=    33554432 cpu:         0.0
 (Enter /home/Applications/g09/g09/l302.exe)
 Do NDO integrals.
 NPDir=0 NMtPBC=     1 NCelOv=     1 NCel=       1 NClECP=     1 NCelD=      1
         NCelK=      1 NCelE2=     1 NClLst=     1 CellRange=     0.0.
 One-electron integrals computed using PRISM.
 NBasis=    24 RedAO= F EigKep=  0.00D+00  NBF=    24
 NBsUse=    24 1.00D-04 EigRej=  0.00D+00 NBFU=    24
 Leave Link  302 at Mon Dec  7 13:25:20 2015, MaxMem=    33554432 cpu:         0.0
 (Enter /home/Applications/g09/g09/l303.exe)
 DipDrv:  MaxL=1.
 Leave Link  303 at Mon Dec  7 13:25:20 2015, MaxMem=    33554432 cpu:         0.0
 (Enter /home/Applications/g09/g09/l401.exe)
 Initial guess from the checkpoint file:  "/home/Applications/g09/scratch/Gau-7354.chk"
 B after Tr=     0.000000    0.000000    0.000000
         Rot=    0.998445    0.000004   -0.000009    0.055743 Ang=   6.39 deg.
 Guess basis will be translated and rotated to current coordinates.
 JPrj=0 DoOrth=T DoCkMO=T.
 Leave Link  401 at Mon Dec  7 13:25:20 2015, MaxMem=    33554432 cpu:         0.0
 (Enter /home/Applications/g09/g09/l502.exe)
 Closed shell SCF:
 Using DIIS extrapolation, IDIIS=  1040.
 Overlap will be assumed to be unity.
 Two-electron integral symmetry not used.
 Keep J ints in memory in canonical form, NReq=888082.
 IVT=       79475 IEndB=       79475 NGot=    33554432 MDV=    33473473
 LenX=    33473473 LenY=    33472456
 Requested convergence on RMS density matrix=1.00D-08 within 128 cycles.
 Requested convergence on MAX density matrix=1.00D-06.
 Requested convergence on             energy=1.00D-06.
 No special actions if energy rises.
 FoFCou: FMM=F IPFlag=           0 FMFlag=           0 FMFlg1=           0
         NFxFlg=           0 DoJE=F BraDBF=F KetDBF=F FulRan=T
         wScrn=  0.000000 ICntrl=     600 IOpCl=  2 I1Cent=           0 NGrid=           0
         NMat0=    1 NMatS0=     54 NMatT0=    0 NMatD0=    1 NMtDS0=    0 NMtDT0=    0
 Symmetry not used in FoFCou.

 Cycle   1  Pass 1  IDiag  1:
 E= -5.13445325727180    
 DIIS: error= 3.81D-03 at cycle   1 NSaved=   1.
 NSaved= 1 IEnMin= 1 EnMin= -5.13445325727180     IErMin= 1 ErrMin= 3.81D-03
 ErrMax= 3.81D-03  0.00D+00 EMaxC= 1.00D-01 BMatC= 8.08D-04 BMatP= 8.08D-04
 IDIUse=3 WtCom= 9.62D-01 WtEn= 3.81D-02
 Coeff-Com:  0.100D+01
 Coeff-En:   0.100D+01
 Coeff:      0.100D+01
 GapD=    2.000 DampG=2.000 DampE=1.000 DampFc=2.0000 IDamp=-1.
 RMSDP=1.49D-03 MaxDP=5.83D-03              OVMax= 0.00D+00

 Cycle   2  Pass 1  IDiag  3:
 E= -5.13619602042580     Delta-E=       -0.001742763154 Rises=F Damp=F
 DIIS: error= 1.06D-03 at cycle   2 NSaved=   2.
 NSaved= 2 IEnMin= 2 EnMin= -5.13619602042580     IErMin= 2 ErrMin= 1.06D-03
 ErrMax= 1.06D-03  0.00D+00 EMaxC= 1.00D-01 BMatC= 6.53D-05 BMatP= 8.08D-04
 IDIUse=3 WtCom= 9.89D-01 WtEn= 1.06D-02
 Coeff-Com: -0.336D+00 0.134D+01
 Coeff-En:   0.000D+00 0.100D+01
 Coeff:     -0.333D+00 0.133D+01
 Gap=     0.450 Goal=   None    Shift=    0.000
 RMSDP=6.10D-04 MaxDP=2.45D-03 DE=-1.74D-03 OVMax= 2.79D-03

 Cycle   3  Pass 1  IDiag  3:
 E= -5.13637207285214     Delta-E=       -0.000176052426 Rises=F Damp=F
 DIIS: error= 2.50D-04 at cycle   3 NSaved=   3.
 NSaved= 3 IEnMin= 3 EnMin= -5.13637207285214     IErMin= 3 ErrMin= 2.50D-04
 ErrMax= 2.50D-04  0.00D+00 EMaxC= 1.00D-01 BMatC= 1.63D-06 BMatP= 6.53D-05
 IDIUse=3 WtCom= 9.98D-01 WtEn= 2.50D-03
 Coeff-Com:  0.271D-01-0.177D+00 0.115D+01
 Coeff-En:   0.000D+00 0.000D+00 0.100D+01
 Coeff:      0.271D-01-0.177D+00 0.115D+01
 Gap=     0.450 Goal=   None    Shift=    0.000
 RMSDP=1.04D-04 MaxDP=6.94D-04 DE=-1.76D-04 OVMax= 7.66D-04

 Cycle   4  Pass 1  IDiag  3:
 E= -5.13637708745594     Delta-E=       -0.000005014604 Rises=F Damp=F
 DIIS: error= 4.68D-05 at cycle   4 NSaved=   4.
 NSaved= 4 IEnMin= 4 EnMin= -5.13637708745594     IErMin= 4 ErrMin= 4.68D-05
 ErrMax= 4.68D-05  0.00D+00 EMaxC= 1.00D-01 BMatC= 1.39D-07 BMatP= 1.63D-06
 IDIUse=1 WtCom= 1.00D+00 WtEn= 0.00D+00
 Coeff-Com:  0.242D-01-0.978D-01-0.421D-01 0.112D+01
 Coeff:      0.242D-01-0.978D-01-0.421D-01 0.112D+01
 Gap=     0.450 Goal=   None    Shift=    0.000
 RMSDP=3.47D-05 MaxDP=1.95D-04 DE=-5.01D-06 OVMax= 3.00D-04

 Cycle   5  Pass 1  IDiag  3:
 E= -5.13637756452650     Delta-E=       -0.000000477071 Rises=F Damp=F
 DIIS: error= 1.55D-05 at cycle   5 NSaved=   5.
 NSaved= 5 IEnMin= 5 EnMin= -5.13637756452650     IErMin= 5 ErrMin= 1.55D-05
 ErrMax= 1.55D-05  0.00D+00 EMaxC= 1.00D-01 BMatC= 8.22D-09 BMatP= 1.39D-07
 IDIUse=1 WtCom= 1.00D+00 WtEn= 0.00D+00
 Coeff-Com: -0.837D-02 0.373D-01-0.482D-01-0.313D+00 0.133D+01
 Coeff:     -0.837D-02 0.373D-01-0.482D-01-0.313D+00 0.133D+01
 Gap=     0.450 Goal=   None    Shift=    0.000
 RMSDP=9.40D-06 MaxDP=5.85D-05 DE=-4.77D-07 OVMax= 4.54D-05

 Cycle   6  Pass 1  IDiag  3:
 E= -5.13637759668808     Delta-E=       -0.000000032162 Rises=F Damp=F
 DIIS: error= 3.70D-06 at cycle   6 NSaved=   6.
 NSaved= 6 IEnMin= 6 EnMin= -5.13637759668808     IErMin= 6 ErrMin= 3.70D-06
 ErrMax= 3.70D-06  0.00D+00 EMaxC= 1.00D-01 BMatC= 4.34D-10 BMatP= 8.22D-09
 IDIUse=1 WtCom= 1.00D+00 WtEn= 0.00D+00
 Coeff-Com: -0.414D-05-0.246D-03 0.606D-02 0.543D-03-0.222D+00 0.122D+01
 Coeff:     -0.414D-05-0.246D-03 0.606D-02 0.543D-03-0.222D+00 0.122D+01
 Gap=     0.450 Goal=   None    Shift=    0.000
 RMSDP=2.21D-06 MaxDP=1.55D-05 DE=-3.22D-08 OVMax= 1.42D-05

 Cycle   7  Pass 1  IDiag  3:
 E= -5.13637759850744     Delta-E=       -0.000000001819 Rises=F Damp=F
 DIIS: error= 8.04D-07 at cycle   7 NSaved=   7.
 NSaved= 7 IEnMin= 7 EnMin= -5.13637759850744     IErMin= 7 ErrMin= 8.04D-07
 ErrMax= 8.04D-07  0.00D+00 EMaxC= 1.00D-01 BMatC= 4.13D-11 BMatP= 4.34D-10
 IDIUse=1 WtCom= 1.00D+00 WtEn= 0.00D+00
 Coeff-Com:  0.682D-03-0.296D-02 0.537D-03 0.317D-01-0.665D-01-0.266D+00
 Coeff-Com:  0.130D+01
 Coeff:      0.682D-03-0.296D-02 0.537D-03 0.317D-01-0.665D-01-0.266D+00
 Coeff:      0.130D+01
 Gap=     0.450 Goal=   None    Shift=    0.000
 RMSDP=7.55D-07 MaxDP=4.20D-06 DE=-1.82D-09 OVMax= 5.13D-06

 Cycle   8  Pass 1  IDiag  3:
 E= -5.13637759868780     Delta-E=       -0.000000000180 Rises=F Damp=F
 DIIS: error= 2.88D-07 at cycle   8 NSaved=   8.
 NSaved= 8 IEnMin= 8 EnMin= -5.13637759868780     IErMin= 8 ErrMin= 2.88D-07
 ErrMax= 2.88D-07  0.00D+00 EMaxC= 1.00D-01 BMatC= 2.60D-12 BMatP= 4.13D-11
 IDIUse=1 WtCom= 1.00D+00 WtEn= 0.00D+00
 Coeff-Com: -0.296D-03 0.132D-02-0.119D-02-0.113D-01 0.387D-01 0.405D-01
 Coeff-Com: -0.555D+00 0.149D+01
 Coeff:     -0.296D-03 0.132D-02-0.119D-02-0.113D-01 0.387D-01 0.405D-01
 Coeff:     -0.555D+00 0.149D+01
 Gap=     0.450 Goal=   None    Shift=    0.000
 RMSDP=2.19D-07 MaxDP=1.46D-06 DE=-1.80D-10 OVMax= 2.25D-06

 Cycle   9  Pass 1  IDiag  3:
 E= -5.13637759869958     Delta-E=       -0.000000000012 Rises=F Damp=F
 DIIS: error= 5.17D-08 at cycle   9 NSaved=   9.
 NSaved= 9 IEnMin= 9 EnMin= -5.13637759869958     IErMin= 9 ErrMin= 5.17D-08
 ErrMax= 5.17D-08  0.00D+00 EMaxC= 1.00D-01 BMatC= 9.29D-14 BMatP= 2.60D-12
 IDIUse=1 WtCom= 1.00D+00 WtEn= 0.00D+00
 Coeff-Com:  0.109D-03-0.489D-03 0.370D-03 0.446D-02-0.154D-01-0.115D-01
 Coeff-Com:  0.213D+00-0.680D+00 0.149D+01
 Coeff:      0.109D-03-0.489D-03 0.370D-03 0.446D-02-0.154D-01-0.115D-01
 Coeff:      0.213D+00-0.680D+00 0.149D+01
 Gap=     0.450 Goal=   None    Shift=    0.000
 RMSDP=3.50D-08 MaxDP=3.02D-07 DE=-1.18D-11 OVMax= 3.45D-07

 Cycle  10  Pass 1  IDiag  3:
 E= -5.13637759869998     Delta-E=        0.000000000000 Rises=F Damp=F
 DIIS: error= 1.18D-08 at cycle  10 NSaved=  10.
 NSaved=10 IEnMin=10 EnMin= -5.13637759869998     IErMin=10 ErrMin= 1.18D-08
 ErrMax= 1.18D-08  0.00D+00 EMaxC= 1.00D-01 BMatC= 4.71D-15 BMatP= 9.29D-14
 IDIUse=1 WtCom= 1.00D+00 WtEn= 0.00D+00
 Coeff-Com: -0.406D-04 0.182D-03-0.162D-03-0.156D-02 0.576D-02 0.246D-02
 Coeff-Com: -0.751D-01 0.259D+00-0.706D+00 0.152D+01
 Coeff:     -0.406D-04 0.182D-03-0.162D-03-0.156D-02 0.576D-02 0.246D-02
 Coeff:     -0.751D-01 0.259D+00-0.706D+00 0.152D+01
 Gap=     0.450 Goal=   None    Shift=    0.000
 RMSDP=8.10D-09 MaxDP=8.62D-08 DE=-3.98D-13 OVMax= 5.91D-08

 Cycle  11  Pass 2  IDiag  1:
 SCF Done:  E(RAM1) =  -5.13637759870     A.U. after   11 cycles
            NFock= 10  Conv=0.81D-08     -V/T= 0.7250
 KE=-1.867851854526D+01 PE=-1.768003578861D+02 EE= 8.672361491846D+01
 Leave Link  502 at Mon Dec  7 13:25:20 2015, MaxMem=    33554432 cpu:         0.0
 (Enter /home/Applications/g09/g09/l701.exe)
 Compute integral first derivatives.
 ... and contract with generalized density number  0.
 Leave Link  701 at Mon Dec  7 13:25:20 2015, MaxMem=    33554432 cpu:         0.0
 (Enter /home/Applications/g09/g09/l702.exe)
 L702 exits ... SP integral derivatives will be done elsewhere.
 Leave Link  702 at Mon Dec  7 13:25:20 2015, MaxMem=    33554432 cpu:         0.0
 (Enter /home/Applications/g09/g09/l703.exe)
 Compute integral first derivatives, UseDBF=F ICtDFT=           0.
 Integral derivatives from FoFJK, PRISM(SPDF).
 Calling FoFJK, ICntrl=      2127 FMM=F ISym2X=0 I1Cent= 0 IOpClX= 0 NMat=1 NMatS=1 NMatT=0.
 FoFJK:  IHMeth= 8 ICntrl=    2127 DoSepK=F KAlg= 0 I1Cent=   0 FoldK=F
 IRaf=         0 NMat=   1 IRICut=       1 DoRegI=T DoRafI=F ISym2E= 0.
 FoFCou: FMM=F IPFlag=           0 FMFlag=      100000 FMFlg1=         800
         NFxFlg=           0 DoJE=F BraDBF=F KetDBF=F FulRan=T
         wScrn=  0.000000 ICntrl=    2127 IOpCl=  0 I1Cent=           0 NGrid=           0
         NMat0=    1 NMatS0=      1 NMatT0=    0 NMatD0=    1 NMtDS0=    0 NMtDT0=    0
 Symmetry not used in FoFCou.
 Leave Link  703 at Mon Dec  7 13:25:20 2015, MaxMem=    33554432 cpu:         0.0
 (Enter /home/Applications/g09/g09/l716.exe)
 Dipole        =-1.06295591D-01 1.08247555D+00 3.24102345D-04
 ***** Axes restored to original set *****
 -------------------------------------------------------------------
 Center     Atomic                   Forces (Hartrees/Bohr)
 Number     Number              X              Y              Z
 -------------------------------------------------------------------
      1        6           0.008184564   -0.013707342   -0.001796671
      2        6           0.004107395   -0.002699602    0.001747517
      3        8          -0.016260417    0.020604377   -0.000142045
      4        6          -0.003141501   -0.005828017   -0.001126181
      5        6          -0.000224881    0.004806948    0.000878291
      6        1           0.006441106    0.001745607   -0.000500378
      7        1          -0.003687822    0.000738147    0.000577308
      8        1           0.000357918   -0.006658576   -0.000942295
      9        1           0.004223637    0.000998457    0.001304454
 -------------------------------------------------------------------
 Cartesian Forces:  Max     0.020604377 RMS     0.006578489
 Leave Link  716 at Mon Dec  7 13:25:20 2015, MaxMem=    33554432 cpu:         0.0
 (Enter /home/Applications/g09/g09/l103.exe)

 GradGradGradGradGradGradGradGradGradGradGradGradGradGradGradGradGradGrad
 Berny optimization.
 Using GEDIIS/GDIIS optimizer.
 FormGI is forming the generalized inverse of G from B-inverse, IUseBI=4.
 Internal  Forces:  Max     0.019641532 RMS     0.004809282
 Search for a local minimum.
 Step number   3 out of a maximum of   48
 All quantities printed in internal units (Hartrees-Bohrs-Radians)
 RMS Force = .48093D-02 SwitMx=.10000D-02 MixMth= 1
 Mixed Optimization -- RFO/linear search
 Update second derivatives using D2CorX and points    1    2    3
 DE= -4.59D-03 DEPred=-5.38D-03 R= 8.53D-01
 TightC=F SS=  1.41D+00  RLast= 1.61D-01 DXNew= 8.4853D-01 4.8165D-01
 Trust test= 8.53D-01 RLast= 1.61D-01 DXMaxT set to 5.05D-01
 ITU=  1  1  0
 Use linear search instead of GDIIS.
     Eigenvalues ---    0.02070   0.02188   0.02292   0.02464   0.02652
     Eigenvalues ---    0.02719   0.13212   0.15995   0.16045   0.16083
     Eigenvalues ---    0.21127   0.23471   0.31365   0.32106   0.32974
     Eigenvalues ---    0.33846   0.39371   0.42690   0.49915   0.69696
     Eigenvalues ---    1.03818
 RFO step:  Lambda=-1.74780568D-03 EMin= 2.07045714D-02
 Quartic linear search produced a step of -0.12744.
 Iteration  1 RMS(Cart)=  0.01404337 RMS(Int)=  0.00028863
 Iteration  2 RMS(Cart)=  0.00022021 RMS(Int)=  0.00016851
 Iteration  3 RMS(Cart)=  0.00000006 RMS(Int)=  0.00016851
 ITry= 1 IFail=0 DXMaxC= 3.62D-02 DCOld= 1.00D+10 DXMaxT= 5.05D-01 DXLimC= 3.00D+00 Rises=F
 Variable       Old X    -DE/DX   Delta X   Delta X   Delta X     New X
                                 (Linear)    (Quad)   (Total)
    R1        2.58364   0.00748   0.00485   0.00079   0.00567   2.58931
    R2        2.81166   0.00773  -0.00101   0.01885   0.01786   2.82952
    R3        2.03559   0.00273   0.00274  -0.00027   0.00248   2.03806
    R4        2.56774   0.01964   0.00805   0.01659   0.02464   2.59238
    R5        2.06333   0.00576   0.00023   0.01459   0.01482   2.07815
    R6        2.59354  -0.00360   0.00259  -0.01029  -0.00772   2.58582
    R7        2.58150   0.00941   0.00968  -0.00916   0.00050   2.58200
    R8        2.06811   0.00225   0.00354  -0.00340   0.00013   2.06824
    R9        2.02603   0.00616   0.00238   0.00935   0.01172   2.03775
    A1        1.84717  -0.00468   0.00310  -0.02350  -0.02041   1.82675
    A2        2.20883   0.00578  -0.00447   0.03851   0.03390   2.24273
    A3        2.22694  -0.00109   0.00129  -0.01439  -0.01324   2.21370
    A4        1.92500   0.00332  -0.00047   0.01766   0.01716   1.94216
    A5        2.31837  -0.00508   0.00452  -0.03892  -0.03453   2.28384
[...]
     38  0.000000D+00  0.000000D+00  0.000000D+00  0.000000D+00  0.000000D+00
               16            17            18            19            20 
     16  0.164546D+00
     17 -0.872649D-01  0.130972D+00
     18  0.451665D-01 -0.761622D-01  0.116798D+00
     19  0.420984D-01 -0.548097D-01 -0.406359D-01  0.954456D-01
     20  0.499214D-02 -0.488134D-01  0.308458D-01  0.179676D-01  0.110927D+00
     21  0.515805D-02  0.247214D-01 -0.161528D-01 -0.856856D-02 -0.552158D-01
     22 -0.101502D-01  0.240920D-01 -0.146929D-01 -0.939907D-02 -0.557114D-01
     23  0.157042D-05  0.000000D+00 -0.130099D-05  0.241934D-05  0.331070D-05
     24  0.176775D-05  0.000000D+00  0.000000D+00  0.000000D+00  0.198603D-05
     25  0.145607D-05 -0.130649D-05  0.000000D+00  0.198375D-05  0.000000D+00
     26  0.165340D-05 -0.130856D-05  0.179645D-05  0.000000D+00  0.000000D+00
     27  0.000000D+00  0.000000D+00  0.102659D-05  0.000000D+00 -0.131420D-05
     28 -0.115557D-05  0.000000D+00  0.222784D-05 -0.143592D-05  0.000000D+00
     29  0.252844D-05 -0.117224D-05  0.000000D+00  0.159513D-05  0.000000D+00
     30  0.000000D+00  0.000000D+00  0.109435D-05  0.000000D+00  0.122165D-05
     31  0.179098D-05 -0.169961D-05  0.265180D-05 -0.264858D-05  0.000000D+00
     32  0.199731D-05 -0.159596D-05  0.158878D-05  0.000000D+00  0.000000D+00
     33 -0.214041D-05  0.188441D-05 -0.222422D-05  0.299298D-05 -0.117884D-05
     34  0.000000D+00  0.000000D+00  0.971171D-05 -0.105990D-04  0.000000D+00
     35  0.000000D+00 -0.213152D-05  0.128685D-05 -0.161573D-05  0.155631D-05
     36  0.206131D-05 -0.237443D-05  0.000000D+00  0.000000D+00  0.000000D+00
     37 -0.282127D-05  0.171812D-05  0.310949D-05 -0.288309D-05  0.000000D+00
     38 -0.152511D-05  0.147521D-05  0.185740D-05 -0.131043D-05  0.000000D+00
               21            22            23            24            25 
     21  0.821225D-01
     22 -0.269067D-01  0.826181D-01
     23 -0.159127D-05 -0.135084D-05  0.223140D-01
     24  0.000000D+00 -0.123523D-05  0.338496D-02  0.183465D-01
     25  0.000000D+00  0.000000D+00  0.989916D-02 -0.843331D-02  0.168886D-01
     26  0.000000D+00  0.000000D+00 -0.902993D-02  0.652824D-02 -0.144389D-02
     27  0.000000D+00  0.000000D+00 -0.180443D-01 -0.756893D-02 -0.375618D-02
     28  0.000000D+00  0.162667D-05 -0.709922D-02 -0.466891D-02  0.260912D-02
     29  0.000000D+00 -0.104617D-05 -0.609825D-02  0.380306D-02 -0.104817D-01
     30 -0.148813D-05  0.000000D+00  0.484687D-02  0.670308D-02 -0.411637D-02
     31  0.000000D+00  0.000000D+00 -0.182919D-01  0.211950D-02 -0.124187D-01
     32  0.000000D+00  0.000000D+00 -0.227215D-02 -0.105425D-01  0.309613D-02
     33  0.000000D+00  0.000000D+00  0.561230D-02 -0.743824D-02  0.977938D-02
     34  0.000000D+00  0.000000D+00  0.435179D-02 -0.477331D-03  0.144257D-02
     35  0.000000D+00  0.000000D+00  0.772832D-02  0.921674D-02 -0.364545D-02
     36 -0.173558D-05  0.000000D+00 -0.364574D-02  0.620307D-02 -0.102602D-01
     37  0.000000D+00  0.000000D+00  0.921736D-02  0.993728D-03  0.620292D-02
     38  0.000000D+00  0.102473D-05 -0.215669D-02 -0.201995D-02 -0.411830D-03
               26            27            28            29            30 
     26  0.141143D-01
     27  0.671923D-02  0.216760D-01
     28  0.503942D-02  0.792627D-02  0.121446D-01
     29 -0.580350D-03  0.792737D-02 -0.141547D-02  0.121453D-01
     30 -0.226015D-02 -0.582235D-02  0.280290D-02  0.280243D-02  0.114277D-01
     31  0.799269D-02  0.761562D-02  0.360578D-02  0.196420D-02 -0.204564D-02
     32 -0.517425D-02 -0.124976D-02  0.154900D-02 -0.641533D-02 -0.361656D-02
     33 -0.327116D-02  0.761611D-02  0.196400D-02  0.360638D-02 -0.204573D-02
     34 -0.338655D-02 -0.125093D-02 -0.641628D-02  0.154844D-02 -0.361691D-02
     35 -0.215703D-02 -0.180445D-01 -0.609740D-02 -0.710021D-02  0.484689D-02
     36 -0.411398D-03 -0.375592D-02 -0.104811D-01  0.260878D-02 -0.411638D-02
     37 -0.202071D-02 -0.756975D-02  0.380233D-02 -0.466914D-02  0.670294D-02
     38 -0.275082D-03  0.671882D-02 -0.581347D-03  0.503984D-02 -0.226032D-02
               31            32            33            34            35 
     31  0.222640D-01
     32  0.498976D-02  0.119890D-01
     33 -0.169128D-01 -0.586804D-02  0.222648D-01
     34 -0.586495D-02 -0.177804D-02  0.498599D-02  0.119913D-01
     35  0.561259D-02  0.435293D-02 -0.182926D-01 -0.226912D-02  0.223144D-01
     36  0.977957D-02  0.144448D-02 -0.124190D-01  0.309866D-02  0.989910D-02
     37 -0.743833D-02 -0.478630D-03  0.211912D-02 -0.105446D-01  0.338566D-02
     38 -0.327135D-02 -0.338708D-02  0.799273D-02 -0.517683D-02 -0.902964D-02
               36            37            38 
     36  0.168878D-01
     37 -0.843209D-02  0.183455D-01
     38 -0.144338D-02  0.652774D-02  0.141140D-01
 Leave Link  716 at Mon Dec  7 13:25:22 2015, MaxMem=    33554432 cpu:         0.0
 (Enter /home/Applications/g09/g09/l103.exe)

 GradGradGradGradGradGradGradGradGradGradGradGradGradGradGradGradGradGrad
 Berny optimization.
 Red2BG is reusing G-inverse.
 Internal  Forces:  Max     0.000056929 RMS     0.000017749
 Search for a local minimum.
 Step number   1 out of a maximum of    2
 All quantities printed in internal units (Hartrees-Bohrs-Radians)
 Second derivative matrix not updated -- analytic derivatives used.
 ITU=  0
     Eigenvalues ---    0.01636   0.02125   0.03755   0.03990   0.07534
     Eigenvalues ---    0.07884   0.09490   0.10910   0.13463   0.13768
     Eigenvalues ---    0.24276   0.25312   0.37569   0.39781   0.42995
     Eigenvalues ---    0.44695   0.44952   0.58097   0.63503   0.73257
     Eigenvalues ---    1.04547
 Angle between quadratic step and forces=  55.39 degrees.
 Linear search not attempted -- first point.
 Iteration  1 RMS(Cart)=  0.00008717 RMS(Int)=  0.00000001
 Iteration  2 RMS(Cart)=  0.00000001 RMS(Int)=  0.00000001
 ITry= 1 IFail=0 DXMaxC= 2.46D-04 DCOld= 1.00D+10 DXMaxT= 3.00D-01 DXLimC= 3.00D+00 Rises=F
 Variable       Old X    -DE/DX   Delta X   Delta X   Delta X     New X
                                 (Linear)    (Quad)   (Total)
    R1        2.58384  -0.00002   0.00000  -0.00002  -0.00002   2.58381
    R2        2.83879   0.00003   0.00000   0.00006   0.00006   2.83885
    R3        2.03736   0.00001   0.00000   0.00002   0.00002   2.03737
    R4        2.58705   0.00003   0.00000   0.00002   0.00002   2.58707
    R5        2.07588   0.00004   0.00000   0.00009   0.00009   2.07597
    R6        2.58705   0.00001   0.00000   0.00002   0.00002   2.58707
    R7        2.58383  -0.00001   0.00000  -0.00002  -0.00002   2.58381
    R8        2.07584   0.00006   0.00000   0.00013   0.00013   2.07597
    R9        2.03738   0.00000   0.00000   0.00000   0.00000   2.03737
    A1        1.83344   0.00001   0.00000   0.00001   0.00001   1.83344
    A2        2.24997  -0.00001   0.00000  -0.00003  -0.00003   2.24994
    A3        2.19978   0.00000   0.00000   0.00002   0.00002   2.19980
    A4        1.93828  -0.00002   0.00000  -0.00004  -0.00004   1.93824
    A5        2.29311  -0.00001   0.00000  -0.00011  -0.00011   2.29300
    A6        2.05179   0.00004   0.00000   0.00015   0.00015   2.05195
    A7        1.88134   0.00003   0.00000   0.00007   0.00007   1.88141
    A8        1.93830  -0.00003   0.00000  -0.00006  -0.00006   1.93824
    A9        2.05196   0.00001   0.00000  -0.00001  -0.00001   2.05195
   A10        2.29293   0.00002   0.00000   0.00007   0.00007   2.29300
   A11        1.83342   0.00002   0.00000   0.00003   0.00003   1.83344
   A12        2.19982  -0.00001   0.00000  -0.00003  -0.00003   2.19980
   A13        2.24995  -0.00001   0.00000   0.00000   0.00000   2.24994
    D1       -0.00004   0.00000   0.00000   0.00004   0.00004   0.00000
    D2        3.14158   0.00000   0.00000   0.00001   0.00001   3.14159
    D3        3.14138   0.00001   0.00000   0.00021   0.00021   3.14159
    D4       -0.00018   0.00000   0.00000   0.00018   0.00018   0.00000
    D5        0.00003   0.00000   0.00000  -0.00003  -0.00003   0.00000
    D6        3.14159   0.00000   0.00000   0.00000   0.00000  -3.14159
    D7       -3.14140  -0.00001   0.00000  -0.00019  -0.00019   3.14159
    D8        0.00016   0.00000   0.00000  -0.00016  -0.00016   0.00000
    D9        0.00004   0.00000   0.00000  -0.00004  -0.00004   0.00000
   D10       -3.14159   0.00000   0.00000  -0.00001  -0.00001  -3.14159
   D11       -0.00001   0.00000   0.00000   0.00001   0.00001   0.00000
   D12       -3.14147   0.00000   0.00000  -0.00013  -0.00013   3.14159
   D13       -0.00001   0.00000   0.00000   0.00001   0.00001   0.00000
   D14       -3.14157   0.00000   0.00000  -0.00002  -0.00002   3.14159
   D15        3.14142   0.00001   0.00000   0.00018   0.00018  -3.14159
   D16       -0.00014   0.00000   0.00000   0.00014   0.00014   0.00000
         Item               Value     Threshold  Converged?
 Maximum Force            0.000057     0.000450     YES
 RMS     Force            0.000018     0.000300     YES
 Maximum Displacement     0.000246     0.001800     YES
 RMS     Displacement     0.000087     0.001200     YES
 Predicted change in Energy=-1.691119D-08
 Optimization completed.
    -- Stationary point found.
                           ----------------------------
                           !   Optimized Parameters   !
                           ! (Angstroms and Degrees)  !
 --------------------------                            --------------------------
 ! Name  Definition              Value          Derivative Info.                !
 --------------------------------------------------------------------------------
 ! R1    R(1,2)                  1.3673         -DE/DX =    0.0                 !
 ! R2    R(1,5)                  1.5022         -DE/DX =    0.0                 !
 ! R3    R(1,9)                  1.0781         -DE/DX =    0.0                 !
 ! R4    R(2,3)                  1.369          -DE/DX =    0.0                 !
 ! R5    R(2,8)                  1.0985         -DE/DX =    0.0                 !
 ! R6    R(3,4)                  1.369          -DE/DX =    0.0                 !
 ! R7    R(4,5)                  1.3673         -DE/DX =    0.0                 !
 ! R8    R(4,7)                  1.0985         -DE/DX =    0.0001              !
 ! R9    R(5,6)                  1.0781         -DE/DX =    0.0                 !
 ! A1    A(2,1,5)              105.0483         -DE/DX =    0.0                 !
 ! A2    A(2,1,9)              128.9137         -DE/DX =    0.0                 !
 ! A3    A(5,1,9)              126.0379         -DE/DX =    0.0                 !
 ! A4    A(1,2,3)              111.0554         -DE/DX =    0.0                 !
 ! A5    A(1,2,8)              131.3856         -DE/DX =    0.0                 !
 ! A6    A(3,2,8)              117.5591         -DE/DX =    0.0                 !
 ! A7    A(2,3,4)              107.7929         -DE/DX =    0.0                 !
 ! A8    A(3,4,5)              111.0564         -DE/DX =    0.0                 !
 ! A9    A(3,4,7)              117.5686         -DE/DX =    0.0                 !
 ! A10   A(5,4,7)              131.375          -DE/DX =    0.0                 !
 ! A11   A(1,5,4)              105.047          -DE/DX =    0.0                 !
 ! A12   A(1,5,6)              126.0406         -DE/DX =    0.0                 !
 ! A13   A(4,5,6)              128.9124         -DE/DX =    0.0                 !
 ! D1    D(5,1,2,3)             -0.0024         -DE/DX =    0.0                 !
 ! D2    D(5,1,2,8)            179.9995         -DE/DX =    0.0                 !
 ! D3    D(9,1,2,3)            179.988          -DE/DX =    0.0                 !
 ! D4    D(9,1,2,8)             -0.0101         -DE/DX =    0.0                 !
 ! D5    D(2,1,5,4)              0.0019         -DE/DX =    0.0                 !
 ! D6    D(2,1,5,6)           -180.0            -DE/DX =    0.0                 !
 ! D7    D(9,1,5,4)            180.0111         -DE/DX =    0.0                 !
 ! D8    D(9,1,5,6)              0.0092         -DE/DX =    0.0                 !
 ! D9    D(1,2,3,4)              0.002          -DE/DX =    0.0                 !
 ! D10   D(8,2,3,4)           -179.9996         -DE/DX =    0.0                 !
 ! D11   D(2,3,4,5)             -0.0007         -DE/DX =    0.0                 !
 ! D12   D(2,3,4,7)            180.0073         -DE/DX =    0.0                 !
 ! D13   D(3,4,5,1)             -0.0007         -DE/DX =    0.0                 !
 ! D14   D(3,4,5,6)            180.0013         -DE/DX =    0.0                 !
 ! D15   D(7,4,5,1)           -180.0102         -DE/DX =    0.0                 !
 ! D16   D(7,4,5,6)             -0.0082         -DE/DX =    0.0                 !
 --------------------------------------------------------------------------------
 GradGradGradGradGradGradGradGradGradGradGradGradGradGradGradGradGradGrad

 Leave Link  103 at Mon Dec  7 13:25:22 2015, MaxMem=    33554432 cpu:         0.0
 (Enter /home/Applications/g09/g09/l9999.exe)
 1\1\GINC-DUSTIN-DESKTOP\Freq\RAM1\ZDO\C4H4O1\DUSTIN\07-Dec-2015\0\\#P 
 Geom=AllCheck Guess=TCheck SCRF=Check GenChk RAM1/ZDO Freq\\AM1-Repara
 m Input\\0,1\C,0.9737663318,-0.7617424811,-0.0020087964\C,-0.346272049
 ,-1.1178399412,-0.0169691557\O,-1.153730525,-0.0124416115,-0.034001431
 1\C,-0.3479574571,1.0943108021,-0.0302123112\C,0.9726262125,0.74045429
 06,-0.0110311467\H,1.8438503462,1.3755003408,-0.0035553197\H,-0.835854
 8512,2.0784278561,-0.0422697288\H,-0.8328412389,-2.1027115175,-0.01737
 25492\H,1.8459722307,-1.3952827383,0.013226439\\Version=ES64L-G09RevD.
 01\State=1-A\HF=-5.1372696\RMSD=8.235e-10\RMSF=1.838e-05\ZeroPoint=0.0
 786677\Thermal=0.0820622\Dipole=1.1169909,0.0009526,0.0144776\DipoleDe
 riv=-0.3770113,0.0624294,-0.0034613,0.0511938,-0.2087783,0.0010808,-0.
 0033959,0.0012566,-0.1382044,0.9943256,-0.1587122,0.0100052,-0.407985,
 0.4106345,-0.0059603,0.0114763,-0.0027551,0.2943846,-1.8225162,-0.0006
 741,-0.0141272,-0.0006897,-1.0302688,0.0017636,-0.0140966,0.0017696,-0
 .7299461,0.9934482,0.1596777,0.0080655,0.4090081,0.4115234,0.0046084,0
 .0065678,0.0013944,0.2942683,-0.3768132,-0.0627518,-0.0026962,-0.05152
 04,-0.208915,-0.0002535,-0.0027711,-0.0004212,-0.1381687,0.1934311,0.0
 046508,0.0010952,0.0599484,0.1347993,0.0006062,0.0007634,-0.0001049,0.
 1065177,0.1008956,-0.0395773,0.0002208,-0.1006845,0.1780572,-0.0017462
 ,0.0005814,-0.0009633,0.1023245,0.1007116,0.0395043,-0.0002591,0.10056
 96,0.1782718,0.0008481,-0.0006206,0.0000596,0.1022941,0.1935246,-0.004
 5468,0.001157,-0.0598393,0.1346884,-0.0009473,0.0014925,-0.0002355,0.1
 065299\Polar=37.883339,0.0062333,34.4069124,0.3964648,-0.1622517,7.260
 0861\HyperPolar=24.4827758,0.0982314,-53.0871981,-0.1308144,0.3388537,
 0.3118117,-0.6854669,-0.9052275,0.0081156,-0.0355794\PG=C01 [X(C4H4O1)
 ]\NImag=0\\1.00220172,-0.13861970,0.55269257,0.01137642,-0.00398859,0.
 19033689,-0.46186905,-0.06093620,-0.00440956,0.87762887,-0.15891787,-0
 .09636686,-0.00203933,0.01507829,0.99318962,-0.00382356,-0.00076821,-0
 .09323190,0.00844257,-0.00443272,0.21826962,-0.18124141,0.05060016,-0.
 00287858,-0.27194405,0.30220723,-0.00400039,0.90375429,0.10182884,-0.0
 1318800,0.00150254,0.22983724,-0.42525293,0.00490006,-0.00002185,1.013
 14484,-0.00318476,0.00083719,0.01780206,-0.00356685,0.00583543,-0.1019
 8318,0.01003673,-0.00529291,0.12707352,-0.00309303,0.08928227,-0.00072
 420,0.01269918,-0.02152977,0.00002922,-0.27113685,-0.22962473,-0.00081
 081,0.87765957,0.02798285,-0.04727447,0.00071585,0.02178358,-0.1537263
 6,0.00132114,-0.30199755,-0.42614434,-0.00196378,-0.01514390,0.9932013
 2,-0.00035633,0.00150924,0.01169264,-0.00023044,0.00076332,0.02026028,
 -0.00037910,-0.00103018,-0.10190366,0.00859299,-0.00480024,0.21826739,
 -0.06776976,-0.05587981,0.00064696,-0.00291125,-0.02791495,-0.00002153
 ,-0.18100506,-0.10211359,-0.00195892,-0.46221503,0.15829814,-0.0057119
 1,1.00176918,0.05608412,-0.20004525,0.00137450,-0.08921337,-0.04746524
 ,-0.00080070,-0.05088637,-0.01344774,-0.00046868,0.06032064,-0.0959900
 3,0.00079258,0.13941290,0.55316867,-0.00002312,-0.00007441,-0.09197462
 ,0.00034535,-0.00000795,0.01170966,-0.00226686,-0.00113078,0.01782342,
 -0.00512777,0.00206000,-0.09326469,0.00965672,-0.00036841,0.19029423,0
 .00014554,-0.00768586,-0.00001828,0.00044446,0.00002796,-0.00003830,-0
 .00820970,-0.00059002,-0.00028428,-0.04256412,-0.02089516,-0.00037451,
 -0.26149790,-0.15558861,-0.00174942,0.31186107,-0.02714831,-0.02811251
 ,-0.00015196,-0.00075457,-0.00637526,0.00004876,0.00400160,0.00257007,
 0.00012032,-0.00302206,0.00541503,-0.00009475,-0.15571100,-0.15704192,
 -0.00140089,0.18405366,0.18324687,0.00009753,0.00009894,0.00511465,-0.
 00003341,0.00005882,0.00339249,-0.00031148,0.00006030,0.01404823,-0.00
 048158,-0.00032530,-0.00393214,-0.00174826,-0.00139852,-0.05442518,0.0
 0247729,0.00149595,0.03531450,-0.00584439,0.00181467,-0.00022268,-0.00
 034394,-0.00409557,-0.00002917,0.00901233,-0.02620300,0.00018731,-0.11
 143747,0.12589360,-0.00142345,-0.02062105,0.03396668,-0.00052125,-0.00
 041836,-0.00048207,-0.00001832,0.12920425,0.00095862,0.00054377,0.0000
 7132,-0.00379194,-0.00128667,-0.00001875,0.00060664,-0.07014342,0.0004
 6265,0.11515951,-0.26783336,0.00271234,0.01768654,-0.01166126,0.000321
 77,0.00107159,-0.00037051,0.00002332,-0.13195881,0.35175599,-0.0002181
 4,0.00008311,0.01057919,-0.00003107,-0.00002231,0.00383374,0.00002834,
 0.00011658,0.00654578,-0.00135770,0.00285001,-0.05834463,-0.00042649,0
 .00053223,0.00414787,-0.00002753,0.00000322,0.00122341,0.00201181,-0.0
 0357467,0.03329289,-0.02053580,-0.03397725,-0.00011615,-0.11110359,-0.
 12567000,0.00006848,0.00897460,0.02631680,-0.00012564,-0.00035554,0.00
 409627,-0.00007870,-0.00583997,-0.00182616,-0.00020153,0.00002465,-0.0
 0126994,0.00001405,0.00042595,0.00020762,0.00001463,0.12882703,-0.0176
 9436,-0.01173908,-0.00013426,-0.11494342,-0.26817219,-0.00023107,-0.00
 048852,-0.07010194,0.00045151,0.00379288,-0.00127389,0.00007933,-0.000
 97006,0.00053902,0.00004755,-0.00005971,-0.00021566,-0.00000234,-0.000
 20575,-0.00079089,-0.00000277,0.13164084,0.35212627,-0.00021283,-0.000
 34527,0.00415317,0.00000418,-0.00037114,-0.05831485,0.00003460,0.00079
 862,0.00654508,-0.00007681,0.00008393,0.00383234,-0.00020719,0.0000367
 2,0.01057946,0.00000684,-0.00001811,-0.00047576,0.00001706,0.00000273,
 -0.00080229,0.00044894,-0.00020360,0.03325919,-0.26199372,0.15540155,-
 0.00365394,-0.04260058,0.02081452,-0.00062731,-0.00820416,0.00057030,-
 0.00029278,0.00044335,-0.00001768,-0.00003856,0.00009093,0.00773031,-0
 .00011212,0.00021431,0.00033276,0.00000418,0.00002256,0.00006018,0.000
 00614,-0.00041745,-0.00107183,-0.00001479,0.31244471,0.15552594,-0.156
 51053,0.00264994,0.00294051,0.00545600,-0.00001851,-0.00402130,0.00256
 397,0.00001826,0.00076494,-0.00637382,0.00006837,0.02719169,-0.0280566
 0,0.00055313,-0.00033376,0.00088391,-0.00001117,0.00127031,-0.00021366
 ,0.00001458,0.00048178,-0.00037167,0.00001611,-0.18382018,0.18262242,-
 0.00365521,0.00264800,-0.05447189,-0.00052073,0.00021584,-0.00393570,-
 0.00026334,0.00007573,0.01404854,-0.00004323,0.00005845,0.00339264,-0.
 00022941,0.00030027,0.00511004,0.00000817,-0.00000255,-0.00026030,-0.0
 0000134,-0.00000070,-0.00047611,-0.00002408,-0.00000434,0.00122351,0.0
 0472918,-0.00329071,0.03536919\\0.00001984,0.00001088,-0.00000745,-0.0
 0000978,0.00000080,-0.00000746,-0.00002781,-0.00001824,0.00001038,-0.0
 0002758,0.00000213,-0.00001458,0.00001952,-0.00000238,-0.00000281,0.00
 000280,0.00000082,0.00000158,0.00002703,-0.00005003,0.00000934,-0.0000
 0123,0.00004782,0.00000022,-0.00000280,0.00000820,0.00001078\\\@


 You don't have to suffer to be a poet.
 Adolescence is enough suffering for anyone.
                             -- John Ciardi
 Job cpu time:       0 days  0 hours  0 minutes  0.3 seconds.
 File lengths (MBytes):  RWF=      5 Int=      0 D2E=      0 Chk=      2 Scr=      1
 Normal termination of Gaussian 09 at Mon Dec  7 13:25:22 2015.
