 Entering Gaussian System, Link 0=g09
 Input=FuranAM1Best4.com
 Output=FuranAM1Best4.log
 Initial command:
 /home/Applications/g09/g09/l1.exe "/home/Applications/g09/scratch/Gau-7348.inp" -scrdir="/home/Applications/g09/scratch/"
 Entering Link 1 = /home/Applications/g09/g09/l1.exe PID=      7350.
  
 Copyright (c) 1988,1990,1992,1993,1995,1998,2003,2009,2013,
            Gaussian, Inc.  All Rights Reserved.
  
 This is part of the Gaussian(R) 09 program.  It is based on
 the Gaussian(R) 03 system (copyright 2003, Gaussian, Inc.),
 the Gaussian(R) 98 system (copyright 1998, Gaussian, Inc.),
 the Gaussian(R) 94 system (copyright 1995, Gaussian, Inc.),
 the Gaussian 92(TM) system (copyright 1992, Gaussian, Inc.),
 the Gaussian 90(TM) system (copyright 1990, Gaussian, Inc.),
 the Gaussian 88(TM) system (copyright 1988, Gaussian, Inc.),
 the Gaussian 86(TM) system (copyright 1986, Carnegie Mellon
 University), and the Gaussian 82(TM) system (copyright 1983,
 Carnegie Mellon University). Gaussian is a federally registered
 trademark of Gaussian, Inc.
  
 This software contains proprietary and confidential information,
 including trade secrets, belonging to Gaussian, Inc.
  
 This software is provided under written license and may be
 used, copied, transmitted, or stored only in accord with that
 written license.
  
 The following legend is applicable only to US Government
 contracts under FAR:
  
                    RESTRICTED RIGHTS LEGEND
  
 Use, reproduction and disclosure by the US Government is
 subject to restrictions as set forth in subparagraphs (a)
 and (c) of the Commercial Computer Software - Restricted
 Rights clause in FAR 52.227-19.
  
 Gaussian, Inc.
 340 Quinnipiac St., Bldg. 40, Wallingford CT 06492
  
  
 ---------------------------------------------------------------
 Warning -- This program may not be used in any manner that
 competes with the business of Gaussian, Inc. or will provide
 assistance to any competitor of Gaussian, Inc.  The licensee
 of this program is prohibited from giving any competitor of
 Gaussian, Inc. access to this program.  By using this program,
 the user acknowledges that Gaussian, Inc. is engaged in the
 business of creating and licensing software in the field of
 computational chemistry and represents and warrants to the
 licensee that it is not a competitor of Gaussian, Inc. and that
 it will not use this program in any manner prohibited above.
 ---------------------------------------------------------------
  

 Cite this work as:
 Gaussian 09, Revision D.01,
 M. J. Frisch, G. W. Trucks, H. B. Schlegel, G. E. Scuseria, 
 M. A. Robb, J. R. Cheeseman, G. Scalmani, V. Barone, B. Mennucci, 
 G. A. Petersson, H. Nakatsuji, M. Caricato, X. Li, H. P. Hratchian, 
 A. F. Izmaylov, J. Bloino, G. Zheng, J. L. Sonnenberg, M. Hada, 
 M. Ehara, K. Toyota, R. Fukuda, J. Hasegawa, M. Ishida, T. Nakajima, 
 Y. Honda, O. Kitao, H. Nakai, T. Vreven, J. A. Montgomery, Jr., 
 J. E. Peralta, F. Ogliaro, M. Bearpark, J. J. Heyd, E. Brothers, 
 K. N. Kudin, V. N. Staroverov, T. Keith, R. Kobayashi, J. Normand, 
 K. Raghavachari, A. Rendell, J. C. Burant, S. S. Iyengar, J. Tomasi, 
 M. Cossi, N. Rega, J. M. Millam, M. Klene, J. E. Knox, J. B. Cross, 
 V. Bakken, C. Adamo, J. Jaramillo, R. Gomperts, R. E. Stratmann, 
 O. Yazyev, A. J. Austin, R. Cammi, C. Pomelli, J. W. Ochterski, 
 R. L. Martin, K. Morokuma, V. G. Zakrzewski, G. A. Voth, 
 P. Salvador, J. J. Dannenberg, S. Dapprich, A. D. Daniels, 
 O. Farkas, J. B. Foresman, J. V. Ortiz, J. Cioslowski, 
 and D. J. Fox, Gaussian, Inc., Wallingford CT, 2013.
 
 ******************************************
 Gaussian 09:  ES64L-G09RevD.01 24-Apr-2013
                 7-Dec-2015 
 ******************************************
 ----------------------------
 #P AM1(Input,print) Opt Freq
 ----------------------------
 1/14=-1,18=20,19=15,26=1,38=1/1,3;
 2/9=110,12=2,17=6,18=5,40=1/2;
 3/5=2,16=1,25=1,41=700000,71=1,135=100,136=1/1,2,3;
 4/35=1/1;
 5/5=2,35=1,38=5/2;
 6/7=2,8=2,9=2,10=2,28=1/1;
 7//1,2,3,16;
 1/14=-1,18=20,19=15,26=1/3(2);
 2/9=110/2;
 99//99;
 2/9=110/2;
 3/5=2,16=1,25=1,41=700000,71=1,135=20,136=1/1,2,3;
 4/5=5,16=3,35=1/1;
 5/5=2,35=1,38=5/2;
 7//1,2,3,16;
 1/14=-1,18=20,19=15,26=1/3(-5);
 2/9=110/2;
 6/7=2,8=2,9=2,10=2,19=2,28=1/1;
 99/9=1/99;
 Leave Link    1 at Mon Dec  7 13:25:18 2015, MaxMem=           0 cpu:         0.0
 (Enter /home/Applications/g09/g09/l101.exe)
 -----------------
 AM1-Reparam Input
 -----------------
 Symbolic Z-matrix:
 Charge =  0 Multiplicity = 1
 6                     0.95974  -0.76308   0.01591 
 6                    -0.33675  -1.12744  -0.02191 
 8                    -1.20246  -0.04335  -0.03595 
 6                    -0.30217   1.08004  -0.00012 
 6                     0.91271   0.72126   0.00439 
 1                     1.76337   1.37551   0.02131 
 1                    -0.85794   2.01442   0.04046 
 1                    -0.87254  -2.051     0.01715 
 1                     1.77414  -1.41779   0.02901 
 
 NAtoms=      9 NQM=        9 NQMF=       0 NMMI=      0 NMMIF=      0
                NMic=       0 NMicF=      0.
                    Isotopes and Nuclear Properties:
 (Nuclear quadrupole moments (NQMom) in fm**2, nuclear magnetic moments (NMagM)
  in nuclear magnetons)

  Atom         1           2           3           4           5           6           7           8           9
 IAtWgt=          12          12          16          12          12           1           1           1           1
 AtmWgt=  12.0000000  12.0000000  15.9949146  12.0000000  12.0000000   1.0078250   1.0078250   1.0078250   1.0078250
 NucSpn=           0           0           0           0           0           1           1           1           1
 AtZEff=   0.0000000   0.0000000   0.0000000   0.0000000   0.0000000   0.0000000   0.0000000   0.0000000   0.0000000
 NQMom=    0.0000000   0.0000000   0.0000000   0.0000000   0.0000000   0.0000000   0.0000000   0.0000000   0.0000000
 NMagM=    0.0000000   0.0000000   0.0000000   0.0000000   0.0000000   2.7928460   2.7928460   2.7928460   2.7928460
 AtZNuc=   6.0000000   6.0000000   8.0000000   6.0000000   6.0000000   1.0000000   1.0000000   1.0000000   1.0000000
 Leave Link  101 at Mon Dec  7 13:25:18 2015, MaxMem=    33554432 cpu:         0.0
 (Enter /home/Applications/g09/g09/l103.exe)

 GradGradGradGradGradGradGradGradGradGradGradGradGradGradGradGradGradGrad
 Berny optimization.
 Initialization pass.
                           ----------------------------
                           !    Initial Parameters    !
                           ! (Angstroms and Degrees)  !
 --------------------------                            --------------------------
 ! Name  Definition              Value          Derivative Info.                !
 --------------------------------------------------------------------------------
 ! R1    R(1,2)                  1.3472         estimate D2E/DX2                !
 ! R2    R(1,5)                  1.4851         estimate D2E/DX2                !
 ! R3    R(1,9)                  1.045          estimate D2E/DX2                !
 ! R4    R(2,3)                  1.3874         estimate D2E/DX2                !
 ! R5    R(2,8)                  1.0684         estimate D2E/DX2                !
 ! R6    R(3,4)                  1.4401         estimate D2E/DX2                !
 ! R7    R(4,5)                  1.2668         estimate D2E/DX2                !
 ! R8    R(4,7)                  1.0879         estimate D2E/DX2                !
 ! R9    R(5,6)                  1.0733         estimate D2E/DX2                !
 ! A1    A(2,1,5)              103.864          estimate D2E/DX2                !
 ! A2    A(2,1,9)              125.512          estimate D2E/DX2                !
 ! A3    A(5,1,9)              130.6127         estimate D2E/DX2                !
 ! A4    A(1,2,3)              112.9193         estimate D2E/DX2                !
 ! A5    A(1,2,8)              135.6699         estimate D2E/DX2                !
 ! A6    A(3,2,8)              111.2776         estimate D2E/DX2                !
 ! A7    A(2,3,4)              102.6619         estimate D2E/DX2                !
 ! A8    A(3,4,5)              112.2538         estimate D2E/DX2                !
 ! A9    A(3,4,7)              110.5818         estimate D2E/DX2                !
 ! A10   A(5,4,7)              137.1431         estimate D2E/DX2                !
 ! A11   A(1,5,4)              108.2687         estimate D2E/DX2                !
 ! A12   A(1,5,6)              125.7353         estimate D2E/DX2                !
 ! A13   A(4,5,6)              125.9805         estimate D2E/DX2                !
 ! D1    D(5,1,2,3)             -0.9048         estimate D2E/DX2                !
 ! D2    D(5,1,2,8)           -176.2045         estimate D2E/DX2                !
 ! D3    D(9,1,2,3)           -179.7853         estimate D2E/DX2                !
 ! D4    D(9,1,2,8)              4.9151         estimate D2E/DX2                !
 ! D5    D(2,1,5,4)              1.698          estimate D2E/DX2                !
 ! D6    D(2,1,5,6)           -179.6665         estimate D2E/DX2                !
 ! D7    D(9,1,5,4)           -179.5024         estimate D2E/DX2                !
 ! D8    D(9,1,5,6)             -0.867          estimate D2E/DX2                !
 ! D9    D(1,2,3,4)             -0.0911         estimate D2E/DX2                !
 ! D10   D(8,2,3,4)            176.3858         estimate D2E/DX2                !
 ! D11   D(2,3,4,5)              1.2783         estimate D2E/DX2                !
 ! D12   D(2,3,4,7)           -177.3368         estimate D2E/DX2                !
 ! D13   D(3,4,5,1)             -1.8576         estimate D2E/DX2                !
 ! D14   D(3,4,5,6)            179.5112         estimate D2E/DX2                !
 ! D15   D(7,4,5,1)            176.2361         estimate D2E/DX2                !
 ! D16   D(7,4,5,6)             -2.3951         estimate D2E/DX2                !
 --------------------------------------------------------------------------------
 Trust Radius=3.00D-01 FncErr=1.00D-07 GrdErr=1.00D-07
 Number of steps in this run=     48 maximum allowed number of steps=    100.
 GradGradGradGradGradGradGradGradGradGradGradGradGradGradGradGradGradGrad

 Leave Link  103 at Mon Dec  7 13:25:18 2015, MaxMem=    33554432 cpu:         0.0
 (Enter /home/Applications/g09/g09/l202.exe)
                          Input orientation:                          
 ---------------------------------------------------------------------
 Center     Atomic      Atomic             Coordinates (Angstroms)
 Number     Number       Type             X           Y           Z
 ---------------------------------------------------------------------
      1          6           0        0.959736   -0.763077    0.015905
      2          6           0       -0.336749   -1.127436   -0.021905
      3          8           0       -1.202464   -0.043350   -0.035953
      4          6           0       -0.302169    1.080042   -0.000119
      5          6           0        0.912714    0.721255    0.004391
      6          1           0        1.763365    1.375512    0.021314
      7          1           0       -0.857941    2.014418    0.040456
      8          1           0       -0.872538   -2.050999    0.017153
      9          1           0        1.774141   -1.417787    0.029012
 ---------------------------------------------------------------------
                    Distance matrix (angstroms):
                    1          2          3          4          5
     1  C    0.000000
     2  C    1.347242   0.000000
     3  O    2.279431   1.387408   0.000000
     4  C    2.233775   2.207856   1.440078   0.000000
     5  C    1.485121   2.231481   2.249495   1.266763   0.000000
     6  H    2.284603   3.267582   3.288250   2.086670   1.073287
     7  H    3.319493   3.185401   2.087808   1.087928   2.192895
     8  H    2.239637   1.068440   2.035270   3.182615   3.297375
     9  H    1.045023   2.131373   3.279249   3.248240   2.306114
                    6          7          8          9
     6  H    0.000000
     7  H    2.698113   0.000000
     8  H    4.323075   4.065510   0.000000
     9  H    2.793330   4.325277   2.721398   0.000000
 Stoichiometry    C4H4O
 Framework group  C1[X(C4H4O)]
 Deg. of freedom    21
 Full point group                 C1      NOp   1
 Largest Abelian subgroup         C1      NOp   1
 Largest concise Abelian subgroup C1      NOp   1
                         Standard orientation:                         
 ---------------------------------------------------------------------
 Center     Atomic      Atomic             Coordinates (Angstroms)
 Number     Number       Type             X           Y           Z
 ---------------------------------------------------------------------
      1          6           0        0.626878    1.045393    0.007123
      2          6           0        1.129551   -0.204483   -0.006626
      3          8           0        0.145569   -1.182579   -0.009818
      4          6           0       -1.068804   -0.408708    0.005890
      5          6           0       -0.843567    0.837777   -0.009394
      6          1           0       -1.586086    1.612767   -0.009887
      7          1           0       -1.937799   -1.061596    0.052490
      8          1           0        2.105409   -0.636407    0.045401
      9          1           0        1.189566    1.925991    0.008585
 ---------------------------------------------------------------------
 Rotational constants (GHZ):      9.3529923      9.1760216      4.6325882
 Leave Link  202 at Mon Dec  7 13:25:18 2015, MaxMem=    33554432 cpu:         0.0
 (Enter /home/Applications/g09/g09/l301.exe)

 Semi-emprical parameters in input format:
 Method=8 CoreType=1 PeptideFC=0.0116450000 RIJScale=0.5158180000
 ****
 H       
 PQN=1 NValence=1 F0ss=0.4432940000 ZetaOverlap=1.3883890000 U=-0.3921460000
 Beta=-0.2438840000 CoreKO=1.0458800000 KON=0,0,0,1.0908040000 KON=1,0,1,1.1059430000
 KON=0,1,1,1.1943580000 KON=2,1,1,1.0589200000 EISol=-0.4188110042 EHeat=0.0830298228
 Alpha=1.4192630000
 GCore=0.0081260000,1.5719360000,2.5406550000
 GCore=0.0003220000,1.5703530000,3.3301220000
 GCore=-0.0012960000,0.6303070000,3.6011390000
 ****
 C       
 PQN=2,2 NValence=4 F0ss=0.4585850000 F0sp=0.5740220000 F0pp=0.4084610000 F2pp=0.1576920000
 G1sp=0.2858760000
 ZetaOverlap=2.1124260000,1.3555900000
 U=-2.1220290000,-1.7029300000
 Beta=-0.7017530000,-0.3605290000 DDN=0,1,0.8928860000 DDN=1,1,0.7756800000
 CoreKO=1.0939600000 KON=0,0,0,1.0664980000 KON=1,0,1,0.7387540000 KON=0,1,1,0.9934050000
 KON=2,1,1,0.7411750000 EISol=-4.4398989268 EHeat=0.2723305520 Alpha=1.2672400000
 DipHyp=1.7856692630
 GCore=0.0008630000,1.6282610000,4.4492260000
 GCore=0.0034220000,1.2941510000,3.1400540000
 GCore=-0.0018340000,1.7522370000,3.6677590000
 GCore=-0.0000740000,1.4019530000,5.8699190000
 ****
 O       
 PQN=2,2 NValence=6 F0ss=0.5123020000 F0sp=0.6055480000 F0pp=0.4547400000 F2pp=0.2778070000
 G1sp=0.4361220000
 ZetaOverlap=3.1237390000,2.2636340000
 U=-3.9536060000,-3.3311940000
 Beta=-1.3664540000,-1.4118250000 DDN=0,1,0.5426100000 DDN=1,1,0.4654470000
 CoreKO=0.9408510000 KON=0,0,0,0.7177930000 KON=1,0,1,0.5588680000 KON=0,1,1,0.9626580000
 KON=2,1,1,0.4474500000 EISol=-11.6164441184 EHeat=0.0949133088 Alpha=2.4335810000
 DipHyp=1.0851575663
 GCore=0.0193040000,1.5791790000,1.5982320000
 GCore=0.0061610000,2.0391960000,3.4774980000
 ****
 
 Standard basis: VSTO-6G (5D, 7F)
 Ernie: Thresh=  0.10000D-02 Tol=  0.10000D-05 Strict=F.
  NNHCO=     0 NNPyr=     0 NCTC=     0               EPep=         0.000000000
    EC=        68.489321894  ECS=         2.546952021   EG=         0.290203060
   EHC=         0.000000000  EAt=       -31.051283842  AtH=         1.516354808
 EPDDG=         0.000000000  ECC=        71.326476976 EAtT=        32.567638650
 There are    24 symmetry adapted cartesian basis functions of A   symmetry.
 There are    24 symmetry adapted basis functions of A   symmetry.
    24 basis functions,   144 primitive gaussians,    24 cartesian basis functions
    13 alpha electrons       13 beta electrons
       nuclear repulsion energy       103.8941156263 Hartrees.
 IExCor=    0 DFT=F Ex=HF Corr=None ExCW=0 ScaHFX=  1.000000
 ScaDFX=  1.000000  1.000000  1.000000  1.000000 ScalE2=  1.000000  1.000000
 IRadAn=      0 IRanWt=     -1 IRanGd=            0 ICorTp=0 IEmpDi=  4
 Integral buffers will be    131072 words long.
 Regular integral format.
 Two-electron integral symmetry is turned off.
 Leave Link  301 at Mon Dec  7 13:25:18 2015, MaxMem=    33554432 cpu:         0.0
 (Enter /home/Applications/g09/g09/l302.exe)
 Do NDO integrals.
 NPDir=0 NMtPBC=     1 NCelOv=     1 NCel=       1 NClECP=     1 NCelD=      1
         NCelK=      1 NCelE2=     1 NClLst=     1 CellRange=     0.0.
 One-electron integrals computed using PRISM.
 NBasis=    24 RedAO= F EigKep=  0.00D+00  NBF=    24
 NBsUse=    24 1.00D-04 EigRej=  0.00D+00 NBFU=    24
 Leave Link  302 at Mon Dec  7 13:25:18 2015, MaxMem=    33554432 cpu:         0.0
 (Enter /home/Applications/g09/g09/l303.exe)
 DipDrv:  MaxL=1.
 Leave Link  303 at Mon Dec  7 13:25:18 2015, MaxMem=    33554432 cpu:         0.0
 (Enter /home/Applications/g09/g09/l401.exe)
 Simple Huckel Guess.
 JPrj=0 DoOrth=F DoCkMO=F.
 Leave Link  401 at Mon Dec  7 13:25:18 2015, MaxMem=    33554432 cpu:         0.0
 (Enter /home/Applications/g09/g09/l502.exe)
 Closed shell SCF:
 Using DIIS extrapolation, IDIIS=  1040.
 Overlap will be assumed to be unity.
 Two-electron integral symmetry not used.
 Keep J ints in memory in canonical form, NReq=888082.
 IVT=       79475 IEndB=       79475 NGot=    33554432 MDV=    33473473
 LenX=    33473473 LenY=    33472456
 Requested convergence on RMS density matrix=1.00D-08 within 128 cycles.
 Requested convergence on MAX density matrix=1.00D-06.
 Requested convergence on             energy=1.00D-06.
 No special actions if energy rises.
 FoFCou: FMM=F IPFlag=           0 FMFlag=           0 FMFlg1=           0
         NFxFlg=           0 DoJE=F BraDBF=F KetDBF=F FulRan=T
         wScrn=  0.000000 ICntrl=     600 IOpCl=  2 I1Cent=           0 NGrid=           0
         NMat0=    1 NMatS0=     54 NMatT0=    0 NMatD0=    1 NMtDS0=    0 NMtDT0=    0
 Symmetry not used in FoFCou.

 Cycle   1  Pass 1  IDiag  1:
 E= -4.88005866533908    
 DIIS: error= 4.79D-02 at cycle   1 NSaved=   1.
 NSaved= 1 IEnMin= 1 EnMin= -4.88005866533908     IErMin= 1 ErrMin= 4.79D-02
 ErrMax= 4.79D-02  0.00D+00 EMaxC= 1.00D-01 BMatC= 1.23D-01 BMatP= 1.23D-01
 IDIUse=3 WtCom= 5.21D-01 WtEn= 4.79D-01
 Coeff-Com:  0.100D+01
 Coeff-En:   0.100D+01
 Coeff:      0.100D+01
 GapD=    2.000 DampG=2.000 DampE=0.500 DampFc=1.0000 IDamp=-1.
 RMSDP=1.60D-02 MaxDP=1.10D-01              OVMax= 0.00D+00

 Cycle   2  Pass 1  IDiag  1:
 E= -5.09771004022355     Delta-E=       -0.217651374884 Rises=F Damp=F
 DIIS: error= 9.29D-03 at cycle   2 NSaved=   2.
 NSaved= 2 IEnMin= 2 EnMin= -5.09771004022355     IErMin= 2 ErrMin= 9.29D-03
 ErrMax= 9.29D-03  0.00D+00 EMaxC= 1.00D-01 BMatC= 6.13D-03 BMatP= 1.23D-01
 IDIUse=3 WtCom= 9.07D-01 WtEn= 9.29D-02
 Coeff-Com: -0.229D+00 0.123D+01
 Coeff-En:   0.000D+00 0.100D+01
 Coeff:     -0.208D+00 0.121D+01
 RMSDP=4.64D-03 MaxDP=2.46D-02 DE=-2.18D-01 OVMax= 0.00D+00

 Cycle   3  Pass 1  IDiag  3:
 E= -5.11130285522276     Delta-E=       -0.013592814999 Rises=F Damp=F
 DIIS: error= 2.98D-03 at cycle   3 NSaved=   3.
 NSaved= 3 IEnMin= 3 EnMin= -5.11130285522276     IErMin= 3 ErrMin= 2.98D-03
 ErrMax= 2.98D-03  0.00D+00 EMaxC= 1.00D-01 BMatC= 2.91D-04 BMatP= 6.13D-03
 IDIUse=3 WtCom= 9.70D-01 WtEn= 2.98D-02
 Coeff-Com:  0.129D-01-0.194D+00 0.118D+01
 Coeff-En:   0.000D+00 0.000D+00 0.100D+01
 Coeff:      0.125D-01-0.188D+00 0.118D+01
 Gap=     0.470 Goal=   None    Shift=    0.000
 RMSDP=1.22D-03 MaxDP=7.67D-03 DE=-1.36D-02 OVMax= 8.06D-03

 Cycle   4  Pass 1  IDiag  3:
 E= -5.11214862658324     Delta-E=       -0.000845771360 Rises=F Damp=F
 DIIS: error= 1.09D-03 at cycle   4 NSaved=   4.
 NSaved= 4 IEnMin= 4 EnMin= -5.11214862658324     IErMin= 4 ErrMin= 1.09D-03
 ErrMax= 1.09D-03  0.00D+00 EMaxC= 1.00D-01 BMatC= 2.51D-05 BMatP= 2.91D-04
 IDIUse=3 WtCom= 9.89D-01 WtEn= 1.09D-02
 Coeff-Com:  0.116D-01-0.573D-01-0.171D+00 0.122D+01
 Coeff-En:   0.000D+00 0.000D+00 0.000D+00 0.100D+01
 Coeff:      0.114D-01-0.567D-01-0.169D+00 0.121D+01
 Gap=     0.470 Goal=   None    Shift=    0.000
 RMSDP=5.59D-04 MaxDP=4.91D-03 DE=-8.46D-04 OVMax= 6.89D-03

 Cycle   5  Pass 1  IDiag  3:
 E= -5.11226154821418     Delta-E=       -0.000112921631 Rises=F Damp=F
 DIIS: error= 2.59D-04 at cycle   5 NSaved=   5.
 NSaved= 5 IEnMin= 5 EnMin= -5.11226154821418     IErMin= 5 ErrMin= 2.59D-04
 ErrMax= 2.59D-04  0.00D+00 EMaxC= 1.00D-01 BMatC= 3.56D-06 BMatP= 2.51D-05
 IDIUse=3 WtCom= 9.97D-01 WtEn= 2.59D-03
 Coeff-Com: -0.737D-02 0.542D-01-0.105D+00-0.366D+00 0.142D+01
 Coeff-En:   0.000D+00 0.000D+00 0.000D+00 0.000D+00 0.100D+01
 Coeff:     -0.735D-02 0.541D-01-0.105D+00-0.365D+00 0.142D+01
 Gap=     0.471 Goal=   None    Shift=    0.000
 RMSDP=2.16D-04 MaxDP=1.65D-03 DE=-1.13D-04 OVMax= 2.39D-03

 Cycle   6  Pass 1  IDiag  3:
 E= -5.11227567866415     Delta-E=       -0.000014130450 Rises=F Damp=F
 DIIS: error= 6.87D-05 at cycle   6 NSaved=   6.
 NSaved= 6 IEnMin= 6 EnMin= -5.11227567866415     IErMin= 6 ErrMin= 6.87D-05
 ErrMax= 6.87D-05  0.00D+00 EMaxC= 1.00D-01 BMatC= 1.85D-07 BMatP= 3.56D-06
 IDIUse=1 WtCom= 1.00D+00 WtEn= 0.00D+00
 Coeff-Com:  0.222D-02-0.188D-01 0.476D-01 0.126D+00-0.705D+00 0.155D+01
 Coeff:      0.222D-02-0.188D-01 0.476D-01 0.126D+00-0.705D+00 0.155D+01
 Gap=     0.471 Goal=   None    Shift=    0.000
 RMSDP=5.39D-05 MaxDP=4.21D-04 DE=-1.41D-05 OVMax= 5.01D-04

 Cycle   7  Pass 1  IDiag  3:
 E= -5.11227647803801     Delta-E=       -0.000000799374 Rises=F Damp=F
 DIIS: error= 9.42D-06 at cycle   7 NSaved=   7.
 NSaved= 7 IEnMin= 7 EnMin= -5.11227647803801     IErMin= 7 ErrMin= 9.42D-06
 ErrMax= 9.42D-06  0.00D+00 EMaxC= 1.00D-01 BMatC= 4.83D-09 BMatP= 1.85D-07
 IDIUse=1 WtCom= 1.00D+00 WtEn= 0.00D+00
 Coeff-Com: -0.440D-03 0.465D-02-0.152D-01-0.274D-01 0.197D+00-0.559D+00
 Coeff-Com:  0.140D+01
 Coeff:     -0.440D-03 0.465D-02-0.152D-01-0.274D-01 0.197D+00-0.559D+00
 Coeff:      0.140D+01
 Gap=     0.471 Goal=   None    Shift=    0.000
 RMSDP=7.91D-06 MaxDP=5.98D-05 DE=-7.99D-07 OVMax= 4.75D-05

 Cycle   8  Pass 1  IDiag  3:
 E= -5.11227649646420     Delta-E=       -0.000000018426 Rises=F Damp=F
 DIIS: error= 2.07D-06 at cycle   8 NSaved=   8.
 NSaved= 8 IEnMin= 8 EnMin= -5.11227649646420     IErMin= 8 ErrMin= 2.07D-06
 ErrMax= 2.07D-06  0.00D+00 EMaxC= 1.00D-01 BMatC= 1.57D-10 BMatP= 4.83D-09
 IDIUse=1 WtCom= 1.00D+00 WtEn= 0.00D+00
 Coeff-Com:  0.107D-03-0.137D-02 0.496D-02 0.836D-02-0.637D-01 0.193D+00
 Coeff-Com: -0.582D+00 0.144D+01
 Coeff:      0.107D-03-0.137D-02 0.496D-02 0.836D-02-0.637D-01 0.193D+00
 Coeff:     -0.582D+00 0.144D+01
 Gap=     0.471 Goal=   None    Shift=    0.000
 RMSDP=1.29D-06 MaxDP=9.25D-06 DE=-1.84D-08 OVMax= 1.10D-05

 Cycle   9  Pass 1  IDiag  3:
 E= -5.11227649707747     Delta-E=       -0.000000000613 Rises=F Damp=F
 DIIS: error= 6.15D-07 at cycle   9 NSaved=   9.
 NSaved= 9 IEnMin= 9 EnMin= -5.11227649707747     IErMin= 9 ErrMin= 6.15D-07
 ErrMax= 6.15D-07  0.00D+00 EMaxC= 1.00D-01 BMatC= 1.22D-11 BMatP= 1.57D-10
 IDIUse=1 WtCom= 1.00D+00 WtEn= 0.00D+00
 Coeff-Com: -0.294D-04 0.486D-03-0.198D-02-0.286D-02 0.241D-01-0.768D-01
 Coeff-Com:  0.248D+00-0.806D+00 0.162D+01
 Coeff:     -0.294D-04 0.486D-03-0.198D-02-0.286D-02 0.241D-01-0.768D-01
 Coeff:      0.248D+00-0.806D+00 0.162D+01
 Gap=     0.471 Goal=   None    Shift=    0.000
 RMSDP=4.75D-07 MaxDP=4.57D-06 DE=-6.13D-10 OVMax= 5.48D-06

 Cycle  10  Pass 1  IDiag  3:
 E= -5.11227649713875     Delta-E=       -0.000000000061 Rises=F Damp=F
 DIIS: error= 1.85D-07 at cycle  10 NSaved=  10.
 NSaved=10 IEnMin=10 EnMin= -5.11227649713875     IErMin=10 ErrMin= 1.85D-07
 ErrMax= 1.85D-07  0.00D+00 EMaxC= 1.00D-01 BMatC= 8.80D-13 BMatP= 1.22D-11
 IDIUse=1 WtCom= 1.00D+00 WtEn= 0.00D+00
 Coeff-Com:  0.840D-05-0.179D-03 0.779D-03 0.107D-02-0.937D-02 0.304D-01
 Coeff-Com: -0.100D+00 0.356D+00-0.924D+00 0.165D+01
 Coeff:      0.840D-05-0.179D-03 0.779D-03 0.107D-02-0.937D-02 0.304D-01
 Coeff:     -0.100D+00 0.356D+00-0.924D+00 0.165D+01
 Gap=     0.471 Goal=   None    Shift=    0.000
 RMSDP=1.42D-07 MaxDP=1.47D-06 DE=-6.13D-11 OVMax= 1.71D-06

 Cycle  11  Pass 1  IDiag  3:
 E= -5.11227649714350     Delta-E=       -0.000000000005 Rises=F Damp=F
 DIIS: error= 3.46D-08 at cycle  11 NSaved=  11.
 NSaved=11 IEnMin=11 EnMin= -5.11227649714350     IErMin=11 ErrMin= 3.46D-08
 ErrMax= 3.46D-08  0.00D+00 EMaxC= 1.00D-01 BMatC= 4.07D-14 BMatP= 8.80D-13
 IDIUse=1 WtCom= 1.00D+00 WtEn= 0.00D+00
 Coeff-Com: -0.707D-06 0.299D-04-0.145D-03-0.183D-03 0.170D-02-0.574D-02
 Coeff-Com:  0.195D-01-0.745D-01 0.229D+00-0.580D+00 0.141D+01
 Coeff:     -0.707D-06 0.299D-04-0.145D-03-0.183D-03 0.170D-02-0.574D-02
 Coeff:      0.195D-01-0.745D-01 0.229D+00-0.580D+00 0.141D+01
 Gap=     0.471 Goal=   None    Shift=    0.000
 RMSDP=2.73D-08 MaxDP=2.57D-07 DE=-4.75D-12 OVMax= 3.28D-07

 Cycle  12  Pass 1  IDiag  3:
 E= -5.11227649714361     Delta-E=        0.000000000000 Rises=F Damp=F
 DIIS: error= 8.22D-09 at cycle  12 NSaved=  12.
 NSaved=12 IEnMin=12 EnMin= -5.11227649714361     IErMin=12 ErrMin= 8.22D-09
 ErrMax= 8.22D-09  0.00D+00 EMaxC= 1.00D-01 BMatC= 2.27D-15 BMatP= 4.07D-14
 IDIUse=1 WtCom= 1.00D+00 WtEn= 0.00D+00
 Coeff-Com: -0.392D-06 0.628D-05-0.254D-04-0.356D-04 0.309D-03-0.975D-03
 Coeff-Com:  0.314D-02-0.104D-01 0.191D-01-0.183D-01-0.218D+00 0.122D+01
 Coeff:     -0.392D-06 0.628D-05-0.254D-04-0.356D-04 0.309D-03-0.975D-03
 Coeff:      0.314D-02-0.104D-01 0.191D-01-0.183D-01-0.218D+00 0.122D+01
 Gap=     0.471 Goal=   None    Shift=    0.000
 RMSDP=6.44D-09 MaxDP=6.28D-08 DE=-1.14D-13 OVMax= 7.39D-08

 Cycle  13  Pass 2  IDiag  1:
 SCF Done:  E(RAM1) =  -5.11227649714     A.U. after   13 cycles
            NFock= 12  Conv=0.64D-08     -V/T= 0.7272
 KE=-1.874222479809D+01 PE=-1.771678254150D+02 EE= 8.690365808968D+01
 Leave Link  502 at Mon Dec  7 13:25:18 2015, MaxMem=    33554432 cpu:         0.0
 (Enter /home/Applications/g09/g09/l601.exe)
 Copying SCF densities to generalized density rwf, IOpCl= 0 IROHF=0.

 **********************************************************************

            Population analysis using the SCF density.

 **********************************************************************

 Orbital symmetries:
       Occupied  (A) (A) (A) (A) (A) (A) (A) (A) (A) (A) (A) (A)
                 (A)
       Virtual   (A) (A) (A) (A) (A) (A) (A) (A) (A) (A) (A)
 The electronic state is 1-A.
 Alpha  occ. eigenvalues --   -1.63490  -1.24667  -1.21008  -1.02881  -1.01414
 Alpha  occ. eigenvalues --   -0.89711  -0.82363  -0.62098  -0.61011  -0.56203
 Alpha  occ. eigenvalues --   -0.51731  -0.49785  -0.38775
 Alpha virt. eigenvalues --    0.08291   0.14253   0.17213   0.20240   0.24053
 Alpha virt. eigenvalues --    0.24899   0.28458   0.30063   0.31905   0.37387
 Alpha virt. eigenvalues --    0.40473
          Condensed to atoms (all electrons):
               1          2          3          4          5          6
     1  C    4.140274   0.000000   0.000000   0.000000   0.000000   0.000000
     2  C    0.000000   3.583961   0.000000   0.000000   0.000000   0.000000
     3  O    0.000000   0.000000   7.041182   0.000000   0.000000   0.000000
     4  C    0.000000   0.000000   0.000000   3.601152   0.000000   0.000000
     5  C    0.000000   0.000000   0.000000   0.000000   4.116034   0.000000
     6  H    0.000000   0.000000   0.000000   0.000000   0.000000   0.871493
     7  H    0.000000   0.000000   0.000000   0.000000   0.000000   0.000000
     8  H    0.000000   0.000000   0.000000   0.000000   0.000000   0.000000
     9  H    0.000000   0.000000   0.000000   0.000000   0.000000   0.000000
               7          8          9
     1  C    0.000000   0.000000   0.000000
     2  C    0.000000   0.000000   0.000000
     3  O    0.000000   0.000000   0.000000
     4  C    0.000000   0.000000   0.000000
     5  C    0.000000   0.000000   0.000000
     6  H    0.000000   0.000000   0.000000
     7  H    0.882101   0.000000   0.000000
     8  H    0.000000   0.879731   0.000000
     9  H    0.000000   0.000000   0.884070
 Mulliken charges:
               1
     1  C   -0.140274
     2  C    0.416039
     3  O   -1.041182
     4  C    0.398848
     5  C   -0.116034
     6  H    0.128507
     7  H    0.117899
     8  H    0.120269
     9  H    0.115930
 Sum of Mulliken charges =   0.00000
 Mulliken charges with hydrogens summed into heavy atoms:
               1
     1  C   -0.024344
     2  C    0.536307
     3  O   -1.041182
     4  C    0.516747
     5  C    0.012472
 Charge=              0.0000 electrons
 Dipole moment (field-independent basis, Debye):
    X=             -0.5690    Y=              3.5348    Z=              0.0782  Tot=              3.5812
 N-N= 1.038941156263D+02 E-N=-1.771678254466D+02  KE=-1.874222479809D+01
 Leave Link  601 at Mon Dec  7 13:25:18 2015, MaxMem=    33554432 cpu:         0.0
 (Enter /home/Applications/g09/g09/l701.exe)
 Compute integral first derivatives.
 ... and contract with generalized density number  0.
 Leave Link  701 at Mon Dec  7 13:25:18 2015, MaxMem=    33554432 cpu:         0.0
 (Enter /home/Applications/g09/g09/l702.exe)
 L702 exits ... SP integral derivatives will be done elsewhere.
 Leave Link  702 at Mon Dec  7 13:25:18 2015, MaxMem=    33554432 cpu:         0.0
 (Enter /home/Applications/g09/g09/l703.exe)
 Compute integral first derivatives, UseDBF=F ICtDFT=           0.
 Integral derivatives from FoFJK, PRISM(SPDF).
 Calling FoFJK, ICntrl=      2127 FMM=F ISym2X=0 I1Cent= 0 IOpClX= 0 NMat=1 NMatS=1 NMatT=0.
 FoFJK:  IHMeth= 8 ICntrl=    2127 DoSepK=F KAlg= 0 I1Cent=   0 FoldK=F
 IRaf=         0 NMat=   1 IRICut=       1 DoRegI=T DoRafI=F ISym2E= 0.
 FoFCou: FMM=F IPFlag=           0 FMFlag=      100000 FMFlg1=         800
         NFxFlg=           0 DoJE=F BraDBF=F KetDBF=F FulRan=T
         wScrn=  0.000000 ICntrl=    2127 IOpCl=  0 I1Cent=           0 NGrid=           0
         NMat0=    1 NMatS0=      1 NMatT0=    0 NMatD0=    1 NMtDS0=    0 NMtDT0=    0
 Symmetry not used in FoFCou.
 Leave Link  703 at Mon Dec  7 13:25:18 2015, MaxMem=    33554432 cpu:         0.0
 (Enter /home/Applications/g09/g09/l716.exe)
 Dipole        =-2.23867067D-01 1.39071331D+00 3.07539704D-02
 ***** Axes restored to original set *****
 -------------------------------------------------------------------
 Center     Atomic                   Forces (Hartrees/Bohr)
 Number     Number              X              Y              Z
 -------------------------------------------------------------------
      1        6          -0.011025703   -0.008326707   -0.005830300
      2        6          -0.048515778    0.027139680    0.005290200
      3        8           0.074057422    0.032642801    0.002651877
      4        6          -0.188078823   -0.016766997   -0.003070919
      5        6           0.130479491   -0.010588621    0.004247887
      6        1           0.016343173    0.005341519    0.000151245
      7        1           0.000277092    0.015737725   -0.001994989
      8        1          -0.003427349   -0.031656676   -0.002393248
      9        1           0.029890476   -0.013522723    0.000948248
 -------------------------------------------------------------------
 Cartesian Forces:  Max     0.188078823 RMS     0.049202449
 Leave Link  716 at Mon Dec  7 13:25:18 2015, MaxMem=    33554432 cpu:         0.0
 (Enter /home/Applications/g09/g09/l103.exe)

 GradGradGradGradGradGradGradGradGradGradGradGradGradGradGradGradGradGrad
 Berny optimization.
 FormGI is forming the generalized inverse of G from B-inverse, IUseBI=4.
 Internal  Forces:  Max     0.135488048 RMS     0.027431983
 Search for a local minimum.
 Step number   1 out of a maximum of   48
 All quantities printed in internal units (Hartrees-Bohrs-Radians)
 RMS Force = .27432D-01 SwitMx=.10000D-02 MixMth= 1
 Mixed Optimization -- RFO/linear search
 Second derivative matrix not updated -- first step.
 ITU=  0
     Eigenvalues ---    0.01616   0.01803   0.02322   0.02593   0.02650
     Eigenvalues ---    0.03381   0.15962   0.15992   0.15994   0.15996
     Eigenvalues ---    0.21998   0.22824   0.32867   0.35053   0.36818
     Eigenvalues ---    0.37428   0.37977   0.40574   0.45210   0.52614
     Eigenvalues ---    0.73201
 RFO step:  Lambda=-4.82996594D-02 EMin= 1.61611662D-02
 Linear search not attempted -- first point.
 Maximum step size (   0.300) exceeded in Quadratic search.
    -- Step size scaled by   0.972
 Iteration  1 RMS(Cart)=  0.04766171 RMS(Int)=  0.00149260
 Iteration  2 RMS(Cart)=  0.00154202 RMS(Int)=  0.00050073
 Iteration  3 RMS(Cart)=  0.00000196 RMS(Int)=  0.00050073
 Iteration  4 RMS(Cart)=  0.00000000 RMS(Int)=  0.00050073
 ITry= 1 IFail=0 DXMaxC= 1.28D-01 DCOld= 1.00D+10 DXMaxT= 3.00D-01 DXLimC= 3.00D+00 Rises=F
 Variable       Old X    -DE/DX   Delta X   Delta X   Delta X     New X
                                 (Linear)    (Quad)   (Total)
    R1        2.54592   0.03102   0.00000   0.04221   0.04237   2.58828
    R2        2.80647   0.02122   0.00000   0.06520   0.06489   2.87136
    R3        1.97481   0.03178   0.00000   0.06800   0.06800   2.04281
    R4        2.62182  -0.00855   0.00000  -0.02969  -0.02929   2.59253
    R5        2.01906   0.02900   0.00000   0.06667   0.06667   2.08572
    R6        2.72135  -0.05593   0.00000  -0.12175  -0.12164   2.59972
    R7        2.39384   0.13549   0.00000   0.16886   0.16854   2.56238
    R8        2.05589   0.01330   0.00000   0.03240   0.03240   2.08829
    R9        2.02822   0.01621   0.00000   0.03782   0.03782   2.06604
    A1        1.81277   0.00058   0.00000   0.00557   0.00532   1.81809
    A2        2.19060   0.00784   0.00000   0.03514   0.03524   2.22584
    A3        2.27962  -0.00840   0.00000  -0.04051  -0.04041   2.23921
    A4        1.97081   0.00157   0.00000  -0.02826  -0.02802   1.94280
    A5        2.36789  -0.01349   0.00000  -0.04452  -0.04496   2.32293
    A6        1.94216   0.01207   0.00000   0.07510   0.07475   2.01691
    A7        1.79179   0.03729   0.00000   0.09205   0.09264   1.88443
    A8        1.95920  -0.01496   0.00000  -0.02482  -0.02511   1.93409
    A9        1.93002   0.01589   0.00000   0.05165   0.05181   1.98182
   A10        2.39360  -0.00093   0.00000  -0.02679  -0.02665   2.36695
   A11        1.88965  -0.02440   0.00000  -0.04348  -0.04431   1.84533
   A12        2.19450   0.00642   0.00000  -0.00500  -0.00478   2.18971
   A13        2.19877   0.01803   0.00000   0.04914   0.04936   2.24813
    D1       -0.01579   0.00112   0.00000   0.02187   0.02252   0.00673
    D2       -3.07535  -0.00233   0.00000  -0.02276  -0.02158  -3.09693
    D3       -3.13785   0.00065   0.00000   0.01286   0.01267  -3.12517
    D4        0.08578  -0.00280   0.00000  -0.03177  -0.03143   0.05436
    D5        0.02964  -0.00267   0.00000  -0.03171  -0.03140  -0.00176
    D6       -3.13577  -0.00022   0.00000  -0.00201  -0.00263  -3.13840
    D7       -3.13291  -0.00190   0.00000  -0.02079  -0.02024   3.13004
    D8       -0.01513   0.00056   0.00000   0.00891   0.00853  -0.00660
    D9       -0.00159  -0.00083   0.00000  -0.00763  -0.00770  -0.00929
   D10        3.07851   0.00062   0.00000   0.02118   0.02308   3.10159
   D11        0.02231  -0.00110   0.00000  -0.01437  -0.01431   0.00800
   D12       -3.09511  -0.00109   0.00000  -0.01506  -0.01541  -3.11052
   D13       -0.03242   0.00234   0.00000   0.02914   0.02865  -0.00377
   D14        3.13306   0.00008   0.00000   0.00029  -0.00042   3.13264
   D15        3.07590   0.00256   0.00000   0.03170   0.03167   3.10757
   D16       -0.04180   0.00030   0.00000   0.00285   0.00261  -0.03920
         Item               Value     Threshold  Converged?
 Maximum Force            0.135488     0.000450     NO 
 RMS     Force            0.027432     0.000300     NO 
 Maximum Displacement     0.127680     0.001800     NO 
 RMS     Displacement     0.047257     0.001200     NO 
 Predicted change in Energy=-2.648844D-02
 Lowest energy point so far.  Saving SCF results.
 GradGradGradGradGradGradGradGradGradGradGradGradGradGradGradGradGradGrad

 Leave Link  103 at Mon Dec  7 13:25:18 2015, MaxMem=    33554432 cpu:         0.0
 (Enter /home/Applications/g09/g09/l202.exe)
                          Input orientation:                          
 ---------------------------------------------------------------------
 Center     Atomic      Atomic             Coordinates (Angstroms)
 Number     Number       Type             X           Y           Z
 ---------------------------------------------------------------------
      1          6           0        0.959405   -0.781486    0.011264
      2          6           0       -0.365456   -1.128296   -0.009691
      3          8           0       -1.171343   -0.018142   -0.024985
      4          6           0       -0.362089    1.094129   -0.001758
      5          6           0        0.946082    0.737897    0.018033
      6          1           0        1.830930    1.379910    0.031068
      7          1           0       -0.921582    2.046858    0.019753
      8          1           0       -0.891469   -2.098314    0.014166
      9          1           0        1.813617   -1.443979    0.012404
 ---------------------------------------------------------------------
                    Distance matrix (angstroms):
                    1          2          3          4          5
     1  C    0.000000
     2  C    1.369661   0.000000
     3  O    2.263646   1.371908   0.000000
     4  C    2.294439   2.222442   1.375710   0.000000
     5  C    1.519457   2.281136   2.248763   1.355952   0.000000
     6  H    2.330575   3.334197   3.312300   2.211805   1.093300
     7  H    3.396722   3.223624   2.080531   1.105074   2.280691
     8  H    2.271514   1.103718   2.099280   3.236076   3.379453
     9  H    1.081007   2.201931   3.308231   3.343036   2.348027
                    6          7          8          9
     6  H    0.000000
     7  H    2.832185   0.000000
     8  H    4.416988   4.145285   0.000000
     9  H    2.824004   4.434785   2.783100   0.000000
 Stoichiometry    C4H4O
 Framework group  C1[X(C4H4O)]
 Deg. of freedom    21
 Full point group                 C1      NOp   1
 RotChk:  IX=0 Diff= 2.40D-01
 Largest Abelian subgroup         C1      NOp   1
 Largest concise Abelian subgroup C1      NOp   1
                         Standard orientation:                         
 ---------------------------------------------------------------------
 Center     Atomic      Atomic             Coordinates (Angstroms)
 Number     Number       Type             X           Y           Z
 ---------------------------------------------------------------------
      1          6           0        0.819373    0.924168   -0.000158
      2          6           0        1.084462   -0.419595   -0.000032
      3          8           0       -0.072911   -1.156186   -0.007215
      4          6           0       -1.133600   -0.280134   -0.000080
      5          6           0       -0.697988    1.003939    0.001389
      6          1           0       -1.284646    1.926507   -0.001120
      7          1           0       -2.118854   -0.779895    0.026408
      8          1           0        2.020384   -1.003552    0.035162
      9          1           0        1.532923    1.736163   -0.009446
 ---------------------------------------------------------------------
 Rotational constants (GHZ):      9.1708118      8.9886382      4.5396310
 Leave Link  202 at Mon Dec  7 13:25:18 2015, MaxMem=    33554432 cpu:         0.0
 (Enter /home/Applications/g09/g09/l301.exe)

 Semi-emprical parameters in input format:
 Method=8 CoreType=1 PeptideFC=0.0116450000 RIJScale=0.5158180000
 ****
 H       
 PQN=1 NValence=1 F0ss=0.4432940000 ZetaOverlap=1.3883890000 U=-0.3921460000
 Beta=-0.2438840000 CoreKO=1.0458800000 KON=0,0,0,1.0908040000 KON=1,0,1,1.1059430000
 KON=0,1,1,1.1943580000 KON=2,1,1,1.0589200000 EISol=-0.4188110042 EHeat=0.0830298228
 Alpha=1.4192630000
 GCore=0.0081260000,1.5719360000,2.5406550000
 GCore=0.0003220000,1.5703530000,3.3301220000
 GCore=-0.0012960000,0.6303070000,3.6011390000
 ****
 C       
 PQN=2,2 NValence=4 F0ss=0.4585850000 F0sp=0.5740220000 F0pp=0.4084610000 F2pp=0.1576920000
 G1sp=0.2858760000
 ZetaOverlap=2.1124260000,1.3555900000
 U=-2.1220290000,-1.7029300000
 Beta=-0.7017530000,-0.3605290000 DDN=0,1,0.8928860000 DDN=1,1,0.7756800000
 CoreKO=1.0939600000 KON=0,0,0,1.0664980000 KON=1,0,1,0.7387540000 KON=0,1,1,0.9934050000
 KON=2,1,1,0.7411750000 EISol=-4.4398989268 EHeat=0.2723305520 Alpha=1.2672400000
 DipHyp=1.7856692630
 GCore=0.0008630000,1.6282610000,4.4492260000
 GCore=0.0034220000,1.2941510000,3.1400540000
 GCore=-0.0018340000,1.7522370000,3.6677590000
 GCore=-0.0000740000,1.4019530000,5.8699190000
 ****
 O       
 PQN=2,2 NValence=6 F0ss=0.5123020000 F0sp=0.6055480000 F0pp=0.4547400000 F2pp=0.2778070000
 G1sp=0.4361220000
 ZetaOverlap=3.1237390000,2.2636340000
 U=-3.9536060000,-3.3311940000
 Beta=-1.3664540000,-1.4118250000 DDN=0,1,0.5426100000 DDN=1,1,0.4654470000
 CoreKO=0.9408510000 KON=0,0,0,0.7177930000 KON=1,0,1,0.5588680000 KON=0,1,1,0.9626580000
 KON=2,1,1,0.4474500000 EISol=-11.6164441184 EHeat=0.0949133088 Alpha=2.4335810000
 DipHyp=1.0851575663
 GCore=0.0193040000,1.5791790000,1.5982320000
 GCore=0.0061610000,2.0391960000,3.4774980000
 ****
 
 Standard basis: VSTO-6G (5D, 7F)
 Ernie: Thresh=  0.10000D-02 Tol=  0.10000D-05 Strict=F.
  NNHCO=     0 NNPyr=     0 NCTC=     0               EPep=         0.000000000
    EC=        68.017248682  ECS=         2.380673061   EG=         0.307598267
   EHC=         0.000000000  EAt=       -31.051283842  AtH=         1.516354808
 EPDDG=         0.000000000  ECC=        70.705520010 EAtT=        32.567638650
 There are    24 symmetry adapted cartesian basis functions of A   symmetry.
 There are    24 symmetry adapted basis functions of A   symmetry.
    24 basis functions,   144 primitive gaussians,    24 cartesian basis functions
    13 alpha electrons       13 beta electrons
       nuclear repulsion energy       103.2731586608 Hartrees.
 IExCor=    0 DFT=F Ex=HF Corr=None ExCW=0 ScaHFX=  1.000000
 ScaDFX=  1.000000  1.000000  1.000000  1.000000 ScalE2=  1.000000  1.000000
 IRadAn=      0 IRanWt=     -1 IRanGd=            0 ICorTp=0 IEmpDi=  4
 Integral buffers will be    131072 words long.
 Regular integral format.
 Two-electron integral symmetry is turned off.
 Leave Link  301 at Mon Dec  7 13:25:18 2015, MaxMem=    33554432 cpu:         0.0
 (Enter /home/Applications/g09/g09/l302.exe)
 Do NDO integrals.
 NPDir=0 NMtPBC=     1 NCelOv=     1 NCel=       1 NClECP=     1 NCelD=      1
         NCelK=      1 NCelE2=     1 NClLst=     1 CellRange=     0.0.
 One-electron integrals computed using PRISM.
 NBasis=    24 RedAO= F EigKep=  0.00D+00  NBF=    24
 NBsUse=    24 1.00D-04 EigRej=  0.00D+00 NBFU=    24
 Leave Link  302 at Mon Dec  7 13:25:18 2015, MaxMem=    33554432 cpu:         0.0
 (Enter /home/Applications/g09/g09/l303.exe)
 DipDrv:  MaxL=1.
 Leave Link  303 at Mon Dec  7 13:25:18 2015, MaxMem=    33554432 cpu:         0.0
 (Enter /home/Applications/g09/g09/l401.exe)
 Initial guess from the checkpoint file:  "/home/Applications/g09/scratch/Gau-7350.chk"
 B after Tr=     0.000000    0.000000    0.000000
         Rot=    0.996278   -0.000224   -0.000090    0.086197 Ang=  -9.89 deg.
 Guess basis will be translated and rotated to current coordinates.
 JPrj=0 DoOrth=T DoCkMO=T.
 Leave Link  401 at Mon Dec  7 13:25:18 2015, MaxMem=    33554432 cpu:         0.0
 (Enter /home/Applications/g09/g09/l502.exe)
 Closed shell SCF:
 Using DIIS extrapolation, IDIIS=  1040.
 Overlap will be assumed to be unity.
 Two-electron integral symmetry not used.
 Keep J ints in memory in canonical form, NReq=888082.
 IVT=       79475 IEndB=       79475 NGot=    33554432 MDV=    33473473
 LenX=    33473473 LenY=    33472456
 Requested convergence on RMS density matrix=1.00D-08 within 128 cycles.
 Requested convergence on MAX density matrix=1.00D-06.
 Requested convergence on             energy=1.00D-06.
 No special actions if energy rises.
 FoFCou: FMM=F IPFlag=           0 FMFlag=           0 FMFlg1=           0
         NFxFlg=           0 DoJE=F BraDBF=F KetDBF=F FulRan=T
         wScrn=  0.000000 ICntrl=     600 IOpCl=  2 I1Cent=           0 NGrid=           0
         NMat0=    1 NMatS0=     54 NMatT0=    0 NMatD0=    1 NMtDS0=    0 NMtDT0=    0
 Symmetry not used in FoFCou.

 Cycle   1  Pass 1  IDiag  1:
 E= -5.12444300132157    
 DIIS: error= 1.36D-02 at cycle   1 NSaved=   1.
 NSaved= 1 IEnMin= 1 EnMin= -5.12444300132157     IErMin= 1 ErrMin= 1.36D-02
 ErrMax= 1.36D-02  0.00D+00 EMaxC= 1.00D-01 BMatC= 5.46D-03 BMatP= 5.46D-03
 IDIUse=3 WtCom= 8.64D-01 WtEn= 1.36D-01
 Coeff-Com:  0.100D+01
 Coeff-En:   0.100D+01
 Coeff:      0.100D+01
 GapD=    2.000 DampG=2.000 DampE=0.500 DampFc=1.0000 IDamp=-1.
 RMSDP=3.56D-03 MaxDP=2.18D-02              OVMax= 0.00D+00

 Cycle   2  Pass 1  IDiag  3:
 E= -5.13477336535259     Delta-E=       -0.010330364031 Rises=F Damp=F
 DIIS: error= 2.90D-03 at cycle   2 NSaved=   2.
 NSaved= 2 IEnMin= 2 EnMin= -5.13477336535259     IErMin= 2 ErrMin= 2.90D-03
 ErrMax= 2.90D-03  0.00D+00 EMaxC= 1.00D-01 BMatC= 3.07D-04 BMatP= 5.46D-03
 IDIUse=3 WtCom= 9.71D-01 WtEn= 2.90D-02
 Coeff-Com: -0.253D+00 0.125D+01
 Coeff-En:   0.000D+00 0.100D+01
 Coeff:     -0.246D+00 0.125D+01
 Gap=     0.456 Goal=   None    Shift=    0.000
 RMSDP=1.23D-03 MaxDP=7.26D-03 DE=-1.03D-02 OVMax= 9.93D-03

 Cycle   3  Pass 1  IDiag  3:
 E= -5.13552089948989     Delta-E=       -0.000747534137 Rises=F Damp=F
 DIIS: error= 4.97D-04 at cycle   3 NSaved=   3.
 NSaved= 3 IEnMin= 3 EnMin= -5.13552089948989     IErMin= 3 ErrMin= 4.97D-04
 ErrMax= 4.97D-04  0.00D+00 EMaxC= 1.00D-01 BMatC= 1.50D-05 BMatP= 3.07D-04
 IDIUse=3 WtCom= 9.95D-01 WtEn= 4.97D-03
 Coeff-Com: -0.397D-01 0.117D+00 0.923D+00
 Coeff-En:   0.000D+00 0.000D+00 0.100D+01
 Coeff:     -0.395D-01 0.117D+00 0.923D+00
 Gap=     0.456 Goal=   None    Shift=    0.000
 RMSDP=2.34D-04 MaxDP=1.13D-03 DE=-7.48D-04 OVMax= 1.35D-03

 Cycle   4  Pass 1  IDiag  3:
 E= -5.13555844446306     Delta-E=       -0.000037544973 Rises=F Damp=F
 DIIS: error= 2.98D-04 at cycle   4 NSaved=   4.
 NSaved= 4 IEnMin= 4 EnMin= -5.13555844446306     IErMin= 4 ErrMin= 2.98D-04
 ErrMax= 2.98D-04  0.00D+00 EMaxC= 1.00D-01 BMatC= 2.09D-06 BMatP= 1.50D-05
 IDIUse=3 WtCom= 9.97D-01 WtEn= 2.98D-03
 Coeff-Com:  0.287D-01-0.126D+00-0.375D+00 0.147D+01
 Coeff-En:   0.000D+00 0.000D+00 0.000D+00 0.100D+01
 Coeff:      0.286D-01-0.126D+00-0.374D+00 0.147D+01
 Gap=     0.456 Goal=   None    Shift=    0.000
 RMSDP=1.88D-04 MaxDP=1.88D-03 DE=-3.75D-05 OVMax= 2.13D-03

 Cycle   5  Pass 1  IDiag  3:
 E= -5.13556876425723     Delta-E=       -0.000010319794 Rises=F Damp=F
 DIIS: error= 7.52D-05 at cycle   5 NSaved=   5.
 NSaved= 5 IEnMin= 5 EnMin= -5.13556876425723     IErMin= 5 ErrMin= 7.52D-05
 ErrMax= 7.52D-05  0.00D+00 EMaxC= 1.00D-01 BMatC= 1.82D-07 BMatP= 2.09D-06
 IDIUse=1 WtCom= 1.00D+00 WtEn= 0.00D+00
 Coeff-Com: -0.146D-01 0.701D-01 0.964D-01-0.738D+00 0.159D+01
 Coeff:     -0.146D-01 0.701D-01 0.964D-01-0.738D+00 0.159D+01
 Gap=     0.456 Goal=   None    Shift=    0.000
 RMSDP=5.81D-05 MaxDP=6.19D-04 DE=-1.03D-05 OVMax= 5.88D-04

 Cycle   6  Pass 1  IDiag  3:
 E= -5.13556962167030     Delta-E=       -0.000000857413 Rises=F Damp=F
 DIIS: error= 1.86D-05 at cycle   6 NSaved=   6.
 NSaved= 6 IEnMin= 6 EnMin= -5.13556962167030     IErMin= 6 ErrMin= 1.86D-05
 ErrMax= 1.86D-05  0.00D+00 EMaxC= 1.00D-01 BMatC= 8.56D-09 BMatP= 1.82D-07
 IDIUse=1 WtCom= 1.00D+00 WtEn= 0.00D+00
 Coeff-Com:  0.206D-02-0.985D-02-0.109D-01 0.126D+00-0.438D+00 0.133D+01
 Coeff:      0.206D-02-0.985D-02-0.109D-01 0.126D+00-0.438D+00 0.133D+01
 Gap=     0.456 Goal=   None    Shift=    0.000
 RMSDP=1.14D-05 MaxDP=1.27D-04 DE=-8.57D-07 OVMax= 9.11D-05

 Cycle   7  Pass 1  IDiag  3:
 E= -5.13556966175474     Delta-E=       -0.000000040084 Rises=F Damp=F
 DIIS: error= 4.82D-06 at cycle   7 NSaved=   7.
 NSaved= 7 IEnMin= 7 EnMin= -5.13556966175474     IErMin= 7 ErrMin= 4.82D-06
 ErrMax= 4.82D-06  0.00D+00 EMaxC= 1.00D-01 BMatC= 8.55D-10 BMatP= 8.56D-09
 IDIUse=1 WtCom= 1.00D+00 WtEn= 0.00D+00
 Coeff-Com:  0.133D-02-0.638D-02-0.101D-01 0.650D-01-0.125D+00-0.970D-01
 Coeff-Com:  0.117D+01
 Coeff:      0.133D-02-0.638D-02-0.101D-01 0.650D-01-0.125D+00-0.970D-01
 Coeff:      0.117D+01
 Gap=     0.456 Goal=   None    Shift=    0.000
 RMSDP=3.23D-06 MaxDP=2.99D-05 DE=-4.01D-08 OVMax= 2.68D-05

 Cycle   8  Pass 1  IDiag  3:
 E= -5.13556966515063     Delta-E=       -0.000000003396 Rises=F Damp=F
 DIIS: error= 1.33D-06 at cycle   8 NSaved=   8.
 NSaved= 8 IEnMin= 8 EnMin= -5.13556966515063     IErMin= 8 ErrMin= 1.33D-06
 ErrMax= 1.33D-06  0.00D+00 EMaxC= 1.00D-01 BMatC= 8.24D-11 BMatP= 8.55D-10
 IDIUse=1 WtCom= 1.00D+00 WtEn= 0.00D+00
 Coeff-Com: -0.515D-03 0.245D-02 0.461D-02-0.268D-01 0.559D-01 0.359D-01
 Coeff-Com: -0.690D+00 0.162D+01
 Coeff:     -0.515D-03 0.245D-02 0.461D-02-0.268D-01 0.559D-01 0.359D-01
 Coeff:     -0.690D+00 0.162D+01
 Gap=     0.456 Goal=   None    Shift=    0.000
 RMSDP=1.21D-06 MaxDP=1.06D-05 DE=-3.40D-09 OVMax= 1.26D-05

 Cycle   9  Pass 1  IDiag  3:
 E= -5.13556966555673     Delta-E=       -0.000000000406 Rises=F Damp=F
 DIIS: error= 5.65D-07 at cycle   9 NSaved=   9.
 NSaved= 9 IEnMin= 9 EnMin= -5.13556966555673     IErMin= 9 ErrMin= 5.65D-07
 ErrMax= 5.65D-07  0.00D+00 EMaxC= 1.00D-01 BMatC= 6.92D-12 BMatP= 8.24D-11
 IDIUse=1 WtCom= 1.00D+00 WtEn= 0.00D+00
 Coeff-Com:  0.330D-03-0.156D-02-0.259D-02 0.168D-01-0.390D-01 0.104D-01
 Coeff-Com:  0.331D+00-0.105D+01 0.174D+01
 Coeff:      0.330D-03-0.156D-02-0.259D-02 0.168D-01-0.390D-01 0.104D-01
 Coeff:      0.331D+00-0.105D+01 0.174D+01
 Gap=     0.456 Goal=   None    Shift=    0.000
 RMSDP=4.33D-07 MaxDP=4.99D-06 DE=-4.06D-10 OVMax= 5.39D-06

 Cycle  10  Pass 1  IDiag  3:
 E= -5.13556966559595     Delta-E=       -0.000000000039 Rises=F Damp=F
 DIIS: error= 1.17D-07 at cycle  10 NSaved=  10.
 NSaved=10 IEnMin=10 EnMin= -5.13556966559595     IErMin=10 ErrMin= 1.17D-07
 ErrMax= 1.17D-07  0.00D+00 EMaxC= 1.00D-01 BMatC= 3.49D-13 BMatP= 6.92D-12
 IDIUse=1 WtCom= 1.00D+00 WtEn= 0.00D+00
 Coeff-Com: -0.114D-03 0.533D-03 0.101D-02-0.589D-02 0.133D-01-0.110D-02
 Coeff-Com: -0.126D+00 0.402D+00-0.824D+00 0.154D+01
 Coeff:     -0.114D-03 0.533D-03 0.101D-02-0.589D-02 0.133D-01-0.110D-02
 Coeff:     -0.126D+00 0.402D+00-0.824D+00 0.154D+01
 Gap=     0.456 Goal=   None    Shift=    0.000
 RMSDP=8.71D-08 MaxDP=9.72D-07 DE=-3.92D-11 OVMax= 9.27D-07

 Cycle  11  Pass 1  IDiag  3:
 E= -5.13556966559750     Delta-E=       -0.000000000002 Rises=F Damp=F
 DIIS: error= 1.56D-08 at cycle  11 NSaved=  11.
 NSaved=11 IEnMin=11 EnMin= -5.13556966559750     IErMin=11 ErrMin= 1.56D-08
 ErrMax= 1.56D-08  0.00D+00 EMaxC= 1.00D-01 BMatC= 7.05D-15 BMatP= 3.49D-13
 IDIUse=1 WtCom= 1.00D+00 WtEn= 0.00D+00
 Coeff-Com:  0.166D-04-0.762D-04-0.164D-03 0.857D-03-0.183D-02-0.388D-03
 Coeff-Com:  0.192D-01-0.578D-01 0.129D+00-0.347D+00 0.126D+01
 Coeff:      0.166D-04-0.762D-04-0.164D-03 0.857D-03-0.183D-02-0.388D-03
 Coeff:      0.192D-01-0.578D-01 0.129D+00-0.347D+00 0.126D+01
 Gap=     0.456 Goal=   None    Shift=    0.000
 RMSDP=1.03D-08 MaxDP=9.97D-08 DE=-1.55D-12 OVMax= 9.39D-08

 Cycle  12  Pass 1  IDiag  3:
 E= -5.13556966559746     Delta-E=        0.000000000000 Rises=F Damp=F
 DIIS: error= 3.58D-09 at cycle  12 NSaved=  12.
 NSaved=12 IEnMin=11 EnMin= -5.13556966559750     IErMin=12 ErrMin= 3.58D-09
 ErrMax= 3.58D-09  0.00D+00 EMaxC= 1.00D-01 BMatC= 4.11D-16 BMatP= 7.05D-15
 IDIUse=1 WtCom= 1.00D+00 WtEn= 0.00D+00
 Coeff-Com: -0.274D-07-0.507D-06 0.741D-05-0.231D-05-0.451D-04 0.245D-03
 Coeff-Com: -0.369D-03-0.688D-03 0.719D-04 0.222D-01-0.318D+00 0.130D+01
 Coeff:     -0.274D-07-0.507D-06 0.741D-05-0.231D-05-0.451D-04 0.245D-03
 Coeff:     -0.369D-03-0.688D-03 0.719D-04 0.222D-01-0.318D+00 0.130D+01
 Gap=     0.456 Goal=   None    Shift=    0.000
 RMSDP=2.16D-09 MaxDP=1.25D-08 DE= 4.26D-14 OVMax= 1.38D-08

 Cycle  13  Pass 2  IDiag  1:
 SCF Done:  E(RAM1) =  -5.13556966560     A.U. after   13 cycles
            NFock= 12  Conv=0.22D-08     -V/T= 0.7243
 KE=-1.862851747718D+01 PE=-1.762577108320D+02 EE= 8.647749998272D+01
 Leave Link  502 at Mon Dec  7 13:25:19 2015, MaxMem=    33554432 cpu:         0.0
 (Enter /home/Applications/g09/g09/l701.exe)
 Compute integral first derivatives.
 ... and contract with generalized density number  0.
 Leave Link  701 at Mon Dec  7 13:25:19 2015, MaxMem=    33554432 cpu:         0.0
 (Enter /home/Applications/g09/g09/l702.exe)
 L702 exits ... SP integral derivatives will be done elsewhere.
 Leave Link  702 at Mon Dec  7 13:25:19 2015, MaxMem=    33554432 cpu:         0.0
 (Enter /home/Applications/g09/g09/l703.exe)
 Compute integral first derivatives, UseDBF=F ICtDFT=           0.
 Integral derivatives from FoFJK, PRISM(SPDF).
 Calling FoFJK, ICntrl=      2127 FMM=F ISym2X=0 I1Cent= 0 IOpClX= 0 NMat=1 NMatS=1 NMatT=0.
 FoFJK:  IHMeth= 8 ICntrl=    2127 DoSepK=F KAlg= 0 I1Cent=   0 FoldK=F
 IRaf=         0 NMat=   1 IRICut=       1 DoRegI=T DoRafI=F ISym2E= 0.
 FoFCou: FMM=F IPFlag=           0 FMFlag=      100000 FMFlg1=         800
         NFxFlg=           0 DoJE=F BraDBF=F KetDBF=F FulRan=T
         wScrn=  0.000000 ICntrl=    2127 IOpCl=  0 I1Cent=           0 NGrid=           0
         NMat0=    1 NMatS0=      1 NMatT0=    0 NMatD0=    1 NMtDS0=    0 NMtDT0=    0
 Symmetry not used in FoFCou.
 Leave Link  703 at Mon Dec  7 13:25:19 2015, MaxMem=    33554432 cpu:         0.0
 (Enter /home/Applications/g09/g09/l716.exe)
 Dipole        = 6.96917072D-02 1.11686001D+00 1.92420250D-02
 ***** Axes restored to original set *****
 -------------------------------------------------------------------
 Center     Atomic                   Forces (Hartrees/Bohr)
 Number     Number              X              Y              Z
 -------------------------------------------------------------------
      1        6          -0.010437700    0.003952016   -0.001377268
      2        6          -0.003611295    0.004426571    0.002258650
      3        8           0.008122899   -0.002761585    0.001190519
      4        6          -0.021057017   -0.005463439    0.001355949
      5        6           0.021375589   -0.000542306   -0.000890114
      6        1          -0.009228657   -0.007339836    0.000230408
      7        1           0.009901813    0.001351753   -0.001449309
      8        1           0.005504051    0.000787449   -0.002079592
      9        1          -0.000569683    0.005589377    0.000760758
 -------------------------------------------------------------------
 Cartesian Forces:  Max     0.021375589 RMS     0.007405612
 Leave Link  716 at Mon Dec  7 13:25:19 2015, MaxMem=    33554432 cpu:         0.0
 (Enter /home/Applications/g09/g09/l103.exe)

 GradGradGradGradGradGradGradGradGradGradGradGradGradGradGradGradGradGrad
 Berny optimization.
 Using GEDIIS/GDIIS optimizer.
 FormGI is forming the generalized inverse of G from B-inverse, IUseBI=4.
 Internal  Forces:  Max     0.011821393 RMS     0.004383906
 Search for a local minimum.
 Step number   2 out of a maximum of   48
 All quantities printed in internal units (Hartrees-Bohrs-Radians)
 RMS Force = .43839D-02 SwitMx=.10000D-02 MixMth= 1
 Mixed Optimization -- RFO/linear search
 Update second derivatives using D2CorX and points    1    2
 DE= -2.33D-02 DEPred=-2.65D-02 R= 8.79D-01
 TightC=F SS=  1.41D+00  RLast= 3.10D-01 DXNew= 5.0454D-01 9.3145D-01
 Trust test= 8.79D-01 RLast= 3.10D-01 DXMaxT set to 5.05D-01
 ITU=  1  0
 Use linear search instead of GDIIS.
     Eigenvalues ---    0.01662   0.01790   0.02344   0.02577   0.02653
     Eigenvalues ---    0.03347   0.15062   0.15995   0.15999   0.16119
     Eigenvalues ---    0.21857   0.23087   0.33985   0.35228   0.36495
     Eigenvalues ---    0.37566   0.39477   0.43223   0.44729   0.52708
     Eigenvalues ---    0.75628
 RFO step:  Lambda=-3.20652309D-03 EMin= 1.66172551D-02
 Quartic linear search produced a step of  0.02995.
 Iteration  1 RMS(Cart)=  0.02764176 RMS(Int)=  0.00102024
 Iteration  2 RMS(Cart)=  0.00089086 RMS(Int)=  0.00028130
 Iteration  3 RMS(Cart)=  0.00000068 RMS(Int)=  0.00028130
 ITry= 1 IFail=0 DXMaxC= 8.63D-02 DCOld= 1.00D+10 DXMaxT= 5.05D-01 DXLimC= 3.00D+00 Rises=F
 Variable       Old X    -DE/DX   Delta X   Delta X   Delta X     New X
                                 (Linear)    (Quad)   (Total)
    R1        2.58828  -0.00600   0.00127  -0.01136  -0.01004   2.57825
    R2        2.87136  -0.01182   0.00194  -0.03382  -0.03186   2.83949
    R3        2.04281  -0.00387   0.00204  -0.00788  -0.00584   2.03697
    R4        2.59253  -0.00460  -0.00088  -0.01158  -0.01244   2.58009
    R5        2.08572  -0.00336   0.00200  -0.00732  -0.00533   2.08040
    R6        2.59972  -0.00278  -0.00364  -0.00911  -0.01280   2.58692
    R7        2.56238   0.00548   0.00505   0.01294   0.01794   2.58032
    R8        2.08829  -0.00388   0.00097  -0.01038  -0.00941   2.07887
    R9        2.06604  -0.01178   0.00113  -0.03159  -0.03045   2.03558
    A1        1.81809   0.00466   0.00016   0.01744   0.01766   1.83576
    A2        2.22584   0.00184   0.00106   0.01855   0.01954   2.24538
    A3        2.23921  -0.00650  -0.00121  -0.03608  -0.03734   2.20187
    A4        1.94280   0.00005  -0.00084  -0.00570  -0.00660   1.93619
    A5        2.32293  -0.00460  -0.00135  -0.02726  -0.02878   2.29415
    A6        2.01691   0.00458   0.00224   0.03385   0.03592   2.05283
    A7        1.88443  -0.00123   0.00277  -0.00216   0.00058   1.88501
    A8        1.93409  -0.00041  -0.00075   0.00287   0.00199   1.93607
    A9        1.98182   0.00979   0.00155   0.06023   0.06177   2.04359
   A10        2.36695  -0.00937  -0.00080  -0.06263  -0.06345   2.30350
   A11        1.84533  -0.00306  -0.00133  -0.01226  -0.01363   1.83170
   A12        2.18971   0.00099  -0.00014   0.00195   0.00180   2.19152
   A13        2.24813   0.00207   0.00148   0.01027   0.01174   2.25987
    D1        0.00673  -0.00027   0.00067  -0.01445  -0.01359  -0.00686
    D2       -3.09693  -0.00130  -0.00065  -0.04649  -0.04680   3.13946
    D3       -3.12517  -0.00006   0.00038  -0.00403  -0.00348  -3.12865
    D4        0.05436  -0.00109  -0.00094  -0.03607  -0.03669   0.01767
    D5       -0.00176   0.00011  -0.00094   0.00487   0.00394   0.00217
    D6       -3.13840   0.00021  -0.00008   0.01291   0.01250  -3.12590
    D7        3.13004  -0.00004  -0.00061  -0.00525  -0.00543   3.12461
    D8       -0.00660   0.00007   0.00026   0.00280   0.00314  -0.00347
    D9       -0.00929   0.00037  -0.00023   0.01894   0.01835   0.00905
   D10        3.10159   0.00100   0.00069   0.04359   0.04505  -3.13654
   D11        0.00800  -0.00029  -0.00043  -0.01535  -0.01553  -0.00753
   D12       -3.11052  -0.00064  -0.00046  -0.03099  -0.03249   3.14018
   D13       -0.00377   0.00010   0.00086   0.00632   0.00701   0.00324
   D14        3.13264  -0.00001  -0.00001  -0.00213  -0.00206   3.13058
   D15        3.10757   0.00099   0.00095   0.02954   0.02994   3.13751
   D16       -0.03920   0.00087   0.00008   0.02110   0.02087  -0.01833
         Item               Value     Threshold  Converged?
 Maximum Force            0.011821     0.000450     NO 
 RMS     Force            0.004384     0.000300     NO 
 Maximum Displacement     0.086272     0.001800     NO 
 RMS     Displacement     0.027653     0.001200     NO 
 Predicted change in Energy=-1.636383D-03
 Lowest energy point so far.  Saving SCF results.
 GradGradGradGradGradGradGradGradGradGradGradGradGradGradGradGradGradGrad

 Leave Link  103 at Mon Dec  7 13:25:19 2015, MaxMem=    33554432 cpu:         0.0
 (Enter /home/Applications/g09/g09/l202.exe)
                          Input orientation:                          
 ---------------------------------------------------------------------
 Center     Atomic      Atomic             Coordinates (Angstroms)
 Number     Number       Type             X           Y           Z
 ---------------------------------------------------------------------
      1          6           0        0.940589   -0.771860    0.018928
      2          6           0       -0.376333   -1.127906   -0.001005
      3          8           0       -1.180123   -0.024263   -0.002332
      4          6           0       -0.376844    1.084193    0.005354
      5          6           0        0.941965    0.730732    0.021325
      6          1           0        1.818784    1.356444    0.021461
      7          1           0       -0.875929    2.064558    0.003992
      8          1           0       -0.864316   -2.114688   -0.011507
      9          1           0        1.810303   -1.408632    0.014038
 ---------------------------------------------------------------------
                    Distance matrix (angstroms):
                    1          2          3          4          5
     1  C    0.000000
     2  C    1.364349   0.000000
     3  O    2.248727   1.365324   0.000000
     4  C    2.276125   2.212108   1.368938   0.000000
     5  C    1.502595   2.278803   2.252518   1.365447   0.000000
     6  H    2.302371   3.315273   3.301569   2.212501   1.077185
     7  H    3.368268   3.231323   2.110864   1.100093   2.254802
     8  H    2.249844   1.100899   2.114166   3.235854   3.370482
     9  H    1.077917   2.204633   3.295359   3.316302   2.308884
                    6          7          8          9
     6  H    0.000000
     7  H    2.786254   0.000000
     8  H    4.387354   4.179291   0.000000
     9  H    2.765099   4.390785   2.766361   0.000000
 Stoichiometry    C4H4O
 Framework group  C1[X(C4H4O)]
 Deg. of freedom    21
 Full point group                 C1      NOp   1
 RotChk:  IX=2 Diff= 9.74D-02
 Largest Abelian subgroup         C1      NOp   1
 Largest concise Abelian subgroup C1      NOp   1
                         Standard orientation:                         
 ---------------------------------------------------------------------
 Center     Atomic      Atomic             Coordinates (Angstroms)
 Number     Number       Type             X           Y           Z
 ---------------------------------------------------------------------
      1          6           0        0.742246    0.967796    0.003703
      2          6           0        1.108171   -0.346554   -0.002026
      3          8           0        0.010568   -1.158567    0.001594
      4          6           0       -1.103872   -0.363581   -0.001896
      5          6           0       -0.760316    0.957934    0.001851
      6          1           0       -1.392554    1.829996   -0.008566
      7          1           0       -2.080475   -0.869989   -0.001019
      8          1           0        2.098595   -0.827208   -0.004854
      9          1           0        1.372518    1.842165   -0.008110
 ---------------------------------------------------------------------
 Rotational constants (GHZ):      9.1994546      9.0948541      4.5734676
 Leave Link  202 at Mon Dec  7 13:25:19 2015, MaxMem=    33554432 cpu:         0.0
 (Enter /home/Applications/g09/g09/l301.exe)

 Semi-emprical parameters in input format:
 Method=8 CoreType=1 PeptideFC=0.0116450000 RIJScale=0.5158180000
 ****
 H       
 PQN=1 NValence=1 F0ss=0.4432940000 ZetaOverlap=1.3883890000 U=-0.3921460000
 Beta=-0.2438840000 CoreKO=1.0458800000 KON=0,0,0,1.0908040000 KON=1,0,1,1.1059430000
 KON=0,1,1,1.1943580000 KON=2,1,1,1.0589200000 EISol=-0.4188110042 EHeat=0.0830298228
 Alpha=1.4192630000
 GCore=0.0081260000,1.5719360000,2.5406550000
 GCore=0.0003220000,1.5703530000,3.3301220000
 GCore=-0.0012960000,0.6303070000,3.6011390000
 ****
 C       
 PQN=2,2 NValence=4 F0ss=0.4585850000 F0sp=0.5740220000 F0pp=0.4084610000 F2pp=0.1576920000
 G1sp=0.2858760000
 ZetaOverlap=2.1124260000,1.3555900000
 U=-2.1220290000,-1.7029300000
 Beta=-0.7017530000,-0.3605290000 DDN=0,1,0.8928860000 DDN=1,1,0.7756800000
 CoreKO=1.0939600000 KON=0,0,0,1.0664980000 KON=1,0,1,0.7387540000 KON=0,1,1,0.9934050000
 KON=2,1,1,0.7411750000 EISol=-4.4398989268 EHeat=0.2723305520 Alpha=1.2672400000
 DipHyp=1.7856692630
 GCore=0.0008630000,1.6282610000,4.4492260000
 GCore=0.0034220000,1.2941510000,3.1400540000
 GCore=-0.0018340000,1.7522370000,3.6677590000
 GCore=-0.0000740000,1.4019530000,5.8699190000
 ****
 O       
 PQN=2,2 NValence=6 F0ss=0.5123020000 F0sp=0.6055480000 F0pp=0.4547400000 F2pp=0.2778070000
 G1sp=0.4361220000
 ZetaOverlap=3.1237390000,2.2636340000
 U=-3.9536060000,-3.3311940000
 Beta=-1.3664540000,-1.4118250000 DDN=0,1,0.5426100000 DDN=1,1,0.4654470000
 CoreKO=0.9408510000 KON=0,0,0,0.7177930000 KON=1,0,1,0.5588680000 KON=0,1,1,0.9626580000
 KON=2,1,1,0.4474500000 EISol=-11.6164441184 EHeat=0.0949133088 Alpha=2.4335810000
 DipHyp=1.0851575663
 GCore=0.0193040000,1.5791790000,1.5982320000
 GCore=0.0061610000,2.0391960000,3.4774980000
 ****
 
 Standard basis: VSTO-6G (5D, 7F)
 Ernie: Thresh=  0.10000D-02 Tol=  0.10000D-05 Strict=F.
  NNHCO=     0 NNPyr=     0 NCTC=     0               EPep=         0.000000000
    EC=        68.190986684  ECS=         2.416867332   EG=         0.308144037
   EHC=         0.000000000  EAt=       -31.051283842  AtH=         1.516354808
 EPDDG=         0.000000000  ECC=        70.915998053 EAtT=        32.567638650
 There are    24 symmetry adapted cartesian basis functions of A   symmetry.
 There are    24 symmetry adapted basis functions of A   symmetry.
    24 basis functions,   144 primitive gaussians,    24 cartesian basis functions
    13 alpha electrons       13 beta electrons
       nuclear repulsion energy       103.4836367034 Hartrees.
 IExCor=    0 DFT=F Ex=HF Corr=None ExCW=0 ScaHFX=  1.000000
 ScaDFX=  1.000000  1.000000  1.000000  1.000000 ScalE2=  1.000000  1.000000
 IRadAn=      0 IRanWt=     -1 IRanGd=            0 ICorTp=0 IEmpDi=  4
 Integral buffers will be    131072 words long.
 Regular integral format.
 Two-electron integral symmetry is turned off.
 Leave Link  301 at Mon Dec  7 13:25:19 2015, MaxMem=    33554432 cpu:         0.0
 (Enter /home/Applications/g09/g09/l302.exe)
 Do NDO integrals.
 NPDir=0 NMtPBC=     1 NCelOv=     1 NCel=       1 NClECP=     1 NCelD=      1
         NCelK=      1 NCelE2=     1 NClLst=     1 CellRange=     0.0.
 One-electron integrals computed using PRISM.
 NBasis=    24 RedAO= F EigKep=  0.00D+00  NBF=    24
 NBsUse=    24 1.00D-04 EigRej=  0.00D+00 NBFU=    24
 Leave Link  302 at Mon Dec  7 13:25:19 2015, MaxMem=    33554432 cpu:         0.0
 (Enter /home/Applications/g09/g09/l303.exe)
 DipDrv:  MaxL=1.
 Leave Link  303 at Mon Dec  7 13:25:19 2015, MaxMem=    33554432 cpu:         0.0
 (Enter /home/Applications/g09/g09/l401.exe)
 Initial guess from the checkpoint file:  "/home/Applications/g09/scratch/Gau-7350.chk"
 B after Tr=     0.000000    0.000000    0.000000
         Rot=    0.999398    0.000037   -0.000001   -0.034700 Ang=   3.98 deg.
 Guess basis will be translated and rotated to current coordinates.
 JPrj=0 DoOrth=T DoCkMO=T.
 Leave Link  401 at Mon Dec  7 13:25:19 2015, MaxMem=    33554432 cpu:         0.0
 (Enter /home/Applications/g09/g09/l502.exe)
 Closed shell SCF:
 Using DIIS extrapolation, IDIIS=  1040.
 Overlap will be assumed to be unity.
 Two-electron integral symmetry not used.
 Keep J ints in memory in canonical form, NReq=888082.
 IVT=       79475 IEndB=       79475 NGot=    33554432 MDV=    33473473
 LenX=    33473473 LenY=    33472456
 Requested convergence on RMS density matrix=1.00D-08 within 128 cycles.
 Requested convergence on MAX density matrix=1.00D-06.
 Requested convergence on             energy=1.00D-06.
 No special actions if energy rises.
 FoFCou: FMM=F IPFlag=           0 FMFlag=           0 FMFlg1=           0
         NFxFlg=           0 DoJE=F BraDBF=F KetDBF=F FulRan=T
         wScrn=  0.000000 ICntrl=     600 IOpCl=  2 I1Cent=           0 NGrid=           0
         NMat0=    1 NMatS0=     54 NMatT0=    0 NMatD0=    1 NMtDS0=    0 NMtDT0=    0
 Symmetry not used in FoFCou.

 Cycle   1  Pass 1  IDiag  1:
 E= -5.13608646801052    
 DIIS: error= 2.91D-03 at cycle   1 NSaved=   1.
 NSaved= 1 IEnMin= 1 EnMin= -5.13608646801052     IErMin= 1 ErrMin= 2.91D-03
 ErrMax= 2.91D-03  0.00D+00 EMaxC= 1.00D-01 BMatC= 3.93D-04 BMatP= 3.93D-04
 IDIUse=3 WtCom= 9.71D-01 WtEn= 2.91D-02
 Coeff-Com:  0.100D+01
 Coeff-En:   0.100D+01
 Coeff:      0.100D+01
 GapD=    2.000 DampG=2.000 DampE=1.000 DampFc=2.0000 IDamp=-1.
 RMSDP=1.15D-03 MaxDP=5.52D-03              OVMax= 0.00D+00

 Cycle   2  Pass 1  IDiag  3:
 E= -5.13703352578970     Delta-E=       -0.000947057779 Rises=F Damp=F
 DIIS: error= 7.92D-04 at cycle   2 NSaved=   2.
 NSaved= 2 IEnMin= 2 EnMin= -5.13703352578970     IErMin= 2 ErrMin= 7.92D-04
 ErrMax= 7.92D-04  0.00D+00 EMaxC= 1.00D-01 BMatC= 3.47D-05 BMatP= 3.93D-04
 IDIUse=3 WtCom= 9.92D-01 WtEn= 7.92D-03
 Coeff-Com: -0.345D+00 0.135D+01
 Coeff-En:   0.000D+00 0.100D+01
 Coeff:     -0.342D+00 0.134D+01
 Gap=     0.453 Goal=   None    Shift=    0.000
 RMSDP=5.60D-04 MaxDP=2.92D-03 DE=-9.47D-04 OVMax= 3.87D-03

 Cycle   3  Pass 1  IDiag  3:
 E= -5.13715667130586     Delta-E=       -0.000123145516 Rises=F Damp=F
 DIIS: error= 1.85D-04 at cycle   3 NSaved=   3.
 NSaved= 3 IEnMin= 3 EnMin= -5.13715667130586     IErMin= 3 ErrMin= 1.85D-04
 ErrMax= 1.85D-04  0.00D+00 EMaxC= 1.00D-01 BMatC= 1.85D-06 BMatP= 3.47D-05
 IDIUse=3 WtCom= 9.98D-01 WtEn= 1.85D-03
 Coeff-Com:  0.112D-01-0.135D+00 0.112D+01
 Coeff-En:   0.000D+00 0.000D+00 0.100D+01
 Coeff:      0.112D-01-0.135D+00 0.112D+01
 Gap=     0.453 Goal=   None    Shift=    0.000
 RMSDP=1.29D-04 MaxDP=6.87D-04 DE=-1.23D-04 OVMax= 1.05D-03

 Cycle   4  Pass 1  IDiag  3:
 E= -5.13716398314396     Delta-E=       -0.000007311838 Rises=F Damp=F
 DIIS: error= 8.60D-05 at cycle   4 NSaved=   4.
 NSaved= 4 IEnMin= 4 EnMin= -5.13716398314396     IErMin= 4 ErrMin= 8.60D-05
 ErrMax= 8.60D-05  0.00D+00 EMaxC= 1.00D-01 BMatC= 2.26D-07 BMatP= 1.85D-06
 IDIUse=1 WtCom= 1.00D+00 WtEn= 0.00D+00
 Coeff-Com:  0.369D-01-0.138D+00-0.200D+00 0.130D+01
 Coeff:      0.369D-01-0.138D+00-0.200D+00 0.130D+01
 Gap=     0.453 Goal=   None    Shift=    0.000
 RMSDP=7.16D-05 MaxDP=4.27D-04 DE=-7.31D-06 OVMax= 7.30D-04

 Cycle   5  Pass 1  IDiag  3:
 E= -5.13716525516391     Delta-E=       -0.000001272020 Rises=F Damp=F
 DIIS: error= 1.63D-05 at cycle   5 NSaved=   5.
 NSaved= 5 IEnMin= 5 EnMin= -5.13716525516391     IErMin= 5 ErrMin= 1.63D-05
 ErrMax= 1.63D-05  0.00D+00 EMaxC= 1.00D-01 BMatC= 1.73D-08 BMatP= 2.26D-07
 IDIUse=1 WtCom= 1.00D+00 WtEn= 0.00D+00
 Coeff-Com: -0.240D-01 0.987D-01-0.237D-01-0.582D+00 0.153D+01
 Coeff:     -0.240D-01 0.987D-01-0.237D-01-0.582D+00 0.153D+01
 Gap=     0.453 Goal=   None    Shift=    0.000
 RMSDP=1.63D-05 MaxDP=1.20D-04 DE=-1.27D-06 OVMax= 1.63D-04

 Cycle   6  Pass 1  IDiag  3:
 E= -5.13716532589132     Delta-E=       -0.000000070727 Rises=F Damp=F
 DIIS: error= 3.98D-06 at cycle   6 NSaved=   6.
 NSaved= 6 IEnMin= 6 EnMin= -5.13716532589132     IErMin= 6 ErrMin= 3.98D-06
 ErrMax= 3.98D-06  0.00D+00 EMaxC= 1.00D-01 BMatC= 6.81D-10 BMatP= 1.73D-08
 IDIUse=1 WtCom= 1.00D+00 WtEn= 0.00D+00
 Coeff-Com:  0.745D-02-0.306D-01 0.365D-02 0.205D+00-0.636D+00 0.145D+01
 Coeff:      0.745D-02-0.306D-01 0.365D-02 0.205D+00-0.636D+00 0.145D+01
 Gap=     0.453 Goal=   None    Shift=    0.000
 RMSDP=2.91D-06 MaxDP=2.28D-05 DE=-7.07D-08 OVMax= 2.51D-05

 Cycle   7  Pass 1  IDiag  3:
 E= -5.13716532864808     Delta-E=       -0.000000002757 Rises=F Damp=F
 DIIS: error= 8.45D-07 at cycle   7 NSaved=   7.
 NSaved= 7 IEnMin= 7 EnMin= -5.13716532864808     IErMin= 7 ErrMin= 8.45D-07
 ErrMax= 8.45D-07  0.00D+00 EMaxC= 1.00D-01 BMatC= 3.42D-11 BMatP= 6.81D-10
 IDIUse=1 WtCom= 1.00D+00 WtEn= 0.00D+00
 Coeff-Com: -0.777D-04 0.331D-03-0.961D-03-0.116D-02 0.278D-01-0.284D+00
 Coeff-Com:  0.126D+01
 Coeff:     -0.777D-04 0.331D-03-0.961D-03-0.116D-02 0.278D-01-0.284D+00
 Coeff:      0.126D+01
 Gap=     0.453 Goal=   None    Shift=    0.000
 RMSDP=7.29D-07 MaxDP=5.65D-06 DE=-2.76D-09 OVMax= 5.41D-06

 Cycle   8  Pass 1  IDiag  3:
 E= -5.13716532881168     Delta-E=       -0.000000000164 Rises=F Damp=F
 DIIS: error= 1.94D-07 at cycle   8 NSaved=   8.
 NSaved= 8 IEnMin= 8 EnMin= -5.13716532881168     IErMin= 8 ErrMin= 1.94D-07
 ErrMax= 1.94D-07  0.00D+00 EMaxC= 1.00D-01 BMatC= 2.38D-12 BMatP= 3.42D-11
 IDIUse=1 WtCom= 1.00D+00 WtEn= 0.00D+00
 Coeff-Com: -0.643D-03 0.265D-02-0.367D-03-0.172D-01 0.498D-01-0.785D-01
 Coeff-Com: -0.189D+00 0.123D+01
 Coeff:     -0.643D-03 0.265D-02-0.367D-03-0.172D-01 0.498D-01-0.785D-01
 Coeff:     -0.189D+00 0.123D+01
 Gap=     0.453 Goal=   None    Shift=    0.000
 RMSDP=2.00D-07 MaxDP=1.36D-06 DE=-1.64D-10 OVMax= 1.61D-06

 Cycle   9  Pass 1  IDiag  3:
 E= -5.13716532882282     Delta-E=       -0.000000000011 Rises=F Damp=F
 DIIS: error= 5.99D-08 at cycle   9 NSaved=   9.
 NSaved= 9 IEnMin= 9 EnMin= -5.13716532882282     IErMin= 9 ErrMin= 5.99D-08
 ErrMax= 5.99D-08  0.00D+00 EMaxC= 1.00D-01 BMatC= 1.47D-13 BMatP= 2.38D-12
 IDIUse=1 WtCom= 1.00D+00 WtEn= 0.00D+00
 Coeff-Com:  0.200D-03-0.821D-03 0.111D-03 0.537D-02-0.158D-01 0.271D-01
 Coeff-Com:  0.669D-01-0.570D+00 0.149D+01
 Coeff:      0.200D-03-0.821D-03 0.111D-03 0.537D-02-0.158D-01 0.271D-01
 Coeff:      0.669D-01-0.570D+00 0.149D+01
 Gap=     0.453 Goal=   None    Shift=    0.000
 RMSDP=5.16D-08 MaxDP=4.63D-07 DE=-1.11D-11 OVMax= 4.91D-07

 Cycle  10  Pass 1  IDiag  3:
 E= -5.13716532882351     Delta-E=       -0.000000000001 Rises=F Damp=F
 DIIS: error= 2.00D-08 at cycle  10 NSaved=  10.
 NSaved=10 IEnMin=10 EnMin= -5.13716532882351     IErMin=10 ErrMin= 2.00D-08
 ErrMax= 2.00D-08  0.00D+00 EMaxC= 1.00D-01 BMatC= 1.65D-14 BMatP= 1.47D-13
 IDIUse=1 WtCom= 1.00D+00 WtEn= 0.00D+00
 Coeff-Com: -0.127D-03 0.522D-03-0.891D-04-0.337D-02 0.104D-01-0.221D-01
 Coeff-Com: -0.834D-02 0.273D+00-0.100D+01 0.176D+01
 Coeff:     -0.127D-03 0.522D-03-0.891D-04-0.337D-02 0.104D-01-0.221D-01
 Coeff:     -0.834D-02 0.273D+00-0.100D+01 0.176D+01
 Gap=     0.453 Goal=   None    Shift=    0.000
 RMSDP=1.99D-08 MaxDP=1.86D-07 DE=-6.96D-13 OVMax= 2.37D-07

 Cycle  11  Pass 1  IDiag  3:
 E= -5.13716532882380     Delta-E=        0.000000000000 Rises=F Damp=F
 DIIS: error= 5.12D-09 at cycle  11 NSaved=  11.
 NSaved=11 IEnMin=11 EnMin= -5.13716532882380     IErMin=11 ErrMin= 5.12D-09
 ErrMax= 5.12D-09  0.00D+00 EMaxC= 1.00D-01 BMatC= 8.74D-16 BMatP= 1.65D-14
 IDIUse=1 WtCom= 1.00D+00 WtEn= 0.00D+00
 Coeff-Com:  0.263D-04-0.108D-03 0.203D-04 0.690D-03-0.214D-02 0.456D-02
 Coeff-Com:  0.263D-02-0.655D-01 0.262D+00-0.659D+00 0.146D+01
 Coeff:      0.263D-04-0.108D-03 0.203D-04 0.690D-03-0.214D-02 0.456D-02
 Coeff:      0.263D-02-0.655D-01 0.262D+00-0.659D+00 0.146D+01
 Gap=     0.453 Goal=   None    Shift=    0.000
 RMSDP=4.92D-09 MaxDP=5.08D-08 DE=-2.84D-13 OVMax= 6.22D-08

 Cycle  12  Pass 2  IDiag  1:
 SCF Done:  E(RAM1) =  -5.13716532882     A.U. after   12 cycles
            NFock= 11  Conv=0.49D-08     -V/T= 0.7247
 KE=-1.865785347434D+01 PE=-1.765830096707D+02 EE= 8.662006111278D+01
 Leave Link  502 at Mon Dec  7 13:25:19 2015, MaxMem=    33554432 cpu:         0.0
 (Enter /home/Applications/g09/g09/l701.exe)
 Compute integral first derivatives.
 ... and contract with generalized density number  0.
 Leave Link  701 at Mon Dec  7 13:25:19 2015, MaxMem=    33554432 cpu:         0.0
 (Enter /home/Applications/g09/g09/l702.exe)
 L702 exits ... SP integral derivatives will be done elsewhere.
 Leave Link  702 at Mon Dec  7 13:25:19 2015, MaxMem=    33554432 cpu:         0.0
 (Enter /home/Applications/g09/g09/l703.exe)
 Compute integral first derivatives, UseDBF=F ICtDFT=           0.
 Integral derivatives from FoFJK, PRISM(SPDF).
 Calling FoFJK, ICntrl=      2127 FMM=F ISym2X=0 I1Cent= 0 IOpClX= 0 NMat=1 NMatS=1 NMatT=0.
 FoFJK:  IHMeth= 8 ICntrl=    2127 DoSepK=F KAlg= 0 I1Cent=   0 FoldK=F
 IRaf=         0 NMat=   1 IRICut=       1 DoRegI=T DoRafI=F ISym2E= 0.
 FoFCou: FMM=F IPFlag=           0 FMFlag=      100000 FMFlg1=         800
         NFxFlg=           0 DoJE=F BraDBF=F KetDBF=F FulRan=T
         wScrn=  0.000000 ICntrl=    2127 IOpCl=  0 I1Cent=           0 NGrid=           0
         NMat0=    1 NMatS0=      1 NMatT0=    0 NMatD0=    1 NMtDS0=    0 NMtDT0=    0
 Symmetry not used in FoFCou.
 Leave Link  703 at Mon Dec  7 13:25:19 2015, MaxMem=    33554432 cpu:         0.0
 (Enter /home/Applications/g09/g09/l716.exe)
 Dipole        =-8.23257122D-03 1.10620951D+00-1.03376441D-02
 ***** Axes restored to original set *****
 -------------------------------------------------------------------
 Center     Atomic                   Forces (Hartrees/Bohr)
 Number     Number              X              Y              Z
 -------------------------------------------------------------------
      1        6           0.004867627   -0.001156003   -0.002008655
      2        6          -0.001143523   -0.005800081    0.001243173
      3        8          -0.006824592    0.003415259   -0.000855326
      4        6          -0.002363259    0.001938817    0.001296540
      5        6           0.002338193   -0.000469408   -0.001033506
      6        1           0.000132068    0.001103247    0.000675051
      7        1           0.001489062   -0.000405402   -0.000219980
      8        1           0.000729650    0.001225150    0.000032552
      9        1           0.000774774    0.000148420    0.000870151
 -------------------------------------------------------------------
 Cartesian Forces:  Max     0.006824592 RMS     0.002355800
 Leave Link  716 at Mon Dec  7 13:25:19 2015, MaxMem=    33554432 cpu:         0.0
 (Enter /home/Applications/g09/g09/l103.exe)

 GradGradGradGradGradGradGradGradGradGradGradGradGradGradGradGradGradGrad
 Berny optimization.
 Using GEDIIS/GDIIS optimizer.
 FormGI is forming the generalized inverse of G from B-inverse, IUseBI=4.
 Internal  Forces:  Max     0.006337249 RMS     0.001632366
 Search for a local minimum.
 Step number   3 out of a maximum of   48
 All quantities printed in internal units (Hartrees-Bohrs-Radians)
 RMS Force = .16324D-02 SwitMx=.10000D-02 MixMth= 1
 Mixed Optimization -- RFO/linear search
 Update second derivatives using D2CorX and points    1    2    3
 DE= -1.60D-03 DEPred=-1.64D-03 R= 9.75D-01
 TightC=F SS=  1.41D+00  RLast= 1.56D-01 DXNew= 8.4853D-01 4.6718D-01
 Trust test= 9.75D-01 RLast= 1.56D-01 DXMaxT set to 5.05D-01
 ITU=  1  1  0
 Use linear search instead of GDIIS.
     Eigenvalues ---    0.01687   0.01866   0.02345   0.02553   0.02663
     Eigenvalues ---    0.03230   0.12828   0.15997   0.16033   0.16200
     Eigenvalues ---    0.22063   0.23542   0.34004   0.35039   0.36950
     Eigenvalues ---    0.37468   0.39452   0.42677   0.49210   0.55848
     Eigenvalues ---    0.74174
 RFO step:  Lambda=-3.29226025D-04 EMin= 1.68673433D-02
 Quartic linear search produced a step of -0.01470.
 Iteration  1 RMS(Cart)=  0.00916918 RMS(Int)=  0.00013175
 Iteration  2 RMS(Cart)=  0.00010887 RMS(Int)=  0.00008745
 Iteration  3 RMS(Cart)=  0.00000001 RMS(Int)=  0.00008745
 ITry= 1 IFail=0 DXMaxC= 2.37D-02 DCOld= 1.00D+10 DXMaxT= 5.05D-01 DXLimC= 3.00D+00 Rises=F
 Variable       Old X    -DE/DX   Delta X   Delta X   Delta X     New X
                                 (Linear)    (Quad)   (Total)
    R1        2.57825   0.00493   0.00015   0.00818   0.00834   2.58659
    R2        2.83949   0.00114   0.00047  -0.00037   0.00014   2.83964
    R3        2.03697   0.00053   0.00009   0.00105   0.00113   2.03810
    R4        2.58009   0.00634   0.00018   0.01194   0.01209   2.59218
[...]
     16  0.164538D+00
     17 -0.872623D-01  0.130975D+00
     18  0.451702D-01 -0.761728D-01  0.116809D+00
     19  0.420921D-01 -0.548020D-01 -0.406358D-01  0.954378D-01
     20  0.499589D-02 -0.488096D-01  0.308467D-01  0.179628D-01  0.110926D+00
     21  0.515589D-02  0.247222D-01 -0.161552D-01 -0.856698D-02 -0.552197D-01
     22 -0.101518D-01  0.240874D-01 -0.146916D-01 -0.939582D-02 -0.557058D-01
     23 -0.177715D-05  0.488392D-05 -0.909768D-05  0.480731D-05 -0.174352D-04
     24  0.888084D-05 -0.103557D-04  0.424636D-05  0.283154D-05 -0.189360D-05
     25 -0.854571D-05  0.156140D-04 -0.111727D-04  0.000000D+00 -0.199454D-04
     26  0.211227D-05  0.000000D+00  0.217133D-05 -0.249101D-05 -0.440381D-05
     27 -0.132360D-04  0.242260D-04 -0.132238D-04 -0.682720D-05 -0.987490D-05
     28 -0.165385D-04  0.231484D-04 -0.758495D-05 -0.116165D-04 -0.427586D-05
     29  0.000000D+00  0.832791D-05 -0.900400D-05  0.164475D-05 -0.972991D-05
     30 -0.389886D-05  0.725038D-05 -0.336512D-05 -0.314455D-05 -0.413086D-05
     31  0.850690D-05 -0.179523D-04  0.151596D-04 -0.240879D-05  0.489971D-05
     32  0.342209D-05 -0.397705D-05  0.330621D-05 -0.125388D-05 -0.107034D-04
     33 -0.931841D-05  0.379408D-05 -0.549215D-05  0.983352D-05  0.897493D-05
     34 -0.141883D-04  0.599908D-05  0.238266D-04 -0.331213D-04  0.139502D-04
     35 -0.146869D-04  0.858241D-05 -0.574152D-05 -0.103854D-04  0.108622D-04
     36 -0.789520D-05  0.928827D-05 -0.115708D-04 -0.502502D-05  0.639927D-05
     37 -0.157615D-04  0.102961D-04  0.844783D-05 -0.127795D-04  0.511494D-05
     38 -0.896984D-05  0.110020D-04  0.261856D-05 -0.741909D-05  0.000000D+00
               21            22            23            24            25 
     21  0.821275D-01
     22 -0.269078D-01  0.826136D-01
     23  0.831956D-05  0.614548D-05  0.223123D-01
     24  0.000000D+00  0.182066D-05  0.338608D-02  0.183472D-01
     25  0.122282D-04  0.599044D-05  0.989625D-02 -0.843429D-02  0.168879D-01
     26  0.319420D-05  0.166562D-05 -0.903002D-02  0.652689D-02 -0.144266D-02
     27  0.451928D-05  0.908696D-05 -0.180434D-01 -0.757024D-02 -0.375334D-02
     28  0.106218D-04 -0.748983D-05 -0.710125D-02 -0.466939D-02  0.260805D-02
     29  0.119208D-05  0.110729D-04 -0.609781D-02  0.380221D-02 -0.104800D-01
     30  0.729455D-05 -0.550394D-05  0.484436D-02  0.670306D-02 -0.411863D-02
     31 -0.518971D-05  0.137831D-05 -0.182911D-01  0.211852D-02 -0.124170D-01
     32  0.440797D-05  0.553620D-05 -0.227157D-02 -0.105449D-01  0.309827D-02
     33 -0.379971D-05 -0.364138D-05  0.561134D-02 -0.743843D-02  0.977944D-02
     34 -0.267953D-05 -0.986817D-05  0.435130D-02 -0.479856D-03  0.144470D-02
     35 -0.788637D-05 -0.621790D-05  0.772776D-02  0.921768D-02 -0.364759D-02
     36  0.866664D-05 -0.132399D-04 -0.364721D-02  0.620209D-02 -0.102606D-01
     37 -0.965344D-05  0.145164D-05  0.921685D-02  0.994217D-03  0.620218D-02
     38  0.689957D-05 -0.557036D-05 -0.215812D-02 -0.202137D-02 -0.410819D-03
               26            27            28            29            30 
     26  0.141142D-01
     27  0.671985D-02  0.216753D-01
     28  0.503991D-02  0.792901D-02  0.121433D-01
     29 -0.579997D-03  0.792668D-02 -0.141238D-02  0.121428D-01
     30 -0.225993D-02 -0.581959D-02  0.280191D-02  0.280378D-02  0.114253D-01
     31  0.799259D-02  0.761615D-02  0.360682D-02  0.196466D-02 -0.204467D-02
     32 -0.517503D-02 -0.124853D-02  0.154845D-02 -0.641488D-02 -0.361790D-02
     33 -0.327033D-02  0.761587D-02  0.196518D-02  0.360571D-02 -0.204498D-02
     34 -0.338645D-02 -0.124713D-02 -0.641389D-02  0.154932D-02 -0.361744D-02
     35 -0.215768D-02 -0.180436D-01 -0.609967D-02 -0.709928D-02  0.484464D-02
     36 -0.411294D-03 -0.375361D-02 -0.104807D-01  0.260917D-02 -0.411787D-02
     37 -0.202045D-02 -0.756953D-02  0.380250D-02 -0.466909D-02  0.670293D-02
     38 -0.274070D-03  0.672045D-02 -0.578481D-03  0.503936D-02 -0.225958D-02
               31            32            33            34            35 
     31  0.222625D-01
     32  0.498747D-02  0.119901D-01
     33 -0.169104D-01 -0.586489D-02  0.222625D-01
     34 -0.586804D-02 -0.177887D-02  0.499167D-02  0.119881D-01
     35  0.561146D-02  0.435037D-02 -0.182914D-01 -0.227508D-02  0.223132D-01
     36  0.977937D-02  0.144276D-02 -0.124172D-01  0.309604D-02  0.989685D-02
     37 -0.743815D-02 -0.478372D-03  0.211878D-02 -0.105432D-01  0.338550D-02
     38 -0.327023D-02 -0.338598D-02  0.799297D-02 -0.517212D-02 -0.903084D-02
               36            37            38 
     36  0.168900D-01
     37 -0.843633D-02  0.183492D-01
     38 -0.144321D-02  0.652732D-02  0.141150D-01
 Leave Link  716 at Mon Dec  7 13:25:20 2015, MaxMem=    33554432 cpu:         0.0
 (Enter /home/Applications/g09/g09/l103.exe)

 GradGradGradGradGradGradGradGradGradGradGradGradGradGradGradGradGradGrad
 Berny optimization.
 Red2BG is reusing G-inverse.
 Internal  Forces:  Max     0.000054303 RMS     0.000025063
 Search for a local minimum.
 Step number   1 out of a maximum of    2
 All quantities printed in internal units (Hartrees-Bohrs-Radians)
 Second derivative matrix not updated -- analytic derivatives used.
 ITU=  0
     Eigenvalues ---    0.01636   0.02124   0.03755   0.03989   0.07533
     Eigenvalues ---    0.07884   0.09489   0.10910   0.13463   0.13768
     Eigenvalues ---    0.24275   0.25309   0.37562   0.39769   0.42986
     Eigenvalues ---    0.44697   0.44953   0.58109   0.63510   0.73250
     Eigenvalues ---    1.04550
 Angle between quadratic step and forces=  44.17 degrees.
 Linear search not attempted -- first point.
 Iteration  1 RMS(Cart)=  0.00016693 RMS(Int)=  0.00000005
 Iteration  2 RMS(Cart)=  0.00000004 RMS(Int)=  0.00000003
 ITry= 1 IFail=0 DXMaxC= 4.76D-04 DCOld= 1.00D+10 DXMaxT= 3.00D-01 DXLimC= 3.00D+00 Rises=F
 Variable       Old X    -DE/DX   Delta X   Delta X   Delta X     New X
                                 (Linear)    (Quad)   (Total)
    R1        2.58372   0.00003   0.00000   0.00009   0.00009   2.58381
    R2        2.83891   0.00002   0.00000  -0.00006  -0.00006   2.83885
    R3        2.03733   0.00002   0.00000   0.00004   0.00004   2.03737
    R4        2.58714  -0.00004   0.00000  -0.00007  -0.00007   2.58707
    R5        2.07612  -0.00005   0.00000  -0.00014  -0.00014   2.07597
    R6        2.58705   0.00004   0.00000   0.00002   0.00002   2.58707
    R7        2.58371   0.00004   0.00000   0.00011   0.00011   2.58381
    R8        2.07601   0.00000   0.00000  -0.00003  -0.00003   2.07597
    R9        2.03728   0.00004   0.00000   0.00009   0.00009   2.03737
    A1        1.83341   0.00001   0.00000   0.00004   0.00004   1.83344
    A2        2.25007  -0.00002   0.00000  -0.00013  -0.00013   2.24994
    A3        2.19970   0.00000   0.00000   0.00009   0.00009   2.19980
    A4        1.93831  -0.00002   0.00000  -0.00007  -0.00007   1.93824
    A5        2.29301   0.00001   0.00000   0.00000   0.00000   2.29300
    A6        2.05187   0.00001   0.00000   0.00008   0.00008   2.05195
    A7        1.88130   0.00004   0.00000   0.00011   0.00011   1.88141
    A8        1.93833  -0.00003   0.00000  -0.00009  -0.00009   1.93824
    A9        2.05166   0.00005   0.00000   0.00028   0.00028   2.05195
   A10        2.29319  -0.00002   0.00000  -0.00019  -0.00019   2.29300
   A11        1.83343   0.00000   0.00000   0.00002   0.00002   1.83344
   A12        2.19959   0.00002   0.00000   0.00021   0.00021   2.19980
   A13        2.25017  -0.00002   0.00000  -0.00023  -0.00023   2.24994
    D1        0.00023  -0.00001   0.00000  -0.00023  -0.00023   0.00000
    D2       -3.14102  -0.00003   0.00000  -0.00057  -0.00057  -3.14159
    D3        3.14129   0.00002   0.00000   0.00031   0.00031   3.14159
    D4        0.00004   0.00000   0.00000  -0.00004  -0.00004   0.00000
    D5       -0.00040   0.00003   0.00000   0.00040   0.00040   0.00000
    D6        3.14146   0.00001   0.00000   0.00013   0.00013   3.14159
    D7       -3.14148   0.00000   0.00000  -0.00011  -0.00011  -3.14159
    D8        0.00038  -0.00002   0.00000  -0.00038  -0.00038   0.00000
    D9        0.00003  -0.00001   0.00000  -0.00003  -0.00003   0.00000
   D10        3.14134   0.00001   0.00000   0.00026   0.00026   3.14159
   D11       -0.00032   0.00003   0.00000   0.00032   0.00032   0.00000
   D12       -3.14148   0.00000   0.00000  -0.00011  -0.00011   3.14159
   D13        0.00044  -0.00004   0.00000  -0.00044  -0.00044   0.00000
   D14       -3.14143  -0.00002   0.00000  -0.00016  -0.00016   3.14159
   D15        3.14153   0.00000   0.00000   0.00006   0.00006  -3.14159
   D16       -0.00035   0.00002   0.00000   0.00035   0.00035   0.00000
         Item               Value     Threshold  Converged?
 Maximum Force            0.000054     0.000450     YES
 RMS     Force            0.000025     0.000300     YES
 Maximum Displacement     0.000476     0.001800     YES
 RMS     Displacement     0.000167     0.001200     YES
 Predicted change in Energy=-7.139221D-08
 Optimization completed.
    -- Stationary point found.
                           ----------------------------
                           !   Optimized Parameters   !
                           ! (Angstroms and Degrees)  !
 --------------------------                            --------------------------
 ! Name  Definition              Value          Derivative Info.                !
 --------------------------------------------------------------------------------
 ! R1    R(1,2)                  1.3672         -DE/DX =    0.0                 !
 ! R2    R(1,5)                  1.5023         -DE/DX =    0.0                 !
 ! R3    R(1,9)                  1.0781         -DE/DX =    0.0                 !
 ! R4    R(2,3)                  1.3691         -DE/DX =    0.0                 !
 ! R5    R(2,8)                  1.0986         -DE/DX =   -0.0001              !
 ! R6    R(3,4)                  1.369          -DE/DX =    0.0                 !
 ! R7    R(4,5)                  1.3672         -DE/DX =    0.0                 !
 ! R8    R(4,7)                  1.0986         -DE/DX =    0.0                 !
 ! R9    R(5,6)                  1.0781         -DE/DX =    0.0                 !
 ! A1    A(2,1,5)              105.0465         -DE/DX =    0.0                 !
 ! A2    A(2,1,9)              128.9197         -DE/DX =    0.0                 !
 ! A3    A(5,1,9)              126.0338         -DE/DX =    0.0                 !
 ! A4    A(1,2,3)              111.057          -DE/DX =    0.0                 !
 ! A5    A(1,2,8)              131.3795         -DE/DX =    0.0                 !
 ! A6    A(3,2,8)              117.5635         -DE/DX =    0.0                 !
 ! A7    A(2,3,4)              107.7908         -DE/DX =    0.0                 !
 ! A8    A(3,4,5)              111.058          -DE/DX =    0.0                 !
 ! A9    A(3,4,7)              117.5517         -DE/DX =    0.0001              !
 ! A10   A(5,4,7)              131.3903         -DE/DX =    0.0                 !
 ! A11   A(1,5,4)              105.0477         -DE/DX =    0.0                 !
 ! A12   A(1,5,6)              126.0271         -DE/DX =    0.0                 !
 ! A13   A(4,5,6)              128.9252         -DE/DX =    0.0                 !
 ! D1    D(5,1,2,3)              0.013          -DE/DX =    0.0                 !
 ! D2    D(5,1,2,8)           -179.9673         -DE/DX =    0.0                 !
 ! D3    D(9,1,2,3)            179.9824         -DE/DX =    0.0                 !
 ! D4    D(9,1,2,8)              0.0022         -DE/DX =    0.0                 !
 ! D5    D(2,1,5,4)             -0.0229         -DE/DX =    0.0                 !
 ! D6    D(2,1,5,6)            179.9926         -DE/DX =    0.0                 !
 ! D7    D(9,1,5,4)           -179.9936         -DE/DX =    0.0                 !
 ! D8    D(9,1,5,6)              0.0219         -DE/DX =    0.0                 !
 ! D9    D(1,2,3,4)              0.002          -DE/DX =    0.0                 !
 ! D10   D(8,2,3,4)            179.9853         -DE/DX =    0.0                 !
 ! D11   D(2,3,4,5)             -0.0181         -DE/DX =    0.0                 !
 ! D12   D(2,3,4,7)            180.0064         -DE/DX =    0.0                 !
 ! D13   D(3,4,5,1)              0.0252         -DE/DX =    0.0                 !
 ! D14   D(3,4,5,6)            180.0091         -DE/DX =    0.0                 !
 ! D15   D(7,4,5,1)           -180.0037         -DE/DX =    0.0                 !
 ! D16   D(7,4,5,6)             -0.0198         -DE/DX =    0.0                 !
 --------------------------------------------------------------------------------
 GradGradGradGradGradGradGradGradGradGradGradGradGradGradGradGradGradGrad

 Leave Link  103 at Mon Dec  7 13:25:20 2015, MaxMem=    33554432 cpu:         0.0
 (Enter /home/Applications/g09/g09/l9999.exe)
 1\1\GINC-DUSTIN-DESKTOP\Freq\RAM1\ZDO\C4H4O1\DUSTIN\07-Dec-2015\0\\#P 
 Geom=AllCheck Guess=TCheck SCRF=Check GenChk RAM1/ZDO Freq\\AM1-Repara
 m Input\\0,1\C,0.9422429716,-0.7743404072,0.0114936847\C,-0.3779397913
 ,-1.1297697171,-0.0008062589\O,-1.1850600581,-0.0239427918,-0.00410211
 42\C,-0.3788034955,1.082415722,0.0062040526\C,0.9416432126,0.727938551
 4,0.0166132303\H,1.8132466603,1.36235293,0.0262108112\H,-0.8666573781,
 2.0667252413,0.0053227058\H,-0.8648730851,-2.114575825,-0.0077845477\H
 ,1.8142959635,-1.4082257037,0.0171024362\\Version=ES64L-G09RevD.01\Sta
 te=1-A\HF=-5.1372695\RMSD=1.265e-09\RMSF=4.940e-05\ZeroPoint=0.0786674
 \Thermal=0.0820619\Dipole=1.1171527,0.0002921,0.0095628\DipoleDeriv=-0
 .3770487,0.0626362,-0.0017181,0.0512685,-0.2088657,0.0002641,-0.001846
 3,0.0004071,-0.1381557,0.9942229,-0.1590335,0.0052936,-0.4082501,0.411
 1506,-0.002992,0.0046064,-0.0010119,0.2942653,-1.8226752,-0.0002495,-0
 .0093125,-0.0003,-1.0305789,-0.0012009,-0.0091784,-0.0009546,-0.729910
 4,0.9938575,0.1593855,0.0065214,0.4086573,0.4115962,0.0039989,0.007143
 6,0.0018699,0.2943773,-0.3770207,-0.0626825,-0.0022738,-0.0513386,-0.2
 091029,-0.0007122,-0.0022187,-0.0008533,-0.1382171,0.1934854,0.004636,
 0.0007802,0.0599028,0.1347922,0.0006169,0.0009545,0.0001297,0.1065262,
 0.1008827,-0.0395861,-0.0001117,-0.1006493,0.1780679,-0.0006224,-0.000
 305,-0.0001578,0.1022777,0.1007528,0.0394837,0.000101,0.1005886,0.1782
 073,0.0010709,0.0003012,0.0005492,0.1023168,0.1935393,-0.0045897,0.000
 7197,-0.0598806,0.1347458,-0.0004232,0.000545,0.0000216,0.1065193\Pola
 r=37.88703,-0.0000128,34.4053551,0.2640172,0.0839689,7.2562217\HyperPo
 lar=24.4686617,0.0559901,-53.0897244,-0.0789801,0.2233447,-0.1561702,-
 0.4597875,-0.9044797,-0.0038928,-0.0232287\PG=C01 [X(C4H4O1)]\NImag=0\
 \1.00238725,-0.13883279,0.55271839,0.00648456,-0.00003344,0.19020245,-
 0.46216947,-0.06081376,-0.00330495,0.87781380,-0.15879105,-0.09624911,
 -0.00134641,0.01506852,0.99293603,-0.00362085,-0.00051414,-0.09320251,
 0.00559250,0.00253757,0.21822050,-0.18119537,0.05069358,-0.00153054,-0
 .27172680,0.30210436,-0.00046910,0.90380894,0.10191832,-0.01326468,0.0
 0075973,0.22972506,-0.42541415,0.00091694,0.00002854,1.01305775,-0.001
 35954,0.00032612,0.01783129,-0.00069685,0.00152780,-0.10192005,0.00659
 177,0.00282119,0.12698938,-0.00305229,0.08925760,0.00016888,0.01271199
 ,-0.02159695,-0.00013757,-0.27136566,-0.22968810,-0.00215247,0.8779512
 2,0.02796869,-0.04733203,0.00004921,0.02172254,-0.15371849,-0.00037344
 ,-0.30206577,-0.42589146,-0.00358076,-0.01518516,0.99303761,-0.0000316
 9,0.00058073,0.01170878,-0.00000458,-0.00073296,0.02026650,-0.00238100
 ,-0.00296895,-0.10192952,0.00562219,0.00232570,0.21819023,-0.06775876,
 -0.05592437,0.00002201,-0.00296210,-0.02793155,-0.00021247,-0.18109079
 ,-0.10204335,-0.00203850,-0.46235790,0.15853727,-0.00272056,1.00225694
 ,0.05602734,-0.19995025,0.00010550,-0.08922148,-0.04742385,-0.00095640
 ,-0.05081700,-0.01336586,-0.00053412,0.06055140,-0.09609917,0.00051640
 ,0.13915560,0.55289086,0.00038899,-0.00085607,-0.09197508,-0.00041572,
 -0.00043709,0.01170323,-0.00187384,-0.00097704,0.01782776,-0.00304277,
 0.00137406,-0.09319062,0.00750630,0.00238736,0.19020910,0.00012657,-0.
 00770370,-0.00006885,0.00044400,0.00002458,-0.00002581,-0.00820926,-0.
 00058251,-0.00019568,-0.04257972,-0.02087158,-0.00040087,-0.26175132,-
 0.15556021,-0.00229975,0.31214929,-0.02716331,-0.02810372,-0.00034479,
 -0.00075823,-0.00637454,-0.00003825,0.00400772,0.00256547,-0.00000549,
 -0.00299052,0.00543230,0.00000595,-0.15569175,-0.15684687,-0.00167873,
 0.18401514,0.18303016,-0.00013281,-0.00017758,0.00511479,-0.00002829,-
 0.00003186,0.00339185,-0.00017746,-0.00004180,0.01405258,-0.00034606,-
 0.00015214,-0.00393186,-0.00229927,-0.00167652,-0.05442342,0.00299457,
 0.00207435,0.03530855,-0.00584417,0.00181792,-0.00013578,-0.00034747,-
 0.00409437,-0.00004873,0.00900492,-0.02622334,-0.00006287,-0.11139717,
 0.12581816,-0.00003611,-0.02059624,0.03396584,-0.00010135,-0.00041830,
 -0.00048195,-0.00001544,0.12914922,0.00096124,0.00054239,-0.00002427,-
 0.00379209,-0.00128413,-0.00004811,0.00058027,-0.07013603,-0.00024196,
 0.11509612,-0.26777682,0.00028250,0.01768179,-0.01167415,0.00010049,0.
 00107170,-0.00037144,0.00000455,-0.13186640,0.35170479,-0.00013921,-0.
 00001793,0.01058139,-0.00004673,-0.00005384,0.00383206,0.00002267,-0.0
 0046711,0.00655125,-0.00006750,0.00037097,-0.05833743,-0.00015636,0.00
 024438,0.00415331,-0.00001076,-0.00001001,0.00122394,0.00038225,-0.000
 07686,0.03327371,-0.02055541,-0.03397239,-0.00031521,-0.11116446,-0.12
 562149,-0.00081329,0.00898081,0.02628959,0.00010285,-0.00035366,0.0040
 9566,-0.00002183,-0.00584205,-0.00182228,-0.00014365,0.00002409,-0.001
 26998,-0.00000040,0.00042595,0.00020728,0.00001107,0.12890254,-0.01769
 251,-0.01171894,-0.00019843,-0.11489061,-0.26791884,-0.00157959,-0.000
 51668,-0.07011452,-0.00024181,0.00379248,-0.00127739,0.00001628,-0.000
 96637,0.00054088,-0.00003732,-0.00005994,-0.00021524,0.00000011,-0.000
 20614,-0.00079067,-0.00000176,0.13161163,0.35186635,-0.00026917,-0.000
 33648,0.00415134,-0.00077370,-0.00167090,-0.05836087,0.00001961,-0.000
 01284,0.00654483,-0.00002292,0.00001818,0.00383235,-0.00014361,-0.0000
 4632,0.01058073,0.00000409,-0.00000952,-0.00047608,0.00000981,0.000002
 24,-0.00080234,0.00119286,0.00205640,0.03330586,-0.26193826,0.15547777
 ,-0.00132013,-0.04259944,0.02083779,-0.00026467,-0.00820679,0.00057579
 ,-0.00018871,0.00044327,-0.00001967,-0.00002553,0.00010234,0.00772093,
 -0.00001821,0.00021461,0.00033294,0.00000516,0.00002315,0.00006005,0.0
 0000459,-0.00041791,-0.00107181,-0.00001697,0.31237899,0.15560419,-0.1
 5664239,0.00103290,0.00296025,0.00544717,0.00005542,-0.00401506,0.0025
 6399,-0.00007096,0.00076298,-0.00637444,-0.00002565,0.02718258,-0.0280
 7195,0.00012433,-0.00033338,0.00088389,0.00000088,0.00127031,-0.000213
 96,0.00001217,0.00048193,-0.00037166,-0.00000076,-0.18391387,0.1827793
 8,-0.00132027,0.00102877,-0.05441253,-0.00032173,0.00020771,-0.0039304
 8,-0.00020203,-0.00003011,0.01405227,-0.00002185,-0.00003183,0.0033916
 0,0.00004248,-0.00004027,0.00511511,0.00000306,0.00000649,-0.00026032,
 0.00000825,0.00000142,-0.00047591,-0.00001239,-0.00001386,0.00122411,0
 .00182447,-0.00112833,0.03529615\\-0.00000324,-0.00002933,-0.00007617,
 0.00009754,0.00005620,-0.00002282,-0.00006223,0.00008052,0.00004452,0.
 00007900,-0.00006555,-0.00008239,-0.00002767,0.00004205,0.00008004,-0.
 00001840,-0.00003816,0.00000131,-0.00003103,-0.00001486,0.00001138,-0.
 00002597,-0.00004791,0.00002376,-0.00000800,0.00001703,0.00002037\\\@


 ADVERTISING--  HE WHO HAS SOMETHING TO SELL AND GOES AND WHISPERS
                IN A WELL, IS NOT SO APT TO GET THE DOLLARS AS HE
                WHO CLIMBS A TREE AND HOLLERS.

                   -- FROM THE BACK OF A SUGAR PACKET
 Job cpu time:       0 days  0 hours  0 minutes  0.3 seconds.
 File lengths (MBytes):  RWF=      5 Int=      0 D2E=      0 Chk=      2 Scr=      1
 Normal termination of Gaussian 09 at Mon Dec  7 13:25:20 2015.
