 Entering Gaussian System, Link 0=g09
 Input=FuranBestInput.com
 Output=FuranBestInput.log
 Initial command:
 /home/Applications/g09/g09/l1.exe "/home/Applications/g09/scratch/Gau-30391.inp" -scrdir="/home/Applications/g09/scratch/"
 Entering Link 1 = /home/Applications/g09/g09/l1.exe PID=     30401.
  
 Copyright (c) 1988,1990,1992,1993,1995,1998,2003,2009,2013,
            Gaussian, Inc.  All Rights Reserved.
  
 This is part of the Gaussian(R) 09 program.  It is based on
 the Gaussian(R) 03 system (copyright 2003, Gaussian, Inc.),
 the Gaussian(R) 98 system (copyright 1998, Gaussian, Inc.),
 the Gaussian(R) 94 system (copyright 1995, Gaussian, Inc.),
 the Gaussian 92(TM) system (copyright 1992, Gaussian, Inc.),
 the Gaussian 90(TM) system (copyright 1990, Gaussian, Inc.),
 the Gaussian 88(TM) system (copyright 1988, Gaussian, Inc.),
 the Gaussian 86(TM) system (copyright 1986, Carnegie Mellon
 University), and the Gaussian 82(TM) system (copyright 1983,
 Carnegie Mellon University). Gaussian is a federally registered
 trademark of Gaussian, Inc.
  
 This software contains proprietary and confidential information,
 including trade secrets, belonging to Gaussian, Inc.
  
 This software is provided under written license and may be
 used, copied, transmitted, or stored only in accord with that
 written license.
  
 The following legend is applicable only to US Government
 contracts under FAR:
  
                    RESTRICTED RIGHTS LEGEND
  
 Use, reproduction and disclosure by the US Government is
 subject to restrictions as set forth in subparagraphs (a)
 and (c) of the Commercial Computer Software - Restricted
 Rights clause in FAR 52.227-19.
  
 Gaussian, Inc.
 340 Quinnipiac St., Bldg. 40, Wallingford CT 06492
  
  
 ---------------------------------------------------------------
 Warning -- This program may not be used in any manner that
 competes with the business of Gaussian, Inc. or will provide
 assistance to any competitor of Gaussian, Inc.  The licensee
 of this program is prohibited from giving any competitor of
 Gaussian, Inc. access to this program.  By using this program,
 the user acknowledges that Gaussian, Inc. is engaged in the
 business of creating and licensing software in the field of
 computational chemistry and represents and warrants to the
 licensee that it is not a competitor of Gaussian, Inc. and that
 it will not use this program in any manner prohibited above.
 ---------------------------------------------------------------
  

 Cite this work as:
 Gaussian 09, Revision D.01,
 M. J. Frisch, G. W. Trucks, H. B. Schlegel, G. E. Scuseria, 
 M. A. Robb, J. R. Cheeseman, G. Scalmani, V. Barone, B. Mennucci, 
 G. A. Petersson, H. Nakatsuji, M. Caricato, X. Li, H. P. Hratchian, 
 A. F. Izmaylov, J. Bloino, G. Zheng, J. L. Sonnenberg, M. Hada, 
 M. Ehara, K. Toyota, R. Fukuda, J. Hasegawa, M. Ishida, T. Nakajima, 
 Y. Honda, O. Kitao, H. Nakai, T. Vreven, J. A. Montgomery, Jr., 
 J. E. Peralta, F. Ogliaro, M. Bearpark, J. J. Heyd, E. Brothers, 
 K. N. Kudin, V. N. Staroverov, T. Keith, R. Kobayashi, J. Normand, 
 K. Raghavachari, A. Rendell, J. C. Burant, S. S. Iyengar, J. Tomasi, 
 M. Cossi, N. Rega, J. M. Millam, M. Klene, J. E. Knox, J. B. Cross, 
 V. Bakken, C. Adamo, J. Jaramillo, R. Gomperts, R. E. Stratmann, 
 O. Yazyev, A. J. Austin, R. Cammi, C. Pomelli, J. W. Ochterski, 
 R. L. Martin, K. Morokuma, V. G. Zakrzewski, G. A. Voth, 
 P. Salvador, J. J. Dannenberg, S. Dapprich, A. D. Daniels, 
 O. Farkas, J. B. Foresman, J. V. Ortiz, J. Cioslowski, 
 and D. J. Fox, Gaussian, Inc., Wallingford CT, 2013.
 
 ******************************************
 Gaussian 09:  ES64L-G09RevD.01 24-Apr-2013
                24-Dec-2015 
 ******************************************
 ----------------------------
 #P AM1(Input,print) Opt Freq
 ----------------------------
 1/14=-1,18=20,19=15,26=1,38=1/1,3;
 2/9=110,12=2,17=6,18=5,40=1/2;
 3/5=2,16=1,25=1,41=700000,71=1,135=100,136=1/1,2,3;
 4/35=1/1;
 5/5=2,35=1,38=5/2;
 6/7=2,8=2,9=2,10=2,28=1/1;
 7//1,2,3,16;
 1/14=-1,18=20,19=15,26=1/3(2);
 2/9=110/2;
 99//99;
 2/9=110/2;
 3/5=2,16=1,25=1,41=700000,71=1,135=20,136=1/1,2,3;
 4/5=5,16=3,35=1/1;
 5/5=2,35=1,38=5/2;
 7//1,2,3,16;
 1/14=-1,18=20,19=15,26=1/3(-5);
 2/9=110/2;
 6/7=2,8=2,9=2,10=2,19=2,28=1/1;
 99/9=1/99;
 Leave Link    1 at Thu Dec 24 08:56:30 2015, MaxMem=           0 cpu:         0.0
 (Enter /home/Applications/g09/g09/l101.exe)
 -----------------
 AM1-Reparam Input
 -----------------
 Symbolic Z-matrix:
 Charge =  0 Multiplicity = 1
 6                     1.19576  -0.7719    0.11635 
 6                    -0.2972   -1.22662  -0.17679 
 8                    -1.17496  -0.24998   0.16979 
 6                    -0.10752   0.84729   0.15698 
 6                     0.77293   0.92031   0.13312 
 1                     1.7961    1.46952   0.18157 
 1                    -0.86023   2.20837   0.05116 
 1                    -1.00385  -2.05197  -0.13222 
 1                     1.76652  -1.42227   0.14285 
 
 Add virtual bond connecting atoms H7         and C4         Dist= 2.95D+00.
 NAtoms=      9 NQM=        9 NQMF=       0 NMMI=      0 NMMIF=      0
                NMic=       0 NMicF=      0.
                    Isotopes and Nuclear Properties:
 (Nuclear quadrupole moments (NQMom) in fm**2, nuclear magnetic moments (NMagM)
  in nuclear magnetons)

  Atom         1           2           3           4           5           6           7           8           9
 IAtWgt=          12          12          16          12          12           1           1           1           1
 AtmWgt=  12.0000000  12.0000000  15.9949146  12.0000000  12.0000000   1.0078250   1.0078250   1.0078250   1.0078250
 NucSpn=           0           0           0           0           0           1           1           1           1
 AtZEff=   0.0000000   0.0000000   0.0000000   0.0000000   0.0000000   0.0000000   0.0000000   0.0000000   0.0000000
 NQMom=    0.0000000   0.0000000   0.0000000   0.0000000   0.0000000   0.0000000   0.0000000   0.0000000   0.0000000
 NMagM=    0.0000000   0.0000000   0.0000000   0.0000000   0.0000000   2.7928460   2.7928460   2.7928460   2.7928460
 AtZNuc=   6.0000000   6.0000000   8.0000000   6.0000000   6.0000000   1.0000000   1.0000000   1.0000000   1.0000000
 Leave Link  101 at Thu Dec 24 08:56:30 2015, MaxMem=    33554432 cpu:         0.0
 (Enter /home/Applications/g09/g09/l103.exe)

 GradGradGradGradGradGradGradGradGradGradGradGradGradGradGradGradGradGrad
 Berny optimization.
 Initialization pass.
                           ----------------------------
                           !    Initial Parameters    !
                           ! (Angstroms and Degrees)  !
 --------------------------                            --------------------------
 ! Name  Definition              Value          Derivative Info.                !
 --------------------------------------------------------------------------------
 ! R1    R(1,2)                  1.588          estimate D2E/DX2                !
 ! R2    R(1,5)                  1.7443         estimate D2E/DX2                !
 ! R3    R(1,9)                  0.8657         estimate D2E/DX2                !
 ! R4    R(2,3)                  1.3581         estimate D2E/DX2                !
 ! R5    R(2,8)                  1.0874         estimate D2E/DX2                !
 ! R6    R(3,4)                  1.5309         estimate D2E/DX2                !
 ! R7    R(4,5)                  0.8838         estimate D2E/DX2                !
 ! R8    R(4,7)                  1.5589         estimate D2E/DX2                !
 ! R9    R(5,6)                  1.1623         estimate D2E/DX2                !
 ! A1    A(2,1,5)               92.9622         estimate D2E/DX2                !
 ! A2    A(2,1,9)              114.2286         estimate D2E/DX2                !
 ! A3    A(5,1,9)              152.665          estimate D2E/DX2                !
 ! A4    A(1,2,3)              110.7698         estimate D2E/DX2                !
 ! A5    A(1,2,8)              145.1569         estimate D2E/DX2                !
 ! A6    A(3,2,8)               96.6234         estimate D2E/DX2                !
 ! A7    A(2,3,4)               93.5917         estimate D2E/DX2                !
 ! A8    A(3,4,5)              138.9449         estimate D2E/DX2                !
 ! A9    A(3,4,7)              106.8396         estimate D2E/DX2                !
 ! A10   A(5,4,7)              114.0186         estimate D2E/DX2                !
 ! A11   A(1,5,4)               99.2993         estimate D2E/DX2                !
 ! A12   A(1,5,6)              104.2067         estimate D2E/DX2                !
 ! A13   A(4,5,6)              156.1934         estimate D2E/DX2                !
 ! D1    D(5,1,2,3)            -20.4183         estimate D2E/DX2                !
 ! D2    D(5,1,2,8)           -159.9466         estimate D2E/DX2                !
 ! D3    D(9,1,2,3)            162.4644         estimate D2E/DX2                !
 ! D4    D(9,1,2,8)             22.9361         estimate D2E/DX2                !
 ! D5    D(2,1,5,4)             12.1011         estimate D2E/DX2                !
 ! D6    D(2,1,5,6)           -171.7009         estimate D2E/DX2                !
 ! D7    D(9,1,5,4)           -173.6308         estimate D2E/DX2                !
 ! D8    D(9,1,5,6)              2.5671         estimate D2E/DX2                !
 ! D9    D(1,2,3,4)             19.1619         estimate D2E/DX2                !
 ! D10   D(8,2,3,4)            177.241          estimate D2E/DX2                !
 ! D11   D(2,3,4,5)            -13.0419         estimate D2E/DX2                !
 ! D12   D(2,3,4,7)            161.2317         estimate D2E/DX2                !
 ! D13   D(3,4,5,1)             -0.7412         estimate D2E/DX2                !
 ! D14   D(3,4,5,6)           -171.5777         estimate D2E/DX2                !
 ! D15   D(7,4,5,1)           -174.7397         estimate D2E/DX2                !
 ! D16   D(7,4,5,6)             14.4237         estimate D2E/DX2                !
 --------------------------------------------------------------------------------
 Trust Radius=3.00D-01 FncErr=1.00D-07 GrdErr=1.00D-07
 Number of steps in this run=     48 maximum allowed number of steps=    100.
 GradGradGradGradGradGradGradGradGradGradGradGradGradGradGradGradGradGrad

 Leave Link  103 at Thu Dec 24 08:56:30 2015, MaxMem=    33554432 cpu:         0.0
 (Enter /home/Applications/g09/g09/l202.exe)
                          Input orientation:                          
 ---------------------------------------------------------------------
 Center     Atomic      Atomic             Coordinates (Angstroms)
 Number     Number       Type             X           Y           Z
 ---------------------------------------------------------------------
      1          6           0        1.195759   -0.771896    0.116350
      2          6           0       -0.297199   -1.226622   -0.176793
      3          8           0       -1.174962   -0.249981    0.169787
      4          6           0       -0.107524    0.847292    0.156978
      5          6           0        0.772930    0.920314    0.133121
      6          1           0        1.796101    1.469517    0.181566
      7          1           0       -0.860225    2.208369    0.051155
      8          1           0       -1.003851   -2.051967   -0.132216
      9          1           0        1.766521   -1.422265    0.142854
 ---------------------------------------------------------------------
                    Distance matrix (angstroms):
                    1          2          3          4          5
     1  C    0.000000
     2  C    1.587965   0.000000
     3  O    2.428079   1.358092   0.000000
     4  C    2.078934   2.109147   1.530881   0.000000
     5  C    1.744317   2.418792   2.272712   0.883799   0.000000
     6  H    2.321335   3.432126   3.432787   2.002887   1.162261
     7  H    3.621229   3.488283   2.481253   1.558938   2.081586
     8  H    2.557079   1.087446   1.835113   3.048399   3.473011
     9  H    0.865709   2.097472   3.166591   2.943320   2.544601
                    6          7          8          9
     6  H    0.000000
     7  H    2.760249   0.000000
     8  H    4.509882   4.266699   0.000000
     9  H    2.892192   4.482154   2.854321   0.000000
 Stoichiometry    C4H4O
 Framework group  C1[X(C4H4O)]
 Deg. of freedom    21
 Full point group                 C1      NOp   1
 Largest Abelian subgroup         C1      NOp   1
 Largest concise Abelian subgroup C1      NOp   1
                         Standard orientation:                         
 ---------------------------------------------------------------------
 Center     Atomic      Atomic             Coordinates (Angstroms)
 Number     Number       Type             X           Y           Z
 ---------------------------------------------------------------------
      1          6           0       -0.026322    1.335207   -0.071390
      2          6           0       -1.175423    0.266088    0.169821
      3          8           0       -0.734478   -0.986940   -0.112852
      4          6           0        0.741656   -0.595565   -0.005851
      5          6           0        1.236017    0.135981    0.033487
      6          1           0        2.218973    0.756164    0.037948
      7          1           0        1.545784   -1.916257    0.192745
      8          1           0       -2.235970    0.054590    0.055598
      9          1           0       -0.308529    2.150756   -0.139873
 ---------------------------------------------------------------------
 Rotational constants (GHZ):      9.8013913      7.9384934      4.4381887
 Leave Link  202 at Thu Dec 24 08:56:30 2015, MaxMem=    33554432 cpu:         0.0
 (Enter /home/Applications/g09/g09/l301.exe)

 Semi-emprical parameters in input format:
 Method=8 CoreType=1 PeptideFC=0.0153880000 RIJScale=0.5653070000
 ****
 H       
 PQN=1 NValence=1 F0ss=0.4987980000 ZetaOverlap=1.0885220000 U=-0.4055440000
 Beta=-0.3100140000 CoreKO=1.0195490000 KON=0,0,0,1.1485810000 KON=1,0,1,1.1849500000
 KON=0,1,1,1.1483140000 KON=2,1,1,1.1713980000 EISol=-0.4188110042 EHeat=0.0830298228
 Alpha=1.5460150000
 GCore=0.0106860000,2.0665340000,2.3965250000
 GCore=0.0002770000,1.7874610000,3.9605580000
 GCore=-0.0011350000,0.4389190000,4.4100760000
 ****
 C       
 PQN=2,2 NValence=4 F0ss=0.6596530000 F0sp=0.3708350000 F0pp=0.3962320000 F2pp=0.1752980000
 G1sp=0.1933380000
 ZetaOverlap=1.8455320000,1.3462190000
 U=-1.4750250000,-1.4354660000
 Beta=-0.5562170000,-0.3475400000 DDN=0,1,0.8746580000 DDN=1,1,0.7619180000
 CoreKO=0.9166070000 KON=0,0,0,0.9169750000 KON=1,0,1,1.0634150000 KON=0,1,1,1.0485010000
 KON=2,1,1,0.5046550000 EISol=-4.4398989268 EHeat=0.2723305520 Alpha=1.3107700000
 DipHyp=1.7492153603
 GCore=0.0007580000,1.3630410000,2.7411890000
 GCore=0.0034510000,1.3650460000,2.5948270000
 GCore=-0.0017750000,1.3310390000,4.0879490000
 GCore=-0.0000860000,1.2035490000,5.6323400000
 ****
 O       
 PQN=2,2 NValence=6 F0ss=0.5213290000 F0sp=0.5306490000 F0pp=0.4844810000 F2pp=0.4398240000
 G1sp=0.2746920000
 ZetaOverlap=2.6188660000,2.4182960000
 U=-3.3475430000,-2.8237600000
 Beta=-1.0917740000,-1.4749000000 DDN=0,1,0.4337540000 DDN=1,1,0.4720320000
 CoreKO=0.9109280000 KON=0,0,0,0.9733340000 KON=1,0,1,0.5669380000 KON=0,1,1,0.9686250000
 KON=2,1,1,0.5820820000 EISol=-11.6164441184 EHeat=0.0949133088 Alpha=2.2756520000
 DipHyp=0.8674580915
 GCore=0.0167260000,1.1747010000,1.7633480000
 GCore=0.0052970000,1.8889120000,2.4589150000
 ****
 
 Standard basis: VSTO-6G (5D, 7F)
 Ernie: Thresh=  0.10000D-02 Tol=  0.10000D-05 Strict=F.
  NNHCO=     0 NNPyr=     0 NCTC=     0               EPep=         0.000000000
    EC=        70.158752949  ECS=         2.984831371   EG=         0.330823003
   EHC=         0.000000000  EAt=       -31.051283842  AtH=         1.516354808
 EPDDG=         0.000000000  ECC=        73.474407324 EAtT=        32.567638650
 There are    24 symmetry adapted cartesian basis functions of A   symmetry.
 There are    24 symmetry adapted basis functions of A   symmetry.
    24 basis functions,   144 primitive gaussians,    24 cartesian basis functions
    13 alpha electrons       13 beta electrons
       nuclear repulsion energy       106.0420459740 Hartrees.
 IExCor=    0 DFT=F Ex=HF Corr=None ExCW=0 ScaHFX=  1.000000
 ScaDFX=  1.000000  1.000000  1.000000  1.000000 ScalE2=  1.000000  1.000000
 IRadAn=      0 IRanWt=     -1 IRanGd=            0 ICorTp=0 IEmpDi=  4
 Integral buffers will be    131072 words long.
 Regular integral format.
 Two-electron integral symmetry is turned off.
 Leave Link  301 at Thu Dec 24 08:56:30 2015, MaxMem=    33554432 cpu:         0.0
 (Enter /home/Applications/g09/g09/l302.exe)
 Do NDO integrals.
 NPDir=0 NMtPBC=     1 NCelOv=     1 NCel=       1 NClECP=     1 NCelD=      1
         NCelK=      1 NCelE2=     1 NClLst=     1 CellRange=     0.0.
 One-electron integrals computed using PRISM.
 NBasis=    24 RedAO= F EigKep=  0.00D+00  NBF=    24
 NBsUse=    24 1.00D-04 EigRej=  0.00D+00 NBFU=    24
 Leave Link  302 at Thu Dec 24 08:56:30 2015, MaxMem=    33554432 cpu:         0.0
 (Enter /home/Applications/g09/g09/l303.exe)
 DipDrv:  MaxL=1.
 Leave Link  303 at Thu Dec 24 08:56:30 2015, MaxMem=    33554432 cpu:         0.0
 (Enter /home/Applications/g09/g09/l401.exe)
 Simple Huckel Guess.
 JPrj=0 DoOrth=F DoCkMO=F.
 Leave Link  401 at Thu Dec 24 08:56:30 2015, MaxMem=    33554432 cpu:         0.0
 (Enter /home/Applications/g09/g09/l502.exe)
 Closed shell SCF:
 Using DIIS extrapolation, IDIIS=  1040.
 Overlap will be assumed to be unity.
 Two-electron integral symmetry not used.
 Keep J ints in memory in canonical form, NReq=888082.
 IVT=       79475 IEndB=       79475 NGot=    33554432 MDV=    33473473
 LenX=    33473473 LenY=    33472456
 Requested convergence on RMS density matrix=1.00D-08 within 128 cycles.
 Requested convergence on MAX density matrix=1.00D-06.
 Requested convergence on             energy=1.00D-06.
 No special actions if energy rises.
 FoFCou: FMM=F IPFlag=           0 FMFlag=           0 FMFlg1=           0
         NFxFlg=           0 DoJE=F BraDBF=F KetDBF=F FulRan=T
         wScrn=  0.000000 ICntrl=     600 IOpCl=  2 I1Cent=           0 NGrid=           0
         NMat0=    1 NMatS0=     54 NMatT0=    0 NMatD0=    1 NMtDS0=    0 NMtDT0=    0
 Symmetry not used in FoFCou.

 Cycle   1  Pass 1  IDiag  1:
 E=  2.62410451396468    
 DIIS: error= 5.75D-02 at cycle   1 NSaved=   1.
 NSaved= 1 IEnMin= 1 EnMin=  2.62410451396468     IErMin= 1 ErrMin= 5.75D-02
 ErrMax= 5.75D-02  0.00D+00 EMaxC= 1.00D-01 BMatC= 1.26D-01 BMatP= 1.26D-01
 IDIUse=3 WtCom= 4.25D-01 WtEn= 5.75D-01
 Coeff-Com:  0.100D+01
 Coeff-En:   0.100D+01
 Coeff:      0.100D+01
 GapD=    2.000 DampG=2.000 DampE=0.500 DampFc=1.0000 IDamp=-1.
 RMSDP=2.09D-02 MaxDP=1.66D-01              OVMax= 0.00D+00

 Cycle   2  Pass 1  IDiag  1:
 E=  2.34564731867361     Delta-E=       -0.278457195291 Rises=F Damp=F
 DIIS: error= 1.08D-02 at cycle   2 NSaved=   2.
 NSaved= 2 IEnMin= 2 EnMin=  2.34564731867361     IErMin= 2 ErrMin= 1.08D-02
 ErrMax= 1.08D-02  0.00D+00 EMaxC= 1.00D-01 BMatC= 5.48D-03 BMatP= 1.26D-01
 IDIUse=3 WtCom= 8.92D-01 WtEn= 1.08D-01
 Coeff-Com: -0.202D+00 0.120D+01
 Coeff-En:   0.000D+00 0.100D+01
 Coeff:     -0.180D+00 0.118D+01
 RMSDP=5.98D-03 MaxDP=3.81D-02 DE=-2.78D-01 OVMax= 0.00D+00

 Cycle   3  Pass 1  IDiag  3:
 E=  2.32928766675370     Delta-E=       -0.016359651920 Rises=F Damp=F
 DIIS: error= 2.86D-03 at cycle   3 NSaved=   3.
 NSaved= 3 IEnMin= 3 EnMin=  2.32928766675370     IErMin= 3 ErrMin= 2.86D-03
 ErrMax= 2.86D-03  0.00D+00 EMaxC= 1.00D-01 BMatC= 2.69D-04 BMatP= 5.48D-03
 IDIUse=3 WtCom= 9.71D-01 WtEn= 2.86D-02
 Coeff-Com:  0.290D-01-0.279D+00 0.125D+01
 Coeff-En:   0.000D+00 0.000D+00 0.100D+01
 Coeff:      0.282D-01-0.271D+00 0.124D+01
 Gap=     0.402 Goal=   None    Shift=    0.000
 RMSDP=1.67D-03 MaxDP=1.03D-02 DE=-1.64D-02 OVMax= 9.26D-03

 Cycle   4  Pass 1  IDiag  3:
 E=  2.32819593565185     Delta-E=       -0.001091731102 Rises=F Damp=F
 DIIS: error= 8.38D-04 at cycle   4 NSaved=   4.
 NSaved= 4 IEnMin= 4 EnMin=  2.32819593565185     IErMin= 4 ErrMin= 8.38D-04
 ErrMax= 8.38D-04  0.00D+00 EMaxC= 1.00D-01 BMatC= 2.00D-05 BMatP= 2.69D-04
 IDIUse=3 WtCom= 9.92D-01 WtEn= 8.38D-03
 Coeff-Com:  0.166D-01-0.889D-01-0.902D-01 0.116D+01
 Coeff-En:   0.000D+00 0.000D+00 0.000D+00 0.100D+01
 Coeff:      0.165D-01-0.881D-01-0.895D-01 0.116D+01
 Gap=     0.402 Goal=   None    Shift=    0.000
 RMSDP=5.54D-04 MaxDP=3.19D-03 DE=-1.09D-03 OVMax= 3.30D-03

 Cycle   5  Pass 1  IDiag  3:
 E=  2.32810624172980     Delta-E=       -0.000089693922 Rises=F Damp=F
 DIIS: error= 9.98D-05 at cycle   5 NSaved=   5.
 NSaved= 5 IEnMin= 5 EnMin=  2.32810624172980     IErMin= 5 ErrMin= 9.98D-05
 ErrMax= 9.98D-05  0.00D+00 EMaxC= 1.00D-01 BMatC= 5.99D-07 BMatP= 2.00D-05
 IDIUse=1 WtCom= 1.00D+00 WtEn= 0.00D+00
 Coeff-Com: -0.444D-02 0.282D-01-0.185D-01-0.274D+00 0.127D+01
 Coeff:     -0.444D-02 0.282D-01-0.185D-01-0.274D+00 0.127D+01
 Gap=     0.402 Goal=   None    Shift=    0.000
 RMSDP=1.01D-04 MaxDP=4.75D-04 DE=-8.97D-05 OVMax= 8.37D-04

 Cycle   6  Pass 1  IDiag  3:
 E=  2.32810329089863     Delta-E=       -0.000002950831 Rises=F Damp=F
 DIIS: error= 2.29D-05 at cycle   6 NSaved=   6.
 NSaved= 6 IEnMin= 6 EnMin=  2.32810329089863     IErMin= 6 ErrMin= 2.29D-05
 ErrMax= 2.29D-05  0.00D+00 EMaxC= 1.00D-01 BMatC= 3.65D-08 BMatP= 5.99D-07
 IDIUse=1 WtCom= 1.00D+00 WtEn= 0.00D+00
 Coeff-Com:  0.128D-02-0.870D-02 0.116D-01 0.669D-01-0.492D+00 0.142D+01
 Coeff:      0.128D-02-0.870D-02 0.116D-01 0.669D-01-0.492D+00 0.142D+01
 Gap=     0.402 Goal=   None    Shift=    0.000
 RMSDP=3.05D-05 MaxDP=1.36D-04 DE=-2.95D-06 OVMax= 3.66D-04

 Cycle   7  Pass 1  IDiag  3:
 E=  2.32810306178159     Delta-E=       -0.000000229117 Rises=F Damp=F
 DIIS: error= 6.30D-06 at cycle   7 NSaved=   7.
 NSaved= 7 IEnMin= 7 EnMin=  2.32810306178159     IErMin= 7 ErrMin= 6.30D-06
 ErrMax= 6.30D-06  0.00D+00 EMaxC= 1.00D-01 BMatC= 2.65D-09 BMatP= 3.65D-08
 IDIUse=1 WtCom= 1.00D+00 WtEn= 0.00D+00
 Coeff-Com: -0.283D-03 0.205D-02-0.347D-02-0.146D-01 0.142D+00-0.609D+00
 Coeff-Com:  0.148D+01
 Coeff:     -0.283D-03 0.205D-02-0.347D-02-0.146D-01 0.142D+00-0.609D+00
 Coeff:      0.148D+01
 Gap=     0.402 Goal=   None    Shift=    0.000
 RMSDP=1.02D-05 MaxDP=6.91D-05 DE=-2.29D-07 OVMax= 1.25D-04

 Cycle   8  Pass 1  IDiag  3:
 E=  2.32810304076402     Delta-E=       -0.000000021018 Rises=F Damp=F
 DIIS: error= 2.21D-06 at cycle   8 NSaved=   8.
 NSaved= 8 IEnMin= 8 EnMin=  2.32810304076402     IErMin= 8 ErrMin= 2.21D-06
 ErrMax= 2.21D-06  0.00D+00 EMaxC= 1.00D-01 BMatC= 2.03D-10 BMatP= 2.65D-09
 IDIUse=1 WtCom= 1.00D+00 WtEn= 0.00D+00
 Coeff-Com:  0.252D-04-0.254D-03 0.855D-03 0.520D-03-0.251D-01 0.172D+00
 Coeff-Com: -0.706D+00 0.156D+01
 Coeff:      0.252D-04-0.254D-03 0.855D-03 0.520D-03-0.251D-01 0.172D+00
 Coeff:     -0.706D+00 0.156D+01
 Gap=     0.402 Goal=   None    Shift=    0.000
 RMSDP=3.17D-06 MaxDP=2.64D-05 DE=-2.10D-08 OVMax= 3.46D-05

 Cycle   9  Pass 1  IDiag  3:
 E=  2.32810303916907     Delta-E=       -0.000000001595 Rises=F Damp=F
 DIIS: error= 4.17D-07 at cycle   9 NSaved=   9.
 NSaved= 9 IEnMin= 9 EnMin=  2.32810303916907     IErMin= 9 ErrMin= 4.17D-07
 ErrMax= 4.17D-07  0.00D+00 EMaxC= 1.00D-01 BMatC= 8.51D-12 BMatP= 2.03D-10
 IDIUse=1 WtCom= 1.00D+00 WtEn= 0.00D+00
 Coeff-Com: -0.322D-05 0.464D-04-0.188D-03-0.744D-04 0.670D-02-0.519D-01
 Coeff-Com:  0.247D+00-0.692D+00 0.149D+01
 Coeff:     -0.322D-05 0.464D-04-0.188D-03-0.744D-04 0.670D-02-0.519D-01
 Coeff:      0.247D+00-0.692D+00 0.149D+01
 Gap=     0.402 Goal=   None    Shift=    0.000
 RMSDP=5.30D-07 MaxDP=5.06D-06 DE=-1.59D-09 OVMax= 5.71D-06

 Cycle  10  Pass 1  IDiag  3:
 E=  2.32810303911457     Delta-E=       -0.000000000054 Rises=F Damp=F
 DIIS: error= 6.96D-08 at cycle  10 NSaved=  10.
 NSaved=10 IEnMin=10 EnMin=  2.32810303911457     IErMin=10 ErrMin= 6.96D-08
 ErrMax= 6.96D-08  0.00D+00 EMaxC= 1.00D-01 BMatC= 4.33D-13 BMatP= 8.51D-12
 IDIUse=1 WtCom= 1.00D+00 WtEn= 0.00D+00
 Coeff-Com:  0.805D-06-0.138D-04 0.687D-04-0.413D-04-0.192D-02 0.165D-01
 Coeff-Com: -0.841D-01 0.256D+00-0.708D+00 0.152D+01
 Coeff:      0.805D-06-0.138D-04 0.687D-04-0.413D-04-0.192D-02 0.165D-01
 Coeff:     -0.841D-01 0.256D+00-0.708D+00 0.152D+01
 Gap=     0.402 Goal=   None    Shift=    0.000
 RMSDP=1.15D-07 MaxDP=9.13D-07 DE=-5.45D-11 OVMax= 9.84D-07

 Cycle  11  Pass 1  IDiag  3:
 E=  2.32810303911207     Delta-E=       -0.000000000003 Rises=F Damp=F
 DIIS: error= 1.37D-08 at cycle  11 NSaved=  11.
 NSaved=11 IEnMin=11 EnMin=  2.32810303911207     IErMin=11 ErrMin= 1.37D-08
 ErrMax= 1.37D-08  0.00D+00 EMaxC= 1.00D-01 BMatC= 1.57D-14 BMatP= 4.33D-13
 IDIUse=1 WtCom= 1.00D+00 WtEn= 0.00D+00
 Coeff-Com: -0.130D-06 0.431D-05-0.257D-04 0.214D-04 0.740D-03-0.657D-02
 Coeff-Com:  0.339D-01-0.104D+00 0.298D+00-0.759D+00 0.154D+01
 Coeff:     -0.130D-06 0.431D-05-0.257D-04 0.214D-04 0.740D-03-0.657D-02
 Coeff:      0.339D-01-0.104D+00 0.298D+00-0.759D+00 0.154D+01
 Gap=     0.402 Goal=   None    Shift=    0.000
 RMSDP=2.25D-08 MaxDP=1.33D-07 DE=-2.50D-12 OVMax= 1.56D-07

 Cycle  12  Pass 1  IDiag  3:
 E=  2.32810303911188     Delta-E=        0.000000000000 Rises=F Damp=F
 DIIS: error= 2.30D-09 at cycle  12 NSaved=  12.
 NSaved=12 IEnMin=12 EnMin=  2.32810303911188     IErMin=12 ErrMin= 2.30D-09
 ErrMax= 2.30D-09  0.00D+00 EMaxC= 1.00D-01 BMatC= 4.04D-16 BMatP= 1.57D-14
 IDIUse=1 WtCom= 1.00D+00 WtEn= 0.00D+00
 Coeff-Com:  0.458D-07-0.160D-05 0.969D-05-0.859D-05-0.275D-03 0.244D-02
 Coeff-Com: -0.127D-01 0.392D-01-0.113D+00 0.297D+00-0.696D+00 0.148D+01
 Coeff:      0.458D-07-0.160D-05 0.969D-05-0.859D-05-0.275D-03 0.244D-02
 Coeff:     -0.127D-01 0.392D-01-0.113D+00 0.297D+00-0.696D+00 0.148D+01
 Gap=     0.402 Goal=   None    Shift=    0.000
 RMSDP=3.15D-09 MaxDP=1.68D-08 DE=-1.85D-13 OVMax= 1.96D-08

 Cycle  13  Pass 2  IDiag  1:
 SCF Done:  E(RAM1) =   2.32810303911     A.U. after   13 cycles
            NFock= 12  Conv=0.32D-08     -V/T= 1.1434
 KE=-1.623869058062D+01 PE=-1.704170706024D+02 EE= 8.294181824820D+01
 Leave Link  502 at Thu Dec 24 08:56:30 2015, MaxMem=    33554432 cpu:         0.0
 (Enter /home/Applications/g09/g09/l601.exe)
 Copying SCF densities to generalized density rwf, IOpCl= 0 IROHF=0.

 **********************************************************************

            Population analysis using the SCF density.

 **********************************************************************

 Orbital symmetries:
       Occupied  (A) (A) (A) (A) (A) (A) (A) (A) (A) (A) (A) (A)
                 (A)
       Virtual   (A) (A) (A) (A) (A) (A) (A) (A) (A) (A) (A)
 The electronic state is 1-A.
 Alpha  occ. eigenvalues --   -1.56845  -1.30604  -1.04127  -1.00617  -0.82874
 Alpha  occ. eigenvalues --   -0.81993  -0.75927  -0.61588  -0.59992  -0.56715
 Alpha  occ. eigenvalues --   -0.51356  -0.39042  -0.36925
 Alpha virt. eigenvalues --    0.03217   0.05082   0.08302   0.13622   0.18329
 Alpha virt. eigenvalues --    0.19055   0.20530   0.24149   0.30102   0.33727
 Alpha virt. eigenvalues --    0.36889
          Condensed to atoms (all electrons):
               1          2          3          4          5          6
     1  C    4.030564   0.000000   0.000000   0.000000   0.000000   0.000000
     2  C    0.000000   3.732103   0.000000   0.000000   0.000000   0.000000
     3  O    0.000000   0.000000   6.187894   0.000000   0.000000   0.000000
     4  C    0.000000   0.000000   0.000000   3.903095   0.000000   0.000000
     5  C    0.000000   0.000000   0.000000   0.000000   4.211658   0.000000
     6  H    0.000000   0.000000   0.000000   0.000000   0.000000   0.842188
     7  H    0.000000   0.000000   0.000000   0.000000   0.000000   0.000000
     8  H    0.000000   0.000000   0.000000   0.000000   0.000000   0.000000
     9  H    0.000000   0.000000   0.000000   0.000000   0.000000   0.000000
               7          8          9
     1  C    0.000000   0.000000   0.000000
     2  C    0.000000   0.000000   0.000000
     3  O    0.000000   0.000000   0.000000
     4  C    0.000000   0.000000   0.000000
     5  C    0.000000   0.000000   0.000000
     6  H    0.000000   0.000000   0.000000
     7  H    0.950059   0.000000   0.000000
     8  H    0.000000   1.037232   0.000000
     9  H    0.000000   0.000000   1.105208
 Mulliken charges:
               1
     1  C   -0.030564
     2  C    0.267897
     3  O   -0.187894
     4  C    0.096905
     5  C   -0.211658
     6  H    0.157812
     7  H    0.049941
     8  H   -0.037232
     9  H   -0.105208
 Sum of Mulliken charges =   0.00000
 Mulliken charges with hydrogens summed into heavy atoms:
               1
     1  C   -0.135772
     2  C    0.230666
     3  O   -0.187894
     4  C    0.146847
     5  C   -0.053847
 Charge=              0.0000 electrons
 Dipole moment (field-independent basis, Debye):
    X=              1.0252    Y=              0.0553    Z=              0.4543  Tot=              1.1227
 N-N= 1.060420459740D+02 E-N=-1.704170705994D+02  KE=-1.623869058062D+01
 Leave Link  601 at Thu Dec 24 08:56:30 2015, MaxMem=    33554432 cpu:         0.0
 (Enter /home/Applications/g09/g09/l701.exe)
 Compute integral first derivatives.
 ... and contract with generalized density number  0.
 Leave Link  701 at Thu Dec 24 08:56:30 2015, MaxMem=    33554432 cpu:         0.0
 (Enter /home/Applications/g09/g09/l702.exe)
 L702 exits ... SP integral derivatives will be done elsewhere.
 Leave Link  702 at Thu Dec 24 08:56:30 2015, MaxMem=    33554432 cpu:         0.0
 (Enter /home/Applications/g09/g09/l703.exe)
 Compute integral first derivatives, UseDBF=F ICtDFT=           0.
 Integral derivatives from FoFJK, PRISM(SPDF).
 Calling FoFJK, ICntrl=      2127 FMM=F ISym2X=0 I1Cent= 0 IOpClX= 0 NMat=1 NMatS=1 NMatT=0.
 FoFJK:  IHMeth= 8 ICntrl=    2127 DoSepK=F KAlg= 0 I1Cent=   0 FoldK=F
 IRaf=         0 NMat=   1 IRICut=       1 DoRegI=T DoRafI=F ISym2E= 0.
 FoFCou: FMM=F IPFlag=           0 FMFlag=      100000 FMFlg1=         800
         NFxFlg=           0 DoJE=F BraDBF=F KetDBF=F FulRan=T
         wScrn=  0.000000 ICntrl=    2127 IOpCl=  0 I1Cent=           0 NGrid=           0
         NMat0=    1 NMatS0=      1 NMatT0=    0 NMatD0=    1 NMtDS0=    0 NMtDT0=    0
 Symmetry not used in FoFCou.
 Leave Link  703 at Thu Dec 24 08:56:30 2015, MaxMem=    33554432 cpu:         0.0
 (Enter /home/Applications/g09/g09/l716.exe)
 Dipole        = 4.03339324D-01 2.17753549D-02 1.78719410D-01
 ***** Axes restored to original set *****
 -------------------------------------------------------------------
 Center     Atomic                   Forces (Hartrees/Bohr)
 Number     Number              X              Y              Z
 -------------------------------------------------------------------
      1        6          -0.378300761    0.151691271   -0.070891535
      2        6           0.097986434    0.015398644    0.092716262
      3        8           0.067668616    0.066572452   -0.036368921
      4        6          -2.078415880    0.041736758    0.056346197
      5        6           2.028682058    0.049806903   -0.036152717
      6        1          -0.020519722    0.002448307   -0.003712439
      7        1           0.031053368   -0.086683586    0.010675739
      8        1           0.029127161   -0.049417952   -0.022199006
      9        1           0.222718727   -0.191552797    0.009586420
 -------------------------------------------------------------------
 Cartesian Forces:  Max     2.078415880 RMS     0.569053414
 Leave Link  716 at Thu Dec 24 08:56:30 2015, MaxMem=    33554432 cpu:         0.0
 (Enter /home/Applications/g09/g09/l103.exe)

 GradGradGradGradGradGradGradGradGradGradGradGradGradGradGradGradGradGrad
 Berny optimization.
 FormGI is forming the generalized inverse of G from B-inverse, IUseBI=4.
 Internal  Forces:  Max     1.809155706 RMS     0.313771489
 Search for a local minimum.
 Step number   1 out of a maximum of   48
 All quantities printed in internal units (Hartrees-Bohrs-Radians)
 RMS Force = .31377D+00 SwitMx=.10000D-02 MixMth= 1
 Mixed Optimization -- RFO/linear search
 Second derivative matrix not updated -- first step.
 ITU=  0
     Eigenvalues ---    0.00237   0.00941   0.01096   0.04473   0.05909
     Eigenvalues ---    0.07981   0.09935   0.13714   0.15734   0.15881
     Eigenvalues ---    0.15983   0.16566   0.21791   0.22241   0.24259
     Eigenvalues ---    0.27639   0.28523   0.35109   0.50560   0.81922
     Eigenvalues ---    7.89589
 RFO step:  Lambda=-5.64132067D-01 EMin= 2.37190496D-03
 Linear search not attempted -- first point.
 Maximum step size (   0.300) exceeded in Quadratic search.
    -- Step size scaled by   0.689
 Iteration  1 RMS(Cart)=  0.04378513 RMS(Int)=  0.00166333
 Iteration  2 RMS(Cart)=  0.00135770 RMS(Int)=  0.00040889
 Iteration  3 RMS(Cart)=  0.00000290 RMS(Int)=  0.00040885
 Iteration  4 RMS(Cart)=  0.00000000 RMS(Int)=  0.00040885
 ITry= 1 IFail=0 DXMaxC= 9.98D-02 DCOld= 1.00D+10 DXMaxT= 3.00D-01 DXLimC= 3.00D+00 Rises=F
 Variable       Old X    -DE/DX   Delta X   Delta X   Delta X     New X
                                 (Linear)    (Quad)   (Total)
    R1        3.00082   0.02108   0.00000  -0.11345  -0.11393   2.88689
    R2        3.29628  -0.01526   0.00000  -0.00448  -0.00497   3.29131
    R3        1.63595   0.29104   0.00000   0.14493   0.14493   1.78088
    R4        2.56642   0.13741   0.00000   0.03143   0.03168   2.59810
    R5        2.05497   0.01767   0.00000   0.01330   0.01330   2.06827
    R6        2.89295  -0.18167   0.00000  -0.03962  -0.03900   2.85394
    R7        1.67014   1.80916   0.00000   0.14728   0.14760   1.81774
    R8        2.94597  -0.09140   0.00000  -0.09490  -0.09490   2.85107
    R9        2.19635  -0.01706   0.00000  -0.01398  -0.01398   2.18237
    A1        1.62250   0.22512   0.00000   0.04794   0.04679   1.66929
    A2        1.99367  -0.07488   0.00000   0.00802   0.00863   2.00230
    A3        2.66451  -0.14994   0.00000  -0.05570  -0.05514   2.60937
    A4        1.93330   0.19857   0.00000   0.00074   0.00059   1.93389
    A5        2.53347  -0.11913   0.00000  -0.03696  -0.03702   2.49645
    A6        1.68640  -0.08108   0.00000   0.04533   0.04582   1.73221
    A7        1.63348   0.04162   0.00000   0.04010   0.04102   1.67450
    A8        2.42505  -0.28675   0.00000  -0.08495  -0.08460   2.34045
    A9        1.86470   0.12168   0.00000   0.02178   0.02159   1.88629
   A10        1.99000   0.16292   0.00000   0.06274   0.06257   2.05257
   A11        1.73310  -0.16353   0.00000   0.00693   0.00661   1.73971
   A12        1.81875   0.09321   0.00000   0.00791   0.00805   1.82680
   A13        2.72609   0.07264   0.00000  -0.01426  -0.01410   2.71199
    D1       -0.35637  -0.02652   0.00000   0.02421   0.02445  -0.33191
    D2       -2.79159  -0.05178   0.00000  -0.02379  -0.02318  -2.81477
    D3        2.83554  -0.02277   0.00000   0.02452   0.02410   2.85963
    D4        0.40031  -0.04803   0.00000  -0.02348  -0.02353   0.37678
    D5        0.21120  -0.04518   0.00000  -0.01297  -0.01313   0.19807
    D6       -2.99675  -0.02499   0.00000  -0.01053  -0.01063  -3.00737
    D7       -3.03043  -0.02692   0.00000  -0.00241  -0.00259  -3.03302
    D8        0.04480  -0.00673   0.00000   0.00003  -0.00009   0.04472
    D9        0.33444   0.00428   0.00000  -0.01529  -0.01578   0.31866
   D10        3.09344  -0.04889   0.00000  -0.01613  -0.01535   3.07809
   D11       -0.22762   0.04890   0.00000   0.01854   0.01831  -0.20932
   D12        2.81402   0.03584   0.00000   0.01815   0.01798   2.83200
   D13       -0.01294   0.01189   0.00000   0.00626   0.00584  -0.00709
   D14       -2.99460  -0.01436   0.00000  -0.00519  -0.00533  -2.99993
   D15       -3.04978   0.02934   0.00000   0.00892   0.00869  -3.04109
   D16        0.25174   0.00309   0.00000  -0.00254  -0.00248   0.24926
         Item               Value     Threshold  Converged?
 Maximum Force            1.809156     0.000450     NO 
 RMS     Force            0.313771     0.000300     NO 
 Maximum Displacement     0.099812     0.001800     NO 
 RMS     Displacement     0.043714     0.001200     NO 
 Predicted change in Energy=-2.807712D-01
 Lowest energy point so far.  Saving SCF results.
 GradGradGradGradGradGradGradGradGradGradGradGradGradGradGradGradGradGrad

 Leave Link  103 at Thu Dec 24 08:56:30 2015, MaxMem=    33554432 cpu:         0.0
 (Enter /home/Applications/g09/g09/l202.exe)
                          Input orientation:                          
 ---------------------------------------------------------------------
 Center     Atomic      Atomic             Coordinates (Angstroms)
 Number     Number       Type             X           Y           Z
 ---------------------------------------------------------------------
      1          6           0        1.151357   -0.773462    0.105413
      2          6           0       -0.284673   -1.216565   -0.168936
      3          8           0       -1.173747   -0.218999    0.154545
      4          6           0       -0.159635    0.900110    0.155111
      5          6           0        0.801517    0.932471    0.135013
      6          1           0        1.836265    1.442256    0.190852
      7          1           0       -0.905398    2.207708    0.053813
      8          1           0       -0.959315   -2.076874   -0.117724
      9          1           0        1.781179   -1.473883    0.134715
 ---------------------------------------------------------------------
                    Distance matrix (angstroms):
                    1          2          3          4          5
     1  C    0.000000
     2  C    1.527674   0.000000
     3  O    2.390805   1.374857   0.000000
     4  C    2.126503   2.144984   1.510241   0.000000
     5  C    1.741687   2.427046   2.286467   0.961906   0.000000
     6  H    2.320734   3.420110   3.438205   2.068530   1.154861
     7  H    3.622192   3.487200   2.443576   1.508719   2.132224
     8  H    2.490704   1.094484   1.889923   3.094570   3.495792
     9  H    0.942403   2.103844   3.210407   3.066434   2.598129
                    6          7          8          9
     6  H    0.000000
     7  H    2.849809   0.000000
     8  H    4.504970   4.288353   0.000000
     9  H    2.917199   4.558327   2.817380   0.000000
 Stoichiometry    C4H4O
 Framework group  C1[X(C4H4O)]
 Deg. of freedom    21
 Full point group                 C1      NOp   1
 RotChk:  IX=0 Diff= 1.38D-01
 Largest Abelian subgroup         C1      NOp   1
 Largest concise Abelian subgroup C1      NOp   1
                         Standard orientation:                         
 ---------------------------------------------------------------------
 Center     Atomic      Atomic             Coordinates (Angstroms)
 Number     Number       Type             X           Y           Z
 ---------------------------------------------------------------------
      1          6           0       -0.188353    1.299898   -0.063357
      2          6           0       -1.192618    0.170201    0.158064
      3          8           0       -0.618364   -1.051600   -0.102059
      4          6           0        0.811753   -0.575866   -0.005767
      5          6           0        1.228029    0.290584    0.029497
      6          1           0        2.114944    1.030225    0.025575
      7          1           0        1.695371   -1.784147    0.182670
      8          1           0       -2.245821   -0.100445    0.033940
      9          1           0       -0.570453    2.158266   -0.136337
 ---------------------------------------------------------------------
 Rotational constants (GHZ):      9.6213138      7.9836666      4.4065545
 Leave Link  202 at Thu Dec 24 08:56:30 2015, MaxMem=    33554432 cpu:         0.0
 (Enter /home/Applications/g09/g09/l301.exe)

 Semi-emprical parameters in input format:
 Method=8 CoreType=1 PeptideFC=0.0153880000 RIJScale=0.5653070000
 ****
 H       
 PQN=1 NValence=1 F0ss=0.4987980000 ZetaOverlap=1.0885220000 U=-0.4055440000
 Beta=-0.3100140000 CoreKO=1.0195490000 KON=0,0,0,1.1485810000 KON=1,0,1,1.1849500000
 KON=0,1,1,1.1483140000 KON=2,1,1,1.1713980000 EISol=-0.4188110042 EHeat=0.0830298228
 Alpha=1.5460150000
 GCore=0.0106860000,2.0665340000,2.3965250000
 GCore=0.0002770000,1.7874610000,3.9605580000
 GCore=-0.0011350000,0.4389190000,4.4100760000
 ****
 C       
 PQN=2,2 NValence=4 F0ss=0.6596530000 F0sp=0.3708350000 F0pp=0.3962320000 F2pp=0.1752980000
 G1sp=0.1933380000
 ZetaOverlap=1.8455320000,1.3462190000
 U=-1.4750250000,-1.4354660000
 Beta=-0.5562170000,-0.3475400000 DDN=0,1,0.8746580000 DDN=1,1,0.7619180000
 CoreKO=0.9166070000 KON=0,0,0,0.9169750000 KON=1,0,1,1.0634150000 KON=0,1,1,1.0485010000
 KON=2,1,1,0.5046550000 EISol=-4.4398989268 EHeat=0.2723305520 Alpha=1.3107700000
 DipHyp=1.7492153603
 GCore=0.0007580000,1.3630410000,2.7411890000
 GCore=0.0034510000,1.3650460000,2.5948270000
 GCore=-0.0017750000,1.3310390000,4.0879490000
 GCore=-0.0000860000,1.2035490000,5.6323400000
 ****
 O       
 PQN=2,2 NValence=6 F0ss=0.5213290000 F0sp=0.5306490000 F0pp=0.4844810000 F2pp=0.4398240000
 G1sp=0.2746920000
 ZetaOverlap=2.6188660000,2.4182960000
 U=-3.3475430000,-2.8237600000
 Beta=-1.0917740000,-1.4749000000 DDN=0,1,0.4337540000 DDN=1,1,0.4720320000
 CoreKO=0.9109280000 KON=0,0,0,0.9733340000 KON=1,0,1,0.5669380000 KON=0,1,1,0.9686250000
 KON=2,1,1,0.5820820000 EISol=-11.6164441184 EHeat=0.0949133088 Alpha=2.2756520000
 DipHyp=0.8674580915
 GCore=0.0167260000,1.1747010000,1.7633480000
 GCore=0.0052970000,1.8889120000,2.4589150000
 ****
 
 Standard basis: VSTO-6G (5D, 7F)
 Ernie: Thresh=  0.10000D-02 Tol=  0.10000D-05 Strict=F.
  NNHCO=     0 NNPyr=     0 NCTC=     0               EPep=         0.000000000
    EC=        69.811031412  ECS=         2.641194324   EG=         0.348288135
   EHC=         0.000000000  EAt=       -31.051283842  AtH=         1.516354808
 EPDDG=         0.000000000  ECC=        72.800513871 EAtT=        32.567638650
 There are    24 symmetry adapted cartesian basis functions of A   symmetry.
 There are    24 symmetry adapted basis functions of A   symmetry.
    24 basis functions,   144 primitive gaussians,    24 cartesian basis functions
    13 alpha electrons       13 beta electrons
       nuclear repulsion energy       105.3681525215 Hartrees.
 IExCor=    0 DFT=F Ex=HF Corr=None ExCW=0 ScaHFX=  1.000000
 ScaDFX=  1.000000  1.000000  1.000000  1.000000 ScalE2=  1.000000  1.000000
 IRadAn=      0 IRanWt=     -1 IRanGd=            0 ICorTp=0 IEmpDi=  4
 Integral buffers will be    131072 words long.
 Regular integral format.
 Two-electron integral symmetry is turned off.
 Leave Link  301 at Thu Dec 24 08:56:30 2015, MaxMem=    33554432 cpu:         0.0
 (Enter /home/Applications/g09/g09/l302.exe)
 Do NDO integrals.
 NPDir=0 NMtPBC=     1 NCelOv=     1 NCel=       1 NClECP=     1 NCelD=      1
         NCelK=      1 NCelE2=     1 NClLst=     1 CellRange=     0.0.
 One-electron integrals computed using PRISM.
 NBasis=    24 RedAO= F EigKep=  0.00D+00  NBF=    24
 NBsUse=    24 1.00D-04 EigRej=  0.00D+00 NBFU=    24
 Leave Link  302 at Thu Dec 24 08:56:30 2015, MaxMem=    33554432 cpu:         0.0
 (Enter /home/Applications/g09/g09/l303.exe)
 DipDrv:  MaxL=1.
 Leave Link  303 at Thu Dec 24 08:56:30 2015, MaxMem=    33554432 cpu:         0.0
 (Enter /home/Applications/g09/g09/l401.exe)
 Initial guess from the checkpoint file:  "/home/Applications/g09/scratch/Gau-30401.chk"
 B after Tr=     0.000000    0.000000    0.000000
         Rot=    0.998707    0.000967   -0.000144   -0.050832 Ang=   5.83 deg.
 Guess basis will be translated and rotated to current coordinates.
 JPrj=0 DoOrth=T DoCkMO=T.
 Leave Link  401 at Thu Dec 24 08:56:30 2015, MaxMem=    33554432 cpu:         0.0
 (Enter /home/Applications/g09/g09/l502.exe)
 Closed shell SCF:
 Using DIIS extrapolation, IDIIS=  1040.
 Overlap will be assumed to be unity.
 Two-electron integral symmetry not used.
 Keep J ints in memory in canonical form, NReq=888082.
 IVT=       79475 IEndB=       79475 NGot=    33554432 MDV=    33473473
 LenX=    33473473 LenY=    33472456
 Requested convergence on RMS density matrix=1.00D-08 within 128 cycles.
 Requested convergence on MAX density matrix=1.00D-06.
 Requested convergence on             energy=1.00D-06.
 No special actions if energy rises.
 FoFCou: FMM=F IPFlag=           0 FMFlag=           0 FMFlg1=           0
         NFxFlg=           0 DoJE=F BraDBF=F KetDBF=F FulRan=T
         wScrn=  0.000000 ICntrl=     600 IOpCl=  2 I1Cent=           0 NGrid=           0
         NMat0=    1 NMatS0=     54 NMatT0=    0 NMatD0=    1 NMtDS0=    0 NMtDT0=    0
 Symmetry not used in FoFCou.

 Cycle   1  Pass 1  IDiag  1:
 E=  2.01594110568904    
 DIIS: error= 1.56D-02 at cycle   1 NSaved=   1.
 NSaved= 1 IEnMin= 1 EnMin=  2.01594110568904     IErMin= 1 ErrMin= 1.56D-02
 ErrMax= 1.56D-02  0.00D+00 EMaxC= 1.00D-01 BMatC= 5.33D-03 BMatP= 5.33D-03
 IDIUse=3 WtCom= 8.44D-01 WtEn= 1.56D-01
 Coeff-Com:  0.100D+01
 Coeff-En:   0.100D+01
 Coeff:      0.100D+01
 GapD=    2.000 DampG=2.000 DampE=0.500 DampFc=1.0000 IDamp=-1.
 RMSDP=3.96D-03 MaxDP=2.85D-02              OVMax= 0.00D+00

 Cycle   2  Pass 1  IDiag  3:
 E=  2.00417127519783     Delta-E=       -0.011769830491 Rises=F Damp=F
 DIIS: error= 3.66D-03 at cycle   2 NSaved=   2.
 NSaved= 2 IEnMin= 2 EnMin=  2.00417127519783     IErMin= 2 ErrMin= 3.66D-03
 ErrMax= 3.66D-03  0.00D+00 EMaxC= 1.00D-01 BMatC= 3.54D-04 BMatP= 5.33D-03
 IDIUse=3 WtCom= 9.63D-01 WtEn= 3.66D-02
 Coeff-Com: -0.310D+00 0.131D+01
 Coeff-En:   0.000D+00 0.100D+01
 Coeff:     -0.299D+00 0.130D+01
 Gap=     0.423 Goal=   None    Shift=    0.000
 RMSDP=1.63D-03 MaxDP=1.02D-02 DE=-1.18D-02 OVMax= 8.21D-03

 Cycle   3  Pass 1  IDiag  3:
 E=  2.00307111560377     Delta-E=       -0.001100159594 Rises=F Damp=F
 DIIS: error= 3.17D-04 at cycle   3 NSaved=   3.
 NSaved= 3 IEnMin= 3 EnMin=  2.00307111560377     IErMin= 3 ErrMin= 3.17D-04
 ErrMax= 3.17D-04  0.00D+00 EMaxC= 1.00D-01 BMatC= 7.62D-06 BMatP= 3.54D-04
 IDIUse=3 WtCom= 9.97D-01 WtEn= 3.17D-03
 Coeff-Com:  0.100D+00-0.493D+00 0.139D+01
 Coeff-En:   0.000D+00 0.000D+00 0.100D+01
 Coeff:      0.100D+00-0.492D+00 0.139D+01
 Gap=     0.423 Goal=   None    Shift=    0.000
 RMSDP=3.94D-04 MaxDP=2.44D-03 DE=-1.10D-03 OVMax= 2.88D-03

 Cycle   4  Pass 1  IDiag  3:
 E=  2.00302850677227     Delta-E=       -0.000042608832 Rises=F Damp=F
 DIIS: error= 8.85D-05 at cycle   4 NSaved=   4.
 NSaved= 4 IEnMin= 4 EnMin=  2.00302850677227     IErMin= 4 ErrMin= 8.85D-05
 ErrMax= 8.85D-05  0.00D+00 EMaxC= 1.00D-01 BMatC= 5.00D-07 BMatP= 7.62D-06
 IDIUse=1 WtCom= 1.00D+00 WtEn= 0.00D+00
 Coeff-Com: -0.318D-01 0.166D+00-0.626D+00 0.149D+01
 Coeff:     -0.318D-01 0.166D+00-0.626D+00 0.149D+01
 Gap=     0.424 Goal=   None    Shift=    0.000
 RMSDP=1.20D-04 MaxDP=7.77D-04 DE=-4.26D-05 OVMax= 1.08D-03

 Cycle   5  Pass 1  IDiag  3:
 E=  2.00302521402332     Delta-E=       -0.000003292749 Rises=F Damp=F
 DIIS: error= 3.28D-05 at cycle   5 NSaved=   5.
 NSaved= 5 IEnMin= 5 EnMin=  2.00302521402332     IErMin= 5 ErrMin= 3.28D-05
 ErrMax= 3.28D-05  0.00D+00 EMaxC= 1.00D-01 BMatC= 3.27D-08 BMatP= 5.00D-07
 IDIUse=1 WtCom= 1.00D+00 WtEn= 0.00D+00
 Coeff-Com: -0.266D-03-0.201D-03 0.311D-01-0.298D+00 0.127D+01
 Coeff:     -0.266D-03-0.201D-03 0.311D-01-0.298D+00 0.127D+01
 Gap=     0.423 Goal=   None    Shift=    0.000
 RMSDP=3.12D-05 MaxDP=2.62D-04 DE=-3.29D-06 OVMax= 3.44D-04

 Cycle   6  Pass 1  IDiag  3:
 E=  2.00302498888898     Delta-E=       -0.000000225134 Rises=F Damp=F
 DIIS: error= 7.46D-06 at cycle   6 NSaved=   6.
 NSaved= 6 IEnMin= 6 EnMin=  2.00302498888898     IErMin= 6 ErrMin= 7.46D-06
 ErrMax= 7.46D-06  0.00D+00 EMaxC= 1.00D-01 BMatC= 3.43D-09 BMatP= 3.27D-08
 IDIUse=1 WtCom= 1.00D+00 WtEn= 0.00D+00
 Coeff-Com:  0.403D-02-0.203D-01 0.648D-01-0.905D-01-0.314D+00 0.136D+01
 Coeff:      0.403D-02-0.203D-01 0.648D-01-0.905D-01-0.314D+00 0.136D+01
 Gap=     0.423 Goal=   None    Shift=    0.000
 RMSDP=1.03D-05 MaxDP=5.99D-05 DE=-2.25D-07 OVMax= 9.05D-05

 Cycle   7  Pass 1  IDiag  3:
 E=  2.00302496715439     Delta-E=       -0.000000021735 Rises=F Damp=F
 DIIS: error= 1.45D-06 at cycle   7 NSaved=   7.
 NSaved= 7 IEnMin= 7 EnMin=  2.00302496715439     IErMin= 7 ErrMin= 1.45D-06
 ErrMax= 1.45D-06  0.00D+00 EMaxC= 1.00D-01 BMatC= 1.43D-10 BMatP= 3.43D-09
 IDIUse=1 WtCom= 1.00D+00 WtEn= 0.00D+00
 Coeff-Com: -0.125D-02 0.639D-02-0.219D-01 0.401D-01 0.654D-01-0.521D+00
 Coeff-Com:  0.143D+01
 Coeff:     -0.125D-02 0.639D-02-0.219D-01 0.401D-01 0.654D-01-0.521D+00
 Coeff:      0.143D+01
 Gap=     0.424 Goal=   None    Shift=    0.000
 RMSDP=2.02D-06 MaxDP=1.15D-05 DE=-2.17D-08 OVMax= 1.65D-05

 Cycle   8  Pass 1  IDiag  3:
 E=  2.00302496631379     Delta-E=       -0.000000000841 Rises=F Damp=F
 DIIS: error= 2.10D-07 at cycle   8 NSaved=   8.
 NSaved= 8 IEnMin= 8 EnMin=  2.00302496631379     IErMin= 8 ErrMin= 2.10D-07
 ErrMax= 2.10D-07  0.00D+00 EMaxC= 1.00D-01 BMatC= 4.34D-12 BMatP= 1.43D-10
 IDIUse=1 WtCom= 1.00D+00 WtEn= 0.00D+00
 Coeff-Com:  0.364D-03-0.187D-02 0.659D-02-0.130D-01-0.174D-01 0.172D+00
 Coeff-Com: -0.590D+00 0.144D+01
 Coeff:      0.364D-03-0.187D-02 0.659D-02-0.130D-01-0.174D-01 0.172D+00
 Coeff:     -0.590D+00 0.144D+01
 Gap=     0.424 Goal=   None    Shift=    0.000
 RMSDP=3.13D-07 MaxDP=1.48D-06 DE=-8.41D-10 OVMax= 3.14D-06

 Cycle   9  Pass 1  IDiag  3:
 E=  2.00302496629047     Delta-E=       -0.000000000023 Rises=F Damp=F
 DIIS: error= 5.24D-08 at cycle   9 NSaved=   9.
 NSaved= 9 IEnMin= 9 EnMin=  2.00302496629047     IErMin= 9 ErrMin= 5.24D-08
 ErrMax= 5.24D-08  0.00D+00 EMaxC= 1.00D-01 BMatC= 1.40D-13 BMatP= 4.34D-12
 IDIUse=1 WtCom= 1.00D+00 WtEn= 0.00D+00
 Coeff-Com: -0.114D-03 0.590D-03-0.211D-02 0.425D-02 0.555D-02-0.577D-01
 Coeff-Com:  0.206D+00-0.593D+00 0.144D+01
 Coeff:     -0.114D-03 0.590D-03-0.211D-02 0.425D-02 0.555D-02-0.577D-01
 Coeff:      0.206D+00-0.593D+00 0.144D+01
 Gap=     0.424 Goal=   None    Shift=    0.000
 RMSDP=5.74D-08 MaxDP=3.16D-07 DE=-2.33D-11 OVMax= 5.22D-07

 Cycle  10  Pass 1  IDiag  3:
 E=  2.00302496628947     Delta-E=       -0.000000000001 Rises=F Damp=F
 DIIS: error= 1.60D-08 at cycle  10 NSaved=  10.
 NSaved=10 IEnMin=10 EnMin=  2.00302496628947     IErMin=10 ErrMin= 1.60D-08
 ErrMax= 1.60D-08  0.00D+00 EMaxC= 1.00D-01 BMatC= 8.86D-15 BMatP= 1.40D-13
 IDIUse=1 WtCom= 1.00D+00 WtEn= 0.00D+00
 Coeff-Com:  0.210D-04-0.110D-03 0.404D-03-0.849D-03-0.122D-02 0.126D-01
 Coeff-Com: -0.467D-01 0.151D+00-0.551D+00 0.144D+01
 Coeff:      0.210D-04-0.110D-03 0.404D-03-0.849D-03-0.122D-02 0.126D-01
 Coeff:     -0.467D-01 0.151D+00-0.551D+00 0.144D+01
 Gap=     0.424 Goal=   None    Shift=    0.000
 RMSDP=1.50D-08 MaxDP=1.02D-07 DE=-9.95D-13 OVMax= 1.12D-07

 Cycle  11  Pass 1  IDiag  3:
 E=  2.00302496628936     Delta-E=        0.000000000000 Rises=F Damp=F
 DIIS: error= 3.59D-09 at cycle  11 NSaved=  11.
 NSaved=11 IEnMin=11 EnMin=  2.00302496628936     IErMin=11 ErrMin= 3.59D-09
 ErrMax= 3.59D-09  0.00D+00 EMaxC= 1.00D-01 BMatC= 5.22D-16 BMatP= 8.86D-15
 IDIUse=1 WtCom= 1.00D+00 WtEn= 0.00D+00
 Coeff-Com: -0.126D-05 0.697D-05-0.303D-04 0.773D-04 0.126D-03-0.135D-02
 Coeff-Com:  0.542D-02-0.208D-01 0.115D+00-0.538D+00 0.144D+01
 Coeff:     -0.126D-05 0.697D-05-0.303D-04 0.773D-04 0.126D-03-0.135D-02
 Coeff:      0.542D-02-0.208D-01 0.115D+00-0.538D+00 0.144D+01
 Gap=     0.424 Goal=   None    Shift=    0.000
 RMSDP=4.03D-09 MaxDP=2.91D-08 DE=-1.14D-13 OVMax= 3.13D-08

 Cycle  12  Pass 2  IDiag  1:
 SCF Done:  E(RAM1) =   2.00302496629     A.U. after   12 cycles
            NFock= 11  Conv=0.40D-08     -V/T= 1.1236
 KE=-1.620143320402D+01 PE=-1.699062951863D+02 EE= 8.274260083507D+01
 Leave Link  502 at Thu Dec 24 08:56:30 2015, MaxMem=    33554432 cpu:         0.0
 (Enter /home/Applications/g09/g09/l701.exe)
 Compute integral first derivatives.
 ... and contract with generalized density number  0.
 Leave Link  701 at Thu Dec 24 08:56:30 2015, MaxMem=    33554432 cpu:         0.0
 (Enter /home/Applications/g09/g09/l702.exe)
 L702 exits ... SP integral derivatives will be done elsewhere.
 Leave Link  702 at Thu Dec 24 08:56:30 2015, MaxMem=    33554432 cpu:         0.0
 (Enter /home/Applications/g09/g09/l703.exe)
 Compute integral first derivatives, UseDBF=F ICtDFT=           0.
 Integral derivatives from FoFJK, PRISM(SPDF).
 Calling FoFJK, ICntrl=      2127 FMM=F ISym2X=0 I1Cent= 0 IOpClX= 0 NMat=1 NMatS=1 NMatT=0.
 FoFJK:  IHMeth= 8 ICntrl=    2127 DoSepK=F KAlg= 0 I1Cent=   0 FoldK=F
 IRaf=         0 NMat=   1 IRICut=       1 DoRegI=T DoRafI=F ISym2E= 0.
 FoFCou: FMM=F IPFlag=           0 FMFlag=      100000 FMFlg1=         800
         NFxFlg=           0 DoJE=F BraDBF=F KetDBF=F FulRan=T
         wScrn=  0.000000 ICntrl=    2127 IOpCl=  0 I1Cent=           0 NGrid=           0
         NMat0=    1 NMatS0=      1 NMatT0=    0 NMatD0=    1 NMtDS0=    0 NMtDT0=    0
 Symmetry not used in FoFCou.
 Leave Link  703 at Thu Dec 24 08:56:30 2015, MaxMem=    33554432 cpu:         0.0
 (Enter /home/Applications/g09/g09/l716.exe)
 Dipole        = 3.58626012D-01 7.01106545D-02 1.63914299D-01
 ***** Axes restored to original set *****
 -------------------------------------------------------------------
 Center     Atomic                   Forces (Hartrees/Bohr)
 Number     Number              X              Y              Z
 -------------------------------------------------------------------
      1        6          -0.284179365    0.076428921   -0.062145130
      2        6           0.089934777    0.024112658    0.092849008
      3        8           0.065360651    0.057344761   -0.037580235
      4        6          -1.404220518    0.131813239    0.027147842
      5        6           1.357404707   -0.075424741   -0.012801572
      6        1          -0.025863779    0.003971129   -0.003668410
      7        1           0.037044797   -0.089060083    0.011391039
      8        1           0.028098838   -0.033851241   -0.020111128
      9        1           0.136419891   -0.095334644    0.004918585
 -------------------------------------------------------------------
 Cartesian Forces:  Max     1.404220518 RMS     0.384672399
 Leave Link  716 at Thu Dec 24 08:56:30 2015, MaxMem=    33554432 cpu:         0.0
 (Enter /home/Applications/g09/g09/l103.exe)

 GradGradGradGradGradGradGradGradGradGradGradGradGradGradGradGradGradGrad
 Berny optimization.
 Using GEDIIS/GDIIS optimizer.
 FormGI is forming the generalized inverse of G from B-inverse, IUseBI=4.
 Internal  Forces:  Max     1.194641938 RMS     0.207791787
 Search for a local minimum.
 Step number   2 out of a maximum of   48
 All quantities printed in internal units (Hartrees-Bohrs-Radians)
 RMS Force = .20779D+00 SwitMx=.10000D-02 MixMth= 1
 Mixed Optimization -- RFO/linear search
 Update second derivatives using D2CorX and points    1    2
 DE= -3.25D-01 DEPred=-2.81D-01 R= 1.16D+00
 TightC=F SS=  1.41D+00  RLast= 3.06D-01 DXNew= 5.0454D-01 9.1905D-01
 Trust test= 1.16D+00 RLast= 3.06D-01 DXMaxT set to 5.05D-01
 ITU=  1  0
 Use linear search instead of GDIIS.
 Linear search step of   0.600 exceeds DXMaxT=   0.505 but not scaled.
 Quartic linear search produced a step of  2.00000.
 Iteration  1 RMS(Cart)=  0.07248010 RMS(Int)=  0.02063723
 Iteration  2 RMS(Cart)=  0.02083771 RMS(Int)=  0.00241541
 Iteration  3 RMS(Cart)=  0.00010408 RMS(Int)=  0.00241225
 Iteration  4 RMS(Cart)=  0.00000016 RMS(Int)=  0.00241225
 ITry= 1 IFail=0 DXMaxC= 2.05D-01 DCOld= 1.00D+10 DXMaxT= 5.05D-01 DXLimC= 3.00D+00 Rises=F
 Variable       Old X    -DE/DX   Delta X   Delta X   Delta X     New X
                                 (Linear)    (Quad)   (Total)
    R1        2.88689  -0.03202  -0.22786   0.00000  -0.23062   2.65626
    R2        3.29131  -0.03506  -0.00994   0.00000  -0.01303   3.27828
    R3        1.78088   0.16218   0.28986   0.00000   0.28986   2.07075
    R4        2.59810   0.09187   0.06336   0.00000   0.06490   2.66300
    R5        2.06827   0.00835   0.02660   0.00000   0.02660   2.09487
    R6        2.85394  -0.12912  -0.07801   0.00000  -0.07434   2.77960
    R7        1.81774   1.19464   0.29520   0.00000   0.29671   2.11445
    R8        2.85107  -0.09626  -0.18980   0.00000  -0.18980   2.66127
    R9        2.18237  -0.02160  -0.02797   0.00000  -0.02797   2.15440
    A1        1.66929   0.14280   0.09359   0.00000   0.08702   1.75631
    A2        2.00230  -0.03566   0.01726   0.00000   0.02071   2.02301
    A3        2.60937  -0.10688  -0.11027   0.00000  -0.10705   2.50232
    A4        1.93389   0.13538   0.00118   0.00000  -0.00017   1.93372
    A5        2.49645  -0.08660  -0.07404   0.00000  -0.07420   2.42225
    A6        1.73221  -0.04466   0.09164   0.00000   0.09423   1.82644
    A7        1.67450   0.04072   0.08204   0.00000   0.08757   1.76208
    A8        2.34045  -0.20538  -0.16920   0.00000  -0.16664   2.17381
    A9        1.88629   0.08580   0.04318   0.00000   0.04185   1.92814
   A10        2.05257   0.11802   0.12514   0.00000   0.12392   2.17650
   A11        1.73971  -0.10208   0.01322   0.00000   0.01089   1.75059
   A12        1.82680   0.06591   0.01609   0.00000   0.01713   1.84392
   A13        2.71199   0.03756  -0.02820   0.00000  -0.02702   2.68497
    D1       -0.33191  -0.00766   0.04891   0.00000   0.04992  -0.28199
    D2       -2.81477  -0.03747  -0.04636   0.00000  -0.04283  -2.85760
    D3        2.85963  -0.00610   0.04819   0.00000   0.04562   2.90526
    D4        0.37678  -0.03591  -0.04707   0.00000  -0.04712   0.32965
    D5        0.19807  -0.03040  -0.02626   0.00000  -0.02691   0.17116
    D6       -3.00737  -0.01830  -0.02125   0.00000  -0.02161  -3.02898
    D7       -3.03302  -0.01837  -0.00519   0.00000  -0.00628  -3.03930
    D8        0.04472  -0.00627  -0.00018   0.00000  -0.00098   0.04374
    D9        0.31866  -0.00174  -0.03156   0.00000  -0.03456   0.28410
   D10        3.07809  -0.02959  -0.03069   0.00000  -0.02625   3.05184
   D11       -0.20932   0.03561   0.03661   0.00000   0.03516  -0.17416
   D12        2.83200   0.02710   0.03596   0.00000   0.03498   2.86699
   D13       -0.00709   0.00688   0.01169   0.00000   0.00910   0.00200
   D14       -2.99993  -0.01179  -0.01066   0.00000  -0.01151  -3.01144
   D15       -3.04109   0.01966   0.01738   0.00000   0.01603  -3.02506
   D16        0.24926   0.00100  -0.00496   0.00000  -0.00458   0.24468
         Item               Value     Threshold  Converged?
 Maximum Force            1.194642     0.000450     NO 
 RMS     Force            0.207792     0.000300     NO 
 Maximum Displacement     0.205120     0.001800     NO 
 RMS     Displacement     0.086992     0.001200     NO 
 Predicted change in Energy=-2.883545D-01
 Lowest energy point so far.  Saving SCF results.
 GradGradGradGradGradGradGradGradGradGradGradGradGradGradGradGradGradGrad

 Leave Link  103 at Thu Dec 24 08:56:30 2015, MaxMem=    33554432 cpu:         0.0
 (Enter /home/Applications/g09/g09/l202.exe)
                          Input orientation:                          
 ---------------------------------------------------------------------
 Center     Atomic      Atomic             Coordinates (Angstroms)
 Number     Number       Type             X           Y           Z
 ---------------------------------------------------------------------
      1          6           0        1.063294   -0.778288    0.084182
      2          6           0       -0.258923   -1.192648   -0.152153
      3          8           0       -1.166775   -0.151291    0.125740
      4          6           0       -0.262647    1.008655    0.150811
      5          6           0        0.854279    0.942999    0.138830
      6          1           0        1.905693    1.378441    0.207074
      7          1           0       -0.996392    2.207207    0.059436
      8          1           0       -0.866403   -2.117919   -0.090965
      9          1           0        1.815425   -1.574395    0.119848
 ---------------------------------------------------------------------
                    Distance matrix (angstroms):
                    1          2          3          4          5
     1  C    0.000000
     2  C    1.405633   0.000000
     3  O    2.316908   1.409200   0.000000
     4  C    2.226146   2.222056   1.470902   0.000000
     5  C    1.734791   2.425876   2.298325   1.118918   0.000000
     6  H    2.318667   3.380103   3.433184   2.200364   1.140061
     7  H    3.627134   3.485347   2.365574   1.408282   2.242656
     8  H    2.355636   1.108559   2.001202   3.193500   3.518916
     9  H    1.095791   2.126648   3.304357   3.315341   2.694704
                    6          7          8          9
     6  H    0.000000
     7  H    3.021712   0.000000
     8  H    4.471898   4.329693   0.000000
     9  H    2.955502   4.712799   2.744460   0.000000
 Stoichiometry    C4H4O
 Framework group  C1[X(C4H4O)]
 Deg. of freedom    21
 Full point group                 C1      NOp   1
 RotChk:  IX=0 Diff= 3.59D-01
 Largest Abelian subgroup         C1      NOp   1
 Largest concise Abelian subgroup C1      NOp   1
                         Standard orientation:                         
 ---------------------------------------------------------------------
 Center     Atomic      Atomic             Coordinates (Angstroms)
 Number     Number       Type             X           Y           Z
 ---------------------------------------------------------------------
      1          6           0       -0.559065    1.144032   -0.046645
      2          6           0       -1.197172   -0.095227    0.134629
      3          8           0       -0.297263   -1.157762   -0.082233
      4          6           0        0.991436   -0.452834   -0.005535
      5          6           0        1.105407    0.659929    0.021759
      6          1           0        1.708046    1.627543    0.004752
      7          1           0        2.046126   -1.371154    0.160524
      8          1           0       -2.200739   -0.544822   -0.005451
      9          1           0       -1.218959    2.015128   -0.127208
 ---------------------------------------------------------------------
 Rotational constants (GHZ):      9.3471180      8.0300060      4.3484566
 Leave Link  202 at Thu Dec 24 08:56:30 2015, MaxMem=    33554432 cpu:         0.0
 (Enter /home/Applications/g09/g09/l301.exe)

 Semi-emprical parameters in input format:
 Method=8 CoreType=1 PeptideFC=0.0153880000 RIJScale=0.5653070000
 ****
 H       
 PQN=1 NValence=1 F0ss=0.4987980000 ZetaOverlap=1.0885220000 U=-0.4055440000
 Beta=-0.3100140000 CoreKO=1.0195490000 KON=0,0,0,1.1485810000 KON=1,0,1,1.1849500000
 KON=0,1,1,1.1483140000 KON=2,1,1,1.1713980000 EISol=-0.4188110042 EHeat=0.0830298228
 Alpha=1.5460150000
 GCore=0.0106860000,2.0665340000,2.3965250000
 GCore=0.0002770000,1.7874610000,3.9605580000
 GCore=-0.0011350000,0.4389190000,4.4100760000
 ****
 C       
 PQN=2,2 NValence=4 F0ss=0.6596530000 F0sp=0.3708350000 F0pp=0.3962320000 F2pp=0.1752980000
 G1sp=0.1933380000
 ZetaOverlap=1.8455320000,1.3462190000
 U=-1.4750250000,-1.4354660000
 Beta=-0.5562170000,-0.3475400000 DDN=0,1,0.8746580000 DDN=1,1,0.7619180000
 CoreKO=0.9166070000 KON=0,0,0,0.9169750000 KON=1,0,1,1.0634150000 KON=0,1,1,1.0485010000
 KON=2,1,1,0.5046550000 EISol=-4.4398989268 EHeat=0.2723305520 Alpha=1.3107700000
 DipHyp=1.7492153603
 GCore=0.0007580000,1.3630410000,2.7411890000
 GCore=0.0034510000,1.3650460000,2.5948270000
 GCore=-0.0017750000,1.3310390000,4.0879490000
 GCore=-0.0000860000,1.2035490000,5.6323400000
 ****
 O       
 PQN=2,2 NValence=6 F0ss=0.5213290000 F0sp=0.5306490000 F0pp=0.4844810000 F2pp=0.4398240000
 G1sp=0.2746920000
 ZetaOverlap=2.6188660000,2.4182960000
 U=-3.3475430000,-2.8237600000
 Beta=-1.0917740000,-1.4749000000 DDN=0,1,0.4337540000 DDN=1,1,0.4720320000
 CoreKO=0.9109280000 KON=0,0,0,0.9733340000 KON=1,0,1,0.5669380000 KON=0,1,1,0.9686250000
 KON=2,1,1,0.5820820000 EISol=-11.6164441184 EHeat=0.0949133088 Alpha=2.2756520000
 DipHyp=0.8674580915
 GCore=0.0167260000,1.1747010000,1.7633480000
 GCore=0.0052970000,1.8889120000,2.4589150000
 ****
 
 Standard basis: VSTO-6G (5D, 7F)
 Ernie: Thresh=  0.10000D-02 Tol=  0.10000D-05 Strict=F.
  NNHCO=     0 NNPyr=     0 NCTC=     0               EPep=         0.000000000
    EC=        69.249177654  ECS=         2.203982450   EG=         0.382537355
   EHC=         0.000000000  EAt=       -31.051283842  AtH=         1.516354808
 EPDDG=         0.000000000  ECC=        71.835697460 EAtT=        32.567638650
 There are    24 symmetry adapted cartesian basis functions of A   symmetry.
 There are    24 symmetry adapted basis functions of A   symmetry.
    24 basis functions,   144 primitive gaussians,    24 cartesian basis functions
    13 alpha electrons       13 beta electrons
       nuclear repulsion energy       104.4033361099 Hartrees.
 IExCor=    0 DFT=F Ex=HF Corr=None ExCW=0 ScaHFX=  1.000000
 ScaDFX=  1.000000  1.000000  1.000000  1.000000 ScalE2=  1.000000  1.000000
 IRadAn=      0 IRanWt=     -1 IRanGd=            0 ICorTp=0 IEmpDi=  4
 Integral buffers will be    131072 words long.
 Regular integral format.
 Two-electron integral symmetry is turned off.
 Leave Link  301 at Thu Dec 24 08:56:30 2015, MaxMem=    33554432 cpu:         0.0
 (Enter /home/Applications/g09/g09/l302.exe)
 Do NDO integrals.
 NPDir=0 NMtPBC=     1 NCelOv=     1 NCel=       1 NClECP=     1 NCelD=      1
         NCelK=      1 NCelE2=     1 NClLst=     1 CellRange=     0.0.
 One-electron integrals computed using PRISM.
 NBasis=    24 RedAO= F EigKep=  0.00D+00  NBF=    24
 NBsUse=    24 1.00D-04 EigRej=  0.00D+00 NBFU=    24
 Leave Link  302 at Thu Dec 24 08:56:30 2015, MaxMem=    33554432 cpu:         0.0
 (Enter /home/Applications/g09/g09/l303.exe)
 DipDrv:  MaxL=1.
 Leave Link  303 at Thu Dec 24 08:56:30 2015, MaxMem=    33554432 cpu:         0.0
 (Enter /home/Applications/g09/g09/l401.exe)
 Initial guess from the checkpoint file:  "/home/Applications/g09/scratch/Gau-30401.chk"
 B after Tr=     0.000000    0.000000    0.000000
         Rot=    0.991337    0.001351    0.000055   -0.131333 Ang=  15.09 deg.
 Guess basis will be translated and rotated to current coordinates.
 JPrj=0 DoOrth=T DoCkMO=T.
 Leave Link  401 at Thu Dec 24 08:56:30 2015, MaxMem=    33554432 cpu:         0.0
 (Enter /home/Applications/g09/g09/l502.exe)
 Closed shell SCF:
 Using DIIS extrapolation, IDIIS=  1040.
 Overlap will be assumed to be unity.
 Two-electron integral symmetry not used.
 Keep J ints in memory in canonical form, NReq=888082.
 IVT=       79475 IEndB=       79475 NGot=    33554432 MDV=    33473473
 LenX=    33473473 LenY=    33472456
 Requested convergence on RMS density matrix=1.00D-08 within 128 cycles.
 Requested convergence on MAX density matrix=1.00D-06.
 Requested convergence on             energy=1.00D-06.
 No special actions if energy rises.
 FoFCou: FMM=F IPFlag=           0 FMFlag=           0 FMFlg1=           0
         NFxFlg=           0 DoJE=F BraDBF=F KetDBF=F FulRan=T
         wScrn=  0.000000 ICntrl=     600 IOpCl=  2 I1Cent=           0 NGrid=           0
         NMat0=    1 NMatS0=     54 NMatT0=    0 NMatD0=    1 NMtDS0=    0 NMtDT0=    0
 Symmetry not used in FoFCou.

 Cycle   1  Pass 1  IDiag  1:
 E=  1.70276831528808    
 DIIS: error= 2.59D-02 at cycle   1 NSaved=   1.
 NSaved= 1 IEnMin= 1 EnMin=  1.70276831528808     IErMin= 1 ErrMin= 2.59D-02
 ErrMax= 2.59D-02  0.00D+00 EMaxC= 1.00D-01 BMatC= 1.98D-02 BMatP= 1.98D-02
 IDIUse=3 WtCom= 7.41D-01 WtEn= 2.59D-01
 Coeff-Com:  0.100D+01
 Coeff-En:   0.100D+01
 Coeff:      0.100D+01
 GapD=    2.000 DampG=2.000 DampE=0.500 DampFc=1.0000 IDamp=-1.
 RMSDP=7.75D-03 MaxDP=4.89D-02              OVMax= 0.00D+00

 Cycle   2  Pass 1  IDiag  1:
 E=  1.65797027856814     Delta-E=       -0.044798036720 Rises=F Damp=F
 DIIS: error= 6.14D-03 at cycle   2 NSaved=   2.
 NSaved= 2 IEnMin= 2 EnMin=  1.65797027856814     IErMin= 2 ErrMin= 6.14D-03
 ErrMax= 6.14D-03  0.00D+00 EMaxC= 1.00D-01 BMatC= 1.30D-03 BMatP= 1.98D-02
 IDIUse=3 WtCom= 9.39D-01 WtEn= 6.14D-02
 Coeff-Com: -0.314D+00 0.131D+01
 Coeff-En:   0.000D+00 0.100D+01
 Coeff:     -0.295D+00 0.129D+01
 RMSDP=3.00D-03 MaxDP=1.52D-02 DE=-4.48D-02 OVMax= 0.00D+00

 Cycle   3  Pass 1  IDiag  3:
 E=  1.65410436685356     Delta-E=       -0.003865911715 Rises=F Damp=F
 DIIS: error= 5.02D-04 at cycle   3 NSaved=   3.
 NSaved= 3 IEnMin= 3 EnMin=  1.65410436685356     IErMin= 3 ErrMin= 5.02D-04
 ErrMax= 5.02D-04  0.00D+00 EMaxC= 1.00D-01 BMatC= 2.22D-05 BMatP= 1.30D-03
 IDIUse=3 WtCom= 9.95D-01 WtEn= 5.02D-03
 Coeff-Com:  0.950D-01-0.463D+00 0.137D+01
 Coeff-En:   0.000D+00 0.000D+00 0.100D+01
 Coeff:      0.945D-01-0.460D+00 0.137D+01
 Gap=     0.470 Goal=   None    Shift=    0.000
 RMSDP=6.09D-04 MaxDP=3.71D-03 DE=-3.87D-03 OVMax= 4.11D-03

 Cycle   4  Pass 1  IDiag  3:
 E=  1.65399214338049     Delta-E=       -0.000112223473 Rises=F Damp=F
 DIIS: error= 2.10D-04 at cycle   4 NSaved=   4.
 NSaved= 4 IEnMin= 4 EnMin=  1.65399214338049     IErMin= 4 ErrMin= 2.10D-04
 ErrMax= 2.10D-04  0.00D+00 EMaxC= 1.00D-01 BMatC= 1.31D-06 BMatP= 2.22D-05
 IDIUse=3 WtCom= 9.98D-01 WtEn= 2.10D-03
 Coeff-Com: -0.311D-01 0.161D+00-0.637D+00 0.151D+01
 Coeff-En:   0.000D+00 0.000D+00 0.000D+00 0.100D+01
 Coeff:     -0.310D-01 0.161D+00-0.636D+00 0.151D+01
 Gap=     0.470 Goal=   None    Shift=    0.000
 RMSDP=1.82D-04 MaxDP=1.22D-03 DE=-1.12D-04 OVMax= 1.44D-03

 Cycle   5  Pass 1  IDiag  3:
 E=  1.65398426760210     Delta-E=       -0.000007875778 Rises=F Damp=F
 DIIS: error= 4.95D-05 at cycle   5 NSaved=   5.
 NSaved= 5 IEnMin= 5 EnMin=  1.65398426760210     IErMin= 5 ErrMin= 4.95D-05
 ErrMax= 4.95D-05  0.00D+00 EMaxC= 1.00D-01 BMatC= 6.32D-08 BMatP= 1.31D-06
 IDIUse=1 WtCom= 1.00D+00 WtEn= 0.00D+00
 Coeff-Com:  0.520D-02-0.285D-01 0.139D+00-0.497D+00 0.138D+01
 Coeff:      0.520D-02-0.285D-01 0.139D+00-0.497D+00 0.138D+01
 Gap=     0.470 Goal=   None    Shift=    0.000
 RMSDP=3.93D-05 MaxDP=2.83D-04 DE=-7.88D-06 OVMax= 3.64D-04

 Cycle   6  Pass 1  IDiag  3:
 E=  1.65398389766503     Delta-E=       -0.000000369937 Rises=F Damp=F
 DIIS: error= 8.59D-06 at cycle   6 NSaved=   6.
 NSaved= 6 IEnMin= 6 EnMin=  1.65398389766503     IErMin= 6 ErrMin= 8.59D-06
 ErrMax= 8.59D-06  0.00D+00 EMaxC= 1.00D-01 BMatC= 3.30D-09 BMatP= 6.32D-08
 IDIUse=1 WtCom= 1.00D+00 WtEn= 0.00D+00
 Coeff-Com:  0.894D-03-0.419D-02 0.976D-02 0.138D-01-0.288D+00 0.127D+01
 Coeff:      0.894D-03-0.419D-02 0.976D-02 0.138D-01-0.288D+00 0.127D+01
 Gap=     0.470 Goal=   None    Shift=    0.000
 RMSDP=8.16D-06 MaxDP=4.76D-05 DE=-3.70D-07 OVMax= 5.79D-05

 Cycle   7  Pass 1  IDiag  3:
 E=  1.65398388022294     Delta-E=       -0.000000017442 Rises=F Damp=F
 DIIS: error= 2.12D-06 at cycle   7 NSaved=   7.
 NSaved= 7 IEnMin= 7 EnMin=  1.65398388022294     IErMin= 7 ErrMin= 2.12D-06
 ErrMax= 2.12D-06  0.00D+00 EMaxC= 1.00D-01 BMatC= 1.67D-10 BMatP= 3.30D-09
 IDIUse=1 WtCom= 1.00D+00 WtEn= 0.00D+00
 Coeff-Com: -0.412D-03 0.215D-02-0.854D-02 0.215D-01-0.575D-02-0.302D+00
 Coeff-Com:  0.129D+01
 Coeff:     -0.412D-03 0.215D-02-0.854D-02 0.215D-01-0.575D-02-0.302D+00
 Coeff:      0.129D+01
 Gap=     0.470 Goal=   None    Shift=    0.000
 RMSDP=1.85D-06 MaxDP=1.10D-05 DE=-1.74D-08 OVMax= 1.22D-05

 Cycle   8  Pass 1  IDiag  3:
 E=  1.65398387932680     Delta-E=       -0.000000000896 Rises=F Damp=F
 DIIS: error= 4.69D-07 at cycle   8 NSaved=   8.
 NSaved= 8 IEnMin= 8 EnMin=  1.65398387932680     IErMin= 8 ErrMin= 4.69D-07
 ErrMax= 4.69D-07  0.00D+00 EMaxC= 1.00D-01 BMatC= 8.53D-12 BMatP= 1.67D-10
 IDIUse=1 WtCom= 1.00D+00 WtEn= 0.00D+00
 Coeff-Com:  0.132D-03-0.710D-03 0.313D-02-0.945D-02 0.124D-01 0.857D-01
 Coeff-Com: -0.572D+00 0.148D+01
 Coeff:      0.132D-03-0.710D-03 0.313D-02-0.945D-02 0.124D-01 0.857D-01
 Coeff:     -0.572D+00 0.148D+01
 Gap=     0.470 Goal=   None    Shift=    0.000
 RMSDP=4.47D-07 MaxDP=2.56D-06 DE=-8.96D-10 OVMax= 3.23D-06

 Cycle   9  Pass 1  IDiag  3:
 E=  1.65398387927871     Delta-E=       -0.000000000048 Rises=F Damp=F
 DIIS: error= 1.01D-07 at cycle   9 NSaved=   9.
 NSaved= 9 IEnMin= 9 EnMin=  1.65398387927871     IErMin= 9 ErrMin= 1.01D-07
 ErrMax= 1.01D-07  0.00D+00 EMaxC= 1.00D-01 BMatC= 3.20D-13 BMatP= 8.53D-12
 IDIUse=1 WtCom= 1.00D+00 WtEn= 0.00D+00
 Coeff-Com: -0.428D-04 0.234D-03-0.108D-02 0.348D-02-0.514D-02-0.299D-01
 Coeff-Com:  0.219D+00-0.678D+00 0.149D+01
 Coeff:     -0.428D-04 0.234D-03-0.108D-02 0.348D-02-0.514D-02-0.299D-01
 Coeff:      0.219D+00-0.678D+00 0.149D+01
 Gap=     0.470 Goal=   None    Shift=    0.000
 RMSDP=8.59D-08 MaxDP=4.95D-07 DE=-4.81D-11 OVMax= 5.50D-07

 Cycle  10  Pass 1  IDiag  3:
 E=  1.65398387927669     Delta-E=       -0.000000000002 Rises=F Damp=F
 DIIS: error= 2.00D-08 at cycle  10 NSaved=  10.
 NSaved=10 IEnMin=10 EnMin=  1.65398387927669     IErMin=10 ErrMin= 2.00D-08
 ErrMax= 2.00D-08  0.00D+00 EMaxC= 1.00D-01 BMatC= 1.44D-14 BMatP= 3.20D-13
 IDIUse=1 WtCom= 1.00D+00 WtEn= 0.00D+00
 Coeff-Com:  0.454D-05-0.266D-04 0.142D-03-0.520D-03 0.786D-03 0.510D-02
 Coeff-Com: -0.385D-01 0.133D+00-0.457D+00 0.136D+01
 Coeff:      0.454D-05-0.266D-04 0.142D-03-0.520D-03 0.786D-03 0.510D-02
 Coeff:     -0.385D-01 0.133D+00-0.457D+00 0.136D+01
 Gap=     0.470 Goal=   None    Shift=    0.000
 RMSDP=1.77D-08 MaxDP=1.03D-07 DE=-2.02D-12 OVMax= 1.44D-07

 Cycle  11  Pass 1  IDiag  3:
 E=  1.65398387927650     Delta-E=        0.000000000000 Rises=F Damp=F
 DIIS: error= 3.50D-09 at cycle  11 NSaved=  11.
 NSaved=11 IEnMin=11 EnMin=  1.65398387927650     IErMin=11 ErrMin= 3.50D-09
 ErrMax= 3.50D-09  0.00D+00 EMaxC= 1.00D-01 BMatC= 6.41D-16 BMatP= 1.44D-14
 IDIUse=1 WtCom= 1.00D+00 WtEn= 0.00D+00
 Coeff-Com: -0.802D-07 0.114D-05-0.128D-04 0.674D-04-0.105D-03-0.758D-03
 Coeff-Com:  0.594D-02-0.230D-01 0.106D+00-0.509D+00 0.142D+01
 Coeff:     -0.802D-07 0.114D-05-0.128D-04 0.674D-04-0.105D-03-0.758D-03
 Coeff:      0.594D-02-0.230D-01 0.106D+00-0.509D+00 0.142D+01
 Gap=     0.470 Goal=   None    Shift=    0.000
 RMSDP=3.98D-09 MaxDP=2.48D-08 DE=-1.99D-13 OVMax= 3.07D-08

 Cycle  12  Pass 2  IDiag  1:
 SCF Done:  E(RAM1) =   1.65398387928     A.U. after   12 cycles
            NFock= 11  Conv=0.40D-08     -V/T= 1.1025
 KE=-1.613496952182D+01 PE=-1.689844684538D+02 EE= 8.237008574498D+01
 Leave Link  502 at Thu Dec 24 08:56:30 2015, MaxMem=    33554432 cpu:         0.0
 (Enter /home/Applications/g09/g09/l701.exe)
 Compute integral first derivatives.
 ... and contract with generalized density number  0.
 Leave Link  701 at Thu Dec 24 08:56:30 2015, MaxMem=    33554432 cpu:         0.0
 (Enter /home/Applications/g09/g09/l702.exe)
 L702 exits ... SP integral derivatives will be done elsewhere.
 Leave Link  702 at Thu Dec 24 08:56:30 2015, MaxMem=    33554432 cpu:         0.0
 (Enter /home/Applications/g09/g09/l703.exe)
 Compute integral first derivatives, UseDBF=F ICtDFT=           0.
 Integral derivatives from FoFJK, PRISM(SPDF).
 Calling FoFJK, ICntrl=      2127 FMM=F ISym2X=0 I1Cent= 0 IOpClX= 0 NMat=1 NMatS=1 NMatT=0.
 FoFJK:  IHMeth= 8 ICntrl=    2127 DoSepK=F KAlg= 0 I1Cent=   0 FoldK=F
 IRaf=         0 NMat=   1 IRICut=       1 DoRegI=T DoRafI=F ISym2E= 0.
 FoFCou: FMM=F IPFlag=           0 FMFlag=      100000 FMFlg1=         800
         NFxFlg=           0 DoJE=F BraDBF=F KetDBF=F FulRan=T
         wScrn=  0.000000 ICntrl=    2127 IOpCl=  0 I1Cent=           0 NGrid=           0
         NMat0=    1 NMatS0=      1 NMatT0=    0 NMatD0=    1 NMtDS0=    0 NMtDT0=    0
 Symmetry not used in FoFCou.
 Leave Link  703 at Thu Dec 24 08:56:30 2015, MaxMem=    33554432 cpu:         0.0
 (Enter /home/Applications/g09/g09/l716.exe)
 Dipole        = 1.76562066D-01 1.81818640D-01 1.23240414D-01
 ***** Axes restored to original set *****
 -------------------------------------------------------------------
 Center     Atomic                   Forces (Hartrees/Bohr)
 Number     Number              X              Y              Z
 -------------------------------------------------------------------
      1        6          -0.116950787    0.002278710   -0.041111213
      2        6           0.047572682    0.031285187    0.085026587
      3        8           0.049793934    0.038012125   -0.036346938
      4        6          -0.518567954    0.140224004   -0.001646386
      5        6           0.482113560   -0.146982762    0.004574876
      6        1          -0.031628245    0.007941219   -0.003514430
      7        1           0.047141229   -0.088405175    0.012322294
      8        1           0.021577545   -0.008966304   -0.017698771
      9        1           0.018948037    0.024612995   -0.001606019
 -------------------------------------------------------------------
 Cartesian Forces:  Max     0.518567954 RMS     0.147424591
 Leave Link  716 at Thu Dec 24 08:56:30 2015, MaxMem=    33554432 cpu:         0.0
 (Enter /home/Applications/g09/g09/l103.exe)

 GradGradGradGradGradGradGradGradGradGradGradGradGradGradGradGradGradGrad
 Berny optimization.
 Using GEDIIS/GDIIS optimizer.
 FormGI is forming the generalized inverse of G from B-inverse, IUseBI=4.
 Internal  Forces:  Max     0.397835785 RMS     0.073550273
 Search for a local minimum.
 Step number   3 out of a maximum of   48
 All quantities printed in internal units (Hartrees-Bohrs-Radians)
 RMS Force = .73550D-01 SwitMx=.10000D-02 MixMth= 1
 Mixed Optimization -- RFO/linear search
 Update second derivatives using D2CorX and points    2    3
 ITU=  0  1  0
 Use linear search instead of GDIIS.
 Linear search step of   0.727 exceeds DXMaxT=   0.505 but not scaled.
 Quartic linear search produced a step of  1.21105.
 Iteration  1 RMS(Cart)=  0.07930925 RMS(Int)=  0.03590917
 Iteration  2 RMS(Cart)=  0.03441317 RMS(Int)=  0.00412708
 Iteration  3 RMS(Cart)=  0.00031923 RMS(Int)=  0.00411550
 Iteration  4 RMS(Cart)=  0.00000047 RMS(Int)=  0.00411550
 ITry= 1 IFail=0 DXMaxC= 2.54D-01 DCOld= 1.00D+10 DXMaxT= 5.05D-01 DXLimC= 3.00D+00 Rises=F
 Variable       Old X    -DE/DX   Delta X   Delta X   Delta X     New X
                                 (Linear)    (Quad)   (Total)
    R1        2.65626  -0.05703  -0.27930   0.00000  -0.28376   2.37250
    R2        3.27828  -0.06821  -0.01578   0.00000  -0.02145   3.25683
    R3        2.07075  -0.00493   0.35104   0.00000   0.35104   2.42178
    R4        2.66300   0.02277   0.07860   0.00000   0.08150   2.74450
    R5        2.09487  -0.00532   0.03221   0.00000   0.03221   2.12709
    R6        2.77960  -0.06736  -0.09003   0.00000  -0.08377   2.69583
    R7        2.11445   0.39784   0.35933   0.00000   0.36103   2.47548
    R8        2.66127  -0.10060  -0.22986   0.00000  -0.22986   2.43141
    R9        2.15440  -0.02635  -0.03387   0.00000  -0.03387   2.12053
    A1        1.75631   0.04493   0.10539   0.00000   0.09460   1.85092
    A2        2.02301   0.00958   0.02508   0.00000   0.03057   2.05358
    A3        2.50232  -0.05435  -0.12964   0.00000  -0.12439   2.37793
    A4        1.93372   0.05124  -0.00020   0.00000  -0.00336   1.93036
    A5        2.42225  -0.03569  -0.08986   0.00000  -0.08999   2.33225
    A6        1.82644  -0.00723   0.11412   0.00000   0.11770   1.94415
    A7        1.76208   0.01780   0.10605   0.00000   0.11575   1.87782
    A8        2.17381  -0.08184  -0.20181   0.00000  -0.19665   1.97716
    A9        1.92814   0.03317   0.05068   0.00000   0.04803   1.97617
   A10        2.17650   0.04805   0.15008   0.00000   0.14763   2.32413
   A11        1.75059  -0.02548   0.01318   0.00000   0.00817   1.75877
   A12        1.84392   0.03236   0.02074   0.00000   0.02304   1.86696
   A13        2.68497  -0.00645  -0.03272   0.00000  -0.03022   2.65476
    D1       -0.28199   0.00929   0.06046   0.00000   0.06107  -0.22092
    D2       -2.85760  -0.01984  -0.05187   0.00000  -0.04624  -2.90384
[...]
     38 -0.400512D-05  0.000000D+00  0.288454D-05 -0.235470D-05  0.000000D+00
               16            17            18            19            20 
     16  0.148238D+00
     17 -0.857423D-01  0.126150D+00
     18  0.442943D-01 -0.700993D-01  0.981538D-01
     19  0.414480D-01 -0.560506D-01 -0.280545D-01  0.841052D-01
     20  0.116203D-01 -0.541612D-01  0.329864D-01  0.211748D-01  0.102861D+00
     21 -0.256883D-03  0.281910D-01 -0.166642D-01 -0.115269D-01 -0.511848D-01
     22 -0.113634D-01  0.259702D-01 -0.163222D-01 -0.964789D-02 -0.516763D-01
     23  0.000000D+00 -0.102132D-05  0.111728D-04 -0.117258D-04  0.213305D-05
     24 -0.209812D-05  0.000000D+00  0.170293D-05  0.325255D-05  0.107386D-05
     25  0.341363D-05 -0.309713D-05  0.366037D-05 -0.837690D-05 -0.130388D-05
     26  0.000000D+00 -0.116116D-05 -0.580945D-05  0.660141D-05 -0.236306D-05
     27  0.147839D-05  0.235143D-05 -0.680927D-05 -0.467455D-05 -0.842719D-05
     28  0.000000D+00 -0.419053D-05 -0.103750D-04  0.689220D-05  0.352510D-05
     29  0.000000D+00  0.259903D-05  0.127318D-05 -0.694822D-05 -0.636564D-05
     30 -0.120177D-05 -0.394293D-05 -0.229258D-05  0.461853D-05  0.558665D-05
     31 -0.265378D-05  0.133047D-05 -0.137985D-04  0.237173D-04 -0.264591D-05
     32 -0.142291D-05  0.000000D+00 -0.595163D-05  0.114979D-04 -0.144849D-05
     33  0.628692D-05 -0.998004D-05  0.149546D-04 -0.221725D-04  0.374663D-05
     34  0.000000D+00 -0.338350D-05 -0.588345D-04  0.684468D-04  0.000000D+00
     35 -0.142040D-04  0.111652D-04 -0.936487D-05  0.145177D-04  0.612887D-05
     36 -0.199291D-04  0.179527D-04 -0.641161D-05  0.327385D-05 -0.949529D-05
     37  0.121731D-04 -0.154074D-04 -0.954774D-05  0.128402D-04  0.127372D-04
     38  0.644803D-05 -0.861993D-05 -0.659447D-05  0.159640D-05 -0.288692D-05
               21            22            23            24            25 
     21  0.800208D-01
     22 -0.288361D-01  0.805124D-01
     23 -0.543652D-05  0.118715D-04  0.216145D-01
     24  0.510270D-05 -0.353740D-05  0.358057D-02  0.169697D-01
     25 -0.144260D-04  0.206008D-04  0.891450D-02 -0.745805D-02  0.156599D-01
     26 -0.388674D-05  0.519191D-05 -0.911945D-02  0.593103D-02 -0.712638D-03
     27  0.466707D-05 -0.831165D-05 -0.173116D-01 -0.722111D-02 -0.327426D-02
     28 -0.370987D-04  0.377340D-04 -0.764198D-02 -0.424262D-02  0.222298D-02
     29  0.140743D-04 -0.161918D-04 -0.498397D-02  0.349384D-02 -0.982187D-02
     30 -0.276915D-04  0.298538D-04  0.468566D-02  0.647232D-02 -0.432463D-02
     31  0.702880D-05 -0.644449D-05 -0.177867D-01  0.122273D-02 -0.110379D-01
     32 -0.191477D-05  0.618825D-05 -0.292302D-02 -0.981261D-02  0.245647D-02
     33 -0.793158D-05 -0.161838D-05  0.650657D-02 -0.592717D-02  0.890368D-02
     34 -0.190572D-04  0.135861D-04  0.507289D-02 -0.581472D-03  0.178809D-02
     35  0.000000D+00  0.488204D-05  0.633635D-02  0.807792D-02 -0.362750D-02
     36 -0.300064D-04  0.337014D-04 -0.362535D-02  0.500946D-02 -0.929077D-02
     37  0.109536D-04 -0.141976D-04  0.807639D-02  0.158984D-02  0.500868D-02
     38 -0.189640D-04  0.146217D-04 -0.188531D-02 -0.147861D-02 -0.654584D-03
               26            27            28            29            30 
     26  0.143378D-01
     27  0.681625D-02  0.214455D-01
     28  0.562234D-02  0.782169D-02  0.125170D-01
     29 -0.134406D-02  0.781979D-02 -0.175401D-02  0.125158D-01
     30 -0.253797D-02 -0.580406D-02  0.294128D-02  0.294204D-02  0.116874D-01
     31  0.797156D-02  0.698619D-02  0.465952D-02  0.435249D-03 -0.189141D-02
     32 -0.443312D-02 -0.133045D-02  0.185776D-02 -0.655220D-02 -0.336399D-02
     33 -0.353006D-02  0.698620D-02  0.436726D-03  0.465938D-02 -0.189010D-02
     34 -0.386627D-02 -0.133031D-02 -0.655110D-02  0.185818D-02 -0.336261D-02
     35 -0.188594D-02 -0.173129D-01 -0.498652D-02 -0.764119D-02  0.468517D-02
     36 -0.655960D-03 -0.327753D-02 -0.982358D-02  0.222177D-02 -0.432429D-02
     37 -0.147786D-02 -0.721914D-02  0.349462D-02 -0.424138D-02  0.647238D-02
     38 -0.247888D-03  0.681622D-02 -0.134244D-02  0.562158D-02 -0.253708D-02
               31            32            33            34            35 
     31  0.215893D-01
     32  0.592163D-02  0.116001D-01
     33 -0.170358D-01 -0.678789D-02  0.215858D-01
     34 -0.679161D-02 -0.213126D-02  0.592430D-02  0.115966D-01
     35  0.650610D-02  0.507069D-02 -0.177849D-01 -0.292468D-02  0.216151D-01
     36  0.890303D-02  0.178618D-02 -0.110375D-01  0.245383D-02  0.891643D-02
     37 -0.592729D-02 -0.581046D-03  0.122349D-02 -0.980908D-02  0.357935D-02
     38 -0.353036D-02 -0.386556D-02  0.797080D-02 -0.443057D-02 -0.911935D-02
               36            37            38 
     36  0.156603D-01
     37 -0.745805D-02  0.169696D-01
     38 -0.714221D-03  0.593222D-02  0.143373D-01
 Leave Link  716 at Thu Dec 24 08:56:33 2015, MaxMem=    33554432 cpu:         0.0
 (Enter /home/Applications/g09/g09/l103.exe)

 GradGradGradGradGradGradGradGradGradGradGradGradGradGradGradGradGradGrad
 Berny optimization.
 Red2BG is reusing G-inverse.
 Internal  Forces:  Max     0.000140297 RMS     0.000038164
 Search for a local minimum.
 Step number   1 out of a maximum of    2
 All quantities printed in internal units (Hartrees-Bohrs-Radians)
 Second derivative matrix not updated -- analytic derivatives used.
 ITU=  0
     Eigenvalues ---    0.01707   0.02099   0.03621   0.04082   0.07160
     Eigenvalues ---    0.07501   0.09933   0.10559   0.10736   0.11185
     Eigenvalues ---    0.22570   0.25498   0.37929   0.38351   0.42363
     Eigenvalues ---    0.43097   0.43693   0.44713   0.47176   0.57082
     Eigenvalues ---    0.84124
 Angle between quadratic step and forces=  64.22 degrees.
 Linear search not attempted -- first point.
 Iteration  1 RMS(Cart)=  0.00035112 RMS(Int)=  0.00000017
 Iteration  2 RMS(Cart)=  0.00000015 RMS(Int)=  0.00000007
 ITry= 1 IFail=0 DXMaxC= 1.25D-03 DCOld= 1.00D+10 DXMaxT= 3.00D-01 DXLimC= 3.00D+00 Rises=F
 Variable       Old X    -DE/DX   Delta X   Delta X   Delta X     New X
                                 (Linear)    (Quad)   (Total)
    R1        2.55246  -0.00012   0.00000  -0.00027  -0.00027   2.55219
    R2        2.72252  -0.00001   0.00000   0.00008   0.00008   2.72260
    R3        2.09037   0.00009   0.00000   0.00025   0.00025   2.09062
    R4        2.64980   0.00002   0.00000   0.00018   0.00018   2.64998
    R5        2.07646  -0.00003   0.00000  -0.00005  -0.00005   2.07641
    R6        2.64991   0.00001   0.00000   0.00007   0.00007   2.64998
    R7        2.55245  -0.00014   0.00000  -0.00026  -0.00026   2.55219
    R8        2.07643  -0.00002   0.00000  -0.00002  -0.00002   2.07641
    R9        2.09056   0.00002   0.00000   0.00005   0.00005   2.09062
    A1        1.87197   0.00003   0.00000   0.00011   0.00011   1.87207
    A2        2.22581  -0.00001   0.00000   0.00002   0.00002   2.22583
    A3        2.18541  -0.00002   0.00000  -0.00012  -0.00012   2.18529
    A4        1.91388   0.00000   0.00000  -0.00002  -0.00002   1.91387
    A5        2.32056   0.00002   0.00000   0.00021   0.00021   2.32077
    A6        2.04874  -0.00001   0.00000  -0.00019  -0.00019   2.04854
    A7        1.85304  -0.00004   0.00000  -0.00014  -0.00014   1.85290
    A8        1.91373   0.00003   0.00000   0.00013   0.00013   1.91387
    A9        2.04860  -0.00001   0.00000  -0.00006  -0.00006   2.04854
   A10        2.32085  -0.00002   0.00000  -0.00008  -0.00008   2.32077
   A11        1.87216  -0.00001   0.00000  -0.00009  -0.00009   1.87207
   A12        2.18531   0.00000   0.00000  -0.00003  -0.00003   2.18529
   A13        2.22572   0.00001   0.00000   0.00011   0.00011   2.22583
    D1        0.00005   0.00000   0.00000  -0.00005  -0.00005   0.00000
    D2        3.14156  -0.00001   0.00000   0.00003   0.00003   3.14159
    D3        3.14138   0.00001   0.00000   0.00021   0.00021   3.14159
    D4       -0.00029   0.00001   0.00000   0.00029   0.00029   0.00000
    D5       -0.00012   0.00001   0.00000   0.00012   0.00012   0.00000
    D6        3.14058   0.00002   0.00000   0.00102   0.00102   3.14159
    D7       -3.14146  -0.00001   0.00000  -0.00014  -0.00014  -3.14159
    D8       -0.00076   0.00001   0.00000   0.00076   0.00076   0.00000
    D9        0.00004   0.00000   0.00000  -0.00004  -0.00004   0.00000
   D10       -3.14149   0.00000   0.00000  -0.00010  -0.00010   3.14159
   D11       -0.00011   0.00000   0.00000   0.00011   0.00011   0.00000
   D12        3.14052   0.00002   0.00000   0.00108   0.00108  -3.14159
   D13        0.00014  -0.00001   0.00000  -0.00014  -0.00014   0.00000
   D14       -3.14052  -0.00002   0.00000  -0.00107  -0.00107   3.14159
   D15       -3.14028  -0.00003   0.00000  -0.00131  -0.00131   3.14159
   D16        0.00224  -0.00004   0.00000  -0.00224  -0.00224   0.00000
         Item               Value     Threshold  Converged?
 Maximum Force            0.000140     0.000450     YES
 RMS     Force            0.000038     0.000300     YES
 Maximum Displacement     0.001249     0.001800     YES
 RMS     Displacement     0.000351     0.001200     YES
 Predicted change in Energy=-1.717585D-07
 Optimization completed.
    -- Stationary point found.
                           ----------------------------
                           !   Optimized Parameters   !
                           ! (Angstroms and Degrees)  !
 --------------------------                            --------------------------
 ! Name  Definition              Value          Derivative Info.                !
 --------------------------------------------------------------------------------
 ! R1    R(1,2)                  1.3507         -DE/DX =   -0.0001              !
 ! R2    R(1,5)                  1.4407         -DE/DX =    0.0                 !
 ! R3    R(1,9)                  1.1062         -DE/DX =    0.0001              !
 ! R4    R(2,3)                  1.4022         -DE/DX =    0.0                 !
 ! R5    R(2,8)                  1.0988         -DE/DX =    0.0                 !
 ! R6    R(3,4)                  1.4023         -DE/DX =    0.0                 !
 ! R7    R(4,5)                  1.3507         -DE/DX =   -0.0001              !
 ! R8    R(4,7)                  1.0988         -DE/DX =    0.0                 !
 ! R9    R(5,6)                  1.1063         -DE/DX =    0.0                 !
 ! A1    A(2,1,5)              107.2559         -DE/DX =    0.0                 !
 ! A2    A(2,1,9)              127.5294         -DE/DX =    0.0                 !
 ! A3    A(5,1,9)              125.2147         -DE/DX =    0.0                 !
 ! A4    A(1,2,3)              109.6574         -DE/DX =    0.0                 !
 ! A5    A(1,2,8)              132.9586         -DE/DX =    0.0                 !
 ! A6    A(3,2,8)              117.3841         -DE/DX =    0.0                 !
 ! A7    A(2,3,4)              106.1712         -DE/DX =    0.0                 !
 ! A8    A(3,4,5)              109.6488         -DE/DX =    0.0                 !
 ! A9    A(3,4,7)              117.3762         -DE/DX =    0.0                 !
 ! A10   A(5,4,7)              132.975          -DE/DX =    0.0                 !
 ! A11   A(1,5,4)              107.2668         -DE/DX =    0.0                 !
 ! A12   A(1,5,6)              125.2091         -DE/DX =    0.0                 !
 ! A13   A(4,5,6)              127.5241         -DE/DX =    0.0                 !
 ! D1    D(5,1,2,3)              0.0026         -DE/DX =    0.0                 !
 ! D2    D(5,1,2,8)            179.9981         -DE/DX =    0.0                 !
 ! D3    D(9,1,2,3)            179.9877         -DE/DX =    0.0                 !
 ! D4    D(9,1,2,8)             -0.0168         -DE/DX =    0.0                 !
 ! D5    D(2,1,5,4)             -0.0067         -DE/DX =    0.0                 !
 ! D6    D(2,1,5,6)            179.9417         -DE/DX =    0.0                 !
 ! D7    D(9,1,5,4)           -179.9922         -DE/DX =    0.0                 !
 ! D8    D(9,1,5,6)             -0.0438         -DE/DX =    0.0                 !
 ! D9    D(1,2,3,4)              0.0022         -DE/DX =    0.0                 !
 ! D10   D(8,2,3,4)            180.006          -DE/DX =    0.0                 !
 ! D11   D(2,3,4,5)             -0.0066         -DE/DX =    0.0                 !
 ! D12   D(2,3,4,7)           -180.0616         -DE/DX =    0.0                 !
 ! D13   D(3,4,5,1)              0.0082         -DE/DX =    0.0                 !
 ! D14   D(3,4,5,6)            180.0613         -DE/DX =    0.0                 !
 ! D15   D(7,4,5,1)            180.075          -DE/DX =    0.0                 !
 ! D16   D(7,4,5,6)              0.1281         -DE/DX =    0.0                 !
 --------------------------------------------------------------------------------
 GradGradGradGradGradGradGradGradGradGradGradGradGradGradGradGradGradGrad

 Leave Link  103 at Thu Dec 24 08:56:33 2015, MaxMem=    33554432 cpu:         0.0
 (Enter /home/Applications/g09/g09/l9999.exe)
 1\1\GINC-DUSTIN-DESKTOP\Freq\RAM1\ZDO\C4H4O1\DUSTIN\24-Dec-2015\0\\#P 
 Geom=AllCheck Guess=TCheck SCRF=Check GenChk RAM1/ZDO Freq\\AM1-Repara
 m Input\\0,1\C,0.9538358274,-0.7445447057,0.06991064\C,-0.3304979269,-
 1.1551713555,-0.0092740494\O,-1.1833249908,-0.0422153764,0.0056513263\
 C,-0.3535846187,1.0843917392,0.0987180517\C,0.9389455709,0.694398238,0
 .139390622\H,1.8351955021,1.338732745,0.213015909\H,-0.8398835654,2.06
 94184435,0.1232394234\H,-0.7962923323,-2.1479180991,-0.0791662639\H,1.
 8631565337,-1.374330629,0.0813163408\\Version=ES64L-G09RevD.01\State=1
 -A\HF=1.4611532\RMSD=2.004e-10\RMSF=7.557e-05\ZeroPoint=0.0756976\Ther
 mal=0.0791333\Dipole=0.0591318,0.0005192,0.0028214\DipoleDeriv=-0.3809
 924,0.285851,0.0013626,0.1374311,-0.1108521,0.0063722,-0.0059156,0.013
 0244,-0.1086042,0.5956825,-0.2963201,0.0061639,-0.4152894,-0.1066953,-
 0.0316356,0.0003474,-0.0261398,0.1480322,-0.8167695,-0.0059306,-0.0307
 925,-0.0058489,-0.1005836,0.0024883,-0.0307635,0.002421,-0.1562315,0.5
 805911,0.3087567,0.034873,0.4274981,-0.0949954,0.0078561,0.0406801,0.0
 023646,0.1512166,-0.3721218,-0.2901598,-0.0263385,-0.1416411,-0.117548
 4,-0.0071227,-0.0190802,-0.0138261,-0.1104856,0.1588695,0.0713488,0.00
 90012,0.0798703,0.1206386,0.0076363,0.0094157,0.0072785,0.0414922,0.03
 80834,-0.0754361,-0.0017323,-0.0910277,0.1445868,0.0028825,-0.0024883,
 0.0036389,-0.0034717,0.0346754,0.0729506,0.0053177,0.0885823,0.1472426
 ,0.0114302,0.0060642,0.010731,-0.0027362,0.16198,-0.0710605,0.0021447,
 -0.0795744,0.1182079,0.0000928,0.0017436,0.0005075,0.0407871\Polar=36.
 2429704,-0.0625999,35.8363297,1.359384,1.412929,6.8797971\HyperPolar=2
 .2440358,0.1868949,-7.7099099,-0.1607295,-0.2793218,-0.5841296,-0.3636
 973,4.2423402,-0.0202091,0.5954378\PG=C01 [X(C4H4O1)]\NImag=0\\0.92583
 595,-0.12250910,0.58955870,0.02747499,0.01326177,0.20305602,-0.4111567
 4,-0.07307248,-0.01780049,0.72434407,-0.16387897,-0.10991463,-0.007940
 55,0.20687779,0.85215125,-0.02222788,-0.00374892,-0.10317699,0.0337587
 1,0.04079846,0.21417912,-0.13972570,0.01693746,-0.00663858,-0.16343616
 ,0.14333692,0.00371667,0.59221675,0.08031077,-0.00900548,0.00218679,0.
 08307766,-0.19386932,-0.00111224,-0.00011322,0.49625181,-0.00354946,-0
 .00073870,0.02197196,0.00078144,0.00167360,-0.09246899,0.02205069,0.01
 860785,0.11553348,-0.01713131,0.11710497,0.00444582,0.00759093,-0.0185
 7640,-0.00123433,-0.15875926,-0.08202716,-0.00703008,0.73294926,0.0480
 1028,-0.06855051,-0.00160926,0.02239675,-0.17581656,-0.00824844,-0.142
 28330,-0.19746858,-0.01166139,-0.21177393,0.84537737,0.00108800,0.0015
 7688,0.00997081,0.00076254,-0.01014871,0.01439626,-0.00997220,-0.00886
 833,-0.09347847,0.01391711,0.02087554,0.21229444,-0.07294351,-0.048589
 27,-0.00124998,-0.01375959,-0.04680196,-0.00336605,-0.13770428,-0.0822
 5097,-0.01138762,-0.41592399,0.15902108,-0.00673861,0.92058249,0.05137
 894,-0.21260638,-0.00328002,-0.11590410,-0.07121554,-0.00929751,-0.018
 87855,-0.01061034,-0.00245987,0.06822062,-0.10619860,0.00294381,0.1259
 5452,0.59354290,0.00361124,-0.00788415,-0.09704244,-0.00673772,-0.0061
 0564,0.00924399,-0.00828803,-0.00538843,0.02153171,-0.01116140,0.00713
 407,-0.10213991,0.03952921,0.02505057,0.20422250,-0.00049600,-0.010675
 58,-0.00078085,0.00033374,0.00060820,-0.00025359,-0.00494695,-0.001215
 65,-0.00073740,-0.03916113,-0.01524846,-0.00263646,-0.25347266,-0.1509
 5941,-0.01673195,0.29849391,-0.02408876,-0.02883316,-0.00277510,-0.001
 32684,-0.00364346,-0.00055066,0.00263103,0.00159718,-0.00027476,-0.003
 80009,0.00738665,0.00010423,-0.15000616,-0.15215060,-0.01181682,0.1771
 8920,0.17620726,-0.00143439,-0.00215437,0.00486480,-0.00034629,-0.0004
 5849,0.00633322,-0.00055011,-0.00044922,0.00959256,-0.00208272,-0.0004
 3205,0.00149876,-0.01668161,-0.01186075,-0.05591724,0.02108870,0.01529
 313,0.03516386,-0.00249498,0.00155978,-0.00048227,-0.00098676,-0.00195
 747,-0.00046480,0.00881457,-0.02047351,-0.00076840,-0.10879942,0.13835
 882,0.00415704,-0.02310373,0.03047338,0.00014737,-0.00100688,-0.000103
 62,-0.00005426,0.12779102,0.00059999,0.00010877,-0.00042448,-0.0025423
 6,-0.00227487,-0.00056276,0.00421228,-0.04437676,-0.00214160,0.1268132
 6,-0.29889919,-0.00573471,0.01858256,-0.01256956,-0.00001607,0.0005728
 6,0.00013876,0.00003162,-0.14843812,0.35873780,-0.00052724,-0.00038558
 ,0.00950025,-0.00049393,-0.00053939,0.00694081,0.00042950,-0.00328670,
 0.00382798,0.00359944,-0.00519405,-0.05584152,-0.00043185,0.00053723,0
 .00558643,-0.00002144,-0.00000064,0.00004330,-0.00267626,0.00875421,0.
 03258309,-0.02209521,-0.03054810,-0.00276523,-0.10338625,-0.13407771,-
 0.00873383,0.00845755,0.02154549,0.00125670,-0.00108198,0.00201799,-0.
 00027309,-0.00245056,-0.00155965,-0.00062838,-0.00018656,-0.00072321,-
 0.00000734,-0.00001123,0.00014562,0.00009145,0.12175160,-0.01866117,-0
 .01336646,-0.00178327,-0.12252565,-0.30309961,-0.01771283,-0.00314329,
 -0.04409119,-0.00248770,0.00260302,-0.00220038,-0.00032804,-0.00059925
 ,0.00007441,-0.00048965,-0.00005305,-0.00037857,0.00001830,-0.00014362
 ,-0.00049904,0.00005937,0.14311483,0.36342980,-0.00218603,-0.00233303,
 0.00536866,-0.00817211,-0.01824487,-0.05703083,0.00005668,-0.00134914,
 0.00390291,-0.00024631,-0.00035387,0.00696174,-0.00058439,-0.00053278,
 0.00948967,0.00002666,-0.00001238,-0.00080211,0.00007840,0.00007086,-0
 .00184151,0.01110385,0.02274699,0.03391022,-0.25979245,0.14979216,-0.0
 0220342,-0.03954316,0.01446961,-0.00119489,-0.00491675,0.00114659,-0.0
 0061588,0.00031697,-0.00049922,-0.00030434,-0.00122412,0.01127438,0.00
 025966,0.00044250,0.00022841,0.00006803,-0.00020259,0.00005388,0.00003
 033,-0.00099737,-0.00059180,-0.00007674,0.30591694,0.14883806,-0.14739
 081,0.00236412,0.00301924,0.00768273,0.00043492,-0.00269933,0.00157257
 ,-0.00051744,0.00143569,-0.00363023,-0.00042066,0.02468939,-0.02826625
 ,-0.00048389,-0.00021814,-0.00032405,0.00001183,0.00072436,-0.00036590
 ,0.00005554,0.00008472,0.00013102,0.00000821,-0.17587399,0.17059094,-0
 .00224921,0.00240614,-0.05451295,-0.00175220,0.00096563,0.00158346,-0.
 00080451,-0.00034058,0.00958670,-0.00020757,-0.00051059,0.00633792,0.0
 0091089,-0.00110073,0.00502540,0.00004632,0.00003300,-0.00077717,0.000
 06319,0.00002295,-0.00079890,-0.00004415,-0.00002318,0.00004116,0.0040
 3724,-0.00145264,0.03351437\\0.00022525,-0.00004814,-0.00003505,-0.000
 14875,0.00001761,-0.00000168,0.00005849,-0.00001093,0.00002686,-0.0001
 4895,0.00005250,0.00008435,0.00012549,-0.00004054,-0.00007634,-0.00002
 088,-0.00001366,0.00005461,-0.00001252,0.00002156,-0.00006119,0.000002
 00,-0.00002917,-0.00000241,-0.00008013,0.00005079,0.00001085\\\@


 MODELS ARE TO BE USED, NOT BELIEVED.

    -- PARAPHRASED BY H. THIEL IN "PRINCIPLES OF ECONOMETRICS"
 Job cpu time:       0 days  0 hours  0 minutes  0.3 seconds.
 File lengths (MBytes):  RWF=      5 Int=      0 D2E=      0 Chk=      2 Scr=      1
 Normal termination of Gaussian 09 at Thu Dec 24 08:56:33 2015.
