 Entering Gaussian System, Link 0=g09
 Input=FuranAM1Best5.com
 Output=FuranAM1Best5.log
 Initial command:
 /home/Applications/g09/g09/l1.exe "/home/Applications/g09/scratch/Gau-20953.inp" -scrdir="/home/Applications/g09/scratch/"
 Entering Link 1 = /home/Applications/g09/g09/l1.exe PID=     20955.
  
 Copyright (c) 1988,1990,1992,1993,1995,1998,2003,2009,2013,
            Gaussian, Inc.  All Rights Reserved.
  
 This is part of the Gaussian(R) 09 program.  It is based on
 the Gaussian(R) 03 system (copyright 2003, Gaussian, Inc.),
 the Gaussian(R) 98 system (copyright 1998, Gaussian, Inc.),
 the Gaussian(R) 94 system (copyright 1995, Gaussian, Inc.),
 the Gaussian 92(TM) system (copyright 1992, Gaussian, Inc.),
 the Gaussian 90(TM) system (copyright 1990, Gaussian, Inc.),
 the Gaussian 88(TM) system (copyright 1988, Gaussian, Inc.),
 the Gaussian 86(TM) system (copyright 1986, Carnegie Mellon
 University), and the Gaussian 82(TM) system (copyright 1983,
 Carnegie Mellon University). Gaussian is a federally registered
 trademark of Gaussian, Inc.
  
 This software contains proprietary and confidential information,
 including trade secrets, belonging to Gaussian, Inc.
  
 This software is provided under written license and may be
 used, copied, transmitted, or stored only in accord with that
 written license.
  
 The following legend is applicable only to US Government
 contracts under FAR:
  
                    RESTRICTED RIGHTS LEGEND
  
 Use, reproduction and disclosure by the US Government is
 subject to restrictions as set forth in subparagraphs (a)
 and (c) of the Commercial Computer Software - Restricted
 Rights clause in FAR 52.227-19.
  
 Gaussian, Inc.
 340 Quinnipiac St., Bldg. 40, Wallingford CT 06492
  
  
 ---------------------------------------------------------------
 Warning -- This program may not be used in any manner that
 competes with the business of Gaussian, Inc. or will provide
 assistance to any competitor of Gaussian, Inc.  The licensee
 of this program is prohibited from giving any competitor of
 Gaussian, Inc. access to this program.  By using this program,
 the user acknowledges that Gaussian, Inc. is engaged in the
 business of creating and licensing software in the field of
 computational chemistry and represents and warrants to the
 licensee that it is not a competitor of Gaussian, Inc. and that
 it will not use this program in any manner prohibited above.
 ---------------------------------------------------------------
  

 Cite this work as:
 Gaussian 09, Revision D.01,
 M. J. Frisch, G. W. Trucks, H. B. Schlegel, G. E. Scuseria, 
 M. A. Robb, J. R. Cheeseman, G. Scalmani, V. Barone, B. Mennucci, 
 G. A. Petersson, H. Nakatsuji, M. Caricato, X. Li, H. P. Hratchian, 
 A. F. Izmaylov, J. Bloino, G. Zheng, J. L. Sonnenberg, M. Hada, 
 M. Ehara, K. Toyota, R. Fukuda, J. Hasegawa, M. Ishida, T. Nakajima, 
 Y. Honda, O. Kitao, H. Nakai, T. Vreven, J. A. Montgomery, Jr., 
 J. E. Peralta, F. Ogliaro, M. Bearpark, J. J. Heyd, E. Brothers, 
 K. N. Kudin, V. N. Staroverov, T. Keith, R. Kobayashi, J. Normand, 
 K. Raghavachari, A. Rendell, J. C. Burant, S. S. Iyengar, J. Tomasi, 
 M. Cossi, N. Rega, J. M. Millam, M. Klene, J. E. Knox, J. B. Cross, 
 V. Bakken, C. Adamo, J. Jaramillo, R. Gomperts, R. E. Stratmann, 
 O. Yazyev, A. J. Austin, R. Cammi, C. Pomelli, J. W. Ochterski, 
 R. L. Martin, K. Morokuma, V. G. Zakrzewski, G. A. Voth, 
 P. Salvador, J. J. Dannenberg, S. Dapprich, A. D. Daniels, 
 O. Farkas, J. B. Foresman, J. V. Ortiz, J. Cioslowski, 
 and D. J. Fox, Gaussian, Inc., Wallingford CT, 2013.
 
 ******************************************
 Gaussian 09:  ES64L-G09RevD.01 24-Apr-2013
                29-Nov-2015 
 ******************************************
 ----------------------------
 #P AM1(Input,print) Opt Freq
 ----------------------------
 1/14=-1,18=20,19=15,26=1,38=1/1,3;
 2/9=110,12=2,17=6,18=5,40=1/2;
 3/5=2,16=1,25=1,41=700000,71=1,135=100,136=1/1,2,3;
 4/35=1/1;
 5/5=2,35=1,38=5/2;
 6/7=2,8=2,9=2,10=2,28=1/1;
 7//1,2,3,16;
 1/14=-1,18=20,19=15,26=1/3(2);
 2/9=110/2;
 99//99;
 2/9=110/2;
 3/5=2,16=1,25=1,41=700000,71=1,135=20,136=1/1,2,3;
 4/5=5,16=3,35=1/1;
 5/5=2,35=1,38=5/2;
 7//1,2,3,16;
 1/14=-1,18=20,19=15,26=1/3(-5);
 2/9=110/2;
 6/7=2,8=2,9=2,10=2,19=2,28=1/1;
 99/9=1/99;
 Leave Link    1 at Sun Nov 29 12:22:31 2015, MaxMem=           0 cpu:         0.0
 (Enter /home/Applications/g09/g09/l101.exe)
 -----------------
 AM1-Reparam Input
 -----------------
 Symbolic Z-matrix:
 Charge =  0 Multiplicity = 1
 6                     0.98946  -0.66869  -0.04015 
 6                    -0.36305  -1.08725  -0.04337 
 8                    -1.17296  -0.02578  -0.01355 
 6                    -0.37345   1.12113   0.01157 
 6                     0.95997   0.74879  -0.04823 
 1                     1.81089   1.35759  -0.02559 
 1                    -0.8018    2.08469   0.04348 
 1                    -0.84759  -2.02109  -0.04173 
 1                     1.76814  -1.41909   0.02944 
 
 NAtoms=      9 NQM=        9 NQMF=       0 NMMI=      0 NMMIF=      0
                NMic=       0 NMicF=      0.
                    Isotopes and Nuclear Properties:
 (Nuclear quadrupole moments (NQMom) in fm**2, nuclear magnetic moments (NMagM)
  in nuclear magnetons)

  Atom         1           2           3           4           5           6           7           8           9
 IAtWgt=          12          12          16          12          12           1           1           1           1
 AtmWgt=  12.0000000  12.0000000  15.9949146  12.0000000  12.0000000   1.0078250   1.0078250   1.0078250   1.0078250
 NucSpn=           0           0           0           0           0           1           1           1           1
 AtZEff=   0.0000000   0.0000000   0.0000000   0.0000000   0.0000000   0.0000000   0.0000000   0.0000000   0.0000000
 NQMom=    0.0000000   0.0000000   0.0000000   0.0000000   0.0000000   0.0000000   0.0000000   0.0000000   0.0000000
 NMagM=    0.0000000   0.0000000   0.0000000   0.0000000   0.0000000   2.7928460   2.7928460   2.7928460   2.7928460
 AtZNuc=   6.0000000   6.0000000   8.0000000   6.0000000   6.0000000   1.0000000   1.0000000   1.0000000   1.0000000
 Leave Link  101 at Sun Nov 29 12:22:31 2015, MaxMem=    33554432 cpu:         0.0
 (Enter /home/Applications/g09/g09/l103.exe)

 GradGradGradGradGradGradGradGradGradGradGradGradGradGradGradGradGradGrad
 Berny optimization.
 Initialization pass.
                           ----------------------------
                           !    Initial Parameters    !
                           ! (Angstroms and Degrees)  !
 --------------------------                            --------------------------
 ! Name  Definition              Value          Derivative Info.                !
 --------------------------------------------------------------------------------
 ! R1    R(1,2)                  1.4158         estimate D2E/DX2                !
 ! R2    R(1,5)                  1.4178         estimate D2E/DX2                !
 ! R3    R(1,9)                  1.0836         estimate D2E/DX2                !
 ! R4    R(2,3)                  1.3355         estimate D2E/DX2                !
 ! R5    R(2,8)                  1.0521         estimate D2E/DX2                !
 ! R6    R(3,4)                  1.3983         estimate D2E/DX2                !
 ! R7    R(4,5)                  1.3857         estimate D2E/DX2                !
 ! R8    R(4,7)                  1.055          estimate D2E/DX2                !
 ! R9    R(5,6)                  1.0465         estimate D2E/DX2                !
 ! A1    A(2,1,5)              106.0025         estimate D2E/DX2                !
 ! A2    A(2,1,9)              118.8081         estimate D2E/DX2                !
 ! A3    A(5,1,9)              135.0426         estimate D2E/DX2                !
 ! A4    A(1,2,3)              110.1403         estimate D2E/DX2                !
 ! A5    A(1,2,8)              134.6184         estimate D2E/DX2                !
 ! A6    A(3,2,8)              115.2234         estimate D2E/DX2                !
 ! A7    A(2,3,4)              107.792          estimate D2E/DX2                !
 ! A8    A(3,4,5)              109.21           estimate D2E/DX2                !
 ! A9    A(3,4,7)              121.167          estimate D2E/DX2                !
 ! A10   A(5,4,7)              129.6003         estimate D2E/DX2                !
 ! A11   A(1,5,4)              106.7623         estimate D2E/DX2                !
 ! A12   A(1,5,6)              124.3719         estimate D2E/DX2                !
 ! A13   A(4,5,6)              128.6941         estimate D2E/DX2                !
 ! D1    D(5,1,2,3)             -1.7872         estimate D2E/DX2                !
 ! D2    D(5,1,2,8)            179.8771         estimate D2E/DX2                !
 ! D3    D(9,1,2,3)            174.4586         estimate D2E/DX2                !
 ! D4    D(9,1,2,8)             -3.8771         estimate D2E/DX2                !
 ! D5    D(2,1,5,4)              2.9102         estimate D2E/DX2                !
 ! D6    D(2,1,5,6)            178.5039         estimate D2E/DX2                !
 ! D7    D(9,1,5,4)           -172.4324         estimate D2E/DX2                !
 ! D8    D(9,1,5,6)              3.1614         estimate D2E/DX2                !
 ! D9    D(1,2,3,4)             -0.0625         estimate D2E/DX2                !
 ! D10   D(8,2,3,4)            178.6281         estimate D2E/DX2                !
 ! D11   D(2,3,4,5)              1.9649         estimate D2E/DX2                !
 ! D12   D(2,3,4,7)           -179.6097         estimate D2E/DX2                !
 ! D13   D(3,4,5,1)             -3.0398         estimate D2E/DX2                !
 ! D14   D(3,4,5,6)           -178.3796         estimate D2E/DX2                !
 ! D15   D(7,4,5,1)            178.7088         estimate D2E/DX2                !
 ! D16   D(7,4,5,6)              3.3691         estimate D2E/DX2                !
 --------------------------------------------------------------------------------
 Trust Radius=3.00D-01 FncErr=1.00D-07 GrdErr=1.00D-07
 Number of steps in this run=     48 maximum allowed number of steps=    100.
 GradGradGradGradGradGradGradGradGradGradGradGradGradGradGradGradGradGrad

 Leave Link  103 at Sun Nov 29 12:22:31 2015, MaxMem=    33554432 cpu:         0.0
 (Enter /home/Applications/g09/g09/l202.exe)
                          Input orientation:                          
 ---------------------------------------------------------------------
 Center     Atomic      Atomic             Coordinates (Angstroms)
 Number     Number       Type             X           Y           Z
 ---------------------------------------------------------------------
      1          6           0        0.989464   -0.668688   -0.040151
      2          6           0       -0.363051   -1.087245   -0.043366
      3          8           0       -1.172963   -0.025783   -0.013548
      4          6           0       -0.373449    1.121128    0.011566
      5          6           0        0.959973    0.748791   -0.048226
      6          1           0        1.810888    1.357585   -0.025589
      7          1           0       -0.801799    2.084688    0.043483
      8          1           0       -0.847592   -2.021086   -0.041726
      9          1           0        1.768139   -1.419090    0.029436
 ---------------------------------------------------------------------
                    Distance matrix (angstroms):
                    1          2          3          4          5
     1  C    0.000000
     2  C    1.415803   0.000000
     3  O    2.256131   1.335495   0.000000
     4  C    2.250255   2.209081   1.398305   0.000000
     5  C    1.417809   2.263061   2.269490   1.385722   0.000000
     6  H    2.186488   3.271624   3.288954   2.197412   1.046518
     7  H    3.285833   3.203311   2.143619   1.054965   2.212888
     8  H    2.281175   1.052065   2.021854   3.178232   3.307499
     9  H    1.083642   2.158099   3.254725   3.322563   2.314924
                    6          7          8          9
     6  H    0.000000
     7  H    2.712855   0.000000
     8  H    4.299209   4.106913   0.000000
     9  H    2.777549   4.345255   2.685053   0.000000
 Stoichiometry    C4H4O
 Framework group  C1[X(C4H4O)]
 Deg. of freedom    21
 Full point group                 C1      NOp   1
 Largest Abelian subgroup         C1      NOp   1
 Largest concise Abelian subgroup C1      NOp   1
                         Standard orientation:                         
 ---------------------------------------------------------------------
 Center     Atomic      Atomic             Coordinates (Angstroms)
 Number     Number       Type             X           Y           Z
 ---------------------------------------------------------------------
      1          6           0        0.337056    1.157841    0.001593
      2          6           0        1.157511    0.004057   -0.010042
      3          8           0        0.402263   -1.097345   -0.002062
      4          6           0       -0.937298   -0.696734    0.016514
      5          6           0       -1.000007    0.686948   -0.024922
      6          1           0       -1.844500    1.304587   -0.001412
      7          1           0       -1.718872   -1.405156    0.031732
      8          1           0        2.195975   -0.164343   -0.001386
      9          1           0        0.805726    2.131001    0.088706
 ---------------------------------------------------------------------
 Rotational constants (GHZ):      9.4567523      8.9951986      4.6118175
 Leave Link  202 at Sun Nov 29 12:22:31 2015, MaxMem=    33554432 cpu:         0.0
 (Enter /home/Applications/g09/g09/l301.exe)

 Semi-emprical parameters in input format:
 Method=8 CoreType=1 PeptideFC=0.0105570000 RIJScale=0.4899110000
 ****
 H       
 PQN=1 NValence=1 F0ss=0.4577290000 ZetaOverlap=1.0659780000 U=-0.3880320000
 Beta=-0.2381360000 CoreKO=1.1144350000 KON=0,0,0,1.0186160000 KON=1,0,1,1.0557690000
 KON=0,1,1,1.0725930000 KON=2,1,1,1.1590830000 EISol=-0.4188110042 EHeat=0.0830298228
 Alpha=1.5252600000
 GCore=0.0099350000,1.3986240000,2.1461900000
 GCore=0.0003630000,1.5415670000,2.7171030000
 GCore=-0.0012530000,0.5088300000,4.2039300000
 ****
 C       
 PQN=2,2 NValence=4 F0ss=0.4263360000 F0sp=0.4580860000 F0pp=0.3261620000 F2pp=0.2036090000
 G1sp=0.2073130000
 ZetaOverlap=2.1016200000,1.8587190000
 U=-1.9018080000,-1.4557970000
 Beta=-0.4792560000,-0.2700630000 DDN=0,1,0.8034860000 DDN=1,1,0.7591540000
 CoreKO=1.1325510000 KON=0,0,0,1.1996250000 KON=1,0,1,0.8437060000 KON=0,1,1,1.0478550000
 KON=2,1,1,0.8168110000 EISol=-4.4398989268 EHeat=0.2723305520 Alpha=1.4381970000
 DipHyp=1.6068795495
 GCore=0.0008260000,1.4798740000,2.8384620000
 GCore=0.0031480000,1.6675340000,3.8116200000
 GCore=-0.0011560000,1.5029710000,3.9059920000
 GCore=-0.0000920000,1.1754400000,4.8520980000
 ****
 O       
 PQN=2,2 NValence=6 F0ss=0.5413910000 F0sp=0.5145480000 F0pp=0.5091470000 F2pp=0.2175940000
 G1sp=0.4302620000
 ZetaOverlap=3.3296350000,2.5240390000
 U=-3.3343200000,-2.9854240000
 Beta=-0.9082740000,-1.1340310000 DDN=0,1,0.4988900000 DDN=1,1,0.5206270000
 CoreKO=0.9688900000 KON=0,0,0,0.8976510000 KON=1,0,1,0.5186760000 KON=0,1,1,0.8274210000
 KON=2,1,1,0.5315430000 EISol=-11.6164441184 EHeat=0.0949133088 Alpha=2.3722000000
 DipHyp=0.9977225968
 GCore=0.0212480000,1.1747580000,1.6499540000
 GCore=0.0064050000,2.1096700000,2.7148630000
 ****
 
 Standard basis: VSTO-6G (5D, 7F)
 Ernie: Thresh=  0.10000D-02 Tol=  0.10000D-05 Strict=F.
  NNHCO=     0 NNPyr=     0 NCTC=     0               EPep=         0.000000000
    EC=        67.674158228  ECS=         1.633392319   EG=         0.432777772
   EHC=         0.000000000  EAt=       -31.051283842  AtH=         1.516354808
 EPDDG=         0.000000000  ECC=        69.740328319 EAtT=        32.567638650
 There are    24 symmetry adapted cartesian basis functions of A   symmetry.
 There are    24 symmetry adapted basis functions of A   symmetry.
    24 basis functions,   144 primitive gaussians,    24 cartesian basis functions
    13 alpha electrons       13 beta electrons
       nuclear repulsion energy       102.3079669692 Hartrees.
 IExCor=    0 DFT=F Ex=HF Corr=None ExCW=0 ScaHFX=  1.000000
 ScaDFX=  1.000000  1.000000  1.000000  1.000000 ScalE2=  1.000000  1.000000
 IRadAn=      0 IRanWt=     -1 IRanGd=            0 ICorTp=0 IEmpDi=  4
 Integral buffers will be    131072 words long.
 Regular integral format.
 Two-electron integral symmetry is turned off.
 Leave Link  301 at Sun Nov 29 12:22:31 2015, MaxMem=    33554432 cpu:         0.0
 (Enter /home/Applications/g09/g09/l302.exe)
 Do NDO integrals.
 NPDir=0 NMtPBC=     1 NCelOv=     1 NCel=       1 NClECP=     1 NCelD=      1
         NCelK=      1 NCelE2=     1 NClLst=     1 CellRange=     0.0.
 One-electron integrals computed using PRISM.
 NBasis=    24 RedAO= F EigKep=  0.00D+00  NBF=    24
 NBsUse=    24 1.00D-04 EigRej=  0.00D+00 NBFU=    24
 Leave Link  302 at Sun Nov 29 12:22:31 2015, MaxMem=    33554432 cpu:         0.0
 (Enter /home/Applications/g09/g09/l303.exe)
 DipDrv:  MaxL=1.
 Leave Link  303 at Sun Nov 29 12:22:31 2015, MaxMem=    33554432 cpu:         0.0
 (Enter /home/Applications/g09/g09/l401.exe)
 Simple Huckel Guess.
 JPrj=0 DoOrth=F DoCkMO=F.
 Leave Link  401 at Sun Nov 29 12:22:31 2015, MaxMem=    33554432 cpu:         0.0
 (Enter /home/Applications/g09/g09/l502.exe)
 Closed shell SCF:
 Using DIIS extrapolation, IDIIS=  1040.
 Overlap will be assumed to be unity.
 Two-electron integral symmetry not used.
 Keep J ints in memory in canonical form, NReq=888082.
 IVT=       79475 IEndB=       79475 NGot=    33554432 MDV=    33473473
 LenX=    33473473 LenY=    33472456
 Requested convergence on RMS density matrix=1.00D-08 within 128 cycles.
 Requested convergence on MAX density matrix=1.00D-06.
 Requested convergence on             energy=1.00D-06.
 No special actions if energy rises.
 FoFCou: FMM=F IPFlag=           0 FMFlag=           0 FMFlg1=           0
         NFxFlg=           0 DoJE=F BraDBF=F KetDBF=F FulRan=T
         wScrn=  0.000000 ICntrl=     600 IOpCl=  2 I1Cent=           0 NGrid=           0
         NMat0=    1 NMatS0=     54 NMatT0=    0 NMatD0=    1 NMtDS0=    0 NMtDT0=    0
 Symmetry not used in FoFCou.

 Cycle   1  Pass 1  IDiag  1:
 E= 0.999569190404003    
 DIIS: error= 5.59D-02 at cycle   1 NSaved=   1.
 NSaved= 1 IEnMin= 1 EnMin= 0.999569190404003     IErMin= 1 ErrMin= 5.59D-02
 ErrMax= 5.59D-02  0.00D+00 EMaxC= 1.00D-01 BMatC= 7.22D-02 BMatP= 7.22D-02
 IDIUse=3 WtCom= 4.41D-01 WtEn= 5.59D-01
 Coeff-Com:  0.100D+01
 Coeff-En:   0.100D+01
 Coeff:      0.100D+01
 GapD=    2.000 DampG=2.000 DampE=0.500 DampFc=1.0000 IDamp=-1.
 RMSDP=1.81D-02 MaxDP=1.70D-01              OVMax= 0.00D+00

 Cycle   2  Pass 1  IDiag  1:
 E= 0.778822776867443     Delta-E=       -0.220746413537 Rises=F Damp=F
 DIIS: error= 1.83D-02 at cycle   2 NSaved=   2.
 NSaved= 2 IEnMin= 2 EnMin= 0.778822776867443     IErMin= 2 ErrMin= 1.83D-02
 ErrMax= 1.83D-02  0.00D+00 EMaxC= 1.00D-01 BMatC= 9.15D-03 BMatP= 7.22D-02
 IDIUse=3 WtCom= 8.17D-01 WtEn= 1.83D-01
 Coeff-Com: -0.467D+00 0.147D+01
 Coeff-En:   0.000D+00 0.100D+01
 Coeff:     -0.381D+00 0.138D+01
 RMSDP=9.28D-03 MaxDP=5.35D-02 DE=-2.21D-01 OVMax= 0.00D+00

 Cycle   3  Pass 1  IDiag  3:
 E= 0.743991609525153     Delta-E=       -0.034831167342 Rises=F Damp=F
 DIIS: error= 3.11D-03 at cycle   3 NSaved=   3.
 NSaved= 3 IEnMin= 3 EnMin= 0.743991609525153     IErMin= 3 ErrMin= 3.11D-03
 ErrMax= 3.11D-03  0.00D+00 EMaxC= 1.00D-01 BMatC= 4.90D-04 BMatP= 9.15D-03
 IDIUse=3 WtCom= 9.69D-01 WtEn= 3.11D-02
 Coeff-Com:  0.234D+00-0.861D+00 0.163D+01
 Coeff-En:   0.000D+00 0.000D+00 0.100D+01
 Coeff:      0.227D+00-0.834D+00 0.161D+01
 Gap=     0.347 Goal=   None    Shift=    0.000
 RMSDP=2.97D-03 MaxDP=1.63D-02 DE=-3.48D-02 OVMax= 1.45D-02

 Cycle   4  Pass 1  IDiag  3:
 E= 0.741323422457000     Delta-E=       -0.002668187068 Rises=F Damp=F
 DIIS: error= 1.01D-03 at cycle   4 NSaved=   4.
 NSaved= 4 IEnMin= 4 EnMin= 0.741323422457000     IErMin= 4 ErrMin= 1.01D-03
 ErrMax= 1.01D-03  0.00D+00 EMaxC= 1.00D-01 BMatC= 3.67D-05 BMatP= 4.90D-04
 IDIUse=3 WtCom= 9.90D-01 WtEn= 1.01D-02
 Coeff-Com:  0.517D-02-0.228D-01-0.146D+00 0.116D+01
 Coeff-En:   0.000D+00 0.000D+00 0.000D+00 0.100D+01
 Coeff:      0.512D-02-0.226D-01-0.144D+00 0.116D+01
 Gap=     0.349 Goal=   None    Shift=    0.000
 RMSDP=8.96D-04 MaxDP=6.61D-03 DE=-2.67D-03 OVMax= 9.68D-03

 Cycle   5  Pass 1  IDiag  3:
 E= 0.741069644922760     Delta-E=       -0.000253777534 Rises=F Damp=F
 DIIS: error= 4.73D-04 at cycle   5 NSaved=   5.
 NSaved= 5 IEnMin= 5 EnMin= 0.741069644922760     IErMin= 5 ErrMin= 4.73D-04
 ErrMax= 4.73D-04  0.00D+00 EMaxC= 1.00D-01 BMatC= 1.13D-05 BMatP= 3.67D-05
 IDIUse=3 WtCom= 9.95D-01 WtEn= 4.73D-03
 Coeff-Com: -0.337D-01 0.129D+00-0.126D+00-0.852D+00 0.188D+01
 Coeff-En:   0.000D+00 0.000D+00 0.000D+00 0.000D+00 0.100D+01
 Coeff:     -0.335D-01 0.129D+00-0.125D+00-0.848D+00 0.188D+01
 Gap=     0.349 Goal=   None    Shift=    0.000
 RMSDP=7.76D-04 MaxDP=6.11D-03 DE=-2.54D-04 OVMax= 9.31D-03

 Cycle   6  Pass 1  IDiag  3:
 E= 0.740953808678512     Delta-E=       -0.000115836244 Rises=F Damp=F
 DIIS: error= 2.47D-04 at cycle   6 NSaved=   6.
 NSaved= 6 IEnMin= 6 EnMin= 0.740953808678512     IErMin= 6 ErrMin= 2.47D-04
 ErrMax= 2.47D-04  0.00D+00 EMaxC= 1.00D-01 BMatC= 2.54D-06 BMatP= 1.13D-05
 IDIUse=3 WtCom= 9.98D-01 WtEn= 2.47D-03
 Coeff-Com:  0.158D-01-0.606D-01 0.442D-01 0.606D+00-0.163D+01 0.202D+01
 Coeff-En:   0.000D+00 0.000D+00 0.000D+00 0.000D+00 0.000D+00 0.100D+01
 Coeff:      0.158D-01-0.604D-01 0.441D-01 0.605D+00-0.162D+01 0.202D+01
 Gap=     0.349 Goal=   None    Shift=    0.000
 RMSDP=4.64D-04 MaxDP=4.02D-03 DE=-1.16D-04 OVMax= 5.48D-03

 Cycle   7  Pass 1  IDiag  3:
 E= 0.740923619722267     Delta-E=       -0.000030188956 Rises=F Damp=F
 DIIS: error= 1.46D-04 at cycle   7 NSaved=   7.
 NSaved= 7 IEnMin= 7 EnMin= 0.740923619722267     IErMin= 7 ErrMin= 1.46D-04
 ErrMax= 1.46D-04  0.00D+00 EMaxC= 1.00D-01 BMatC= 4.26D-07 BMatP= 2.54D-06
 IDIUse=3 WtCom= 9.99D-01 WtEn= 1.46D-03
 Coeff-Com: -0.189D-02 0.582D-02 0.406D-02-0.192D+00 0.624D+00-0.130D+01
 Coeff-Com:  0.186D+01
 Coeff-En:   0.000D+00 0.000D+00 0.000D+00 0.000D+00 0.000D+00 0.000D+00
 Coeff-En:   0.100D+01
 Coeff:     -0.189D-02 0.582D-02 0.405D-02-0.191D+00 0.623D+00-0.130D+01
 Coeff:      0.186D+01
 Gap=     0.350 Goal=   None    Shift=    0.000
 RMSDP=2.11D-04 MaxDP=2.25D-03 DE=-3.02D-05 OVMax= 2.28D-03

 Cycle   8  Pass 1  IDiag  3:
 E= 0.740918139427805     Delta-E=       -0.000005480294 Rises=F Damp=F
 DIIS: error= 6.44D-05 at cycle   8 NSaved=   8.
 NSaved= 8 IEnMin= 8 EnMin= 0.740918139427805     IErMin= 8 ErrMin= 6.44D-05
 ErrMax= 6.44D-05  0.00D+00 EMaxC= 1.00D-01 BMatC= 1.10D-07 BMatP= 4.26D-07
 IDIUse=1 WtCom= 1.00D+00 WtEn= 0.00D+00
 Coeff-Com:  0.156D-03 0.439D-03-0.994D-02 0.125D+00-0.387D+00 0.850D+00
 Coeff-Com: -0.146D+01 0.188D+01
 Coeff:      0.156D-03 0.439D-03-0.994D-02 0.125D+00-0.387D+00 0.850D+00
 Coeff:     -0.146D+01 0.188D+01
 Gap=     0.350 Goal=   None    Shift=    0.000
 RMSDP=8.54D-05 MaxDP=8.96D-04 DE=-5.48D-06 OVMax= 8.67D-04

 Cycle   9  Pass 1  IDiag  3:
 E= 0.740916621009120     Delta-E=       -0.000001518419 Rises=F Damp=F
 DIIS: error= 5.24D-05 at cycle   9 NSaved=   9.
 NSaved= 9 IEnMin= 9 EnMin= 0.740916621009120     IErMin= 9 ErrMin= 5.24D-05
 ErrMax= 5.24D-05  0.00D+00 EMaxC= 1.00D-01 BMatC= 6.60D-08 BMatP= 1.10D-07
 IDIUse=1 WtCom= 1.00D+00 WtEn= 0.00D+00
 Coeff-Com: -0.253D-03-0.177D-02 0.322D-01-0.373D+00 0.110D+01-0.232D+01
 Coeff-Com:  0.402D+01-0.632D+01 0.486D+01
 Coeff:     -0.253D-03-0.177D-02 0.322D-01-0.373D+00 0.110D+01-0.232D+01
 Coeff:      0.402D+01-0.632D+01 0.486D+01
 Gap=     0.350 Goal=   None    Shift=    0.000
 RMSDP=1.86D-04 MaxDP=1.77D-03 DE=-1.52D-06 OVMax= 1.93D-03

 Cycle  10  Pass 1  IDiag  3:
 E= 0.740914492880862     Delta-E=       -0.000002128128 Rises=F Damp=F
 DIIS: error= 2.69D-05 at cycle  10 NSaved=  10.
 NSaved=10 IEnMin=10 EnMin= 0.740914492880862     IErMin=10 ErrMin= 2.69D-05
 ErrMax= 2.69D-05  0.00D+00 EMaxC= 1.00D-01 BMatC= 1.42D-08 BMatP= 6.60D-08
 IDIUse=1 WtCom= 1.00D+00 WtEn= 0.00D+00
 Coeff-Com: -0.363D-03 0.324D-02-0.239D-01 0.239D+00-0.699D+00 0.151D+01
 Coeff-Com: -0.266D+01 0.438D+01-0.405D+01 0.231D+01
 Coeff:     -0.363D-03 0.324D-02-0.239D-01 0.239D+00-0.699D+00 0.151D+01
 Coeff:     -0.266D+01 0.438D+01-0.405D+01 0.231D+01
 Gap=     0.350 Goal=   None    Shift=    0.000
 RMSDP=1.16D-04 MaxDP=1.17D-03 DE=-2.13D-06 OVMax= 1.15D-03

 Cycle  11  Pass 1  IDiag  3:
 E= 0.740914041399378     Delta-E=       -0.000000451481 Rises=F Damp=F
 DIIS: error= 4.76D-06 at cycle  11 NSaved=  11.
 NSaved=11 IEnMin=11 EnMin= 0.740914041399378     IErMin=11 ErrMin= 4.76D-06
 ErrMax= 4.76D-06  0.00D+00 EMaxC= 1.00D-01 BMatC= 9.90D-10 BMatP= 1.42D-08
 IDIUse=1 WtCom= 1.00D+00 WtEn= 0.00D+00
 Coeff-Com:  0.115D-03-0.113D-02 0.853D-02-0.864D-01 0.254D+00-0.545D+00
 Coeff-Com:  0.958D+00-0.157D+01 0.150D+01-0.106D+01 0.154D+01
 Coeff:      0.115D-03-0.113D-02 0.853D-02-0.864D-01 0.254D+00-0.545D+00
 Coeff:      0.958D+00-0.157D+01 0.150D+01-0.106D+01 0.154D+01
 Gap=     0.350 Goal=   None    Shift=    0.000
 RMSDP=1.34D-05 MaxDP=1.45D-04 DE=-4.51D-07 OVMax= 1.31D-04

 Cycle  12  Pass 1  IDiag  3:
 E= 0.740914031262548     Delta-E=       -0.000000010137 Rises=F Damp=F
 DIIS: error= 1.35D-06 at cycle  12 NSaved=  12.
 NSaved=12 IEnMin=12 EnMin= 0.740914031262548     IErMin=12 ErrMin= 1.35D-06
 ErrMax= 1.35D-06  0.00D+00 EMaxC= 1.00D-01 BMatC= 9.97D-11 BMatP= 9.90D-10
 IDIUse=1 WtCom= 1.00D+00 WtEn= 0.00D+00
 Coeff-Com: -0.579D-04 0.555D-03-0.400D-02 0.403D-01-0.118D+00 0.255D+00
 Coeff-Com: -0.448D+00 0.738D+00-0.709D+00 0.506D+00-0.884D+00 0.162D+01
 Coeff:     -0.579D-04 0.555D-03-0.400D-02 0.403D-01-0.118D+00 0.255D+00
 Coeff:     -0.448D+00 0.738D+00-0.709D+00 0.506D+00-0.884D+00 0.162D+01
 Gap=     0.350 Goal=   None    Shift=    0.000
 RMSDP=2.60D-06 MaxDP=2.53D-05 DE=-1.01D-08 OVMax= 2.36D-05

 Cycle  13  Pass 1  IDiag  3:
 E= 0.740914030606504     Delta-E=       -0.000000000656 Rises=F Damp=F
 DIIS: error= 3.41D-07 at cycle  13 NSaved=  13.
 NSaved=13 IEnMin=13 EnMin= 0.740914030606504     IErMin=13 ErrMin= 3.41D-07
 ErrMax= 3.41D-07  0.00D+00 EMaxC= 1.00D-01 BMatC= 4.02D-12 BMatP= 9.97D-11
 IDIUse=1 WtCom= 1.00D+00 WtEn= 0.00D+00
 Coeff-Com:  0.320D-04-0.290D-03 0.201D-02-0.201D-01 0.590D-01-0.127D+00
 Coeff-Com:  0.223D+00-0.367D+00 0.353D+00-0.255D+00 0.458D+00-0.939D+00
 Coeff-Com:  0.161D+01
 Coeff:      0.320D-04-0.290D-03 0.201D-02-0.201D-01 0.590D-01-0.127D+00
 Coeff:      0.223D+00-0.367D+00 0.353D+00-0.255D+00 0.458D+00-0.939D+00
 Coeff:      0.161D+01
 Gap=     0.350 Goal=   None    Shift=    0.000
 RMSDP=3.56D-07 MaxDP=2.01D-06 DE=-6.56D-10 OVMax= 2.78D-06

 Cycle  14  Pass 1  IDiag  3:
 E= 0.740914030579447     Delta-E=       -0.000000000027 Rises=F Damp=F
 DIIS: error= 9.39D-08 at cycle  14 NSaved=  14.
 NSaved=14 IEnMin=14 EnMin= 0.740914030579447     IErMin=14 ErrMin= 9.39D-08
 ErrMax= 9.39D-08  0.00D+00 EMaxC= 1.00D-01 BMatC= 2.60D-13 BMatP= 4.02D-12
 IDIUse=1 WtCom= 1.00D+00 WtEn= 0.00D+00
 Coeff-Com: -0.104D-04 0.904D-04-0.589D-03 0.584D-02-0.172D-01 0.369D-01
 Coeff-Com: -0.649D-01 0.107D+00-0.104D+00 0.757D-01-0.140D+00 0.295D+00
 Coeff-Com: -0.649D+00 0.146D+01
 Coeff:     -0.104D-04 0.904D-04-0.589D-03 0.584D-02-0.172D-01 0.369D-01
 Coeff:     -0.649D-01 0.107D+00-0.104D+00 0.757D-01-0.140D+00 0.295D+00
 Coeff:     -0.649D+00 0.146D+01
 Gap=     0.350 Goal=   None    Shift=    0.000
 RMSDP=1.10D-07 MaxDP=7.76D-07 DE=-2.71D-11 OVMax= 9.81D-07

 Cycle  15  Pass 1  IDiag  3:
 E= 0.740914030577343     Delta-E=       -0.000000000002 Rises=F Damp=F
 DIIS: error= 3.36D-08 at cycle  15 NSaved=  15.
 NSaved=15 IEnMin=15 EnMin= 0.740914030577343     IErMin=15 ErrMin= 3.36D-08
 ErrMax= 3.36D-08  0.00D+00 EMaxC= 1.00D-01 BMatC= 2.48D-14 BMatP= 2.60D-13
 IDIUse=1 WtCom= 1.00D+00 WtEn= 0.00D+00
 Coeff-Com:  0.919D-06-0.779D-05 0.386D-04-0.377D-03 0.111D-02-0.235D-02
 Coeff-Com:  0.410D-02-0.686D-02 0.689D-02-0.589D-02 0.139D-01-0.334D-01
 Coeff-Com:  0.117D+00-0.619D+00 0.153D+01
 Coeff:      0.919D-06-0.779D-05 0.386D-04-0.377D-03 0.111D-02-0.235D-02
 Coeff:      0.410D-02-0.686D-02 0.689D-02-0.589D-02 0.139D-01-0.334D-01
 Coeff:      0.117D+00-0.619D+00 0.153D+01
 Gap=     0.350 Goal=   None    Shift=    0.000
 RMSDP=3.87D-08 MaxDP=3.12D-07 DE=-2.10D-12 OVMax= 3.91D-07

 Cycle  16  Pass 1  IDiag  3:
 E= 0.740914030577358     Delta-E=        0.000000000000 Rises=F Damp=F
 DIIS: error= 8.54D-09 at cycle  16 NSaved=  16.
 NSaved=16 IEnMin=15 EnMin= 0.740914030577343     IErMin=16 ErrMin= 8.54D-09
 ErrMax= 8.54D-09  0.00D+00 EMaxC= 1.00D-01 BMatC= 1.54D-15 BMatP= 2.48D-14
 IDIUse=1 WtCom= 1.00D+00 WtEn= 0.00D+00
 Large coefficients: NSaved= 16 BigCof=    0.00 CofMax=   10.00 Det=-1.08D-15
 Inversion failed.  Reducing to 15 matrices.
 Coeff-Com: -0.675D-07 0.786D-05-0.803D-04 0.234D-03-0.523D-03 0.942D-03
 Coeff-Com: -0.150D-02 0.132D-02-0.461D-03-0.992D-03 0.431D-02-0.332D-01
 Coeff-Com:  0.282D+00-0.910D+00 0.166D+01
 Coeff:     -0.675D-07 0.786D-05-0.803D-04 0.234D-03-0.523D-03 0.942D-03
 Coeff:     -0.150D-02 0.132D-02-0.461D-03-0.992D-03 0.431D-02-0.332D-01
 Coeff:      0.282D+00-0.910D+00 0.166D+01
 Gap=     0.350 Goal=   None    Shift=    0.000
 RMSDP=1.06D-08 MaxDP=8.75D-08 DE= 1.42D-14 OVMax= 1.05D-07

 Cycle  17  Pass 1  IDiag  3:
 E= 0.740914030577173     Delta-E=        0.000000000000 Rises=F Damp=F
 DIIS: error= 1.70D-09 at cycle  17 NSaved=  16.
 NSaved=16 IEnMin=16 EnMin= 0.740914030577173     IErMin=16 ErrMin= 1.70D-09
 ErrMax= 1.70D-09  0.00D+00 EMaxC= 1.00D-01 BMatC= 7.44D-17 BMatP= 1.54D-15
 IDIUse=1 WtCom= 1.00D+00 WtEn= 0.00D+00
 Large coefficients: NSaved= 16 BigCof=    0.00 CofMax=   10.00 Det=-4.50D-17
 Inversion failed.  Reducing to 15 matrices.
 Coeff-Com: -0.380D-05 0.389D-04-0.114D-03 0.258D-03-0.468D-03 0.748D-03
 Coeff-Com: -0.660D-03 0.209D-03 0.609D-03-0.236D-02 0.177D-01-0.150D+00
 Coeff-Com:  0.495D+00-0.102D+01 0.166D+01
 Coeff:     -0.380D-05 0.389D-04-0.114D-03 0.258D-03-0.468D-03 0.748D-03
 Coeff:     -0.660D-03 0.209D-03 0.609D-03-0.236D-02 0.177D-01-0.150D+00
 Coeff:      0.495D+00-0.102D+01 0.166D+01
 Gap=     0.350 Goal=   None    Shift=    0.000
 RMSDP=1.98D-09 MaxDP=1.60D-08 DE=-1.85D-13 OVMax= 1.98D-08

 Cycle  18  Pass 2  IDiag  1:
 SCF Done:  E(RAM1) =  0.740914030577     A.U. after   18 cycles
            NFock= 17  Conv=0.20D-08     -V/T= 1.0494
 KE=-1.498677325764D+01 PE=-1.709952954633D+02 EE= 8.441501578234D+01
 Leave Link  502 at Sun Nov 29 12:22:31 2015, MaxMem=    33554432 cpu:         0.0
 (Enter /home/Applications/g09/g09/l601.exe)
 Copying SCF densities to generalized density rwf, IOpCl= 0 IROHF=0.

 **********************************************************************

            Population analysis using the SCF density.

 **********************************************************************

 Orbital symmetries:
       Occupied  (A) (A) (A) (A) (A) (A) (A) (A) (A) (A) (A) (A)
                 (A)
       Virtual   (A) (A) (A) (A) (A) (A) (A) (A) (A) (A) (A)
 The electronic state is 1-A.
 Alpha  occ. eigenvalues --   -1.20107  -0.92591  -0.91263  -0.74148  -0.69992
 Alpha  occ. eigenvalues --   -0.66530  -0.61659  -0.54190  -0.52197  -0.50720
 Alpha  occ. eigenvalues --   -0.48656  -0.40893  -0.34655
 Alpha virt. eigenvalues --    0.00302   0.01665   0.10884   0.13438   0.15338
 Alpha virt. eigenvalues --    0.17153   0.19181   0.20541   0.22170   0.22648
 Alpha virt. eigenvalues --    0.23615
          Condensed to atoms (all electrons):
               1          2          3          4          5          6
     1  C    4.622637   0.000000   0.000000   0.000000   0.000000   0.000000
     2  C    0.000000   3.767702   0.000000   0.000000   0.000000   0.000000
     3  O    0.000000   0.000000   6.401693   0.000000   0.000000   0.000000
     4  C    0.000000   0.000000   0.000000   3.887114   0.000000   0.000000
     5  C    0.000000   0.000000   0.000000   0.000000   4.461792   0.000000
     6  H    0.000000   0.000000   0.000000   0.000000   0.000000   0.705991
     7  H    0.000000   0.000000   0.000000   0.000000   0.000000   0.000000
     8  H    0.000000   0.000000   0.000000   0.000000   0.000000   0.000000
     9  H    0.000000   0.000000   0.000000   0.000000   0.000000   0.000000
               7          8          9
     1  C    0.000000   0.000000   0.000000
     2  C    0.000000   0.000000   0.000000
     3  O    0.000000   0.000000   0.000000
     4  C    0.000000   0.000000   0.000000
     5  C    0.000000   0.000000   0.000000
     6  H    0.000000   0.000000   0.000000
     7  H    0.725548   0.000000   0.000000
     8  H    0.000000   0.733426   0.000000
     9  H    0.000000   0.000000   0.694097
 Mulliken charges:
               1
     1  C   -0.622637
     2  C    0.232298
     3  O   -0.401693
     4  C    0.112886
     5  C   -0.461792
     6  H    0.294009
     7  H    0.274452
     8  H    0.266574
     9  H    0.305903
 Sum of Mulliken charges =   0.00000
 Mulliken charges with hydrogens summed into heavy atoms:
               1
     1  C   -0.316734
     2  C    0.498872
     3  O   -0.401693
     4  C    0.387339
     5  C   -0.167783
 Charge=              0.0000 electrons
 Dipole moment (field-independent basis, Debye):
    X=              0.4703    Y=             -0.5216    Z=              0.2058  Tot=              0.7318
 N-N= 1.023079669692D+02 E-N=-1.709952954659D+02  KE=-1.498677325764D+01
 Leave Link  601 at Sun Nov 29 12:22:31 2015, MaxMem=    33554432 cpu:         0.0
 (Enter /home/Applications/g09/g09/l701.exe)
 Compute integral first derivatives.
 ... and contract with generalized density number  0.
 Leave Link  701 at Sun Nov 29 12:22:31 2015, MaxMem=    33554432 cpu:         0.0
 (Enter /home/Applications/g09/g09/l702.exe)
 L702 exits ... SP integral derivatives will be done elsewhere.
 Leave Link  702 at Sun Nov 29 12:22:31 2015, MaxMem=    33554432 cpu:         0.0
 (Enter /home/Applications/g09/g09/l703.exe)
 Compute integral first derivatives, UseDBF=F ICtDFT=           0.
 Integral derivatives from FoFJK, PRISM(SPDF).
 Calling FoFJK, ICntrl=      2127 FMM=F ISym2X=0 I1Cent= 0 IOpClX= 0 NMat=1 NMatS=1 NMatT=0.
 FoFJK:  IHMeth= 8 ICntrl=    2127 DoSepK=F KAlg= 0 I1Cent=   0 FoldK=F
 IRaf=         0 NMat=   1 IRICut=       1 DoRegI=T DoRafI=F ISym2E= 0.
 FoFCou: FMM=F IPFlag=           0 FMFlag=      100000 FMFlg1=         800
         NFxFlg=           0 DoJE=F BraDBF=F KetDBF=F FulRan=T
         wScrn=  0.000000 ICntrl=    2127 IOpCl=  0 I1Cent=           0 NGrid=           0
         NMat0=    1 NMatS0=      1 NMatT0=    0 NMatD0=    1 NMtDS0=    0 NMtDT0=    0
 Symmetry not used in FoFCou.
 Leave Link  703 at Sun Nov 29 12:22:31 2015, MaxMem=    33554432 cpu:         0.0
 (Enter /home/Applications/g09/g09/l716.exe)
 Dipole        = 1.85028910D-01-2.05200630D-01 8.09541322D-02
 ***** Axes restored to original set *****
 -------------------------------------------------------------------
 Center     Atomic                   Forces (Hartrees/Bohr)
 Number     Number              X              Y              Z
 -------------------------------------------------------------------
      1        6          -0.047446769   -0.021892938   -0.000533223
      2        6           0.050628873    0.031277929    0.001812580
      3        8          -0.000645841    0.029207911    0.001603255
      4        6           0.028050162   -0.035166704   -0.008019215
      5        6          -0.037604251   -0.015799152    0.008782204
      6        1           0.022006961    0.015727270   -0.001180042
      7        1          -0.014807911    0.016021903    0.000851630
      8        1          -0.008524300   -0.027648207   -0.000602575
      9        1           0.008343077    0.008271987   -0.002714613
 -------------------------------------------------------------------
 Cartesian Forces:  Max     0.050628873 RMS     0.022071418
 Leave Link  716 at Sun Nov 29 12:22:31 2015, MaxMem=    33554432 cpu:         0.0
 (Enter /home/Applications/g09/g09/l103.exe)

 GradGradGradGradGradGradGradGradGradGradGradGradGradGradGradGradGradGrad
 Berny optimization.
 FormGI is forming the generalized inverse of G from B-inverse, IUseBI=4.
 Internal  Forces:  Max     0.037510474 RMS     0.011259115
 Search for a local minimum.
 Step number   1 out of a maximum of   48
 All quantities printed in internal units (Hartrees-Bohrs-Radians)
 RMS Force = .11259D-01 SwitMx=.10000D-02 MixMth= 1
 Mixed Optimization -- RFO/linear search
 Second derivative matrix not updated -- first step.
 ITU=  0
     Eigenvalues ---    0.01871   0.01962   0.01999   0.02066   0.02131
     Eigenvalues ---    0.02197   0.15905   0.15943   0.15993   0.15995
     Eigenvalues ---    0.21995   0.22920   0.35558   0.39197   0.39315
     Eigenvalues ---    0.39592   0.40363   0.40763   0.44912   0.46302
     Eigenvalues ---    0.55935
 RFO step:  Lambda=-1.34532690D-02 EMin= 1.87062069D-02
 Linear search not attempted -- first point.
 Iteration  1 RMS(Cart)=  0.03474088 RMS(Int)=  0.00136904
 Iteration  2 RMS(Cart)=  0.00138200 RMS(Int)=  0.00052448
 Iteration  3 RMS(Cart)=  0.00000115 RMS(Int)=  0.00052448
 Iteration  4 RMS(Cart)=  0.00000000 RMS(Int)=  0.00052448
 ITry= 1 IFail=0 DXMaxC= 9.14D-02 DCOld= 1.00D+10 DXMaxT= 3.00D-01 DXLimC= 3.00D+00 Rises=F
 Variable       Old X    -DE/DX   Delta X   Delta X   Delta X     New X
                                 (Linear)    (Quad)   (Total)
    R1        2.67548  -0.03751   0.00000  -0.08404  -0.08407   2.59141
    R2        2.67927  -0.00214   0.00000  -0.00649  -0.00647   2.67280
    R3        2.04779   0.00009   0.00000   0.00025   0.00025   2.04804
    R4        2.52372   0.01421   0.00000   0.02519   0.02516   2.54888
    R5        1.98812   0.02847   0.00000   0.06954   0.06954   2.05765
    R6        2.64241  -0.01816   0.00000  -0.03766  -0.03765   2.60476
    R7        2.61863  -0.02027   0.00000  -0.04215  -0.04211   2.57653
    R8        1.99359   0.02067   0.00000   0.05099   0.05099   2.04458
    R9        1.97763   0.02702   0.00000   0.06478   0.06478   2.04241
    A1        1.85009   0.00201   0.00000   0.00619   0.00587   1.85596
    A2        2.07359   0.01092   0.00000   0.06611   0.06628   2.13987
    A3        2.35694  -0.01292   0.00000  -0.07182  -0.07170   2.28524
    A4        1.92231  -0.00080   0.00000   0.00033  -0.00028   1.92203
    A5        2.34953  -0.00474   0.00000  -0.02940  -0.02948   2.32006
    A6        2.01103   0.00556   0.00000   0.03006   0.02996   2.04099
    A7        1.88132  -0.00338   0.00000  -0.00694  -0.00742   1.87391
    A8        1.90607   0.00033   0.00000   0.00060   0.00017   1.90624
    A9        2.11476  -0.00716   0.00000  -0.04024  -0.04032   2.07445
   A10        2.26195   0.00686   0.00000   0.04061   0.04053   2.30248
   A11        1.86335   0.00199   0.00000   0.00443   0.00300   1.86635
   A12        2.17070  -0.00100   0.00000   0.00037  -0.00071   2.16999
   A13        2.24614  -0.00076   0.00000   0.00178   0.00069   2.24682
    D1       -0.03119   0.00171   0.00000   0.04815   0.04807   0.01688
    D2        3.13945   0.00022   0.00000   0.00138   0.00165   3.14110
    D3        3.04488   0.00119   0.00000   0.05075   0.05081   3.09568
    D4       -0.06767  -0.00030   0.00000   0.00397   0.00439  -0.06328
    D5        0.05079  -0.00234   0.00000  -0.07326  -0.07366  -0.02287
    D6        3.11548   0.00066   0.00000   0.01115   0.01042   3.12590
    D7       -3.00951  -0.00324   0.00000  -0.08531  -0.08492  -3.09444
    D8        0.05518  -0.00024   0.00000  -0.00089  -0.00084   0.05433
    D9       -0.00109  -0.00004   0.00000  -0.00278  -0.00325  -0.00434
   D10        3.11765   0.00096   0.00000   0.03303   0.03387  -3.13166
   D11        0.03429  -0.00150   0.00000  -0.04516  -0.04491  -0.01062
   D12       -3.13478  -0.00020   0.00000  -0.01075  -0.01215   3.13625
   D13       -0.05306   0.00254   0.00000   0.07429   0.07384   0.02078
   D14       -3.11331  -0.00063   0.00000  -0.01492  -0.01510  -3.12841
   D15        3.11906   0.00139   0.00000   0.03784   0.03710  -3.12702
   D16        0.05880  -0.00177   0.00000  -0.05137  -0.05183   0.00697
         Item               Value     Threshold  Converged?
 Maximum Force            0.037510     0.000450     NO 
 RMS     Force            0.011259     0.000300     NO 
 Maximum Displacement     0.091417     0.001800     NO 
 RMS     Displacement     0.034958     0.001200     NO 
 Predicted change in Energy=-7.184091D-03
 Lowest energy point so far.  Saving SCF results.
 GradGradGradGradGradGradGradGradGradGradGradGradGradGradGradGradGradGrad

 Leave Link  103 at Sun Nov 29 12:22:31 2015, MaxMem=    33554432 cpu:         0.0
 (Enter /home/Applications/g09/g09/l202.exe)
                          Input orientation:                          
 ---------------------------------------------------------------------
 Center     Atomic      Atomic             Coordinates (Angstroms)
 Number     Number       Type             X           Y           Z
 ---------------------------------------------------------------------
      1          6           0        0.955456   -0.683419   -0.042380
      2          6           0       -0.357799   -1.077734   -0.022808
      3          8           0       -1.166200    0.001778   -0.002135
      4          6           0       -0.359856    1.119695   -0.002731
      5          6           0        0.946856    0.730570   -0.010104
      6          1           0        1.835631    1.345487   -0.001441
      7          1           0       -0.822874    2.097510    0.007329
      8          1           0       -0.839154   -2.054347   -0.034912
      9          1           0        1.777549   -1.389240   -0.018940
 ---------------------------------------------------------------------
                    Distance matrix (angstroms):
                    1          2          3          4          5
     1  C    0.000000
     2  C    1.371316   0.000000
     3  O    2.229919   1.348808   0.000000
     4  C    2.232227   2.197521   1.378379   0.000000
     5  C    1.414384   2.229854   2.235220   1.363440   0.000000
     6  H    2.211978   3.268577   3.288852   2.207068   1.080796
     7  H    3.301287   3.209263   2.123689   1.081947   2.236241
     8  H    2.258346   1.088862   2.082230   3.210187   3.308505
     9  H    1.083775   2.157953   3.255898   3.295985   2.276779
                    6          7          8          9
     6  H    0.000000
     7  H    2.762836   0.000000
     8  H    4.326022   4.152103   0.000000
     9  H    2.735400   4.349748   2.699955   0.000000
 Stoichiometry    C4H4O
 Framework group  C1[X(C4H4O)]
 Deg. of freedom    21
 Full point group                 C1      NOp   1
 RotChk:  IX=0 Diff= 3.54D-01
 Largest Abelian subgroup         C1      NOp   1
 Largest concise Abelian subgroup C1      NOp   1
                         Standard orientation:                         
 ---------------------------------------------------------------------
 Center     Atomic      Atomic             Coordinates (Angstroms)
 Number     Number       Type             X           Y           Z
 ---------------------------------------------------------------------
      1          6           0        0.632967    1.007667   -0.011973
      2          6           0        1.113960   -0.276452    0.001877
      3          8           0        0.090748   -1.155269    0.003767
      4          6           0       -1.078503   -0.425385   -0.003423
      5          6           0       -0.777553    0.904406    0.003915
      6          1           0       -1.450573    1.750037    0.012433
      7          1           0       -2.023225   -0.952722   -0.008269
      8          1           0        2.120643   -0.691408   -0.002721
      9          1           0        1.281946    1.874818    0.026040
 ---------------------------------------------------------------------
 Rotational constants (GHZ):      9.4674251      9.2714991      4.6844869
 Leave Link  202 at Sun Nov 29 12:22:31 2015, MaxMem=    33554432 cpu:         0.0
 (Enter /home/Applications/g09/g09/l301.exe)

 Semi-emprical parameters in input format:
 Method=8 CoreType=1 PeptideFC=0.0105570000 RIJScale=0.4899110000
 ****
 H       
 PQN=1 NValence=1 F0ss=0.4577290000 ZetaOverlap=1.0659780000 U=-0.3880320000
 Beta=-0.2381360000 CoreKO=1.1144350000 KON=0,0,0,1.0186160000 KON=1,0,1,1.0557690000
 KON=0,1,1,1.0725930000 KON=2,1,1,1.1590830000 EISol=-0.4188110042 EHeat=0.0830298228
 Alpha=1.5252600000
 GCore=0.0099350000,1.3986240000,2.1461900000
 GCore=0.0003630000,1.5415670000,2.7171030000
 GCore=-0.0012530000,0.5088300000,4.2039300000
 ****
 C       
 PQN=2,2 NValence=4 F0ss=0.4263360000 F0sp=0.4580860000 F0pp=0.3261620000 F2pp=0.2036090000
 G1sp=0.2073130000
 ZetaOverlap=2.1016200000,1.8587190000
 U=-1.9018080000,-1.4557970000
 Beta=-0.4792560000,-0.2700630000 DDN=0,1,0.8034860000 DDN=1,1,0.7591540000
 CoreKO=1.1325510000 KON=0,0,0,1.1996250000 KON=1,0,1,0.8437060000 KON=0,1,1,1.0478550000
 KON=2,1,1,0.8168110000 EISol=-4.4398989268 EHeat=0.2723305520 Alpha=1.4381970000
 DipHyp=1.6068795495
 GCore=0.0008260000,1.4798740000,2.8384620000
 GCore=0.0031480000,1.6675340000,3.8116200000
 GCore=-0.0011560000,1.5029710000,3.9059920000
 GCore=-0.0000920000,1.1754400000,4.8520980000
 ****
 O       
 PQN=2,2 NValence=6 F0ss=0.5413910000 F0sp=0.5145480000 F0pp=0.5091470000 F2pp=0.2175940000
 G1sp=0.4302620000
 ZetaOverlap=3.3296350000,2.5240390000
 U=-3.3343200000,-2.9854240000
 Beta=-0.9082740000,-1.1340310000 DDN=0,1,0.4988900000 DDN=1,1,0.5206270000
 CoreKO=0.9688900000 KON=0,0,0,0.8976510000 KON=1,0,1,0.5186760000 KON=0,1,1,0.8274210000
 KON=2,1,1,0.5315430000 EISol=-11.6164441184 EHeat=0.0949133088 Alpha=2.3722000000
 DipHyp=0.9977225968
 GCore=0.0212480000,1.1747580000,1.6499540000
 GCore=0.0064050000,2.1096700000,2.7148630000
 ****
 
 Standard basis: VSTO-6G (5D, 7F)
 Ernie: Thresh=  0.10000D-02 Tol=  0.10000D-05 Strict=F.
  NNHCO=     0 NNPyr=     0 NCTC=     0               EPep=         0.000000000
    EC=        67.925881752  ECS=         1.644715144   EG=         0.437119235
   EHC=         0.000000000  EAt=       -31.051283842  AtH=         1.516354808
 EPDDG=         0.000000000  ECC=        70.007716132 EAtT=        32.567638650
 There are    24 symmetry adapted cartesian basis functions of A   symmetry.
 There are    24 symmetry adapted basis functions of A   symmetry.
    24 basis functions,   144 primitive gaussians,    24 cartesian basis functions
    13 alpha electrons       13 beta electrons
       nuclear repulsion energy       102.5753547821 Hartrees.
 IExCor=    0 DFT=F Ex=HF Corr=None ExCW=0 ScaHFX=  1.000000
 ScaDFX=  1.000000  1.000000  1.000000  1.000000 ScalE2=  1.000000  1.000000
 IRadAn=      0 IRanWt=     -1 IRanGd=            0 ICorTp=0 IEmpDi=  4
 Integral buffers will be    131072 words long.
 Regular integral format.
 Two-electron integral symmetry is turned off.
 Leave Link  301 at Sun Nov 29 12:22:31 2015, MaxMem=    33554432 cpu:         0.0
 (Enter /home/Applications/g09/g09/l302.exe)
 Do NDO integrals.
 NPDir=0 NMtPBC=     1 NCelOv=     1 NCel=       1 NClECP=     1 NCelD=      1
         NCelK=      1 NCelE2=     1 NClLst=     1 CellRange=     0.0.
 One-electron integrals computed using PRISM.
 NBasis=    24 RedAO= F EigKep=  0.00D+00  NBF=    24
 NBsUse=    24 1.00D-04 EigRej=  0.00D+00 NBFU=    24
 Leave Link  302 at Sun Nov 29 12:22:31 2015, MaxMem=    33554432 cpu:         0.0
 (Enter /home/Applications/g09/g09/l303.exe)
 DipDrv:  MaxL=1.
 Leave Link  303 at Sun Nov 29 12:22:31 2015, MaxMem=    33554432 cpu:         0.0
 (Enter /home/Applications/g09/g09/l401.exe)
 Initial guess from the checkpoint file:  "/home/Applications/g09/scratch/Gau-20955.chk"
 B after Tr=     0.000000    0.000000    0.000000
         Rot=    0.991624    0.000068    0.000114    0.129162 Ang=  14.84 deg.
 Guess basis will be translated and rotated to current coordinates.
 JPrj=0 DoOrth=T DoCkMO=T.
 Leave Link  401 at Sun Nov 29 12:22:31 2015, MaxMem=    33554432 cpu:         0.0
 (Enter /home/Applications/g09/g09/l502.exe)
 Closed shell SCF:
 Using DIIS extrapolation, IDIIS=  1040.
 Overlap will be assumed to be unity.
 Two-electron integral symmetry not used.
 Keep J ints in memory in canonical form, NReq=888082.
 IVT=       79475 IEndB=       79475 NGot=    33554432 MDV=    33473473
 LenX=    33473473 LenY=    33472456
 Requested convergence on RMS density matrix=1.00D-08 within 128 cycles.
 Requested convergence on MAX density matrix=1.00D-06.
 Requested convergence on             energy=1.00D-06.
 No special actions if energy rises.
 FoFCou: FMM=F IPFlag=           0 FMFlag=           0 FMFlg1=           0
         NFxFlg=           0 DoJE=F BraDBF=F KetDBF=F FulRan=T
         wScrn=  0.000000 ICntrl=     600 IOpCl=  2 I1Cent=           0 NGrid=           0
         NMat0=    1 NMatS0=     54 NMatT0=    0 NMatD0=    1 NMtDS0=    0 NMtDT0=    0
 Symmetry not used in FoFCou.

 Cycle   1  Pass 1  IDiag  1:
 E= 0.736136345546015    
 DIIS: error= 3.86D-03 at cycle   1 NSaved=   1.
 NSaved= 1 IEnMin= 1 EnMin= 0.736136345546015     IErMin= 1 ErrMin= 3.86D-03
 ErrMax= 3.86D-03  0.00D+00 EMaxC= 1.00D-01 BMatC= 6.96D-04 BMatP= 6.96D-04
 IDIUse=3 WtCom= 9.61D-01 WtEn= 3.86D-02
 Coeff-Com:  0.100D+01
 Coeff-En:   0.100D+01
 Coeff:      0.100D+01
 GapD=    2.000 DampG=2.000 DampE=1.000 DampFc=2.0000 IDamp=-1.
 RMSDP=2.06D-03 MaxDP=8.52D-03              OVMax= 0.00D+00

 Cycle   2  Pass 1  IDiag  3:
 E= 0.733646123734573     Delta-E=       -0.002490221811 Rises=F Damp=F
 DIIS: error= 1.60D-03 at cycle   2 NSaved=   2.
 NSaved= 2 IEnMin= 2 EnMin= 0.733646123734573     IErMin= 2 ErrMin= 1.60D-03
 ErrMax= 1.60D-03  0.00D+00 EMaxC= 1.00D-01 BMatC= 1.11D-04 BMatP= 6.96D-04
 IDIUse=3 WtCom= 9.84D-01 WtEn= 1.60D-02
 Coeff-Com: -0.556D+00 0.156D+01
 Coeff-En:   0.000D+00 0.100D+01
 Coeff:     -0.547D+00 0.155D+01
 Gap=     0.360 Goal=   None    Shift=    0.000
 RMSDP=1.49D-03 MaxDP=6.88D-03 DE=-2.49D-03 OVMax= 6.94D-03

 Cycle   3  Pass 1  IDiag  3:
 E= 0.733030774225071     Delta-E=       -0.000615349510 Rises=F Damp=F
 DIIS: error= 3.52D-04 at cycle   3 NSaved=   3.
 NSaved= 3 IEnMin= 3 EnMin= 0.733030774225071     IErMin= 3 ErrMin= 3.52D-04
 ErrMax= 3.52D-04  0.00D+00 EMaxC= 1.00D-01 BMatC= 6.81D-06 BMatP= 1.11D-04
 IDIUse=3 WtCom= 9.96D-01 WtEn= 3.52D-03
 Coeff-Com:  0.381D+00-0.118D+01 0.180D+01
 Coeff-En:   0.000D+00 0.000D+00 0.100D+01
 Coeff:      0.380D+00-0.117D+01 0.179D+01
 Gap=     0.360 Goal=   None    Shift=    0.000
 RMSDP=5.71D-04 MaxDP=3.76D-03 DE=-6.15D-04 OVMax= 4.14D-03

 Cycle   4  Pass 1  IDiag  3:
 E= 0.732970765522950     Delta-E=       -0.000060008702 Rises=F Damp=F
 DIIS: error= 2.02D-04 at cycle   4 NSaved=   4.
 NSaved= 4 IEnMin= 4 EnMin= 0.732970765522950     IErMin= 4 ErrMin= 2.02D-04
 ErrMax= 2.02D-04  0.00D+00 EMaxC= 1.00D-01 BMatC= 8.54D-07 BMatP= 6.81D-06
 IDIUse=3 WtCom= 9.98D-01 WtEn= 2.02D-03
 Coeff-Com: -0.233D+00 0.733D+00-0.126D+01 0.176D+01
 Coeff-En:   0.000D+00 0.000D+00 0.000D+00 0.100D+01
 Coeff:     -0.232D+00 0.731D+00-0.126D+01 0.176D+01
 Gap=     0.360 Goal=   None    Shift=    0.000
 RMSDP=2.11D-04 MaxDP=2.29D-03 DE=-6.00D-05 OVMax= 1.87D-03

 Cycle   5  Pass 1  IDiag  3:
 E= 0.732960920896261     Delta-E=       -0.000009844627 Rises=F Damp=F
 DIIS: error= 1.40D-04 at cycle   5 NSaved=   5.
 NSaved= 5 IEnMin= 5 EnMin= 0.732960920896261     IErMin= 5 ErrMin= 1.40D-04
 ErrMax= 1.40D-04  0.00D+00 EMaxC= 1.00D-01 BMatC= 4.09D-07 BMatP= 8.54D-07
 IDIUse=3 WtCom= 9.99D-01 WtEn= 1.40D-03
 Coeff-Com:  0.304D+00-0.956D+00 0.168D+01-0.294D+01 0.290D+01
 Coeff-En:   0.000D+00 0.000D+00 0.000D+00 0.000D+00 0.100D+01
 Coeff:      0.303D+00-0.955D+00 0.168D+01-0.293D+01 0.290D+01
 Gap=     0.360 Goal=   None    Shift=    0.000
 RMSDP=2.47D-04 MaxDP=2.74D-03 DE=-9.84D-06 OVMax= 2.08D-03

 Cycle   6  Pass 1  IDiag  3:
 E= 0.732953231316486     Delta-E=       -0.000007689580 Rises=F Damp=F
 DIIS: error= 7.79D-05 at cycle   6 NSaved=   6.
 NSaved= 6 IEnMin= 6 EnMin= 0.732953231316486     IErMin= 6 ErrMin= 7.79D-05
 ErrMax= 7.79D-05  0.00D+00 EMaxC= 1.00D-01 BMatC= 1.54D-07 BMatP= 4.09D-07
 IDIUse=1 WtCom= 1.00D+00 WtEn= 0.00D+00
 Coeff-Com: -0.775D-01 0.247D+00-0.470D+00 0.116D+01-0.194D+01 0.208D+01
 Coeff:     -0.775D-01 0.247D+00-0.470D+00 0.116D+01-0.194D+01 0.208D+01
 Gap=     0.360 Goal=   None    Shift=    0.000
 RMSDP=1.79D-04 MaxDP=1.93D-03 DE=-7.69D-06 OVMax= 1.68D-03

 Cycle   7  Pass 1  IDiag  3:
 E= 0.732949847629897     Delta-E=       -0.000003383687 Rises=F Damp=F
 DIIS: error= 5.46D-05 at cycle   7 NSaved=   7.
 NSaved= 7 IEnMin= 7 EnMin= 0.732949847629897     IErMin= 7 ErrMin= 5.46D-05
 ErrMax= 5.46D-05  0.00D+00 EMaxC= 1.00D-01 BMatC= 6.59D-08 BMatP= 1.54D-07
 IDIUse=1 WtCom= 1.00D+00 WtEn= 0.00D+00
 Coeff-Com:  0.277D-01-0.872D-01 0.173D+00-0.601D+00 0.145D+01-0.268D+01
 Coeff-Com:  0.271D+01
 Coeff:      0.277D-01-0.872D-01 0.173D+00-0.601D+00 0.145D+01-0.268D+01
 Coeff:      0.271D+01
 Gap=     0.360 Goal=   None    Shift=    0.000
 RMSDP=1.59D-04 MaxDP=1.52D-03 DE=-3.38D-06 OVMax= 1.59D-03

 Cycle   8  Pass 1  IDiag  3:
 E= 0.732948079211482     Delta-E=       -0.000001768418 Rises=F Damp=F
 DIIS: error= 3.27D-05 at cycle   8 NSaved=   8.
 NSaved= 8 IEnMin= 8 EnMin= 0.732948079211482     IErMin= 8 ErrMin= 3.27D-05
 ErrMax= 3.27D-05  0.00D+00 EMaxC= 1.00D-01 BMatC= 2.15D-08 BMatP= 6.59D-08
 IDIUse=1 WtCom= 1.00D+00 WtEn= 0.00D+00
 Coeff-Com:  0.730D-01-0.229D+00 0.390D+00-0.452D+00-0.558D-01 0.148D+01
 Coeff-Com: -0.265D+01 0.244D+01
 Coeff:      0.730D-01-0.229D+00 0.390D+00-0.452D+00-0.558D-01 0.148D+01
 Coeff:     -0.265D+01 0.244D+01
 Gap=     0.360 Goal=   None    Shift=    0.000
 RMSDP=9.56D-05 MaxDP=9.94D-04 DE=-1.77D-06 OVMax= 9.40D-04

 Cycle   9  Pass 1  IDiag  3:
 E= 0.732947563264517     Delta-E=       -0.000000515947 Rises=F Damp=F
 DIIS: error= 1.14D-05 at cycle   9 NSaved=   9.
 NSaved= 9 IEnMin= 9 EnMin= 0.732947563264517     IErMin= 9 ErrMin= 1.14D-05
 ErrMax= 1.14D-05  0.00D+00 EMaxC= 1.00D-01 BMatC= 3.31D-09 BMatP= 2.15D-08
 IDIUse=1 WtCom= 1.00D+00 WtEn= 0.00D+00
 Coeff-Com: -0.269D-01 0.848D-01-0.147D+00 0.167D+00 0.373D-01-0.695D+00
 Coeff-Com:  0.137D+01-0.173D+01 0.194D+01
 Coeff:     -0.269D-01 0.848D-01-0.147D+00 0.167D+00 0.373D-01-0.695D+00
 Coeff:      0.137D+01-0.173D+01 0.194D+01
 Gap=     0.360 Goal=   None    Shift=    0.000
 RMSDP=3.72D-05 MaxDP=3.94D-04 DE=-5.16D-07 OVMax= 3.69D-04

 Cycle  10  Pass 1  IDiag  3:
 E= 0.732947501554307     Delta-E=       -0.000000061710 Rises=F Damp=F
 DIIS: error= 1.94D-06 at cycle  10 NSaved=  10.
 NSaved=10 IEnMin=10 EnMin= 0.732947501554307     IErMin=10 ErrMin= 1.94D-06
 ErrMax= 1.94D-06  0.00D+00 EMaxC= 1.00D-01 BMatC= 2.11D-10 BMatP= 3.31D-09
 IDIUse=1 WtCom= 1.00D+00 WtEn= 0.00D+00
 Coeff-Com:  0.131D-01-0.414D-01 0.722D-01-0.931D-01 0.218D-01 0.244D+00
 Coeff-Com: -0.534D+00 0.743D+00-0.106D+01 0.164D+01
 Coeff:      0.131D-01-0.414D-01 0.722D-01-0.931D-01 0.218D-01 0.244D+00
 Coeff:     -0.534D+00 0.743D+00-0.106D+01 0.164D+01
 Gap=     0.360 Goal=   None    Shift=    0.000
 RMSDP=5.55D-06 MaxDP=5.57D-05 DE=-6.17D-08 OVMax= 4.97D-05

 Cycle  11  Pass 1  IDiag  3:
 E= 0.732947499438225     Delta-E=       -0.000000002116 Rises=F Damp=F
 DIIS: error= 7.51D-07 at cycle  11 NSaved=  11.
 NSaved=11 IEnMin=11 EnMin= 0.732947499438225     IErMin=11 ErrMin= 7.51D-07
 ErrMax= 7.51D-07  0.00D+00 EMaxC= 1.00D-01 BMatC= 1.31D-11 BMatP= 2.11D-10
 IDIUse=1 WtCom= 1.00D+00 WtEn= 0.00D+00
 Coeff-Com: -0.548D-02 0.173D-01-0.303D-01 0.387D-01-0.749D-02-0.111D+00
 Coeff-Com:  0.243D+00-0.335D+00 0.496D+00-0.911D+00 0.161D+01
 Coeff:     -0.548D-02 0.173D-01-0.303D-01 0.387D-01-0.749D-02-0.111D+00
 Coeff:      0.243D+00-0.335D+00 0.496D+00-0.911D+00 0.161D+01
 Gap=     0.360 Goal=   None    Shift=    0.000
 RMSDP=7.96D-07 MaxDP=6.56D-06 DE=-2.12D-09 OVMax= 9.07D-06

 Cycle  12  Pass 1  IDiag  3:
 E= 0.732947499327707     Delta-E=       -0.000000000111 Rises=F Damp=F
 DIIS: error= 1.86D-07 at cycle  12 NSaved=  12.
 NSaved=12 IEnMin=12 EnMin= 0.732947499327707     IErMin=12 ErrMin= 1.86D-07
 ErrMax= 1.86D-07  0.00D+00 EMaxC= 1.00D-01 BMatC= 8.84D-13 BMatP= 1.31D-11
 IDIUse=1 WtCom= 1.00D+00 WtEn= 0.00D+00
 Coeff-Com:  0.183D-02-0.579D-02 0.101D-01-0.128D-01 0.181D-02 0.391D-01
 Coeff-Com: -0.843D-01 0.114D+00-0.169D+00 0.325D+00-0.755D+00 0.154D+01
 Coeff:      0.183D-02-0.579D-02 0.101D-01-0.128D-01 0.181D-02 0.391D-01
 Coeff:     -0.843D-01 0.114D+00-0.169D+00 0.325D+00-0.755D+00 0.154D+01
 Gap=     0.360 Goal=   None    Shift=    0.000
 RMSDP=2.77D-07 MaxDP=2.04D-06 DE=-1.11D-10 OVMax= 2.39D-06

 Cycle  13  Pass 1  IDiag  3:
 E= 0.732947499319366     Delta-E=       -0.000000000008 Rises=F Damp=F
 DIIS: error= 3.95D-08 at cycle  13 NSaved=  13.
 NSaved=13 IEnMin=13 EnMin= 0.732947499319366     IErMin=13 ErrMin= 3.95D-08
 ErrMax= 3.95D-08  0.00D+00 EMaxC= 1.00D-01 BMatC= 5.17D-14 BMatP= 8.84D-13
 IDIUse=1 WtCom= 1.00D+00 WtEn= 0.00D+00
 Coeff-Com: -0.278D-03 0.875D-03-0.153D-02 0.182D-02 0.183D-03-0.757D-02
 Coeff-Com:  0.158D-01-0.205D-01 0.313D-01-0.639D-01 0.175D+00-0.575D+00
 Coeff-Com:  0.144D+01
 Coeff:     -0.278D-03 0.875D-03-0.153D-02 0.182D-02 0.183D-03-0.757D-02
 Coeff:      0.158D-01-0.205D-01 0.313D-01-0.639D-01 0.175D+00-0.575D+00
 Coeff:      0.144D+01
 Gap=     0.360 Goal=   None    Shift=    0.000
 RMSDP=6.11D-08 MaxDP=4.99D-07 DE=-8.34D-12 OVMax= 6.48D-07

 Cycle  14  Pass 1  IDiag  3:
 E= 0.732947499318783     Delta-E=       -0.000000000001 Rises=F Damp=F
 DIIS: error= 6.75D-09 at cycle  14 NSaved=  14.
 NSaved=14 IEnMin=14 EnMin= 0.732947499318783     IErMin=14 ErrMin= 6.75D-09
 ErrMax= 6.75D-09  0.00D+00 EMaxC= 1.00D-01 BMatC= 2.48D-15 BMatP= 5.17D-14
 IDIUse=1 WtCom= 1.00D+00 WtEn= 0.00D+00
 Coeff-Com:  0.167D-04-0.519D-04 0.933D-04-0.767D-04-0.147D-03 0.106D-02
 Coeff-Com: -0.219D-02 0.261D-02-0.463D-02 0.115D-01-0.423D-01 0.201D+00
 Coeff-Com: -0.709D+00 0.154D+01
 Coeff:      0.167D-04-0.519D-04 0.933D-04-0.767D-04-0.147D-03 0.106D-02
 Coeff:     -0.219D-02 0.261D-02-0.463D-02 0.115D-01-0.423D-01 0.201D+00
 Coeff:     -0.709D+00 0.154D+01
 Gap=     0.360 Goal=   None    Shift=    0.000
 RMSDP=1.20D-08 MaxDP=7.84D-08 DE=-5.83D-13 OVMax= 9.14D-08

 Cycle  15  Pass 1  IDiag  3:
 E= 0.732947499319167     Delta-E=        0.000000000000 Rises=F Damp=F
 DIIS: error= 1.31D-09 at cycle  15 NSaved=  15.
 NSaved=15 IEnMin=14 EnMin= 0.732947499318783     IErMin=15 ErrMin= 1.31D-09
 ErrMax= 1.31D-09  0.00D+00 EMaxC= 1.00D-01 BMatC= 9.24D-17 BMatP= 2.48D-15
 IDIUse=1 WtCom= 1.00D+00 WtEn= 0.00D+00
 Coeff-Com:  0.293D-06-0.128D-05 0.962D-06-0.224D-04 0.839D-04-0.356D-03
 Coeff-Com:  0.718D-03-0.801D-03 0.160D-02-0.440D-02 0.179D-01-0.921D-01
 Coeff-Com:  0.342D+00-0.843D+00 0.158D+01
 Coeff:      0.293D-06-0.128D-05 0.962D-06-0.224D-04 0.839D-04-0.356D-03
 Coeff:      0.718D-03-0.801D-03 0.160D-02-0.440D-02 0.179D-01-0.921D-01
 Coeff:      0.342D+00-0.843D+00 0.158D+01
 Gap=     0.360 Goal=   None    Shift=    0.000
 RMSDP=1.75D-09 MaxDP=8.34D-09 DE= 3.84D-13 OVMax= 1.02D-08

 Cycle  16  Pass 2  IDiag  1:
 SCF Done:  E(RAM1) =  0.732947499319     A.U. after   16 cycles
            NFock= 15  Conv=0.18D-08     -V/T= 1.0489
 KE=-1.499887138973D+01 PE=-1.715559851619D+02 EE= 8.471244926885D+01
 Leave Link  502 at Sun Nov 29 12:22:31 2015, MaxMem=    33554432 cpu:         0.0
 (Enter /home/Applications/g09/g09/l701.exe)
 Compute integral first derivatives.
 ... and contract with generalized density number  0.
 Leave Link  701 at Sun Nov 29 12:22:31 2015, MaxMem=    33554432 cpu:         0.0
 (Enter /home/Applications/g09/g09/l702.exe)
 L702 exits ... SP integral derivatives will be done elsewhere.
 Leave Link  702 at Sun Nov 29 12:22:31 2015, MaxMem=    33554432 cpu:         0.0
 (Enter /home/Applications/g09/g09/l703.exe)
 Compute integral first derivatives, UseDBF=F ICtDFT=           0.
 Integral derivatives from FoFJK, PRISM(SPDF).
 Calling FoFJK, ICntrl=      2127 FMM=F ISym2X=0 I1Cent= 0 IOpClX= 0 NMat=1 NMatS=1 NMatT=0.
 FoFJK:  IHMeth= 8 ICntrl=    2127 DoSepK=F KAlg= 0 I1Cent=   0 FoldK=F
 IRaf=         0 NMat=   1 IRICut=       1 DoRegI=T DoRafI=F ISym2E= 0.
 FoFCou: FMM=F IPFlag=           0 FMFlag=      100000 FMFlg1=         800
         NFxFlg=           0 DoJE=F BraDBF=F KetDBF=F FulRan=T
         wScrn=  0.000000 ICntrl=    2127 IOpCl=  0 I1Cent=           0 NGrid=           0
         NMat0=    1 NMatS0=      1 NMatT0=    0 NMatD0=    1 NMtDS0=    0 NMtDT0=    0
 Symmetry not used in FoFCou.
 Leave Link  703 at Sun Nov 29 12:22:31 2015, MaxMem=    33554432 cpu:         0.0
 (Enter /home/Applications/g09/g09/l716.exe)
 Dipole        = 7.22308375D-02-2.21280609D-01 2.49233491D-02
 ***** Axes restored to original set *****
 -------------------------------------------------------------------
 Center     Atomic                   Forces (Hartrees/Bohr)
 Number     Number              X              Y              Z
 -------------------------------------------------------------------
      1        6          -0.010000384   -0.018161829    0.005537545
      2        6           0.010227057   -0.001485321   -0.002551201
      3        8          -0.010485976    0.012627604   -0.000467688
      4        6           0.006645942   -0.007729106    0.001494387
      5        6           0.000319549    0.007558204   -0.002632700
      6        1           0.003912073    0.001893910   -0.000080229
      7        1          -0.005602247    0.002902937    0.000151496
      8        1          -0.001574302   -0.002817265    0.000302177
      9        1           0.006558287    0.005210866   -0.001753787
 -------------------------------------------------------------------
 Cartesian Forces:  Max     0.018161829 RMS     0.006543989
 Leave Link  716 at Sun Nov 29 12:22:31 2015, MaxMem=    33554432 cpu:         0.0
 (Enter /home/Applications/g09/g09/l103.exe)

 GradGradGradGradGradGradGradGradGradGradGradGradGradGradGradGradGradGrad
 Berny optimization.
 Using GEDIIS/GDIIS optimizer.
 FormGI is forming the generalized inverse of G from B-inverse, IUseBI=4.
 Internal  Forces:  Max     0.011768352 RMS     0.003560051
 Search for a local minimum.
 Step number   2 out of a maximum of   48
 All quantities printed in internal units (Hartrees-Bohrs-Radians)
 RMS Force = .35601D-02 SwitMx=.10000D-02 MixMth= 1
 Mixed Optimization -- RFO/linear search
 Update second derivatives using D2CorX and points    1    2
 DE= -7.97D-03 DEPred=-7.18D-03 R= 1.11D+00
 TightC=F SS=  1.41D+00  RLast= 2.61D-01 DXNew= 5.0454D-01 7.8206D-01
 Trust test= 1.11D+00 RLast= 2.61D-01 DXMaxT set to 5.05D-01
 ITU=  1  0
 Use linear search instead of GDIIS.
     Eigenvalues ---    0.01851   0.01962   0.02033   0.02128   0.02176
     Eigenvalues ---    0.02319   0.12295   0.15990   0.15999   0.16185
     Eigenvalues ---    0.21987   0.22861   0.35317   0.36373   0.39369
     Eigenvalues ---    0.39947   0.40075   0.41470   0.45830   0.46979
     Eigenvalues ---    0.57822
 RFO step:  Lambda=-2.58844816D-03 EMin= 1.85130613D-02
 Quartic linear search produced a step of  0.21745.
 Iteration  1 RMS(Cart)=  0.02809639 RMS(Int)=  0.00209683
 Iteration  2 RMS(Cart)=  0.00111470 RMS(Int)=  0.00170189
 Iteration  3 RMS(Cart)=  0.00000204 RMS(Int)=  0.00170189
 Iteration  4 RMS(Cart)=  0.00000001 RMS(Int)=  0.00170189
 ITry= 1 IFail=0 DXMaxC= 6.90D-02 DCOld= 1.00D+10 DXMaxT= 5.05D-01 DXLimC= 3.00D+00 Rises=F
 Variable       Old X    -DE/DX   Delta X   Delta X   Delta X     New X
                                 (Linear)    (Quad)   (Total)
    R1        2.59141  -0.00178  -0.01828  -0.00285  -0.02096   2.57045
    R2        2.67280   0.00857  -0.00141   0.02419   0.02280   2.69559
    R3        2.04804   0.00154   0.00005   0.00524   0.00530   2.05334
    R4        2.54888   0.01177   0.00547   0.02468   0.03015   2.57903
    R5        2.05765   0.00322   0.01512   0.00872   0.02384   2.08149
    R6        2.60476  -0.00186  -0.00819  -0.00476  -0.01309   2.59167
    R7        2.57653   0.00104  -0.00916   0.00240  -0.00681   2.56972
    R8        2.04458   0.00502   0.01109   0.01468   0.02577   2.07035
    R9        2.04241   0.00429   0.01409   0.01184   0.02593   2.06834
    A1        1.85596  -0.00071   0.00128  -0.00166  -0.00192   1.85404
    A2        2.13987   0.00879   0.01441   0.06483   0.07762   2.21749
    A3        2.28524  -0.00797  -0.01559  -0.05719  -0.07400   2.21124
    A4        1.92203   0.00062  -0.00006   0.00598   0.00577   1.92779
    A5        2.32006  -0.00013  -0.00641  -0.00056  -0.00710   2.31296
    A6        2.04099  -0.00048   0.00651  -0.00496   0.00144   2.04243
    A7        1.87391  -0.00229  -0.00161  -0.01051  -0.01262   1.86129
    A8        1.90624   0.00327   0.00004   0.01537   0.01476   1.92100
    A9        2.07445  -0.00554  -0.00877  -0.03566  -0.04447   2.02997
   A10        2.30248   0.00227   0.00881   0.02054   0.02925   2.33173
   A11        1.86635  -0.00086   0.00065  -0.00692  -0.00700   1.85935
   A12        2.16999  -0.00025  -0.00016  -0.00147  -0.00180   2.16818
   A13        2.24682   0.00111   0.00015   0.00872   0.00861   2.25543
    D1        0.01688  -0.00106   0.01045  -0.06591  -0.05567  -0.03880
    D2        3.14110  -0.00044   0.00036  -0.03195  -0.03339   3.10771
    D3        3.09568   0.00012   0.01105   0.02016   0.03653   3.13221
    D4       -0.06328   0.00074   0.00095   0.05411   0.05881  -0.00447
    D5       -0.02287   0.00142  -0.01602   0.08791   0.07129   0.04843
    D6        3.12590   0.00089   0.00227   0.04218   0.04310  -3.11419
    D7       -3.09444  -0.00078  -0.01847  -0.01448  -0.02800  -3.12244
    D8        0.05433  -0.00131  -0.00018  -0.06022  -0.05620  -0.00187
    D9       -0.00434   0.00026  -0.00071   0.01836   0.01849   0.01415
   D10       -3.13166  -0.00025   0.00737  -0.00956   0.00016  -3.13151
   D11       -0.01062   0.00062  -0.00977   0.03893   0.02866   0.01804
   D12        3.13625  -0.00013  -0.00264  -0.00387  -0.00519   3.13106
   D13        0.02078  -0.00126   0.01606  -0.07870  -0.06204  -0.04126
   D14       -3.12841  -0.00071  -0.00328  -0.03035  -0.03201   3.12277
   D15       -3.12702  -0.00040   0.00807  -0.02855  -0.02046   3.13570
   D16        0.00697   0.00015  -0.01127   0.01980   0.00957   0.01654
         Item               Value     Threshold  Converged?
 Maximum Force            0.011768     0.000450     NO 
 RMS     Force            0.003560     0.000300     NO 
 Maximum Displacement     0.068992     0.001800     NO 
 RMS     Displacement     0.027940     0.001200     NO 
 Predicted change in Energy=-1.610322D-03
 Lowest energy point so far.  Saving SCF results.
 GradGradGradGradGradGradGradGradGradGradGradGradGradGradGradGradGradGrad

 Leave Link  103 at Sun Nov 29 12:22:31 2015, MaxMem=    33554432 cpu:         0.0
 (Enter /home/Applications/g09/g09/l202.exe)
                          Input orientation:                          
 ---------------------------------------------------------------------
 Center     Atomic      Atomic             Coordinates (Angstroms)
 Number     Number       Type             X           Y           Z
 ---------------------------------------------------------------------
      1          6           0        0.943083   -0.703133   -0.005871
      2          6           0       -0.364463   -1.077294   -0.029047
      3          8           0       -1.175105    0.020426   -0.007704
      4          6           0       -0.351348    1.116760    0.011413
      5          6           0        0.949905    0.723221   -0.020640
      6          1           0        1.857773    1.334439   -0.033028
      7          1           0       -0.844864    2.094856    0.019776
      8          1           0       -0.856558   -2.062354   -0.056453
      9          1           0        1.811188   -1.356620   -0.006566
 ---------------------------------------------------------------------
                    Distance matrix (angstroms):
                    1          2          3          4          5
     1  C    0.000000
     2  C    1.360224   0.000000
     3  O    2.238361   1.364766   0.000000
     4  C    2.233352   2.194466   1.371455   0.000000
     5  C    1.426446   2.229234   2.238248   1.359838   0.000000
     6  H    2.233628   3.279451   3.305392   2.220265   1.094516
     7  H    3.320565   3.208691   2.100731   1.095581   2.259250
     8  H    2.255826   1.101478   2.107564   3.219722   3.320244
     9  H    1.086579   2.193624   3.288496   3.285498   2.251165
                    6          7          8          9
     6  H    0.000000
     7  H    2.808072   0.000000
     8  H    4.348143   4.157925   0.000000
     9  H    2.691592   4.355226   2.759968   0.000000
 Stoichiometry    C4H4O
 Framework group  C1[X(C4H4O)]
 Deg. of freedom    21
 Full point group                 C1      NOp   1
 RotChk:  IX=2 Diff= 1.21D-01
 Largest Abelian subgroup         C1      NOp   1
 Largest concise Abelian subgroup C1      NOp   1
                         Standard orientation:                         
 ---------------------------------------------------------------------
 Center     Atomic      Atomic             Coordinates (Angstroms)
 Number     Number       Type             X           Y           Z
 ---------------------------------------------------------------------
      1          6           0        0.735181    0.939988    0.015023
      2          6           0        1.085481   -0.374154   -0.007931
      3          8           0       -0.027098   -1.164524    0.000304
      4          6           0       -1.108257   -0.320796    0.010710
      5          6           0       -0.690587    0.973076   -0.013933
      6          1           0       -1.284876    1.892058   -0.029973
      7          1           0       -2.095285   -0.796261    0.008006
      8          1           0        2.061564   -0.884211   -0.026844
      9          1           0        1.404474    1.795929    0.023165
 ---------------------------------------------------------------------
 Rotational constants (GHZ):      9.4525398      9.2204283      4.6683311
 Leave Link  202 at Sun Nov 29 12:22:31 2015, MaxMem=    33554432 cpu:         0.0
 (Enter /home/Applications/g09/g09/l301.exe)

 Semi-emprical parameters in input format:
 Method=8 CoreType=1 PeptideFC=0.0105570000 RIJScale=0.4899110000
 ****
 H       
 PQN=1 NValence=1 F0ss=0.4577290000 ZetaOverlap=1.0659780000 U=-0.3880320000
 Beta=-0.2381360000 CoreKO=1.1144350000 KON=0,0,0,1.0186160000 KON=1,0,1,1.0557690000
 KON=0,1,1,1.0725930000 KON=2,1,1,1.1590830000 EISol=-0.4188110042 EHeat=0.0830298228
 Alpha=1.5252600000
 GCore=0.0099350000,1.3986240000,2.1461900000
 GCore=0.0003630000,1.5415670000,2.7171030000
 GCore=-0.0012530000,0.5088300000,4.2039300000
 ****
 C       
 PQN=2,2 NValence=4 F0ss=0.4263360000 F0sp=0.4580860000 F0pp=0.3261620000 F2pp=0.2036090000
 G1sp=0.2073130000
 ZetaOverlap=2.1016200000,1.8587190000
 U=-1.9018080000,-1.4557970000
 Beta=-0.4792560000,-0.2700630000 DDN=0,1,0.8034860000 DDN=1,1,0.7591540000
 CoreKO=1.1325510000 KON=0,0,0,1.1996250000 KON=1,0,1,0.8437060000 KON=0,1,1,1.0478550000
 KON=2,1,1,0.8168110000 EISol=-4.4398989268 EHeat=0.2723305520 Alpha=1.4381970000
 DipHyp=1.6068795495
 GCore=0.0008260000,1.4798740000,2.8384620000
 GCore=0.0031480000,1.6675340000,3.8116200000
 GCore=-0.0011560000,1.5029710000,3.9059920000
 GCore=-0.0000920000,1.1754400000,4.8520980000
 ****
 O       
 PQN=2,2 NValence=6 F0ss=0.5413910000 F0sp=0.5145480000 F0pp=0.5091470000 F2pp=0.2175940000
 G1sp=0.4302620000
 ZetaOverlap=3.3296350000,2.5240390000
 U=-3.3343200000,-2.9854240000
 Beta=-0.9082740000,-1.1340310000 DDN=0,1,0.4988900000 DDN=1,1,0.5206270000
 CoreKO=0.9688900000 KON=0,0,0,0.8976510000 KON=1,0,1,0.5186760000 KON=0,1,1,0.8274210000
 KON=2,1,1,0.5315430000 EISol=-11.6164441184 EHeat=0.0949133088 Alpha=2.3722000000
 DipHyp=0.9977225968
 GCore=0.0212480000,1.1747580000,1.6499540000
 GCore=0.0064050000,2.1096700000,2.7148630000
 ****
 
 Standard basis: VSTO-6G (5D, 7F)
 Ernie: Thresh=  0.10000D-02 Tol=  0.10000D-05 Strict=F.
  NNHCO=     0 NNPyr=     0 NCTC=     0               EPep=         0.000000000
    EC=        67.817147145  ECS=         1.623543252   EG=         0.433318949
   EHC=         0.000000000  EAt=       -31.051283842  AtH=         1.516354808
 EPDDG=         0.000000000  ECC=        69.874009346 EAtT=        32.567638650
 There are    24 symmetry adapted cartesian basis functions of A   symmetry.
 There are    24 symmetry adapted basis functions of A   symmetry.
    24 basis functions,   144 primitive gaussians,    24 cartesian basis functions
    13 alpha electrons       13 beta electrons
       nuclear repulsion energy       102.4416479968 Hartrees.
 IExCor=    0 DFT=F Ex=HF Corr=None ExCW=0 ScaHFX=  1.000000
 ScaDFX=  1.000000  1.000000  1.000000  1.000000 ScalE2=  1.000000  1.000000
 IRadAn=      0 IRanWt=     -1 IRanGd=            0 ICorTp=0 IEmpDi=  4
 Integral buffers will be    131072 words long.
 Regular integral format.
 Two-electron integral symmetry is turned off.
 Leave Link  301 at Sun Nov 29 12:22:31 2015, MaxMem=    33554432 cpu:         0.0
 (Enter /home/Applications/g09/g09/l302.exe)
 Do NDO integrals.
 NPDir=0 NMtPBC=     1 NCelOv=     1 NCel=       1 NClECP=     1 NCelD=      1
         NCelK=      1 NCelE2=     1 NClLst=     1 CellRange=     0.0.
 One-electron integrals computed using PRISM.
 NBasis=    24 RedAO= F EigKep=  0.00D+00  NBF=    24
 NBsUse=    24 1.00D-04 EigRej=  0.00D+00 NBFU=    24
 Leave Link  302 at Sun Nov 29 12:22:31 2015, MaxMem=    33554432 cpu:         0.0
 (Enter /home/Applications/g09/g09/l303.exe)
 DipDrv:  MaxL=1.
 Leave Link  303 at Sun Nov 29 12:22:32 2015, MaxMem=    33554432 cpu:         0.0
 (Enter /home/Applications/g09/g09/l401.exe)
 Initial guess from the checkpoint file:  "/home/Applications/g09/scratch/Gau-20955.chk"
 B after Tr=     0.000000    0.000000    0.000000
         Rot=    0.998949    0.000026    0.000041    0.045841 Ang=   5.25 deg.
 Guess basis will be translated and rotated to current coordinates.
 JPrj=0 DoOrth=T DoCkMO=T.
 Leave Link  401 at Sun Nov 29 12:22:32 2015, MaxMem=    33554432 cpu:         0.0
 (Enter /home/Applications/g09/g09/l502.exe)
 Closed shell SCF:
 Using DIIS extrapolation, IDIIS=  1040.
 Overlap will be assumed to be unity.
 Two-electron integral symmetry not used.
 Keep J ints in memory in canonical form, NReq=888082.
 IVT=       79475 IEndB=       79475 NGot=    33554432 MDV=    33473473
 LenX=    33473473 LenY=    33472456
 Requested convergence on RMS density matrix=1.00D-08 within 128 cycles.
 Requested convergence on MAX density matrix=1.00D-06.
 Requested convergence on             energy=1.00D-06.
 No special actions if energy rises.
 FoFCou: FMM=F IPFlag=           0 FMFlag=           0 FMFlg1=           0
         NFxFlg=           0 DoJE=F BraDBF=F KetDBF=F FulRan=T
         wScrn=  0.000000 ICntrl=     600 IOpCl=  2 I1Cent=           0 NGrid=           0
         NMat0=    1 NMatS0=     54 NMatT0=    0 NMatD0=    1 NMtDS0=    0 NMtDT0=    0
 Symmetry not used in FoFCou.

 Cycle   1  Pass 1  IDiag  1:
 E= 0.733532500720898    
 DIIS: error= 3.58D-03 at cycle   1 NSaved=   1.
 NSaved= 1 IEnMin= 1 EnMin= 0.733532500720898     IErMin= 1 ErrMin= 3.58D-03
 ErrMax= 3.58D-03  0.00D+00 EMaxC= 1.00D-01 BMatC= 4.28D-04 BMatP= 4.28D-04
 IDIUse=3 WtCom= 9.64D-01 WtEn= 3.58D-02
 Coeff-Com:  0.100D+01
 Coeff-En:   0.100D+01
 Coeff:      0.100D+01
 GapD=    2.000 DampG=2.000 DampE=1.000 DampFc=2.0000 IDamp=-1.
 RMSDP=1.63D-03 MaxDP=7.96D-03              OVMax= 0.00D+00

 Cycle   2  Pass 1  IDiag  3:
 E= 0.731975773583400     Delta-E=       -0.001556727137 Rises=F Damp=F
 DIIS: error= 1.49D-03 at cycle   2 NSaved=   2.
 NSaved= 2 IEnMin= 2 EnMin= 0.731975773583400     IErMin= 2 ErrMin= 1.49D-03
 ErrMax= 1.49D-03  0.00D+00 EMaxC= 1.00D-01 BMatC= 7.03D-05 BMatP= 4.28D-04
 IDIUse=3 WtCom= 9.85D-01 WtEn= 1.49D-02
 Coeff-Com: -0.582D+00 0.158D+01
 Coeff-En:   0.000D+00 0.100D+01
 Coeff:     -0.573D+00 0.157D+01
 Gap=     0.363 Goal=   None    Shift=    0.000
 RMSDP=1.20D-03 MaxDP=5.93D-03 DE=-1.56D-03 OVMax= 5.96D-03

 Cycle   3  Pass 1  IDiag  3:
 E= 0.731586178356039     Delta-E=       -0.000389595227 Rises=F Damp=F
 DIIS: error= 2.81D-04 at cycle   3 NSaved=   3.
 NSaved= 3 IEnMin= 3 EnMin= 0.731586178356039     IErMin= 3 ErrMin= 2.81D-04
 ErrMax= 2.81D-04  0.00D+00 EMaxC= 1.00D-01 BMatC= 3.65D-06 BMatP= 7.03D-05
 IDIUse=3 WtCom= 9.97D-01 WtEn= 2.81D-03
 Coeff-Com:  0.386D+00-0.115D+01 0.177D+01
 Coeff-En:   0.000D+00 0.000D+00 0.100D+01
 Coeff:      0.385D+00-0.115D+01 0.176D+01
 Gap=     0.363 Goal=   None    Shift=    0.000
 RMSDP=4.12D-04 MaxDP=2.25D-03 DE=-3.90D-04 OVMax= 2.62D-03

 Cycle   4  Pass 1  IDiag  3:
 E= 0.731555032614779     Delta-E=       -0.000031145741 Rises=F Damp=F
 DIIS: error= 1.22D-04 at cycle   4 NSaved=   4.
 NSaved= 4 IEnMin= 4 EnMin= 0.731555032614779     IErMin= 4 ErrMin= 1.22D-04
 ErrMax= 1.22D-04  0.00D+00 EMaxC= 1.00D-01 BMatC= 3.58D-07 BMatP= 3.65D-06
 IDIUse=3 WtCom= 9.99D-01 WtEn= 1.22D-03
 Coeff-Com: -0.166D+00 0.506D+00-0.904D+00 0.156D+01
 Coeff-En:   0.000D+00 0.000D+00 0.000D+00 0.100D+01
 Coeff:     -0.166D+00 0.505D+00-0.903D+00 0.156D+01
 Gap=     0.363 Goal=   None    Shift=    0.000
 RMSDP=1.25D-04 MaxDP=1.25D-03 DE=-3.11D-05 OVMax= 1.05D-03

 Cycle   5  Pass 1  IDiag  3:
 E= 0.731551268191410     Delta-E=       -0.000003764423 Rises=F Damp=F
 DIIS: error= 9.02D-05 at cycle   5 NSaved=   5.
 NSaved= 5 IEnMin= 5 EnMin= 0.731551268191410     IErMin= 5 ErrMin= 9.02D-05
 ErrMax= 9.02D-05  0.00D+00 EMaxC= 1.00D-01 BMatC= 1.74D-07 BMatP= 3.58D-07
 IDIUse=1 WtCom= 1.00D+00 WtEn= 0.00D+00
 Coeff-Com:  0.909D-01-0.279D+00 0.551D+00-0.150D+01 0.214D+01
 Coeff:      0.909D-01-0.279D+00 0.551D+00-0.150D+01 0.214D+01
 Gap=     0.363 Goal=   None    Shift=    0.000
 RMSDP=1.18D-04 MaxDP=1.27D-03 DE=-3.76D-06 OVMax= 1.02D-03

 Cycle   6  Pass 1  IDiag  3:
 E= 0.731548667174195     Delta-E=       -0.000002601017 Rises=F Damp=F
 DIIS: error= 6.27D-05 at cycle   6 NSaved=   6.
 NSaved= 6 IEnMin= 6 EnMin= 0.731548667174195     IErMin= 6 ErrMin= 6.27D-05
 ErrMax= 6.27D-05  0.00D+00 EMaxC= 1.00D-01 BMatC= 8.92D-08 BMatP= 1.74D-07
 IDIUse=1 WtCom= 1.00D+00 WtEn= 0.00D+00
 Coeff-Com: -0.730D-04 0.489D-02-0.804D-01 0.893D+00-0.274D+01 0.292D+01
 Coeff:     -0.730D-04 0.489D-02-0.804D-01 0.893D+00-0.274D+01 0.292D+01
 Gap=     0.363 Goal=   None    Shift=    0.000
 RMSDP=1.66D-04 MaxDP=1.76D-03 DE=-2.60D-06 OVMax= 1.56D-03

 Cycle   7  Pass 1  IDiag  3:
 E= 0.731546389248209     Delta-E=       -0.000002277926 Rises=F Damp=F
 DIIS: error= 3.49D-05 at cycle   7 NSaved=   7.
 NSaved= 7 IEnMin= 7 EnMin= 0.731546389248209     IErMin= 7 ErrMin= 3.49D-05
 ErrMax= 3.49D-05  0.00D+00 EMaxC= 1.00D-01 BMatC= 2.80D-08 BMatP= 8.92D-08
 IDIUse=1 WtCom= 1.00D+00 WtEn= 0.00D+00
 Coeff-Com: -0.134D-02 0.154D-02 0.499D-01-0.723D+00 0.255D+01-0.340D+01
 Coeff-Com:  0.252D+01
 Coeff:     -0.134D-02 0.154D-02 0.499D-01-0.723D+00 0.255D+01-0.340D+01
 Coeff:      0.252D+01
 Gap=     0.363 Goal=   None    Shift=    0.000
 RMSDP=1.05D-04 MaxDP=1.02D-03 DE=-2.28D-06 OVMax= 1.07D-03

 Cycle   8  Pass 1  IDiag  3:
 E= 0.731545638603834     Delta-E=       -0.000000750644 Rises=F Damp=F
 DIIS: error= 2.11D-05 at cycle   8 NSaved=   8.
 NSaved= 8 IEnMin= 8 EnMin= 0.731545638603834     IErMin= 8 ErrMin= 2.11D-05
 ErrMax= 2.11D-05  0.00D+00 EMaxC= 1.00D-01 BMatC= 9.14D-09 BMatP= 2.80D-08
 IDIUse=1 WtCom= 1.00D+00 WtEn= 0.00D+00
 Coeff-Com:  0.306D-01-0.899D-01 0.113D+00 0.312D+00-0.181D+01 0.285D+01
 Coeff-Com: -0.291D+01 0.250D+01
[...]
               16            17            18            19            20 
     16  0.127647D+00
     17 -0.697009D-01  0.100845D+00
     18  0.370655D-01 -0.575498D-01  0.741565D-01
     19  0.326353D-01 -0.432948D-01 -0.166067D-01  0.599015D-01
     20  0.585813D-02 -0.387118D-01  0.236797D-01  0.150321D-01  0.768683D-01
     21  0.118258D-02  0.194913D-01 -0.119309D-01 -0.756039D-02 -0.375435D-01
     22 -0.704071D-02  0.192205D-01 -0.117488D-01 -0.747171D-02 -0.393248D-01
     23  0.308863D-05 -0.185001D-05  0.000000D+00  0.265898D-05  0.275551D-05
     24  0.854063D-05 -0.319140D-05  0.159085D-05  0.000000D+00  0.000000D+00
     25  0.000000D+00  0.000000D+00  0.000000D+00  0.158284D-05  0.241902D-05
     26  0.473037D-05 -0.116664D-05  0.184228D-05  0.000000D+00  0.000000D+00
     27  0.216999D-05  0.000000D+00  0.000000D+00  0.000000D+00  0.000000D+00
     28 -0.126595D-05  0.000000D+00  0.160283D-05 -0.123862D-05  0.000000D+00
     29  0.486178D-05 -0.133160D-05  0.000000D+00  0.161628D-05  0.000000D+00
     30  0.142584D-05  0.000000D+00  0.101764D-05  0.000000D+00  0.000000D+00
     31  0.308686D-05 -0.335522D-05  0.375492D-05 -0.201212D-05  0.116952D-05
     32  0.496765D-05 -0.128303D-05  0.133192D-05  0.000000D+00  0.107315D-05
     33 -0.278774D-05  0.168732D-05 -0.275251D-05  0.379594D-05 -0.149380D-05
     34 -0.274343D-05  0.101913D-05  0.967812D-05 -0.113788D-04  0.000000D+00
     35 -0.104784D-05 -0.181207D-05  0.166569D-05 -0.258723D-05  0.000000D+00
     36  0.264027D-05 -0.274538D-05  0.000000D+00  0.000000D+00  0.000000D+00
     37 -0.523920D-05  0.331017D-05  0.151470D-05 -0.326956D-05 -0.136389D-05
     38 -0.155109D-05  0.237686D-05  0.000000D+00  0.000000D+00 -0.128774D-05
               21            22            23            24            25 
     21  0.538678D-01
     22 -0.163242D-01  0.556490D-01
     23 -0.113506D-05 -0.156763D-05  0.151885D-01
     24  0.000000D+00  0.000000D+00  0.290045D-02  0.988932D-02
     25 -0.115586D-05 -0.124108D-05  0.511328D-02 -0.440890D-02  0.889721D-02
     26  0.000000D+00  0.000000D+00 -0.717473D-02  0.257996D-02 -0.624974D-03
     27  0.000000D+00  0.000000D+00 -0.126819D-01 -0.510571D-02 -0.179521D-02
     28  0.000000D+00  0.000000D+00 -0.549745D-02 -0.287266D-02  0.120905D-02
     29  0.000000D+00  0.000000D+00 -0.344072D-02  0.159861D-02 -0.526592D-02
     30  0.000000D+00  0.000000D+00  0.374376D-02  0.383166D-02 -0.226166D-02
     31  0.000000D+00  0.000000D+00 -0.118801D-01  0.393321D-03 -0.645352D-02
     32  0.000000D+00  0.000000D+00 -0.207966D-02 -0.518071D-02  0.114098D-02
     33  0.000000D+00  0.000000D+00  0.346813D-02 -0.377943D-02  0.526228D-02
     34  0.000000D+00  0.000000D+00  0.360188D-02  0.961602D-04  0.110816D-02
     35  0.000000D+00  0.000000D+00  0.565898D-02  0.549057D-02 -0.216026D-02
     36  0.000000D+00  0.000000D+00 -0.216001D-02  0.306031D-02 -0.542984D-02
     37  0.000000D+00  0.000000D+00  0.549086D-02  0.619275D-03  0.306111D-02
     38  0.000000D+00  0.000000D+00 -0.232812D-02 -0.181098D-02 -0.208467D-03
               26            27            28            29            30 
     26  0.912972D-02
     27  0.578101D-02  0.154281D-01
     28  0.383383D-02  0.543179D-02  0.711916D-02
     29 -0.226583D-03  0.544254D-02 -0.719571D-03  0.711665D-02
     30 -0.217376D-02 -0.455377D-02  0.967796D-03  0.954545D-03  0.647612D-02
     31  0.581988D-02  0.511999D-02  0.346527D-02  0.142612D-03 -0.151210D-02
     32 -0.196006D-02 -0.922498D-03  0.137185D-02 -0.387655D-02 -0.158220D-02
     33 -0.198528D-02  0.511258D-02  0.137485D-03  0.346694D-02 -0.150815D-02
     34 -0.239756D-02 -0.913298D-03 -0.386943D-02  0.137400D-02 -0.158213D-02
     35 -0.232867D-02 -0.126761D-01 -0.343106D-02 -0.550409D-02  0.374094D-02
     36 -0.209522D-03 -0.179694D-02 -0.526745D-02  0.120223D-02 -0.226827D-02
     37 -0.181048D-02 -0.510207D-02  0.160530D-02 -0.287344D-02  0.383392D-02
     38  0.308670D-03  0.577707D-02 -0.231092D-03  0.383288D-02 -0.217529D-02
               31            32            33            34            35 
     31  0.140527D-01
     32  0.426390D-02  0.673718D-02
     33 -0.106557D-01 -0.487529D-02  0.140453D-01
     34 -0.489437D-02 -0.209835D-02  0.428818D-02  0.672330D-02
     35  0.345974D-02  0.359405D-02 -0.118663D-01 -0.209890D-02  0.151726D-01
     36  0.526059D-02  0.109707D-02 -0.645181D-02  0.111831D-02  0.511113D-02
     37 -0.378170D-02  0.103679D-03  0.397587D-03 -0.515963D-02  0.289587D-02
     38 -0.198085D-02 -0.239330D-02  0.581206D-02 -0.194243D-02 -0.716564D-02
               36            37            38 
     36  0.888814D-02
     37 -0.440386D-02  0.988083D-02
     38 -0.626859D-03  0.258109D-02  0.911987D-02
 Leave Link  716 at Sun Nov 29 12:22:33 2015, MaxMem=    33554432 cpu:         0.0
 (Enter /home/Applications/g09/g09/l103.exe)

 GradGradGradGradGradGradGradGradGradGradGradGradGradGradGradGradGradGrad
 Berny optimization.
 Red2BG is reusing G-inverse.
 Internal  Forces:  Max     0.000126411 RMS     0.000044447
 Search for a local minimum.
 Step number   1 out of a maximum of    2
 All quantities printed in internal units (Hartrees-Bohrs-Radians)
 Second derivative matrix not updated -- analytic derivatives used.
 ITU=  0
     Eigenvalues ---    0.00899   0.01177   0.01844   0.02432   0.04720
     Eigenvalues ---    0.05314   0.06569   0.06793   0.07047   0.07708
     Eigenvalues ---    0.17813   0.24473   0.25299   0.31185   0.31883
     Eigenvalues ---    0.31947   0.32969   0.35162   0.39686   0.47678
     Eigenvalues ---    0.63807
 Angle between quadratic step and forces=  40.10 degrees.
 Linear search not attempted -- first point.
 Iteration  1 RMS(Cart)=  0.00026864 RMS(Int)=  0.00000017
 Iteration  2 RMS(Cart)=  0.00000015 RMS(Int)=  0.00000009
 ITry= 1 IFail=0 DXMaxC= 7.36D-04 DCOld= 1.00D+10 DXMaxT= 3.00D-01 DXLimC= 3.00D+00 Rises=F
 Variable       Old X    -DE/DX   Delta X   Delta X   Delta X     New X
                                 (Linear)    (Quad)   (Total)
    R1        2.56829  -0.00003   0.00000  -0.00014  -0.00014   2.56814
    R2        2.71005  -0.00001   0.00000  -0.00002  -0.00002   2.71003
    R3        2.05275   0.00000   0.00000   0.00004   0.00004   2.05279
    R4        2.59377   0.00013   0.00000   0.00073   0.00073   2.59450
    R5        2.06550   0.00012   0.00000   0.00037   0.00037   2.06587
    R6        2.59515  -0.00010   0.00000  -0.00065  -0.00065   2.59450
    R7        2.56811   0.00000   0.00000   0.00003   0.00003   2.56814
    R8        2.06568   0.00004   0.00000   0.00019   0.00019   2.06587
    R9        2.05250   0.00010   0.00000   0.00029   0.00029   2.05279
    A1        1.85891  -0.00001   0.00000  -0.00002  -0.00002   1.85890
    A2        2.26990  -0.00004   0.00000  -0.00065  -0.00065   2.26925
    A3        2.15437   0.00005   0.00000   0.00066   0.00066   2.15504
    A4        1.92038   0.00001   0.00000  -0.00006  -0.00006   1.92033
    A5        2.34096   0.00004   0.00000   0.00090   0.00089   2.34186
    A6        2.02184  -0.00005   0.00000  -0.00084  -0.00084   2.02100
    A7        1.86649  -0.00005   0.00000  -0.00016  -0.00016   1.86633
    A8        1.92005   0.00005   0.00000   0.00027   0.00027   1.92033
    A9        2.02037   0.00002   0.00000   0.00063   0.00063   2.02100
   A10        2.34276  -0.00006   0.00000  -0.00091  -0.00091   2.34186
   A11        1.85893   0.00000   0.00000  -0.00004  -0.00004   1.85890
   A12        2.15554  -0.00004   0.00000  -0.00051  -0.00051   2.15504
   A13        2.26871   0.00004   0.00000   0.00054   0.00054   2.26925
    D1       -0.00011   0.00001   0.00000   0.00011   0.00011   0.00000
    D2       -3.14113  -0.00001   0.00000  -0.00046  -0.00046  -3.14159
    D3       -3.14157   0.00000   0.00000  -0.00002  -0.00002   3.14159
    D4        0.00059  -0.00001   0.00000  -0.00059  -0.00059   0.00000
    D5        0.00007   0.00000   0.00000  -0.00007  -0.00007   0.00000
    D6       -3.14153   0.00000   0.00000  -0.00007  -0.00007  -3.14159
    D7        3.14155   0.00000   0.00000   0.00005   0.00005  -3.14159
    D8       -0.00005   0.00000   0.00000   0.00005   0.00005   0.00000
    D9        0.00010  -0.00001   0.00000  -0.00010  -0.00010   0.00000
   D10        3.14124   0.00000   0.00000   0.00036   0.00036   3.14159
   D11       -0.00005   0.00000   0.00000   0.00005   0.00005   0.00000
   D12       -3.14141   0.00000   0.00000  -0.00019  -0.00019   3.14159
   D13       -0.00001   0.00000   0.00000   0.00001   0.00001   0.00000
   D14        3.14159   0.00000   0.00000   0.00001   0.00001  -3.14159
   D15        3.14128   0.00001   0.00000   0.00031   0.00031  -3.14159
   D16       -0.00030   0.00000   0.00000   0.00030   0.00030   0.00000
         Item               Value     Threshold  Converged?
 Maximum Force            0.000126     0.000450     YES
 RMS     Force            0.000044     0.000300     YES
 Maximum Displacement     0.000736     0.001800     YES
 RMS     Displacement     0.000269     0.001200     YES
 Predicted change in Energy=-2.656705D-07
 Optimization completed.
    -- Stationary point found.
                           ----------------------------
                           !   Optimized Parameters   !
                           ! (Angstroms and Degrees)  !
 --------------------------                            --------------------------
 ! Name  Definition              Value          Derivative Info.                !
 --------------------------------------------------------------------------------
 ! R1    R(1,2)                  1.3591         -DE/DX =    0.0                 !
 ! R2    R(1,5)                  1.4341         -DE/DX =    0.0                 !
 ! R3    R(1,9)                  1.0863         -DE/DX =    0.0                 !
 ! R4    R(2,3)                  1.3726         -DE/DX =    0.0001              !
 ! R5    R(2,8)                  1.093          -DE/DX =    0.0001              !
 ! R6    R(3,4)                  1.3733         -DE/DX =   -0.0001              !
 ! R7    R(4,5)                  1.359          -DE/DX =    0.0                 !
 ! R8    R(4,7)                  1.0931         -DE/DX =    0.0                 !
 ! R9    R(5,6)                  1.0861         -DE/DX =    0.0001              !
 ! A1    A(2,1,5)              106.5079         -DE/DX =    0.0                 !
 ! A2    A(2,1,9)              130.0556         -DE/DX =    0.0                 !
 ! A3    A(5,1,9)              123.4366         -DE/DX =    0.0001              !
 ! A4    A(1,2,3)              110.0298         -DE/DX =    0.0                 !
 ! A5    A(1,2,8)              134.1272         -DE/DX =    0.0                 !
 ! A6    A(3,2,8)              115.8431         -DE/DX =   -0.0001              !
 ! A7    A(2,3,4)              106.9423         -DE/DX =    0.0                 !
 ! A8    A(3,4,5)              110.011          -DE/DX =    0.0                 !
 ! A9    A(3,4,7)              115.7587         -DE/DX =    0.0                 !
 ! A10   A(5,4,7)              134.2303         -DE/DX =   -0.0001              !
 ! A11   A(1,5,4)              106.5091         -DE/DX =    0.0                 !
 ! A12   A(1,5,6)              123.5035         -DE/DX =    0.0                 !
 ! A13   A(4,5,6)              129.9874         -DE/DX =    0.0                 !
 ! D1    D(5,1,2,3)             -0.0061         -DE/DX =    0.0                 !
 ! D2    D(5,1,2,8)           -179.9734         -DE/DX =    0.0                 !
 ! D3    D(9,1,2,3)            180.0014         -DE/DX =    0.0                 !
 ! D4    D(9,1,2,8)              0.034          -DE/DX =    0.0                 !
 ! D5    D(2,1,5,4)              0.0042         -DE/DX =    0.0                 !
 ! D6    D(2,1,5,6)           -179.9962         -DE/DX =    0.0                 !
 ! D7    D(9,1,5,4)           -180.0027         -DE/DX =    0.0                 !
 ! D8    D(9,1,5,6)             -0.0031         -DE/DX =    0.0                 !
 ! D9    D(1,2,3,4)              0.0056         -DE/DX =    0.0                 !
 ! D10   D(8,2,3,4)            179.9796         -DE/DX =    0.0                 !
 ! D11   D(2,3,4,5)             -0.0029         -DE/DX =    0.0                 !
 ! D12   D(2,3,4,7)            180.0107         -DE/DX =    0.0                 !
 ! D13   D(3,4,5,1)             -0.0008         -DE/DX =    0.0                 !
 ! D14   D(3,4,5,6)           -180.0003         -DE/DX =    0.0                 !
 ! D15   D(7,4,5,1)           -180.0179         -DE/DX =    0.0                 !
 ! D16   D(7,4,5,6)             -0.0174         -DE/DX =    0.0                 !
 --------------------------------------------------------------------------------
 GradGradGradGradGradGradGradGradGradGradGradGradGradGradGradGradGradGrad

 Leave Link  103 at Sun Nov 29 12:22:33 2015, MaxMem=    33554432 cpu:         0.0
 (Enter /home/Applications/g09/g09/l9999.exe)
 1\1\GINC-DUSTIN-DESKTOP\Freq\RAM1\ZDO\C4H4O1\DUSTIN\29-Nov-2015\0\\#P 
 Geom=AllCheck Guess=TCheck SCRF=Check GenChk RAM1/ZDO Freq\\AM1-Repara
 m Input\\0,1\C,0.9390720392,-0.712877406,-0.0229459174\C,-0.3671136476
 ,-1.0883429727,-0.0241791366\O,-1.1751795866,0.0210679658,-0.011386158
 7\C,-0.3488871651,1.1179235434,-0.0020529523\C,0.9508550874,0.72109803
 01,-0.0086264508\H,1.8614253755,1.3131592886,-0.004522616\H,-0.8494012
 546,2.0896535382,0.008913587\H,-0.8817686835,-2.0525776707,-0.03246577
 91\H,1.8406078353,-1.3188043167,-0.0308555761\\Version=ES64L-G09RevD.0
 1\State=1-A\HF=0.7309423\RMSD=2.578e-10\RMSF=8.580e-05\ZeroPoint=0.064
 8982\Thermal=0.0688493\Dipole=-0.2018241,0.0018722,0.0005897\DipoleDer
 iv=-0.5727953,0.0793696,0.0009078,0.3427242,-0.6121082,-0.0011649,0.00
 35004,-0.0006314,-0.5550557,0.2719128,0.0034478,-0.0001907,-0.3399073,
 -0.2215557,-0.0032189,-0.0036872,-0.0039063,0.1614853,-0.8846974,0.006
 7744,0.0013264,0.0090578,0.0835285,0.0038469,0.0013852,0.0036518,-0.28
 04848,0.273093,-0.0076087,-0.0004507,0.3313455,-0.2269118,-0.0046922,0
 .0030624,-0.0038411,0.1595326,-0.5765572,-0.0819549,-0.0007138,-0.3438
 435,-0.5999622,0.0001287,-0.0033668,-0.000372,-0.5526107,0.4679968,0.0
 902924,0.0005641,0.2027299,0.3025443,-0.0004114,0.0017006,-0.0001895,0
 .3033093,0.2759642,-0.1911051,-0.0020287,-0.1934384,0.4864642,0.003002
 3,-0.002054,0.0029893,0.2302717,0.281465,0.1937129,0.0018296,0.1965341
 ,0.4803763,0.0020835,0.0018408,0.0020819,0.229914,0.4636721,-0.0929106
 ,-0.0012439,-0.2051358,0.3076733,0.0004264,-0.0023848,0.0002182,0.3036
 404\Polar=57.0021744,-0.0891241,48.6435567,-0.0943971,0.4016939,8.7915
 593\HyperPolar=46.4992684,-4.8482516,-235.9470838,6.0156543,-0.1171679
 ,-2.4544485,0.4924706,6.114587,-0.0327013,-0.0431732\PG=C01 [X(C4H4O1)
 ]\NImag=0\\0.78598220,-0.08937148,0.56940263,-0.00217636,0.00446389,0.
 14176712,-0.39858658,-0.06609747,-0.00004362,0.63252290,-0.12952259,-0
 .11921397,-0.00013198,0.20151051,0.60712980,-0.00067029,-0.00025480,-0
 .08041701,0.00100253,0.00424226,0.13722284,-0.09952238,0.01380896,0.00
 036984,-0.15062414,0.07952421,0.00098136,0.49312667,0.05621444,0.00335
 005,-0.00025858,0.04169265,-0.13555559,-0.00080360,-0.00194768,0.34536
 742,0.00079486,-0.00016896,0.01736850,0.00060247,-0.00088991,-0.062786
 03,-0.00086240,0.00269408,0.07698428,0.00180017,0.07784196,0.00081795,
 0.02577312,-0.01842473,-0.00022589,-0.15200254,-0.04085403,-0.00022375
 ,0.62594846,0.02918779,-0.03098507,-0.00054768,0.01634953,-0.11077409,
 -0.00125581,-0.07853414,-0.13249477,-0.00054097,-0.20272520,0.61219942
 ,0.00032733,-0.00064632,0.01826923,0.00012592,-0.00117963,0.01062243,-
 0.00060339,-0.00062373,-0.06281713,-0.00303826,0.00521739,0.13721908,-
 0.06594709,-0.03359098,-0.00035857,0.00006159,-0.02977159,-0.00025944,
 -0.10054324,-0.05439092,-0.00031006,-0.39557172,0.13402068,0.00197962,
 0.78887100,0.02988368,-0.29200904,-0.00222028,-0.07843348,-0.02910994,
 -0.00032267,-0.01210047,0.00424481,-0.00010609,0.07073754,-0.12236756,
 -0.00056767,0.08596455,0.56679865,0.00027762,-0.00209785,-0.07578215,-
 0.00074638,-0.00042002,0.01828705,0.00011309,-0.00001889,0.01733855,0.
 00134080,-0.00069148,-0.08036500,-0.00043780,0.00408946,0.14169610,-0.
 00055010,-0.00388400,-0.00002808,0.00215473,-0.00195429,-0.00002059,-0
 .00043400,0.00595388,0.00006972,-0.02677167,-0.01213347,-0.00005841,-0
 .21235208,-0.12047323,-0.00085135,0.23682709,-0.01633630,-0.01969170,-
 0.00021069,0.00148587,-0.00378921,-0.00005937,0.00303694,0.00362202,-0
 .00001552,0.00382263,0.00522697,-0.00000267,-0.12385765,-0.10521958,-0
 .00045577,0.13198252,0.11945046,-0.00015338,-0.00023576,0.00463048,0.0
 0001432,-0.00005263,0.00183154,0.00004057,-0.00002148,0.00455897,0.000
 10062,0.00002921,0.00477220,-0.00088416,-0.00046214,-0.03496920,0.0008
 8616,0.00073721,0.01942234,-0.00227904,-0.00072026,0.00000440,-0.00052
 882,-0.00505261,-0.00004368,0.00517974,-0.01351063,-0.00014217,-0.0809
 4570,0.10689898,0.00119132,-0.01202925,0.02005445,0.00023890,-0.000274
 61,-0.00042436,-0.00000414,0.09014915,-0.00045626,0.00207155,-0.000013
 34,-0.00538594,0.00219784,0.00000531,0.00159337,-0.04607268,-0.0004936
 5,0.10576147,-0.21905327,-0.00212609,0.00508960,-0.00436013,-0.0001135
 3,0.00119033,0.00119364,0.00001211,-0.10768450,0.26518740,0.00000659,-
 0.00001154,0.00335628,-0.00004692,0.00000426,0.00278240,0.00001013,-0.
 00046096,0.00239801,0.00118346,-0.00213269,-0.03231888,0.00008450,-0.0
 0014213,0.00580216,0.00001219,0.00001526,-0.00023779,-0.00124763,0.002
 74146,0.01812616,-0.01243879,-0.01992880,-0.00016013,-0.08413940,-0.10
 895263,-0.00095342,0.00537674,0.01273650,0.00012055,-0.00038117,0.0050
 7469,0.00005796,-0.00225320,0.00077524,0.00001901,-0.00002442,-0.00020
 624,-0.00000223,0.00074907,-0.00025878,-0.00000375,0.09339706,-0.00495
 701,-0.00396509,-0.00008602,-0.10781355,-0.21596940,-0.00156030,-0.002
 40519,-0.04622539,-0.00047715,0.00541691,0.00204018,-0.00001801,0.0005
 2994,0.00203692,-0.00001274,-0.00015214,-0.00020337,-0.00000102,0.0002
 3361,-0.00095563,-0.00001189,0.11031585,0.26203475,-0.00001778,-0.0000
 5941,0.00582385,-0.00093567,-0.00154963,-0.03230823,-0.00003005,-0.000
 51196,0.00239780,0.00006219,-0.00001738,0.00278945,0.00001582,-0.00001
 414,0.00335081,-0.00000154,-0.00000082,-0.00007644,0.00000112,-0.00001
 074,0.00016752,0.00091731,0.00215045,0.01809404,-0.20846345,0.12194106
 ,0.00157456,-0.02662358,0.01264719,0.00018943,-0.00057019,-0.00589568,
 -0.00004920,0.00216169,0.00185924,0.00001788,-0.00024045,0.00359283,0.
 00004614,0.00142474,0.00049630,0.00000223,-0.00001881,0.00014979,0.000
 00142,-0.00028435,-0.00116786,-0.00001141,0.23261386,0.12534807,-0.108
 96172,-0.00099531,-0.00330616,0.00509037,0.00000902,-0.00297581,0.0037
 6083,-0.00000187,-0.00157746,-0.00378602,-0.00005320,0.01601489,-0.020
 01520,-0.00027920,-0.00052879,-0.00059064,-0.00000553,0.00020417,-0.00
 020978,-0.00000177,0.00044530,0.00120563,0.00001361,-0.13362372,0.1235
 0551,0.00161129,-0.00098923,-0.03501670,0.00002742,-0.00002274,0.00476
 528,-0.00001922,0.00000504,0.00455712,-0.00001704,-0.00006042,0.001828
 87,0.00017017,-0.00025438,0.00464118,-0.00000809,-0.00000764,0.0000680
 4,0.00000185,-0.00000154,-0.00007587,0.00000469,0.00001666,-0.00023876
 ,-0.00177106,0.00131424,0.01947100\\-0.00002757,-0.00006686,0.00002020
 ,-0.00024269,0.00000378,-0.00003520,0.00007190,-0.00017157,0.00000867,
 0.00006851,0.00020402,-0.00001166,0.00012944,-0.00001626,-0.00000094,-
 0.00010428,-0.00002327,-0.00000042,-0.00001574,-0.00005807,0.00000729,
 0.00009845,0.00008761,0.00001440,0.00002198,0.00004062,-0.00000235\\\@


 THE ... SCIENTISTS WERE WRONG ... THE MOST PERSISTENT PRINCIPLES 
 OF THE UNIVERSE WERE ACCIDENT AND ERROR.

                          -- FRANK HERBERT IN DUNE
 Job cpu time:       0 days  0 hours  0 minutes  0.3 seconds.
 File lengths (MBytes):  RWF=      5 Int=      0 D2E=      0 Chk=      2 Scr=      1
 Normal termination of Gaussian 09 at Sun Nov 29 12:22:33 2015.
