 Entering Gaussian System, Link 0=g09
 Input=FuranAM1Best4.com
 Output=FuranAM1Best4.log
 Initial command:
 /home/Applications/g09/g09/l1.exe "/home/Applications/g09/scratch/Gau-20950.inp" -scrdir="/home/Applications/g09/scratch/"
 Entering Link 1 = /home/Applications/g09/g09/l1.exe PID=     20952.
  
 Copyright (c) 1988,1990,1992,1993,1995,1998,2003,2009,2013,
            Gaussian, Inc.  All Rights Reserved.
  
 This is part of the Gaussian(R) 09 program.  It is based on
 the Gaussian(R) 03 system (copyright 2003, Gaussian, Inc.),
 the Gaussian(R) 98 system (copyright 1998, Gaussian, Inc.),
 the Gaussian(R) 94 system (copyright 1995, Gaussian, Inc.),
 the Gaussian 92(TM) system (copyright 1992, Gaussian, Inc.),
 the Gaussian 90(TM) system (copyright 1990, Gaussian, Inc.),
 the Gaussian 88(TM) system (copyright 1988, Gaussian, Inc.),
 the Gaussian 86(TM) system (copyright 1986, Carnegie Mellon
 University), and the Gaussian 82(TM) system (copyright 1983,
 Carnegie Mellon University). Gaussian is a federally registered
 trademark of Gaussian, Inc.
  
 This software contains proprietary and confidential information,
 including trade secrets, belonging to Gaussian, Inc.
  
 This software is provided under written license and may be
 used, copied, transmitted, or stored only in accord with that
 written license.
  
 The following legend is applicable only to US Government
 contracts under FAR:
  
                    RESTRICTED RIGHTS LEGEND
  
 Use, reproduction and disclosure by the US Government is
 subject to restrictions as set forth in subparagraphs (a)
 and (c) of the Commercial Computer Software - Restricted
 Rights clause in FAR 52.227-19.
  
 Gaussian, Inc.
 340 Quinnipiac St., Bldg. 40, Wallingford CT 06492
  
  
 ---------------------------------------------------------------
 Warning -- This program may not be used in any manner that
 competes with the business of Gaussian, Inc. or will provide
 assistance to any competitor of Gaussian, Inc.  The licensee
 of this program is prohibited from giving any competitor of
 Gaussian, Inc. access to this program.  By using this program,
 the user acknowledges that Gaussian, Inc. is engaged in the
 business of creating and licensing software in the field of
 computational chemistry and represents and warrants to the
 licensee that it is not a competitor of Gaussian, Inc. and that
 it will not use this program in any manner prohibited above.
 ---------------------------------------------------------------
  

 Cite this work as:
 Gaussian 09, Revision D.01,
 M. J. Frisch, G. W. Trucks, H. B. Schlegel, G. E. Scuseria, 
 M. A. Robb, J. R. Cheeseman, G. Scalmani, V. Barone, B. Mennucci, 
 G. A. Petersson, H. Nakatsuji, M. Caricato, X. Li, H. P. Hratchian, 
 A. F. Izmaylov, J. Bloino, G. Zheng, J. L. Sonnenberg, M. Hada, 
 M. Ehara, K. Toyota, R. Fukuda, J. Hasegawa, M. Ishida, T. Nakajima, 
 Y. Honda, O. Kitao, H. Nakai, T. Vreven, J. A. Montgomery, Jr., 
 J. E. Peralta, F. Ogliaro, M. Bearpark, J. J. Heyd, E. Brothers, 
 K. N. Kudin, V. N. Staroverov, T. Keith, R. Kobayashi, J. Normand, 
 K. Raghavachari, A. Rendell, J. C. Burant, S. S. Iyengar, J. Tomasi, 
 M. Cossi, N. Rega, J. M. Millam, M. Klene, J. E. Knox, J. B. Cross, 
 V. Bakken, C. Adamo, J. Jaramillo, R. Gomperts, R. E. Stratmann, 
 O. Yazyev, A. J. Austin, R. Cammi, C. Pomelli, J. W. Ochterski, 
 R. L. Martin, K. Morokuma, V. G. Zakrzewski, G. A. Voth, 
 P. Salvador, J. J. Dannenberg, S. Dapprich, A. D. Daniels, 
 O. Farkas, J. B. Foresman, J. V. Ortiz, J. Cioslowski, 
 and D. J. Fox, Gaussian, Inc., Wallingford CT, 2013.
 
 ******************************************
 Gaussian 09:  ES64L-G09RevD.01 24-Apr-2013
                29-Nov-2015 
 ******************************************
 ----------------------------
 #P AM1(Input,print) Opt Freq
 ----------------------------
 1/14=-1,18=20,19=15,26=1,38=1/1,3;
 2/9=110,12=2,17=6,18=5,40=1/2;
 3/5=2,16=1,25=1,41=700000,71=1,135=100,136=1/1,2,3;
 4/35=1/1;
 5/5=2,35=1,38=5/2;
 6/7=2,8=2,9=2,10=2,28=1/1;
 7//1,2,3,16;
 1/14=-1,18=20,19=15,26=1/3(2);
 2/9=110/2;
 99//99;
 2/9=110/2;
 3/5=2,16=1,25=1,41=700000,71=1,135=20,136=1/1,2,3;
 4/5=5,16=3,35=1/1;
 5/5=2,35=1,38=5/2;
 7//1,2,3,16;
 1/14=-1,18=20,19=15,26=1/3(-5);
 2/9=110/2;
 6/7=2,8=2,9=2,10=2,19=2,28=1/1;
 99/9=1/99;
 Leave Link    1 at Sun Nov 29 12:22:30 2015, MaxMem=           0 cpu:         0.0
 (Enter /home/Applications/g09/g09/l101.exe)
 -----------------
 AM1-Reparam Input
 -----------------
 Symbolic Z-matrix:
 Charge =  0 Multiplicity = 1
 6                     0.96104  -0.71764  -0.02452 
 6                    -0.31719  -1.10408  -0.01199 
 8                    -1.19464  -0.01792   0.02928 
 6                    -0.372     1.06271   0.00139 
 6                     0.94427   0.699     0.03241 
 1                     1.85699   1.40824   0.02651 
 1                    -0.88528   2.03378   0.04107 
 1                    -0.85551  -2.0074    0.01031 
 1                     1.76264  -1.40531   0.00455 
 
 NAtoms=      9 NQM=        9 NQMF=       0 NMMI=      0 NMMIF=      0
                NMic=       0 NMicF=      0.
                    Isotopes and Nuclear Properties:
 (Nuclear quadrupole moments (NQMom) in fm**2, nuclear magnetic moments (NMagM)
  in nuclear magnetons)

  Atom         1           2           3           4           5           6           7           8           9
 IAtWgt=          12          12          16          12          12           1           1           1           1
 AtmWgt=  12.0000000  12.0000000  15.9949146  12.0000000  12.0000000   1.0078250   1.0078250   1.0078250   1.0078250
 NucSpn=           0           0           0           0           0           1           1           1           1
 AtZEff=   0.0000000   0.0000000   0.0000000   0.0000000   0.0000000   0.0000000   0.0000000   0.0000000   0.0000000
 NQMom=    0.0000000   0.0000000   0.0000000   0.0000000   0.0000000   0.0000000   0.0000000   0.0000000   0.0000000
 NMagM=    0.0000000   0.0000000   0.0000000   0.0000000   0.0000000   2.7928460   2.7928460   2.7928460   2.7928460
 AtZNuc=   6.0000000   6.0000000   8.0000000   6.0000000   6.0000000   1.0000000   1.0000000   1.0000000   1.0000000
 Leave Link  101 at Sun Nov 29 12:22:30 2015, MaxMem=    33554432 cpu:         0.0
 (Enter /home/Applications/g09/g09/l103.exe)

 GradGradGradGradGradGradGradGradGradGradGradGradGradGradGradGradGradGrad
 Berny optimization.
 Initialization pass.
                           ----------------------------
                           !    Initial Parameters    !
                           ! (Angstroms and Degrees)  !
 --------------------------                            --------------------------
 ! Name  Definition              Value          Derivative Info.                !
 --------------------------------------------------------------------------------
 ! R1    R(1,2)                  1.3354         estimate D2E/DX2                !
 ! R2    R(1,5)                  1.4179         estimate D2E/DX2                !
 ! R3    R(1,9)                  1.0566         estimate D2E/DX2                !
 ! R4    R(2,3)                  1.3969         estimate D2E/DX2                !
 ! R5    R(2,8)                  1.0518         estimate D2E/DX2                !
 ! R6    R(3,4)                  1.3584         estimate D2E/DX2                !
 ! R7    R(4,5)                  1.3659         estimate D2E/DX2                !
 ! R8    R(4,7)                  1.0991         estimate D2E/DX2                !
 ! R9    R(5,6)                  1.1559         estimate D2E/DX2                !
 ! A1    A(2,1,5)              106.1063         estimate D2E/DX2                !
 ! A2    A(2,1,9)              122.52           estimate D2E/DX2                !
 ! A3    A(5,1,9)              131.1603         estimate D2E/DX2                !
 ! A4    A(1,2,3)              112.1175         estimate D2E/DX2                !
 ! A5    A(1,2,8)              137.6134         estimate D2E/DX2                !
 ! A6    A(3,2,8)              110.2228         estimate D2E/DX2                !
 ! A7    A(2,3,4)              103.7417         estimate D2E/DX2                !
 ! A8    A(3,4,5)              111.7946         estimate D2E/DX2                !
 ! A9    A(3,4,7)              114.7904         estimate D2E/DX2                !
 ! A10   A(5,4,7)              133.1922         estimate D2E/DX2                !
 ! A11   A(1,5,4)              106.0528         estimate D2E/DX2                !
 ! A12   A(1,5,6)              127.1206         estimate D2E/DX2                !
 ! A13   A(4,5,6)              126.6844         estimate D2E/DX2                !
 ! D1    D(5,1,2,3)              0.9415         estimate D2E/DX2                !
 ! D2    D(5,1,2,8)           -176.2363         estimate D2E/DX2                !
 ! D3    D(9,1,2,3)            176.1775         estimate D2E/DX2                !
 ! D4    D(9,1,2,8)             -1.0003         estimate D2E/DX2                !
 ! D5    D(2,1,5,4)             -3.2426         estimate D2E/DX2                !
 ! D6    D(2,1,5,6)           -179.1152         estimate D2E/DX2                !
 ! D7    D(9,1,5,4)           -177.9054         estimate D2E/DX2                !
 ! D8    D(9,1,5,6)              6.222          estimate D2E/DX2                !
 ! D9    D(1,2,3,4)              1.7337         estimate D2E/DX2                !
 ! D10   D(8,2,3,4)            179.7065         estimate D2E/DX2                !
 ! D11   D(2,3,4,5)             -3.9035         estimate D2E/DX2                !
 ! D12   D(2,3,4,7)           -179.2078         estimate D2E/DX2                !
 ! D13   D(3,4,5,1)              4.5578         estimate D2E/DX2                !
 ! D14   D(3,4,5,6)           -179.546          estimate D2E/DX2                !
 ! D15   D(7,4,5,1)            178.707          estimate D2E/DX2                !
 ! D16   D(7,4,5,6)             -5.3968         estimate D2E/DX2                !
 --------------------------------------------------------------------------------
 Trust Radius=3.00D-01 FncErr=1.00D-07 GrdErr=1.00D-07
 Number of steps in this run=     48 maximum allowed number of steps=    100.
 GradGradGradGradGradGradGradGradGradGradGradGradGradGradGradGradGradGrad

 Leave Link  103 at Sun Nov 29 12:22:30 2015, MaxMem=    33554432 cpu:         0.0
 (Enter /home/Applications/g09/g09/l202.exe)
                          Input orientation:                          
 ---------------------------------------------------------------------
 Center     Atomic      Atomic             Coordinates (Angstroms)
 Number     Number       Type             X           Y           Z
 ---------------------------------------------------------------------
      1          6           0        0.961043   -0.717636   -0.024522
      2          6           0       -0.317193   -1.104077   -0.011991
      3          8           0       -1.194638   -0.017923    0.029283
      4          6           0       -0.371999    1.062707    0.001393
      5          6           0        0.944268    0.699000    0.032407
      6          1           0        1.856992    1.408242    0.026513
      7          1           0       -0.885276    2.033782    0.041072
      8          1           0       -0.855512   -2.007400    0.010309
      9          1           0        1.762640   -1.405311    0.004554
 ---------------------------------------------------------------------
                    Distance matrix (angstroms):
                    1          2          3          4          5
     1  C    0.000000
     2  C    1.335433   0.000000
     3  O    2.267036   1.396905   0.000000
     4  C    2.224251   2.167518   1.358409   0.000000
     5  C    1.417879   2.200987   2.255861   1.365944   0.000000
     6  H    2.307528   3.322696   3.368442   2.255754   1.155908
     7  H    3.314136   3.189309   2.074931   1.099097   2.264718
     8  H    2.228133   1.051797   2.018263   3.107961   3.250277
     9  H    1.056551   2.101600   3.266642   3.263098   2.258015
                    6          7          8          9
     6  H    0.000000
     7  H    2.812747   0.000000
     8  H    4.361714   4.041409   0.000000
     9  H    2.815220   4.340525   2.686497   0.000000
 Stoichiometry    C4H4O
 Framework group  C1[X(C4H4O)]
 Deg. of freedom    21
 Full point group                 C1      NOp   1
 Largest Abelian subgroup         C1      NOp   1
 Largest concise Abelian subgroup C1      NOp   1
                         Standard orientation:                         
 ---------------------------------------------------------------------
 Center     Atomic      Atomic             Coordinates (Angstroms)
 Number     Number       Type             X           Y           Z
 ---------------------------------------------------------------------
      1          6           0       -1.034691    0.608726    0.017539
      2          6           0       -0.877383   -0.717375    0.007976
      3          8           0        0.469536   -1.087089   -0.013562
      4          6           0        1.130395    0.099157    0.023308
      5          6           0        0.271065    1.160012   -0.020731
      6          1           0        0.555868    2.280245   -0.011282
      7          1           0        2.226173    0.017171   -0.000429
      8          1           0       -1.489559   -1.572111   -0.022769
      9          1           0       -1.985082    1.068290   -0.025572
 ---------------------------------------------------------------------
 Rotational constants (GHZ):      9.6499576      9.0850741      4.6812523
 Leave Link  202 at Sun Nov 29 12:22:30 2015, MaxMem=    33554432 cpu:         0.0
 (Enter /home/Applications/g09/g09/l301.exe)

 Semi-emprical parameters in input format:
 Method=8 CoreType=1 PeptideFC=0.0105570000 RIJScale=0.4899110000
 ****
 H       
 PQN=1 NValence=1 F0ss=0.4577290000 ZetaOverlap=1.0659780000 U=-0.3880320000
 Beta=-0.2381360000 CoreKO=1.1144350000 KON=0,0,0,1.0186160000 KON=1,0,1,1.0557690000
 KON=0,1,1,1.0725930000 KON=2,1,1,1.1590830000 EISol=-0.4188110042 EHeat=0.0830298228
 Alpha=1.5252600000
 GCore=0.0099350000,1.3986240000,2.1461900000
 GCore=0.0003630000,1.5415670000,2.7171030000
 GCore=-0.0012530000,0.5088300000,4.2039300000
 ****
 C       
 PQN=2,2 NValence=4 F0ss=0.4263360000 F0sp=0.4580860000 F0pp=0.3261620000 F2pp=0.2036090000
 G1sp=0.2073130000
 ZetaOverlap=2.1016200000,1.8587190000
 U=-1.9018080000,-1.4557970000
 Beta=-0.4792560000,-0.2700630000 DDN=0,1,0.8034860000 DDN=1,1,0.7591540000
 CoreKO=1.1325510000 KON=0,0,0,1.1996250000 KON=1,0,1,0.8437060000 KON=0,1,1,1.0478550000
 KON=2,1,1,0.8168110000 EISol=-4.4398989268 EHeat=0.2723305520 Alpha=1.4381970000
 DipHyp=1.6068795495
 GCore=0.0008260000,1.4798740000,2.8384620000
 GCore=0.0031480000,1.6675340000,3.8116200000
 GCore=-0.0011560000,1.5029710000,3.9059920000
 GCore=-0.0000920000,1.1754400000,4.8520980000
 ****
 O       
 PQN=2,2 NValence=6 F0ss=0.5413910000 F0sp=0.5145480000 F0pp=0.5091470000 F2pp=0.2175940000
 G1sp=0.4302620000
 ZetaOverlap=3.3296350000,2.5240390000
 U=-3.3343200000,-2.9854240000
 Beta=-0.9082740000,-1.1340310000 DDN=0,1,0.4988900000 DDN=1,1,0.5206270000
 CoreKO=0.9688900000 KON=0,0,0,0.8976510000 KON=1,0,1,0.5186760000 KON=0,1,1,0.8274210000
 KON=2,1,1,0.5315430000 EISol=-11.6164441184 EHeat=0.0949133088 Alpha=2.3722000000
 DipHyp=0.9977225968
 GCore=0.0212480000,1.1747580000,1.6499540000
 GCore=0.0064050000,2.1096700000,2.7148630000
 ****
 
 Standard basis: VSTO-6G (5D, 7F)
 Ernie: Thresh=  0.10000D-02 Tol=  0.10000D-05 Strict=F.
  NNHCO=     0 NNPyr=     0 NCTC=     0               EPep=         0.000000000
    EC=        67.893470218  ECS=         1.645645971   EG=         0.428497695
   EHC=         0.000000000  EAt=       -31.051283842  AtH=         1.516354808
 EPDDG=         0.000000000  ECC=        69.967613884 EAtT=        32.567638650
 There are    24 symmetry adapted cartesian basis functions of A   symmetry.
 There are    24 symmetry adapted basis functions of A   symmetry.
    24 basis functions,   144 primitive gaussians,    24 cartesian basis functions
    13 alpha electrons       13 beta electrons
       nuclear repulsion energy       102.5352525345 Hartrees.
 IExCor=    0 DFT=F Ex=HF Corr=None ExCW=0 ScaHFX=  1.000000
 ScaDFX=  1.000000  1.000000  1.000000  1.000000 ScalE2=  1.000000  1.000000
 IRadAn=      0 IRanWt=     -1 IRanGd=            0 ICorTp=0 IEmpDi=  4
 Integral buffers will be    131072 words long.
 Regular integral format.
 Two-electron integral symmetry is turned off.
 Leave Link  301 at Sun Nov 29 12:22:30 2015, MaxMem=    33554432 cpu:         0.0
 (Enter /home/Applications/g09/g09/l302.exe)
 Do NDO integrals.
 NPDir=0 NMtPBC=     1 NCelOv=     1 NCel=       1 NClECP=     1 NCelD=      1
         NCelK=      1 NCelE2=     1 NClLst=     1 CellRange=     0.0.
 One-electron integrals computed using PRISM.
 NBasis=    24 RedAO= F EigKep=  0.00D+00  NBF=    24
 NBsUse=    24 1.00D-04 EigRej=  0.00D+00 NBFU=    24
 Leave Link  302 at Sun Nov 29 12:22:30 2015, MaxMem=    33554432 cpu:         0.0
 (Enter /home/Applications/g09/g09/l303.exe)
 DipDrv:  MaxL=1.
 Leave Link  303 at Sun Nov 29 12:22:30 2015, MaxMem=    33554432 cpu:         0.0
 (Enter /home/Applications/g09/g09/l401.exe)
 Simple Huckel Guess.
 JPrj=0 DoOrth=F DoCkMO=F.
 Leave Link  401 at Sun Nov 29 12:22:30 2015, MaxMem=    33554432 cpu:         0.0
 (Enter /home/Applications/g09/g09/l502.exe)
 Closed shell SCF:
 Using DIIS extrapolation, IDIIS=  1040.
 Overlap will be assumed to be unity.
 Two-electron integral symmetry not used.
 Keep J ints in memory in canonical form, NReq=888082.
 IVT=       79475 IEndB=       79475 NGot=    33554432 MDV=    33473473
 LenX=    33473473 LenY=    33472456
 Requested convergence on RMS density matrix=1.00D-08 within 128 cycles.
 Requested convergence on MAX density matrix=1.00D-06.
 Requested convergence on             energy=1.00D-06.
 No special actions if energy rises.
 FoFCou: FMM=F IPFlag=           0 FMFlag=           0 FMFlg1=           0
         NFxFlg=           0 DoJE=F BraDBF=F KetDBF=F FulRan=T
         wScrn=  0.000000 ICntrl=     600 IOpCl=  2 I1Cent=           0 NGrid=           0
         NMat0=    1 NMatS0=     54 NMatT0=    0 NMatD0=    1 NMtDS0=    0 NMtDT0=    0
 Symmetry not used in FoFCou.

 Cycle   1  Pass 1  IDiag  1:
 E=  1.01037500104542    
 DIIS: error= 5.79D-02 at cycle   1 NSaved=   1.
 NSaved= 1 IEnMin= 1 EnMin=  1.01037500104542     IErMin= 1 ErrMin= 5.79D-02
 ErrMax= 5.79D-02  0.00D+00 EMaxC= 1.00D-01 BMatC= 7.44D-02 BMatP= 7.44D-02
 IDIUse=3 WtCom= 4.21D-01 WtEn= 5.79D-01
 Coeff-Com:  0.100D+01
 Coeff-En:   0.100D+01
 Coeff:      0.100D+01
 GapD=    2.000 DampG=2.000 DampE=0.500 DampFc=1.0000 IDamp=-1.
 RMSDP=1.89D-02 MaxDP=1.69D-01              OVMax= 0.00D+00

 Cycle   2  Pass 1  IDiag  1:
 E= 0.777908123286338     Delta-E=       -0.232466877759 Rises=F Damp=F
 DIIS: error= 1.82D-02 at cycle   2 NSaved=   2.
 NSaved= 2 IEnMin= 2 EnMin= 0.777908123286338     IErMin= 2 ErrMin= 1.82D-02
 ErrMax= 1.82D-02  0.00D+00 EMaxC= 1.00D-01 BMatC= 9.15D-03 BMatP= 7.44D-02
 IDIUse=3 WtCom= 8.18D-01 WtEn= 1.82D-01
 Coeff-Com: -0.455D+00 0.145D+01
 Coeff-En:   0.000D+00 0.100D+01
 Coeff:     -0.372D+00 0.137D+01
 RMSDP=9.32D-03 MaxDP=5.25D-02 DE=-2.32D-01 OVMax= 0.00D+00

 Cycle   3  Pass 1  IDiag  3:
 E= 0.743055561385845     Delta-E=       -0.034852561900 Rises=F Damp=F
 DIIS: error= 3.25D-03 at cycle   3 NSaved=   3.
 NSaved= 3 IEnMin= 3 EnMin= 0.743055561385845     IErMin= 3 ErrMin= 3.25D-03
 ErrMax= 3.25D-03  0.00D+00 EMaxC= 1.00D-01 BMatC= 4.85D-04 BMatP= 9.15D-03
 IDIUse=3 WtCom= 9.68D-01 WtEn= 3.25D-02
 Coeff-Com:  0.249D+00-0.912D+00 0.166D+01
 Coeff-En:   0.000D+00 0.000D+00 0.100D+01
 Coeff:      0.241D+00-0.882D+00 0.164D+01
 Gap=     0.361 Goal=   None    Shift=    0.000
 RMSDP=3.01D-03 MaxDP=1.47D-02 DE=-3.49D-02 OVMax= 1.53D-02

 Cycle   4  Pass 1  IDiag  3:
 E= 0.740378030263685     Delta-E=       -0.002677531122 Rises=F Damp=F
 DIIS: error= 1.03D-03 at cycle   4 NSaved=   4.
 NSaved= 4 IEnMin= 4 EnMin= 0.740378030263685     IErMin= 4 ErrMin= 1.03D-03
 ErrMax= 1.03D-03  0.00D+00 EMaxC= 1.00D-01 BMatC= 3.82D-05 BMatP= 4.85D-04
 IDIUse=3 WtCom= 9.90D-01 WtEn= 1.03D-02
 Coeff-Com: -0.631D-02 0.113D-01-0.177D+00 0.117D+01
 Coeff-En:   0.000D+00 0.000D+00 0.000D+00 0.100D+01
 Coeff:     -0.624D-02 0.112D-01-0.175D+00 0.117D+01
 Gap=     0.362 Goal=   None    Shift=    0.000
 RMSDP=8.96D-04 MaxDP=6.63D-03 DE=-2.68D-03 OVMax= 9.91D-03

 Cycle   5  Pass 1  IDiag  3:
 E= 0.740115251329556     Delta-E=       -0.000262778934 Rises=F Damp=F
 DIIS: error= 5.03D-04 at cycle   5 NSaved=   5.
 NSaved= 5 IEnMin= 5 EnMin= 0.740115251329556     IErMin= 5 ErrMin= 5.03D-04
 ErrMax= 5.03D-04  0.00D+00 EMaxC= 1.00D-01 BMatC= 1.28D-05 BMatP= 3.82D-05
 IDIUse=3 WtCom= 9.95D-01 WtEn= 5.03D-03
 Coeff-Com: -0.298D-01 0.122D+00-0.153D+00-0.724D+00 0.178D+01
 Coeff-En:   0.000D+00 0.000D+00 0.000D+00 0.000D+00 0.100D+01
 Coeff:     -0.297D-01 0.121D+00-0.152D+00-0.720D+00 0.178D+01
 Gap=     0.362 Goal=   None    Shift=    0.000
 RMSDP=7.79D-04 MaxDP=5.98D-03 DE=-2.63D-04 OVMax= 9.29D-03

 Cycle   6  Pass 1  IDiag  3:
 E= 0.739988309941822     Delta-E=       -0.000126941388 Rises=F Damp=F
 DIIS: error= 2.83D-04 at cycle   6 NSaved=   6.
 NSaved= 6 IEnMin= 6 EnMin= 0.739988309941822     IErMin= 6 ErrMin= 2.83D-04
 ErrMax= 2.83D-04  0.00D+00 EMaxC= 1.00D-01 BMatC= 3.17D-06 BMatP= 1.28D-05
 IDIUse=3 WtCom= 9.97D-01 WtEn= 2.83D-03
 Coeff-Com:  0.154D-01-0.631D-01 0.822D-01 0.477D+00-0.160D+01 0.209D+01
 Coeff-En:   0.000D+00 0.000D+00 0.000D+00 0.000D+00 0.000D+00 0.100D+01
 Coeff:      0.153D-01-0.630D-01 0.820D-01 0.476D+00-0.160D+01 0.209D+01
 Gap=     0.363 Goal=   None    Shift=    0.000
 RMSDP=5.31D-04 MaxDP=4.46D-03 DE=-1.27D-04 OVMax= 6.36D-03

 Cycle   7  Pass 1  IDiag  3:
 E= 0.739950588382115     Delta-E=       -0.000037721560 Rises=F Damp=F
 DIIS: error= 1.47D-04 at cycle   7 NSaved=   7.
 NSaved= 7 IEnMin= 7 EnMin= 0.739950588382115     IErMin= 7 ErrMin= 1.47D-04
 ErrMax= 1.47D-04  0.00D+00 EMaxC= 1.00D-01 BMatC= 4.30D-07 BMatP= 3.17D-06
 IDIUse=3 WtCom= 9.99D-01 WtEn= 1.47D-03
 Coeff-Com: -0.160D-02 0.571D-02-0.866D-02-0.133D+00 0.602D+00-0.128D+01
 Coeff-Com:  0.182D+01
 Coeff-En:   0.000D+00 0.000D+00 0.000D+00 0.000D+00 0.000D+00 0.000D+00
 Coeff-En:   0.100D+01
 Coeff:     -0.160D-02 0.570D-02-0.864D-02-0.133D+00 0.601D+00-0.128D+01
 Coeff:      0.182D+01
 Gap=     0.363 Goal=   None    Shift=    0.000
 RMSDP=2.06D-04 MaxDP=2.13D-03 DE=-3.77D-05 OVMax= 2.31D-03

 Cycle   8  Pass 1  IDiag  3:
 E= 0.739945601037988     Delta-E=       -0.000004987344 Rises=F Damp=F
 DIIS: error= 5.61D-05 at cycle   8 NSaved=   8.
 NSaved= 8 IEnMin= 8 EnMin= 0.739945601037988     IErMin= 8 ErrMin= 5.61D-05
 ErrMax= 5.61D-05  0.00D+00 EMaxC= 1.00D-01 BMatC= 7.28D-08 BMatP= 4.30D-07
 IDIUse=1 WtCom= 1.00D+00 WtEn= 0.00D+00
 Coeff-Com:  0.155D-03-0.257D-03-0.117D-02 0.831D-01-0.335D+00 0.730D+00
 Coeff-Com: -0.123D+01 0.176D+01
 Coeff:      0.155D-03-0.257D-03-0.117D-02 0.831D-01-0.335D+00 0.730D+00
 Coeff:     -0.123D+01 0.176D+01
 Gap=     0.363 Goal=   None    Shift=    0.000
 RMSDP=6.18D-05 MaxDP=6.76D-04 DE=-4.99D-06 OVMax= 5.88D-04

 Cycle   9  Pass 1  IDiag  3:
 E= 0.739944740852252     Delta-E=       -0.000000860186 Rises=F Damp=F
 DIIS: error= 3.98D-05 at cycle   9 NSaved=   9.
 NSaved= 9 IEnMin= 9 EnMin= 0.739944740852252     IErMin= 9 ErrMin= 3.98D-05
 ErrMax= 3.98D-05  0.00D+00 EMaxC= 1.00D-01 BMatC= 3.94D-08 BMatP= 7.28D-08
 IDIUse=1 WtCom= 1.00D+00 WtEn= 0.00D+00
 Coeff-Com: -0.188D-03-0.451D-04 0.474D-02-0.203D+00 0.796D+00-0.172D+01
 Coeff-Com:  0.293D+01-0.476D+01 0.394D+01
 Coeff:     -0.188D-03-0.451D-04 0.474D-02-0.203D+00 0.796D+00-0.172D+01
 Coeff:      0.293D+01-0.476D+01 0.394D+01
 Gap=     0.363 Goal=   None    Shift=    0.000
 RMSDP=1.01D-04 MaxDP=9.19D-04 DE=-8.60D-07 OVMax= 1.05D-03

 Cycle  10  Pass 1  IDiag  3:
 E= 0.739943739615868     Delta-E=       -0.000001001236 Rises=F Damp=F
 DIIS: error= 2.56D-05 at cycle  10 NSaved=  10.
 NSaved=10 IEnMin=10 EnMin= 0.739943739615868     IErMin=10 ErrMin= 2.56D-05
 ErrMax= 2.56D-05  0.00D+00 EMaxC= 1.00D-01 BMatC= 1.41D-08 BMatP= 3.94D-08
 IDIUse=1 WtCom= 1.00D+00 WtEn= 0.00D+00
 Coeff-Com: -0.370D-03 0.222D-02-0.778D-02 0.174D+00-0.677D+00 0.148D+01
 Coeff-Com: -0.258D+01 0.438D+01-0.477D+01 0.299D+01
 Coeff:     -0.370D-03 0.222D-02-0.778D-02 0.174D+00-0.677D+00 0.148D+01
 Coeff:     -0.258D+01 0.438D+01-0.477D+01 0.299D+01
 Gap=     0.363 Goal=   None    Shift=    0.000
 RMSDP=1.16D-04 MaxDP=1.11D-03 DE=-1.00D-06 OVMax= 1.18D-03

 Cycle  11  Pass 1  IDiag  3:
 E= 0.739943250897071     Delta-E=       -0.000000488719 Rises=F Damp=F
 DIIS: error= 5.17D-06 at cycle  11 NSaved=  11.
 NSaved=11 IEnMin=11 EnMin= 0.739943250897071     IErMin=11 ErrMin= 5.17D-06
 ErrMax= 5.17D-06  0.00D+00 EMaxC= 1.00D-01 BMatC= 9.68D-10 BMatP= 1.41D-08
 IDIUse=1 WtCom= 1.00D+00 WtEn= 0.00D+00
 Coeff-Com:  0.148D-03-0.941D-03 0.341D-02-0.839D-01 0.328D+00-0.716D+00
 Coeff-Com:  0.124D+01-0.212D+01 0.236D+01-0.165D+01 0.165D+01
 Coeff:      0.148D-03-0.941D-03 0.341D-02-0.839D-01 0.328D+00-0.716D+00
 Coeff:      0.124D+01-0.212D+01 0.236D+01-0.165D+01 0.165D+01
 Gap=     0.363 Goal=   None    Shift=    0.000
 RMSDP=1.68D-05 MaxDP=1.64D-04 DE=-4.89D-07 OVMax= 1.59D-04

 Cycle  12  Pass 1  IDiag  3:
 E= 0.739943236902661     Delta-E=       -0.000000013994 Rises=F Damp=F
 DIIS: error= 1.60D-06 at cycle  12 NSaved=  12.
 NSaved=12 IEnMin=12 EnMin= 0.739943236902661     IErMin=12 ErrMin= 1.60D-06
 ErrMax= 1.60D-06  0.00D+00 EMaxC= 1.00D-01 BMatC= 1.07D-10 BMatP= 9.68D-10
 IDIUse=1 WtCom= 1.00D+00 WtEn= 0.00D+00
 Coeff-Com: -0.461D-04 0.360D-03-0.143D-02 0.403D-01-0.159D+00 0.348D+00
 Coeff-Com: -0.602D+00 0.103D+01-0.115D+01 0.831D+00-0.102D+01 0.169D+01
 Coeff:     -0.461D-04 0.360D-03-0.143D-02 0.403D-01-0.159D+00 0.348D+00
 Coeff:     -0.602D+00 0.103D+01-0.115D+01 0.831D+00-0.102D+01 0.169D+01
 Gap=     0.363 Goal=   None    Shift=    0.000
 RMSDP=3.50D-06 MaxDP=3.07D-05 DE=-1.40D-08 OVMax= 2.71D-05

 Cycle  13  Pass 1  IDiag  3:
 E= 0.739943235951841     Delta-E=       -0.000000000951 Rises=F Damp=F
 DIIS: error= 4.73D-07 at cycle  13 NSaved=  13.
 NSaved=13 IEnMin=13 EnMin= 0.739943235951841     IErMin=13 ErrMin= 4.73D-07
 ErrMax= 4.73D-07  0.00D+00 EMaxC= 1.00D-01 BMatC= 5.19D-12 BMatP= 1.07D-10
 IDIUse=1 WtCom= 1.00D+00 WtEn= 0.00D+00
 Coeff-Com:  0.216D-04-0.170D-03 0.685D-03-0.197D-01 0.777D-01-0.169D+00
 Coeff-Com:  0.293D+00-0.499D+00 0.564D+00-0.412D+00 0.515D+00-0.976D+00
 Coeff-Com:  0.163D+01
 Coeff:      0.216D-04-0.170D-03 0.685D-03-0.197D-01 0.777D-01-0.169D+00
 Coeff:      0.293D+00-0.499D+00 0.564D+00-0.412D+00 0.515D+00-0.976D+00
 Coeff:      0.163D+01
 Gap=     0.363 Goal=   None    Shift=    0.000
 RMSDP=5.19D-07 MaxDP=4.28D-06 DE=-9.51D-10 OVMax= 6.14D-06

 Cycle  14  Pass 1  IDiag  3:
 E= 0.739943235907788     Delta-E=       -0.000000000044 Rises=F Damp=F
 DIIS: error= 1.20D-07 at cycle  14 NSaved=  14.
 NSaved=14 IEnMin=14 EnMin= 0.739943235907788     IErMin=14 ErrMin= 1.20D-07
 ErrMax= 1.20D-07  0.00D+00 EMaxC= 1.00D-01 BMatC= 3.10D-13 BMatP= 5.19D-12
 IDIUse=1 WtCom= 1.00D+00 WtEn= 0.00D+00
 Coeff-Com: -0.617D-05 0.540D-04-0.224D-03 0.677D-02-0.268D-01 0.582D-01
 Coeff-Com: -0.100D+00 0.171D+00-0.194D+00 0.143D+00-0.182D+00 0.359D+00
 Coeff-Com: -0.751D+00 0.152D+01
 Coeff:     -0.617D-05 0.540D-04-0.224D-03 0.677D-02-0.268D-01 0.582D-01
 Coeff:     -0.100D+00 0.171D+00-0.194D+00 0.143D+00-0.182D+00 0.359D+00
 Coeff:     -0.751D+00 0.152D+01
 Gap=     0.363 Goal=   None    Shift=    0.000
 RMSDP=1.29D-07 MaxDP=1.15D-06 DE=-4.41D-11 OVMax= 1.41D-06

 Cycle  15  Pass 1  IDiag  3:
 E= 0.739943235904690     Delta-E=       -0.000000000003 Rises=F Damp=F
 DIIS: error= 2.95D-08 at cycle  15 NSaved=  15.
 NSaved=15 IEnMin=15 EnMin= 0.739943235904690     IErMin=15 ErrMin= 2.95D-08
 ErrMax= 2.95D-08  0.00D+00 EMaxC= 1.00D-01 BMatC= 2.12D-14 BMatP= 3.10D-13
 IDIUse=1 WtCom= 1.00D+00 WtEn= 0.00D+00
 Coeff-Com:  0.589D-06-0.531D-05 0.212D-04-0.701D-03 0.277D-02-0.596D-02
 Coeff-Com:  0.102D-01-0.171D-01 0.200D-01-0.158D-01 0.216D-01-0.479D-01
 Coeff-Com:  0.139D+00-0.557D+00 0.145D+01
 Coeff:      0.589D-06-0.531D-05 0.212D-04-0.701D-03 0.277D-02-0.596D-02
 Coeff:      0.102D-01-0.171D-01 0.200D-01-0.158D-01 0.216D-01-0.479D-01
 Coeff:      0.139D+00-0.557D+00 0.145D+01
 Gap=     0.363 Goal=   None    Shift=    0.000
 RMSDP=3.63D-08 MaxDP=3.03D-07 DE=-3.10D-12 OVMax= 3.75D-07

 Cycle  16  Pass 1  IDiag  3:
 E= 0.739943235905045     Delta-E=        0.000000000000 Rises=F Damp=F
 DIIS: error= 5.16D-09 at cycle  16 NSaved=  16.
 NSaved=16 IEnMin=15 EnMin= 0.739943235904690     IErMin=16 ErrMin= 5.16D-09
 ErrMax= 5.16D-09  0.00D+00 EMaxC= 1.00D-01 BMatC= 1.05D-15 BMatP= 2.12D-14
 IDIUse=1 WtCom= 1.00D+00 WtEn= 0.00D+00
 Large coefficients: NSaved= 16 BigCof=    0.00 CofMax=   10.00 Det=-1.29D-15
 Inversion failed.  Reducing to 15 matrices.
 Coeff-Com:  0.927D-07-0.504D-07 0.330D-04-0.129D-03 0.248D-03-0.364D-03
 Coeff-Com:  0.528D-03-0.862D-03 0.107D-02-0.200D-02 0.624D-02-0.298D-01
 Coeff-Com:  0.185D+00-0.675D+00 0.151D+01
 Coeff:      0.927D-07-0.504D-07 0.330D-04-0.129D-03 0.248D-03-0.364D-03
 Coeff:      0.528D-03-0.862D-03 0.107D-02-0.200D-02 0.624D-02-0.298D-01
 Coeff:      0.185D+00-0.675D+00 0.151D+01
 Gap=     0.363 Goal=   None    Shift=    0.000
 RMSDP=6.84D-09 MaxDP=5.39D-08 DE= 3.55D-13 OVMax= 6.88D-08

 Cycle  17  Pass 2  IDiag  1:
 SCF Done:  E(RAM1) =  0.739943235905     A.U. after   17 cycles
            NFock= 16  Conv=0.68D-08     -V/T= 1.0494
 KE=-1.498320096136D+01 PE=-1.714912741163D+02 EE= 8.467916577901D+01
 Leave Link  502 at Sun Nov 29 12:22:30 2015, MaxMem=    33554432 cpu:         0.0
 (Enter /home/Applications/g09/g09/l601.exe)
 Copying SCF densities to generalized density rwf, IOpCl= 0 IROHF=0.

 **********************************************************************

            Population analysis using the SCF density.

 **********************************************************************

 Orbital symmetries:
       Occupied  (A) (A) (A) (A) (A) (A) (A) (A) (A) (A) (A) (A)
                 (A)
       Virtual   (A) (A) (A) (A) (A) (A) (A) (A) (A) (A) (A)
 The electronic state is 1-A.
 Alpha  occ. eigenvalues --   -1.19553  -0.93426  -0.90856  -0.74602  -0.69307
 Alpha  occ. eigenvalues --   -0.65886  -0.61040  -0.52851  -0.52283  -0.50330
 Alpha  occ. eigenvalues --   -0.48770  -0.41455  -0.35446
 Alpha virt. eigenvalues --    0.00849   0.02328   0.12130   0.13458   0.15578
 Alpha virt. eigenvalues --    0.17220   0.19155   0.20278   0.21379   0.22075
 Alpha virt. eigenvalues --    0.23676
          Condensed to atoms (all electrons):
               1          2          3          4          5          6
     1  C    4.509625   0.000000   0.000000   0.000000   0.000000   0.000000
     2  C    0.000000   3.841949   0.000000   0.000000   0.000000   0.000000
     3  O    0.000000   0.000000   6.422912   0.000000   0.000000   0.000000
     4  C    0.000000   0.000000   0.000000   3.781290   0.000000   0.000000
     5  C    0.000000   0.000000   0.000000   0.000000   4.606653   0.000000
     6  H    0.000000   0.000000   0.000000   0.000000   0.000000   0.677029
     7  H    0.000000   0.000000   0.000000   0.000000   0.000000   0.000000
     8  H    0.000000   0.000000   0.000000   0.000000   0.000000   0.000000
     9  H    0.000000   0.000000   0.000000   0.000000   0.000000   0.000000
               7          8          9
     1  C    0.000000   0.000000   0.000000
     2  C    0.000000   0.000000   0.000000
     3  O    0.000000   0.000000   0.000000
     4  C    0.000000   0.000000   0.000000
     5  C    0.000000   0.000000   0.000000
     6  H    0.000000   0.000000   0.000000
     7  H    0.727444   0.000000   0.000000
     8  H    0.000000   0.732681   0.000000
     9  H    0.000000   0.000000   0.700418
 Mulliken charges:
               1
     1  C   -0.509625
     2  C    0.158051
     3  O   -0.422912
     4  C    0.218710
     5  C   -0.606653
     6  H    0.322971
     7  H    0.272556
     8  H    0.267319
     9  H    0.299582
 Sum of Mulliken charges =   0.00000
 Mulliken charges with hydrogens summed into heavy atoms:
               1
     1  C   -0.210043
     2  C    0.425370
     3  O   -0.422912
     4  C    0.491266
     5  C   -0.283682
 Charge=              0.0000 electrons
 Dipole moment (field-independent basis, Debye):
    X=              0.3718    Y=             -0.2646    Z=             -0.0179  Tot=              0.4567
 N-N= 1.025352525345D+02 E-N=-1.714912741156D+02  KE=-1.498320096136D+01
 Leave Link  601 at Sun Nov 29 12:22:30 2015, MaxMem=    33554432 cpu:         0.0
 (Enter /home/Applications/g09/g09/l701.exe)
 Compute integral first derivatives.
 ... and contract with generalized density number  0.
 Leave Link  701 at Sun Nov 29 12:22:30 2015, MaxMem=    33554432 cpu:         0.0
 (Enter /home/Applications/g09/g09/l702.exe)
 L702 exits ... SP integral derivatives will be done elsewhere.
 Leave Link  702 at Sun Nov 29 12:22:30 2015, MaxMem=    33554432 cpu:         0.0
 (Enter /home/Applications/g09/g09/l703.exe)
 Compute integral first derivatives, UseDBF=F ICtDFT=           0.
 Integral derivatives from FoFJK, PRISM(SPDF).
 Calling FoFJK, ICntrl=      2127 FMM=F ISym2X=0 I1Cent= 0 IOpClX= 0 NMat=1 NMatS=1 NMatT=0.
 FoFJK:  IHMeth= 8 ICntrl=    2127 DoSepK=F KAlg= 0 I1Cent=   0 FoldK=F
 IRaf=         0 NMat=   1 IRICut=       1 DoRegI=T DoRafI=F ISym2E= 0.
 FoFCou: FMM=F IPFlag=           0 FMFlag=      100000 FMFlg1=         800
         NFxFlg=           0 DoJE=F BraDBF=F KetDBF=F FulRan=T
         wScrn=  0.000000 ICntrl=    2127 IOpCl=  0 I1Cent=           0 NGrid=           0
         NMat0=    1 NMatS0=      1 NMatT0=    0 NMatD0=    1 NMtDS0=    0 NMtDT0=    0
 Symmetry not used in FoFCou.
 Leave Link  703 at Sun Nov 29 12:22:30 2015, MaxMem=    33554432 cpu:         0.0
 (Enter /home/Applications/g09/g09/l716.exe)
 Dipole        = 1.46276770D-01-1.04106412D-01-7.05518893D-03
 ***** Axes restored to original set *****
 -------------------------------------------------------------------
 Center     Atomic                   Forces (Hartrees/Bohr)
 Number     Number              X              Y              Z
 -------------------------------------------------------------------
      1        6           0.001882683    0.006133969    0.007415679
      2        6          -0.031179539    0.009997428    0.001837697
      3        8           0.020650156   -0.003215137   -0.006722492
      4        6          -0.001668083    0.015021797    0.011764148
      5        6           0.021441244    0.032986966   -0.011266152
      6        1          -0.026852735   -0.024848048    0.001228597
      7        1           0.002429002   -0.000601292   -0.001712710
      8        1          -0.008909309   -0.028927420   -0.000821005
      9        1           0.022206582   -0.006548263   -0.001723762
 -------------------------------------------------------------------
 Cartesian Forces:  Max     0.032986966 RMS     0.015516136
 Leave Link  716 at Sun Nov 29 12:22:30 2015, MaxMem=    33554432 cpu:         0.0
 (Enter /home/Applications/g09/g09/l103.exe)

 GradGradGradGradGradGradGradGradGradGradGradGradGradGradGradGradGradGrad
 Berny optimization.
 FormGI is forming the generalized inverse of G from B-inverse, IUseBI=4.
 Internal  Forces:  Max     0.036455881 RMS     0.011014538
 Search for a local minimum.
 Step number   1 out of a maximum of   48
 All quantities printed in internal units (Hartrees-Bohrs-Radians)
 RMS Force = .11015D-01 SwitMx=.10000D-02 MixMth= 1
 Mixed Optimization -- RFO/linear search
 Second derivative matrix not updated -- first step.
 ITU=  0
     Eigenvalues ---    0.02109   0.02136   0.02364   0.02451   0.02486
     Eigenvalues ---    0.02741   0.15891   0.15929   0.15955   0.15988
     Eigenvalues ---    0.21994   0.22851   0.28185   0.33782   0.38983
     Eigenvalues ---    0.39629   0.40266   0.43474   0.47910   0.51540
     Eigenvalues ---    0.56570
 RFO step:  Lambda=-1.56248539D-02 EMin= 2.10868822D-02
 Linear search not attempted -- first point.
 Iteration  1 RMS(Cart)=  0.04764646 RMS(Int)=  0.00226940
 Iteration  2 RMS(Cart)=  0.00150917 RMS(Int)=  0.00160225
 Iteration  3 RMS(Cart)=  0.00000562 RMS(Int)=  0.00160224
 Iteration  4 RMS(Cart)=  0.00000002 RMS(Int)=  0.00160224
 ITry= 1 IFail=0 DXMaxC= 1.24D-01 DCOld= 1.00D+10 DXMaxT= 3.00D-01 DXLimC= 3.00D+00 Rises=F
 Variable       Old X    -DE/DX   Delta X   Delta X   Delta X     New X
                                 (Linear)    (Quad)   (Total)
    R1        2.52360   0.02622   0.00000   0.04639   0.04661   2.57021
    R2        2.67940   0.01065   0.00000   0.02461   0.02438   2.70378
    R3        1.99659   0.02106   0.00000   0.05195   0.05195   2.04854
    R4        2.63977  -0.00340   0.00000  -0.00562  -0.00529   2.63448
    R5        1.98761   0.02939   0.00000   0.07134   0.07134   2.05895
    R6        2.56702   0.00629   0.00000   0.00944   0.00940   2.57642
    R7        2.58126  -0.00476   0.00000  -0.01153  -0.01180   2.56946
    R8        2.07699  -0.00173   0.00000  -0.00489  -0.00489   2.07211
    R9        2.18435  -0.03646   0.00000  -0.12255  -0.12255   2.06180
    A1        1.85190   0.00083   0.00000   0.01421   0.01261   1.86451
    A2        2.13838   0.00903   0.00000   0.04966   0.04921   2.18759
    A3        2.28918  -0.00962   0.00000  -0.05759  -0.05817   2.23101
    A4        1.95682  -0.01535   0.00000  -0.05438  -0.05460   1.90222
    A5        2.40181   0.00060   0.00000  -0.01279  -0.01277   2.38904
    A6        1.92375   0.01476   0.00000   0.06793   0.06799   1.99174
    A7        1.81063   0.01661   0.00000   0.06330   0.06270   1.87333
    A8        1.95118  -0.00615   0.00000  -0.03145  -0.03387   1.91731
    A9        2.00347   0.00510   0.00000   0.03039   0.02929   2.03276
   A10        2.32464   0.00140   0.00000   0.00955   0.00844   2.33308
   A11        1.85097   0.00443   0.00000   0.01767   0.01580   1.86677
   A12        2.21867  -0.00548   0.00000  -0.02588  -0.02601   2.19266
   A13        2.21106   0.00122   0.00000   0.01276   0.01267   2.22373
    D1        0.01643  -0.00131   0.00000  -0.03176  -0.03142  -0.01499
    D2       -3.07590  -0.00211   0.00000  -0.05630  -0.05782  -3.13372
    D3        3.07488   0.00068   0.00000   0.03467   0.03912   3.11400
    D4       -0.01746  -0.00011   0.00000   0.01012   0.01273  -0.00473
    D5       -0.05659   0.00319   0.00000   0.08531   0.08654   0.02995
    D6       -3.12615   0.00059   0.00000   0.01832   0.01994  -3.10621
    D7       -3.10504  -0.00036   0.00000   0.00318   0.00641  -3.09863
    D8        0.10859  -0.00297   0.00000  -0.06380  -0.06019   0.04840
    D9        0.03026  -0.00135   0.00000  -0.03515  -0.03570  -0.00544
   D10        3.13647  -0.00095   0.00000  -0.01891  -0.01744   3.11903
   D11       -0.06813   0.00345   0.00000   0.09299   0.09322   0.02509
   D12       -3.12777  -0.00023   0.00000   0.00327   0.00480  -3.12297
   D13        0.07955  -0.00476   0.00000  -0.11577  -0.11360  -0.03406
   D14       -3.13367  -0.00253   0.00000  -0.05126  -0.04754   3.10198
   D15        3.11903  -0.00006   0.00000  -0.00333  -0.00349   3.11554
   D16       -0.09419   0.00217   0.00000   0.06118   0.06257  -0.03162
         Item               Value     Threshold  Converged?
 Maximum Force            0.036456     0.000450     NO 
 RMS     Force            0.011015     0.000300     NO 
 Maximum Displacement     0.124482     0.001800     NO 
 RMS     Displacement     0.047454     0.001200     NO 
 Predicted change in Energy=-8.527098D-03
 Lowest energy point so far.  Saving SCF results.
 GradGradGradGradGradGradGradGradGradGradGradGradGradGradGradGradGradGrad

 Leave Link  103 at Sun Nov 29 12:22:30 2015, MaxMem=    33554432 cpu:         0.0
 (Enter /home/Applications/g09/g09/l202.exe)
                          Input orientation:                          
 ---------------------------------------------------------------------
 Center     Atomic      Atomic             Coordinates (Angstroms)
 Number     Number       Type             X           Y           Z
 ---------------------------------------------------------------------
      1          6           0        0.954222   -0.716500    0.006813
      2          6           0       -0.343173   -1.124355   -0.009969
      3          8           0       -1.171386   -0.002991    0.001598
      4          6           0       -0.365927    1.096594    0.032746
      5          6           0        0.938680    0.714194    0.009228
      6          1           0        1.818291    1.359422   -0.010098
      7          1           0       -0.869158    2.070316    0.063720
      8          1           0       -0.878584   -2.073273   -0.012452
      9          1           0        1.817361   -1.372023    0.027433
 ---------------------------------------------------------------------
                    Distance matrix (angstroms):
                    1          2          3          4          5
     1  C    0.000000
     2  C    1.360096   0.000000
     3  O    2.242172   1.394105   0.000000
     4  C    2.242939   2.221475   1.363385   0.000000
     5  C    1.430781   2.241379   2.228630   1.359699   0.000000
     6  H    2.248633   3.292578   3.285494   2.200392   1.091058
     7  H    3.330810   3.238520   2.096139   1.096511   2.260600
     8  H    2.280435   1.089549   2.090933   3.211373   3.327596
     9  H    1.084041   2.175005   3.287480   3.295579   2.263783
                    6          7          8          9
     6  H    0.000000
     7  H    2.780864   0.000000
     8  H    4.365379   4.144300   0.000000
     9  H    2.731703   4.366738   2.785940   0.000000
 Stoichiometry    C4H4O
 Framework group  C1[X(C4H4O)]
 Deg. of freedom    21
 Full point group                 C1      NOp   1
 RotChk:  IX=2 Diff= 4.71D-01
 Largest Abelian subgroup         C1      NOp   1
 Largest concise Abelian subgroup C1      NOp   1
                         Standard orientation:                         
 ---------------------------------------------------------------------
 Center     Atomic      Atomic             Coordinates (Angstroms)
 Number     Number       Type             X           Y           Z
 ---------------------------------------------------------------------
      1          6           0       -0.782140    0.907576   -0.006140
      2          6           0       -1.089645   -0.417254    0.005025
      3          8           0        0.091891   -1.157185    0.006549
      4          6           0        1.126879   -0.269877   -0.010896
      5          6           0        0.645471    1.001596    0.008703
      6          1           0        1.221186    1.927986    0.036284
      7          1           0        2.136571   -0.697053   -0.030386
      8          1           0       -1.994751   -1.023733   -0.004230
      9          1           0       -1.501524    1.718035   -0.034208
 ---------------------------------------------------------------------
 Rotational constants (GHZ):      9.3401599      9.2270269      4.6422352
 Leave Link  202 at Sun Nov 29 12:22:30 2015, MaxMem=    33554432 cpu:         0.0
 (Enter /home/Applications/g09/g09/l301.exe)

 Semi-emprical parameters in input format:
 Method=8 CoreType=1 PeptideFC=0.0105570000 RIJScale=0.4899110000
 ****
 H       
 PQN=1 NValence=1 F0ss=0.4577290000 ZetaOverlap=1.0659780000 U=-0.3880320000
 Beta=-0.2381360000 CoreKO=1.1144350000 KON=0,0,0,1.0186160000 KON=1,0,1,1.0557690000
 KON=0,1,1,1.0725930000 KON=2,1,1,1.1590830000 EISol=-0.4188110042 EHeat=0.0830298228
 Alpha=1.5252600000
 GCore=0.0099350000,1.3986240000,2.1461900000
 GCore=0.0003630000,1.5415670000,2.7171030000
 GCore=-0.0012530000,0.5088300000,4.2039300000
 ****
 C       
 PQN=2,2 NValence=4 F0ss=0.4263360000 F0sp=0.4580860000 F0pp=0.3261620000 F2pp=0.2036090000
 G1sp=0.2073130000
 ZetaOverlap=2.1016200000,1.8587190000
 U=-1.9018080000,-1.4557970000
 Beta=-0.4792560000,-0.2700630000 DDN=0,1,0.8034860000 DDN=1,1,0.7591540000
 CoreKO=1.1325510000 KON=0,0,0,1.1996250000 KON=1,0,1,0.8437060000 KON=0,1,1,1.0478550000
 KON=2,1,1,0.8168110000 EISol=-4.4398989268 EHeat=0.2723305520 Alpha=1.4381970000
 DipHyp=1.6068795495
 GCore=0.0008260000,1.4798740000,2.8384620000
 GCore=0.0031480000,1.6675340000,3.8116200000
 GCore=-0.0011560000,1.5029710000,3.9059920000
 GCore=-0.0000920000,1.1754400000,4.8520980000
 ****
 O       
 PQN=2,2 NValence=6 F0ss=0.5413910000 F0sp=0.5145480000 F0pp=0.5091470000 F2pp=0.2175940000
 G1sp=0.4302620000
 ZetaOverlap=3.3296350000,2.5240390000
 U=-3.3343200000,-2.9854240000
 Beta=-0.9082740000,-1.1340310000 DDN=0,1,0.4988900000 DDN=1,1,0.5206270000
 CoreKO=0.9688900000 KON=0,0,0,0.8976510000 KON=1,0,1,0.5186760000 KON=0,1,1,0.8274210000
 KON=2,1,1,0.5315430000 EISol=-11.6164441184 EHeat=0.0949133088 Alpha=2.3722000000
 DipHyp=0.9977225968
 GCore=0.0212480000,1.1747580000,1.6499540000
 GCore=0.0064050000,2.1096700000,2.7148630000
 ****
 
 Standard basis: VSTO-6G (5D, 7F)
 Ernie: Thresh=  0.10000D-02 Tol=  0.10000D-05 Strict=F.
  NNHCO=     0 NNPyr=     0 NCTC=     0               EPep=         0.000000000
    EC=        67.704881122  ECS=         1.613192018   EG=         0.425288492
   EHC=         0.000000000  EAt=       -31.051283842  AtH=         1.516354808
 EPDDG=         0.000000000  ECC=        69.743361633 EAtT=        32.567638650
 There are    24 symmetry adapted cartesian basis functions of A   symmetry.
 There are    24 symmetry adapted basis functions of A   symmetry.
    24 basis functions,   144 primitive gaussians,    24 cartesian basis functions
    13 alpha electrons       13 beta electrons
       nuclear repulsion energy       102.3110002829 Hartrees.
 IExCor=    0 DFT=F Ex=HF Corr=None ExCW=0 ScaHFX=  1.000000
 ScaDFX=  1.000000  1.000000  1.000000  1.000000 ScalE2=  1.000000  1.000000
 IRadAn=      0 IRanWt=     -1 IRanGd=            0 ICorTp=0 IEmpDi=  4
 Integral buffers will be    131072 words long.
 Regular integral format.
 Two-electron integral symmetry is turned off.
 Leave Link  301 at Sun Nov 29 12:22:30 2015, MaxMem=    33554432 cpu:         0.0
 (Enter /home/Applications/g09/g09/l302.exe)
 Do NDO integrals.
 NPDir=0 NMtPBC=     1 NCelOv=     1 NCel=       1 NClECP=     1 NCelD=      1
         NCelK=      1 NCelE2=     1 NClLst=     1 CellRange=     0.0.
 One-electron integrals computed using PRISM.
 NBasis=    24 RedAO= F EigKep=  0.00D+00  NBF=    24
 NBsUse=    24 1.00D-04 EigRej=  0.00D+00 NBFU=    24
 Leave Link  302 at Sun Nov 29 12:22:30 2015, MaxMem=    33554432 cpu:         0.0
 (Enter /home/Applications/g09/g09/l303.exe)
 DipDrv:  MaxL=1.
 Leave Link  303 at Sun Nov 29 12:22:30 2015, MaxMem=    33554432 cpu:         0.0
 (Enter /home/Applications/g09/g09/l401.exe)
 Initial guess from the checkpoint file:  "/home/Applications/g09/scratch/Gau-20952.chk"
 B after Tr=     0.000000    0.000000    0.000000
         Rot=    0.986339   -0.000122    0.000024    0.164730 Ang= -18.96 deg.
 Guess basis will be translated and rotated to current coordinates.
 JPrj=0 DoOrth=T DoCkMO=T.
 Leave Link  401 at Sun Nov 29 12:22:30 2015, MaxMem=    33554432 cpu:         0.0
 (Enter /home/Applications/g09/g09/l502.exe)
 Closed shell SCF:
 Using DIIS extrapolation, IDIIS=  1040.
 Overlap will be assumed to be unity.
 Two-electron integral symmetry not used.
 Keep J ints in memory in canonical form, NReq=888082.
 IVT=       79475 IEndB=       79475 NGot=    33554432 MDV=    33473473
 LenX=    33473473 LenY=    33472456
 Requested convergence on RMS density matrix=1.00D-08 within 128 cycles.
 Requested convergence on MAX density matrix=1.00D-06.
 Requested convergence on             energy=1.00D-06.
 No special actions if energy rises.
 FoFCou: FMM=F IPFlag=           0 FMFlag=           0 FMFlg1=           0
         NFxFlg=           0 DoJE=F BraDBF=F KetDBF=F FulRan=T
         wScrn=  0.000000 ICntrl=     600 IOpCl=  2 I1Cent=           0 NGrid=           0
         NMat0=    1 NMatS0=     54 NMatT0=    0 NMatD0=    1 NMtDS0=    0 NMtDT0=    0
 Symmetry not used in FoFCou.

 Cycle   1  Pass 1  IDiag  1:
 E= 0.736656650844637    
 DIIS: error= 5.17D-03 at cycle   1 NSaved=   1.
 NSaved= 1 IEnMin= 1 EnMin= 0.736656650844637     IErMin= 1 ErrMin= 5.17D-03
 ErrMax= 5.17D-03  0.00D+00 EMaxC= 1.00D-01 BMatC= 1.05D-03 BMatP= 1.05D-03
 IDIUse=3 WtCom= 9.48D-01 WtEn= 5.17D-02
 Coeff-Com:  0.100D+01
 Coeff-En:   0.100D+01
 Coeff:      0.100D+01
 GapD=    2.000 DampG=2.000 DampE=1.000 DampFc=2.0000 IDamp=-1.
 RMSDP=2.45D-03 MaxDP=1.19D-02              OVMax= 0.00D+00

 Cycle   2  Pass 1  IDiag  3:
 E= 0.732962629349586     Delta-E=       -0.003694021495 Rises=F Damp=F
 DIIS: error= 1.96D-03 at cycle   2 NSaved=   2.
 NSaved= 2 IEnMin= 2 EnMin= 0.732962629349586     IErMin= 2 ErrMin= 1.96D-03
 ErrMax= 1.96D-03  0.00D+00 EMaxC= 1.00D-01 BMatC= 1.76D-04 BMatP= 1.05D-03
 IDIUse=3 WtCom= 9.80D-01 WtEn= 1.96D-02
 Coeff-Com: -0.599D+00 0.160D+01
 Coeff-En:   0.000D+00 0.100D+01
 Coeff:     -0.587D+00 0.159D+01
 Gap=     0.362 Goal=   None    Shift=    0.000
 RMSDP=1.80D-03 MaxDP=9.92D-03 DE=-3.69D-03 OVMax= 8.08D-03

 Cycle   3  Pass 1  IDiag  3:
 E= 0.732045730832709     Delta-E=       -0.000916898517 Rises=F Damp=F
 DIIS: error= 4.65D-04 at cycle   3 NSaved=   3.
 NSaved= 3 IEnMin= 3 EnMin= 0.732045730832709     IErMin= 3 ErrMin= 4.65D-04
 ErrMax= 4.65D-04  0.00D+00 EMaxC= 1.00D-01 BMatC= 7.62D-06 BMatP= 1.76D-04
 IDIUse=3 WtCom= 9.95D-01 WtEn= 4.65D-03
 Coeff-Com:  0.372D+00-0.110D+01 0.173D+01
 Coeff-En:   0.000D+00 0.000D+00 0.100D+01
 Coeff:      0.370D+00-0.110D+01 0.172D+01
 Gap=     0.362 Goal=   None    Shift=    0.000
 RMSDP=5.27D-04 MaxDP=3.26D-03 DE=-9.17D-04 OVMax= 2.90D-03

 Cycle   4  Pass 1  IDiag  3:
 E= 0.731991806006604     Delta-E=       -0.000053924826 Rises=F Damp=F
 DIIS: error= 8.00D-05 at cycle   4 NSaved=   4.
 NSaved= 4 IEnMin= 4 EnMin= 0.731991806006604     IErMin= 4 ErrMin= 8.00D-05
 ErrMax= 8.00D-05  0.00D+00 EMaxC= 1.00D-01 BMatC= 3.29D-07 BMatP= 7.62D-06
 IDIUse=1 WtCom= 1.00D+00 WtEn= 0.00D+00
 Coeff-Com: -0.204D+00 0.609D+00-0.105D+01 0.165D+01
 Coeff:     -0.204D+00 0.609D+00-0.105D+01 0.165D+01
 Gap=     0.362 Goal=   None    Shift=    0.000
 RMSDP=1.08D-04 MaxDP=6.76D-04 DE=-5.39D-05 OVMax= 7.51D-04

 Cycle   5  Pass 1  IDiag  3:
 E= 0.731989247554736     Delta-E=       -0.000002558452 Rises=F Damp=F
 DIIS: error= 2.96D-05 at cycle   5 NSaved=   5.
 NSaved= 5 IEnMin= 5 EnMin= 0.731989247554736     IErMin= 5 ErrMin= 2.96D-05
 ErrMax= 2.96D-05  0.00D+00 EMaxC= 1.00D-01 BMatC= 5.23D-08 BMatP= 3.29D-07
 IDIUse=1 WtCom= 1.00D+00 WtEn= 0.00D+00
 Coeff-Com:  0.121D+00-0.363D+00 0.643D+00-0.128D+01 0.188D+01
 Coeff:      0.121D+00-0.363D+00 0.643D+00-0.128D+01 0.188D+01
 Gap=     0.362 Goal=   None    Shift=    0.000
 RMSDP=5.02D-05 MaxDP=3.50D-04 DE=-2.56D-06 OVMax= 4.85D-04

 Cycle   6  Pass 1  IDiag  3:
 E= 0.731988755473751     Delta-E=       -0.000000492081 Rises=F Damp=F
 DIIS: error= 1.54D-05 at cycle   6 NSaved=   6.
 NSaved= 6 IEnMin= 6 EnMin= 0.731988755473751     IErMin= 6 ErrMin= 1.54D-05
 ErrMax= 1.54D-05  0.00D+00 EMaxC= 1.00D-01 BMatC= 1.03D-08 BMatP= 5.23D-08
 IDIUse=1 WtCom= 1.00D+00 WtEn= 0.00D+00
 Coeff-Com: -0.622D-01 0.187D+00-0.334D+00 0.737D+00-0.150D+01 0.197D+01
 Coeff:     -0.622D-01 0.187D+00-0.334D+00 0.737D+00-0.150D+01 0.197D+01
 Gap=     0.362 Goal=   None    Shift=    0.000
 RMSDP=2.79D-05 MaxDP=2.09D-04 DE=-4.92D-07 OVMax= 3.32D-04

 Cycle   7  Pass 1  IDiag  3:
 E= 0.731988637574716     Delta-E=       -0.000000117899 Rises=F Damp=F
 DIIS: error= 4.64D-06 at cycle   7 NSaved=   7.
 NSaved= 7 IEnMin= 7 EnMin= 0.731988637574716     IErMin= 7 ErrMin= 4.64D-06
 ErrMax= 4.64D-06  0.00D+00 EMaxC= 1.00D-01 BMatC= 1.47D-09 BMatP= 1.03D-08
 IDIUse=1 WtCom= 1.00D+00 WtEn= 0.00D+00
 Coeff-Com:  0.514D-02-0.154D-01 0.276D-01-0.821D-01 0.278D+00-0.878D+00
 Coeff-Com:  0.166D+01
 Coeff:      0.514D-02-0.154D-01 0.276D-01-0.821D-01 0.278D+00-0.878D+00
 Coeff:      0.166D+01
 Gap=     0.362 Goal=   None    Shift=    0.000
 RMSDP=1.25D-05 MaxDP=8.97D-05 DE=-1.18D-07 OVMax= 1.47D-04

 Cycle   8  Pass 1  IDiag  3:
 E= 0.731988621081925     Delta-E=       -0.000000016493 Rises=F Damp=F
 DIIS: error= 9.34D-07 at cycle   8 NSaved=   8.
 NSaved= 8 IEnMin= 8 EnMin= 0.731988621081925     IErMin= 8 ErrMin= 9.34D-07
 ErrMax= 9.34D-07  0.00D+00 EMaxC= 1.00D-01 BMatC= 7.16D-11 BMatP= 1.47D-09
 IDIUse=1 WtCom= 1.00D+00 WtEn= 0.00D+00
 Coeff-Com:  0.367D-02-0.110D-01 0.198D-01-0.380D-01 0.524D-01 0.896D-01
 Coeff-Com: -0.491D+00 0.137D+01
 Coeff:      0.367D-02-0.110D-01 0.198D-01-0.380D-01 0.524D-01 0.896D-01
 Coeff:     -0.491D+00 0.137D+01
 Gap=     0.362 Goal=   None    Shift=    0.000
 RMSDP=1.80D-06 MaxDP=9.93D-06 DE=-1.65D-08 OVMax= 1.74D-05

 Cycle   9  Pass 1  IDiag  3:
 E= 0.731988620525314     Delta-E=       -0.000000000557 Rises=F Damp=F
 DIIS: error= 2.98D-07 at cycle   9 NSaved=   9.
 NSaved= 9 IEnMin= 9 EnMin= 0.731988620525314     IErMin= 9 ErrMin= 2.98D-07
 ErrMax= 2.98D-07  0.00D+00 EMaxC= 1.00D-01 BMatC= 4.98D-12 BMatP= 7.16D-11
 IDIUse=1 WtCom= 1.00D+00 WtEn= 0.00D+00
 Coeff-Com: -0.130D-02 0.392D-02-0.712D-02 0.153D-01-0.299D-01-0.724D-02
 Coeff-Com:  0.144D+00-0.639D+00 0.152D+01
 Coeff:     -0.130D-02 0.392D-02-0.712D-02 0.153D-01-0.299D-01-0.724D-02
 Coeff:      0.144D+00-0.639D+00 0.152D+01
 Gap=     0.362 Goal=   None    Shift=    0.000
 RMSDP=5.26D-07 MaxDP=4.09D-06 DE=-5.57D-10 OVMax= 5.60D-06

 Cycle  10  Pass 1  IDiag  3:
 E= 0.731988620484529     Delta-E=       -0.000000000041 Rises=F Damp=F
 DIIS: error= 1.15D-07 at cycle  10 NSaved=  10.
 NSaved=10 IEnMin=10 EnMin= 0.731988620484529     IErMin=10 ErrMin= 1.15D-07
 ErrMax= 1.15D-07  0.00D+00 EMaxC= 1.00D-01 BMatC= 4.33D-13 BMatP= 4.98D-12
 IDIUse=1 WtCom= 1.00D+00 WtEn= 0.00D+00
 Coeff-Com:  0.544D-03-0.164D-02 0.297D-02-0.629D-02 0.124D-01 0.359D-02
 Coeff-Com: -0.579D-01 0.267D+00-0.774D+00 0.155D+01
 Coeff:      0.544D-03-0.164D-02 0.297D-02-0.629D-02 0.124D-01 0.359D-02
 Coeff:     -0.579D-01 0.267D+00-0.774D+00 0.155D+01
 Gap=     0.362 Goal=   None    Shift=    0.000
 RMSDP=1.30D-07 MaxDP=1.07D-06 DE=-4.08D-11 OVMax= 1.30D-06

 Cycle  11  Pass 1  IDiag  3:
 E= 0.731988620480436     Delta-E=       -0.000000000004 Rises=F Damp=F
 DIIS: error= 7.86D-08 at cycle  11 NSaved=  11.
 NSaved=11 IEnMin=11 EnMin= 0.731988620480436     IErMin=11 ErrMin= 7.86D-08
 ErrMax= 7.86D-08  0.00D+00 EMaxC= 1.00D-01 BMatC= 1.59D-13 BMatP= 4.33D-13
 IDIUse=1 WtCom= 1.00D+00 WtEn= 0.00D+00
 Coeff-Com: -0.230D-03 0.692D-03-0.128D-02 0.289D-02-0.663D-02-0.557D-02
 Coeff-Com:  0.443D-01-0.206D+00 0.640D+00-0.157D+01 0.210D+01
 Coeff:     -0.230D-03 0.692D-03-0.128D-02 0.289D-02-0.663D-02-0.557D-02
 Coeff:      0.443D-01-0.206D+00 0.640D+00-0.157D+01 0.210D+01
 Gap=     0.362 Goal=   None    Shift=    0.000
 RMSDP=1.06D-07 MaxDP=1.07D-06 DE=-4.09D-12 OVMax= 1.09D-06

 Cycle  12  Pass 1  IDiag  3:
 E= 0.731988620478234     Delta-E=       -0.000000000002 Rises=F Damp=F
 DIIS: error= 5.88D-08 at cycle  12 NSaved=  12.
 NSaved=12 IEnMin=12 EnMin= 0.731988620478234     IErMin=12 ErrMin= 5.88D-08
 ErrMax= 5.88D-08  0.00D+00 EMaxC= 1.00D-01 BMatC= 9.12D-14 BMatP= 1.59D-13
 IDIUse=1 WtCom= 1.00D+00 WtEn= 0.00D+00
 Coeff-Com:  0.176D-03-0.533D-03 0.102D-02-0.241D-02 0.604D-02 0.121D-01
 Coeff-Com: -0.631D-01 0.274D+00-0.862D+00 0.240D+01-0.455D+01 0.378D+01
 Coeff:      0.176D-03-0.533D-03 0.102D-02-0.241D-02 0.604D-02 0.121D-01
 Coeff:     -0.631D-01 0.274D+00-0.862D+00 0.240D+01-0.455D+01 0.378D+01
 Gap=     0.362 Goal=   None    Shift=    0.000
 RMSDP=1.86D-07 MaxDP=1.75D-06 DE=-2.20D-12 OVMax= 1.91D-06

 Cycle  13  Pass 1  IDiag  3:
 E= 0.731988620475491     Delta-E=       -0.000000000003 Rises=F Damp=F
 DIIS: error= 3.56D-08 at cycle  13 NSaved=  13.
 NSaved=13 IEnMin=13 EnMin= 0.731988620475491     IErMin=13 ErrMin= 3.56D-08
 ErrMax= 3.56D-08  0.00D+00 EMaxC= 1.00D-01 BMatC= 2.60D-14 BMatP= 9.12D-14
 IDIUse=1 WtCom= 1.00D+00 WtEn= 0.00D+00
 Coeff-Com: -0.438D-04 0.133D-03-0.289D-03 0.793D-03-0.269D-02-0.940D-02
 Coeff-Com:  0.416D-01-0.181D+00 0.583D+00-0.169D+01 0.353D+01-0.382D+01
 Coeff-Com:  0.255D+01
 Coeff:     -0.438D-04 0.133D-03-0.289D-03 0.793D-03-0.269D-02-0.940D-02
 Coeff:      0.416D-01-0.181D+00 0.583D+00-0.169D+01 0.353D+01-0.382D+01
 Coeff:      0.255D+01
 Gap=     0.362 Goal=   None    Shift=    0.000
 RMSDP=1.42D-07 MaxDP=1.30D-06 DE=-2.74D-12 OVMax= 1.38D-06

 Cycle  14  Pass 1  IDiag  3:
 E= 0.731988620474780     Delta-E=       -0.000000000001 Rises=F Damp=F
 DIIS: error= 7.79D-09 at cycle  14 NSaved=  14.
 NSaved=14 IEnMin=14 EnMin= 0.731988620474780     IErMin=14 ErrMin= 7.79D-09
 ErrMax= 7.79D-09  0.00D+00 EMaxC= 1.00D-01 BMatC= 1.84D-15 BMatP= 2.60D-14
 IDIUse=1 WtCom= 1.00D+00 WtEn= 0.00D+00
 Coeff-Com: -0.394D-05 0.114D-04-0.319D-05-0.542D-04 0.489D-03 0.351D-02
 Coeff-Com: -0.137D-01 0.575D-01-0.186D+00 0.543D+00-0.114D+01 0.131D+01
 Coeff-Com: -0.115D+01 0.158D+01
 Coeff:     -0.394D-05 0.114D-04-0.319D-05-0.542D-04 0.489D-03 0.351D-02
 Coeff:     -0.137D-01 0.575D-01-0.186D+00 0.543D+00-0.114D+01 0.131D+01
 Coeff:     -0.115D+01 0.158D+01
 Gap=     0.362 Goal=   None    Shift=    0.000
 RMSDP=2.43D-08 MaxDP=2.24D-07 DE=-7.11D-13 OVMax= 2.29D-07

 Cycle  15  Pass 1  IDiag  3:
 E= 0.731988620474724     Delta-E=        0.000000000000 Rises=F Damp=F
 DIIS: error= 1.79D-09 at cycle  15 NSaved=  15.
 NSaved=15 IEnMin=15 EnMin= 0.731988620474724     IErMin=15 ErrMin= 1.79D-09
 ErrMax= 1.79D-09  0.00D+00 EMaxC= 1.00D-01 BMatC= 1.51D-16 BMatP= 1.84D-15
 IDIUse=1 WtCom= 1.00D+00 WtEn= 0.00D+00
 Coeff-Com:  0.279D-05-0.820D-05 0.707D-05 0.119D-04-0.191D-03-0.159D-02
 Coeff-Com:  0.610D-02-0.255D-01 0.826D-01-0.240D+00 0.496D+00-0.570D+00
 Coeff-Com:  0.522D+00-0.912D+00 0.164D+01
 Coeff:      0.279D-05-0.820D-05 0.707D-05 0.119D-04-0.191D-03-0.159D-02
 Coeff:      0.610D-02-0.255D-01 0.826D-01-0.240D+00 0.496D+00-0.570D+00
 Coeff:      0.522D+00-0.912D+00 0.164D+01
 Gap=     0.362 Goal=   None    Shift=    0.000
 RMSDP=3.93D-09 MaxDP=3.12D-08 DE=-5.68D-14 OVMax= 3.27D-08

 Cycle  16  Pass 2  IDiag  1:
 SCF Done:  E(RAM1) =  0.731988620475     A.U. after   16 cycles
            NFock= 15  Conv=0.39D-08     -V/T= 1.0489
 KE=-1.496053469331D+01 PE=-1.711585936115D+02 EE= 8.454011664239D+01
 Leave Link  502 at Sun Nov 29 12:22:30 2015, MaxMem=    33554432 cpu:         0.0
 (Enter /home/Applications/g09/g09/l701.exe)
 Compute integral first derivatives.
 ... and contract with generalized density number  0.
 Leave Link  701 at Sun Nov 29 12:22:30 2015, MaxMem=    33554432 cpu:         0.0
 (Enter /home/Applications/g09/g09/l702.exe)
 L702 exits ... SP integral derivatives will be done elsewhere.
 Leave Link  702 at Sun Nov 29 12:22:30 2015, MaxMem=    33554432 cpu:         0.0
 (Enter /home/Applications/g09/g09/l703.exe)
 Compute integral first derivatives, UseDBF=F ICtDFT=           0.
 Integral derivatives from FoFJK, PRISM(SPDF).
 Calling FoFJK, ICntrl=      2127 FMM=F ISym2X=0 I1Cent= 0 IOpClX= 0 NMat=1 NMatS=1 NMatT=0.
 FoFJK:  IHMeth= 8 ICntrl=    2127 DoSepK=F KAlg= 0 I1Cent=   0 FoldK=F
 IRaf=         0 NMat=   1 IRICut=       1 DoRegI=T DoRafI=F ISym2E= 0.
 FoFCou: FMM=F IPFlag=           0 FMFlag=      100000 FMFlg1=         800
         NFxFlg=           0 DoJE=F BraDBF=F KetDBF=F FulRan=T
         wScrn=  0.000000 ICntrl=    2127 IOpCl=  0 I1Cent=           0 NGrid=           0
         NMat0=    1 NMatS0=      1 NMatT0=    0 NMatD0=    1 NMtDS0=    0 NMtDT0=    0
 Symmetry not used in FoFCou.
 Leave Link  703 at Sun Nov 29 12:22:30 2015, MaxMem=    33554432 cpu:         0.0
 (Enter /home/Applications/g09/g09/l716.exe)
 Dipole        = 2.27315781D-02-2.23732263D-01-2.33827542D-02
 ***** Axes restored to original set *****
 -------------------------------------------------------------------
 Center     Atomic                   Forces (Hartrees/Bohr)
 Number     Number              X              Y              Z
 -------------------------------------------------------------------
      1        6          -0.005440119   -0.006347496   -0.001586091
      2        6          -0.004893360    0.014937965    0.001555961
      3        8          -0.000079184   -0.007658844    0.001507486
      4        6          -0.000238363   -0.001087672   -0.002978238
      5        6           0.005042663    0.004435110    0.002227918
      6        1          -0.000587605   -0.004040859    0.000696904
      7        1           0.000348202   -0.001618458   -0.000318212
      8        1           0.001033298   -0.001853587   -0.000480565
      9        1           0.004814469    0.003233841   -0.000625162
 -------------------------------------------------------------------
 Cartesian Forces:  Max     0.014937965 RMS     0.004310978
 Leave Link  716 at Sun Nov 29 12:22:30 2015, MaxMem=    33554432 cpu:         0.0
 (Enter /home/Applications/g09/g09/l103.exe)

 GradGradGradGradGradGradGradGradGradGradGradGradGradGradGradGradGradGrad
 Berny optimization.
 Using GEDIIS/GDIIS optimizer.
 FormGI is forming the generalized inverse of G from B-inverse, IUseBI=4.
 Internal  Forces:  Max     0.007685448 RMS     0.002431707
 Search for a local minimum.
 Step number   2 out of a maximum of   48
 All quantities printed in internal units (Hartrees-Bohrs-Radians)
 RMS Force = .24317D-02 SwitMx=.10000D-02 MixMth= 1
 Mixed Optimization -- RFO/linear search
 Update second derivatives using D2CorX and points    1    2
 DE= -7.95D-03 DEPred=-8.53D-03 R= 9.33D-01
 TightC=F SS=  1.41D+00  RLast= 3.06D-01 DXNew= 5.0454D-01 9.1801D-01
 Trust test= 9.33D-01 RLast= 3.06D-01 DXMaxT set to 5.05D-01
 ITU=  1  0
 Use linear search instead of GDIIS.
     Eigenvalues ---    0.02111   0.02158   0.02417   0.02468   0.02671
     Eigenvalues ---    0.02788   0.13972   0.15999   0.15999   0.16072
     Eigenvalues ---    0.21995   0.24537   0.27723   0.33763   0.38113
     Eigenvalues ---    0.39378   0.40140   0.45898   0.47842   0.51439
     Eigenvalues ---    0.56443
 RFO step:  Lambda=-1.35159265D-03 EMin= 2.11120241D-02
 Quartic linear search produced a step of  0.01410.
 Iteration  1 RMS(Cart)=  0.02344463 RMS(Int)=  0.00044956
 Iteration  2 RMS(Cart)=  0.00045095 RMS(Int)=  0.00020159
 Iteration  3 RMS(Cart)=  0.00000008 RMS(Int)=  0.00020159
 ITry= 1 IFail=0 DXMaxC= 6.01D-02 DCOld= 1.00D+10 DXMaxT= 5.05D-01 DXLimC= 3.00D+00 Rises=F
 Variable       Old X    -DE/DX   Delta X   Delta X   Delta X     New X
                                 (Linear)    (Quad)   (Total)
    R1        2.57021  -0.00036   0.00066   0.00301   0.00372   2.57393
    R2        2.70378  -0.00230   0.00034  -0.00264  -0.00236   2.70142
    R3        2.04854   0.00187   0.00073   0.00956   0.01029   2.05884
    R4        2.63448  -0.00769  -0.00007  -0.01835  -0.01832   2.61615
    R5        2.05895   0.00111   0.00101   0.00931   0.01032   2.06927
    R6        2.57642   0.00148   0.00013   0.00380   0.00394   2.58037
    R7        2.56946   0.00161  -0.00017   0.00305   0.00279   2.57225
    R8        2.07211  -0.00161  -0.00007  -0.00525  -0.00532   2.06679
    R9        2.06180  -0.00288  -0.00173  -0.02140  -0.02312   2.03868
    A1        1.86451  -0.00059   0.00018  -0.00201  -0.00213   1.86238
    A2        2.18759   0.00590   0.00069   0.04104   0.04185   2.22944
    A3        2.23101  -0.00532  -0.00082  -0.03914  -0.03984   2.19117
    A4        1.90222   0.00394  -0.00077   0.00998   0.00899   1.91121
    A5        2.38904  -0.00383  -0.00018  -0.02009  -0.02031   2.36873
    A6        1.99174  -0.00010   0.00096   0.01058   0.01149   2.00323
    A7        1.87333  -0.00263   0.00088  -0.00692  -0.00626   1.86707
    A8        1.91731   0.00164  -0.00048   0.00694   0.00597   1.92328
    A9        2.03276  -0.00127   0.00041  -0.00527  -0.00487   2.02790
   A10        2.33308  -0.00036   0.00012  -0.00145  -0.00135   2.33173
   A11        1.86677  -0.00230   0.00022  -0.00588  -0.00620   1.86057
   A12        2.19266  -0.00184  -0.00037  -0.01769  -0.01798   2.17468
   A13        2.22373   0.00414   0.00018   0.02342   0.02365   2.24738
    D1       -0.01499   0.00073  -0.00044   0.02764   0.02732   0.01233
    D2       -3.13372   0.00010  -0.00081  -0.00208  -0.00260  -3.13632
    D3        3.11400   0.00025   0.00055   0.01856   0.01893   3.13293
    D4       -0.00473  -0.00038   0.00018  -0.01116  -0.01099  -0.01572
    D5        0.02995  -0.00144   0.00122  -0.05195  -0.05048  -0.02053
    D6       -3.10621  -0.00061   0.00028  -0.02303  -0.02299  -3.12920
    D7       -3.09863  -0.00106   0.00009  -0.04334  -0.04309   3.14147
    D8        0.04840  -0.00022  -0.00085  -0.01442  -0.01561   0.03279
    D9       -0.00544   0.00017  -0.00050   0.00657   0.00596   0.00052
   D10        3.11903   0.00058  -0.00025   0.02838   0.02851  -3.13565
   D11        0.02509  -0.00108   0.00131  -0.04047  -0.03916  -0.01408
   D12       -3.12297  -0.00027   0.00007  -0.01103  -0.01109  -3.13406
   D13       -0.03406   0.00153  -0.00160   0.05708   0.05550   0.02144
   D14        3.10198   0.00065  -0.00067   0.02731   0.02631   3.12828
   D15        3.11554   0.00053  -0.00005   0.02065   0.02072   3.13626
   D16       -0.03162  -0.00035   0.00088  -0.00912  -0.00847  -0.04009
         Item               Value     Threshold  Converged?
 Maximum Force            0.007685     0.000450     NO 
 RMS     Force            0.002432     0.000300     NO 
 Maximum Displacement     0.060140     0.001800     NO 
 RMS     Displacement     0.023474     0.001200     NO 
 Predicted change in Energy=-6.909250D-04
 Lowest energy point so far.  Saving SCF results.
 GradGradGradGradGradGradGradGradGradGradGradGradGradGradGradGradGradGrad

 Leave Link  103 at Sun Nov 29 12:22:30 2015, MaxMem=    33554432 cpu:         0.0
 (Enter /home/Applications/g09/g09/l202.exe)
                          Input orientation:                          
 ---------------------------------------------------------------------
 Center     Atomic      Atomic             Coordinates (Angstroms)
 Number     Number       Type             X           Y           Z
 ---------------------------------------------------------------------
      1          6           0        0.947774   -0.716058   -0.001634
      2          6           0       -0.354504   -1.115142    0.003533
      3          8           0       -1.178733   -0.002913    0.016932
      4          6           0       -0.366824    1.094952    0.019338
      5          6           0        0.939704    0.713184    0.025907
      6          1           0        1.824026    1.331057    0.018058
      7          1           0       -0.868790    2.066493    0.036986
      8          1           0       -0.880092   -2.075723   -0.005711
      9          1           0        1.837764   -1.344465   -0.004392
 ---------------------------------------------------------------------
                    Distance matrix (angstroms):
                    1          2          3          4          5
     1  C    0.000000
     2  C    1.362065   0.000000
     3  O    2.242979   1.384408   0.000000
     4  C    2.237938   2.210185   1.365471   0.000000
     5  C    1.429530   2.240145   2.236213   1.361178   0.000000
     6  H    2.226855   3.275682   3.285733   2.203537   1.078821
     7  H    3.323250   3.223106   2.092585   1.093697   2.258809
     8  H    2.278114   1.095009   2.094335   3.212049   3.330264
     9  H    1.089489   2.204244   3.301435   3.288090   2.245295
                    6          7          8          9
     6  H    0.000000
     7  H    2.791502   0.000000
     8  H    4.349594   4.142452   0.000000
     9  H    2.675652   4.354514   2.814513   0.000000
 Stoichiometry    C4H4O
 Framework group  C1[X(C4H4O)]
 Deg. of freedom    21
 Full point group                 C1      NOp   1
 RotChk:  IX=2 Diff= 2.94D-02
 Largest Abelian subgroup         C1      NOp   1
 Largest concise Abelian subgroup C1      NOp   1
                         Standard orientation:                         
 ---------------------------------------------------------------------
 Center     Atomic      Atomic             Coordinates (Angstroms)
 Number     Number       Type             X           Y           Z
 ---------------------------------------------------------------------
      1          6           0       -0.763888    0.920847    0.005072
      2          6           0       -1.089243   -0.401773   -0.001438
      3          8           0        0.067533   -1.162335   -0.001544
      4          6           0        1.118109   -0.290126    0.005685
      5          6           0        0.663767    0.992919   -0.007641
      6          1           0        1.230963    1.910519    0.004714
      7          1           0        2.116400   -0.736830   -0.000819
      8          1           0       -2.018885   -0.980402   -0.001021
      9          1           0       -1.441208    1.774189   -0.000589
 ---------------------------------------------------------------------
 Rotational constants (GHZ):      9.3928747      9.2026906      4.6485318
 Leave Link  202 at Sun Nov 29 12:22:30 2015, MaxMem=    33554432 cpu:         0.0
 (Enter /home/Applications/g09/g09/l301.exe)

 Semi-emprical parameters in input format:
 Method=8 CoreType=1 PeptideFC=0.0105570000 RIJScale=0.4899110000
 ****
 H       
 PQN=1 NValence=1 F0ss=0.4577290000 ZetaOverlap=1.0659780000 U=-0.3880320000
 Beta=-0.2381360000 CoreKO=1.1144350000 KON=0,0,0,1.0186160000 KON=1,0,1,1.0557690000
 KON=0,1,1,1.0725930000 KON=2,1,1,1.1590830000 EISol=-0.4188110042 EHeat=0.0830298228
 Alpha=1.5252600000
 GCore=0.0099350000,1.3986240000,2.1461900000
 GCore=0.0003630000,1.5415670000,2.7171030000
 GCore=-0.0012530000,0.5088300000,4.2039300000
 ****
 C       
 PQN=2,2 NValence=4 F0ss=0.4263360000 F0sp=0.4580860000 F0pp=0.3261620000 F2pp=0.2036090000
 G1sp=0.2073130000
 ZetaOverlap=2.1016200000,1.8587190000
 U=-1.9018080000,-1.4557970000
 Beta=-0.4792560000,-0.2700630000 DDN=0,1,0.8034860000 DDN=1,1,0.7591540000
 CoreKO=1.1325510000 KON=0,0,0,1.1996250000 KON=1,0,1,0.8437060000 KON=0,1,1,1.0478550000
 KON=2,1,1,0.8168110000 EISol=-4.4398989268 EHeat=0.2723305520 Alpha=1.4381970000
 DipHyp=1.6068795495
 GCore=0.0008260000,1.4798740000,2.8384620000
 GCore=0.0031480000,1.6675340000,3.8116200000
 GCore=-0.0011560000,1.5029710000,3.9059920000
 GCore=-0.0000920000,1.1754400000,4.8520980000
 ****
 O       
 PQN=2,2 NValence=6 F0ss=0.5413910000 F0sp=0.5145480000 F0pp=0.5091470000 F2pp=0.2175940000
 G1sp=0.4302620000
 ZetaOverlap=3.3296350000,2.5240390000
 U=-3.3343200000,-2.9854240000
 Beta=-0.9082740000,-1.1340310000 DDN=0,1,0.4988900000 DDN=1,1,0.5206270000
 CoreKO=0.9688900000 KON=0,0,0,0.8976510000 KON=1,0,1,0.5186760000 KON=0,1,1,0.8274210000
 KON=2,1,1,0.5315430000 EISol=-11.6164441184 EHeat=0.0949133088 Alpha=2.3722000000
 DipHyp=0.9977225968
 GCore=0.0212480000,1.1747580000,1.6499540000
 GCore=0.0064050000,2.1096700000,2.7148630000
 ****
 
 Standard basis: VSTO-6G (5D, 7F)
 Ernie: Thresh=  0.10000D-02 Tol=  0.10000D-05 Strict=F.
  NNHCO=     0 NNPyr=     0 NCTC=     0               EPep=         0.000000000
    EC=        67.740405310  ECS=         1.618110012   EG=         0.428112201
   EHC=         0.000000000  EAt=       -31.051283842  AtH=         1.516354808
 EPDDG=         0.000000000  ECC=        69.786627523 EAtT=        32.567638650
 There are    24 symmetry adapted cartesian basis functions of A   symmetry.
 There are    24 symmetry adapted basis functions of A   symmetry.
    24 basis functions,   144 primitive gaussians,    24 cartesian basis functions
    13 alpha electrons       13 beta electrons
       nuclear repulsion energy       102.3542661737 Hartrees.
 IExCor=    0 DFT=F Ex=HF Corr=None ExCW=0 ScaHFX=  1.000000
 ScaDFX=  1.000000  1.000000  1.000000  1.000000 ScalE2=  1.000000  1.000000
 IRadAn=      0 IRanWt=     -1 IRanGd=            0 ICorTp=0 IEmpDi=  4
 Integral buffers will be    131072 words long.
 Regular integral format.
 Two-electron integral symmetry is turned off.
 Leave Link  301 at Sun Nov 29 12:22:30 2015, MaxMem=    33554432 cpu:         0.0
 (Enter /home/Applications/g09/g09/l302.exe)
 Do NDO integrals.
 NPDir=0 NMtPBC=     1 NCelOv=     1 NCel=       1 NClECP=     1 NCelD=      1
         NCelK=      1 NCelE2=     1 NClLst=     1 CellRange=     0.0.
 One-electron integrals computed using PRISM.
 NBasis=    24 RedAO= F EigKep=  0.00D+00  NBF=    24
 NBsUse=    24 1.00D-04 EigRej=  0.00D+00 NBFU=    24
 Leave Link  302 at Sun Nov 29 12:22:30 2015, MaxMem=    33554432 cpu:         0.0
 (Enter /home/Applications/g09/g09/l303.exe)
 DipDrv:  MaxL=1.
 Leave Link  303 at Sun Nov 29 12:22:30 2015, MaxMem=    33554432 cpu:         0.0
 (Enter /home/Applications/g09/g09/l401.exe)
 Initial guess from the checkpoint file:  "/home/Applications/g09/scratch/Gau-20952.chk"
 B after Tr=     0.000000    0.000000    0.000000
         Rot=    0.999955   -0.000017    0.000025    0.009478 Ang=  -1.09 deg.
 Guess basis will be translated and rotated to current coordinates.
 JPrj=0 DoOrth=T DoCkMO=T.
 Leave Link  401 at Sun Nov 29 12:22:30 2015, MaxMem=    33554432 cpu:         0.0
 (Enter /home/Applications/g09/g09/l502.exe)
 Closed shell SCF:
 Using DIIS extrapolation, IDIIS=  1040.
 Overlap will be assumed to be unity.
 Two-electron integral symmetry not used.
 Keep J ints in memory in canonical form, NReq=888082.
 IVT=       79475 IEndB=       79475 NGot=    33554432 MDV=    33473473
 LenX=    33473473 LenY=    33472456
 Requested convergence on RMS density matrix=1.00D-08 within 128 cycles.
 Requested convergence on MAX density matrix=1.00D-06.
 Requested convergence on             energy=1.00D-06.
 No special actions if energy rises.
 FoFCou: FMM=F IPFlag=           0 FMFlag=           0 FMFlg1=           0
         NFxFlg=           0 DoJE=F BraDBF=F KetDBF=F FulRan=T
         wScrn=  0.000000 ICntrl=     600 IOpCl=  2 I1Cent=           0 NGrid=           0
         NMat0=    1 NMatS0=     54 NMatT0=    0 NMatD0=    1 NMtDS0=    0 NMtDT0=    0
 Symmetry not used in FoFCou.

 Cycle   1  Pass 1  IDiag  1:
 E= 0.732331744629093    
 DIIS: error= 2.32D-03 at cycle   1 NSaved=   1.
 NSaved= 1 IEnMin= 1 EnMin= 0.732331744629093     IErMin= 1 ErrMin= 2.32D-03
 ErrMax= 2.32D-03  0.00D+00 EMaxC= 1.00D-01 BMatC= 2.12D-04 BMatP= 2.12D-04
 IDIUse=3 WtCom= 9.77D-01 WtEn= 2.32D-02
 Coeff-Com:  0.100D+01
 Coeff-En:   0.100D+01
 Coeff:      0.100D+01
 GapD=    2.000 DampG=2.000 DampE=1.000 DampFc=2.0000 IDamp=-1.
 RMSDP=1.18D-03 MaxDP=6.67D-03              OVMax= 0.00D+00

 Cycle   2  Pass 1  IDiag  3:
 E= 0.731524344975867     Delta-E=       -0.000807399653 Rises=F Damp=F
 DIIS: error= 1.06D-03 at cycle   2 NSaved=   2.
 NSaved= 2 IEnMin= 2 EnMin= 0.731524344975867     IErMin= 2 ErrMin= 1.06D-03
 ErrMax= 1.06D-03  0.00D+00 EMaxC= 1.00D-01 BMatC= 3.82D-05 BMatP= 2.12D-04
 IDIUse=3 WtCom= 9.89D-01 WtEn= 1.06D-02
 Coeff-Com: -0.618D+00 0.162D+01
 Coeff-En:   0.000D+00 0.100D+01
 Coeff:     -0.611D+00 0.161D+01
 Gap=     0.362 Goal=   None    Shift=    0.000
 RMSDP=9.14D-04 MaxDP=5.70D-03 DE=-8.07D-04 OVMax= 5.37D-03

 Cycle   3  Pass 1  IDiag  3:
 E= 0.731303584371119     Delta-E=       -0.000220760605 Rises=F Damp=F
 DIIS: error= 2.42D-04 at cycle   3 NSaved=   3.
 NSaved= 3 IEnMin= 3 EnMin= 0.731303584371119     IErMin= 3 ErrMin= 2.42D-04
 ErrMax= 2.42D-04  0.00D+00 EMaxC= 1.00D-01 BMatC= 1.90D-06 BMatP= 3.82D-05
 IDIUse=3 WtCom= 9.98D-01 WtEn= 2.42D-03
 Coeff-Com:  0.343D+00-0.101D+01 0.167D+01
 Coeff-En:   0.000D+00 0.000D+00 0.100D+01
 Coeff:      0.343D+00-0.101D+01 0.167D+01
 Gap=     0.362 Goal=   None    Shift=    0.000
 RMSDP=2.74D-04 MaxDP=1.78D-03 DE=-2.21D-04 OVMax= 1.72D-03

 Cycle   4  Pass 1  IDiag  3:
 E= 0.731289210096065     Delta-E=       -0.000014374275 Rises=F Damp=F
 DIIS: error= 5.72D-05 at cycle   4 NSaved=   4.
 NSaved= 4 IEnMin= 4 EnMin= 0.731289210096065     IErMin= 4 ErrMin= 5.72D-05
 ErrMax= 5.72D-05  0.00D+00 EMaxC= 1.00D-01 BMatC= 1.04D-07 BMatP= 1.90D-06
 IDIUse=1 WtCom= 1.00D+00 WtEn= 0.00D+00
 Coeff-Com: -0.527D-01 0.165D+00-0.399D+00 0.129D+01
 Coeff:     -0.527D-01 0.165D+00-0.399D+00 0.129D+01
 Gap=     0.362 Goal=   None    Shift=    0.000
 RMSDP=5.57D-05 MaxDP=4.28D-04 DE=-1.44D-05 OVMax= 3.84D-04

 Cycle   5  Pass 1  IDiag  3:
 E= 0.731288328640204     Delta-E=       -0.000000881456 Rises=F Damp=F
 DIIS: error= 4.33D-05 at cycle   5 NSaved=   5.
 NSaved= 5 IEnMin= 5 EnMin= 0.731288328640204     IErMin= 5 ErrMin= 4.33D-05
 ErrMax= 4.33D-05  0.00D+00 EMaxC= 1.00D-01 BMatC= 4.62D-08 BMatP= 1.04D-07
 IDIUse=1 WtCom= 1.00D+00 WtEn= 0.00D+00
 Coeff-Com:  0.379D-02-0.161D-01 0.121D+00-0.100D+01 0.189D+01
 Coeff:      0.379D-02-0.161D-01 0.121D+00-0.100D+01 0.189D+01
 Gap=     0.362 Goal=   None    Shift=    0.000
 RMSDP=5.03D-05 MaxDP=4.90D-04 DE=-8.81D-07 OVMax= 4.63D-04

 Cycle   6  Pass 1  IDiag  3:
 E= 0.731287734922034     Delta-E=       -0.000000593718 Rises=F Damp=F
 DIIS: error= 3.21D-05 at cycle   6 NSaved=   6.
 NSaved= 6 IEnMin= 6 EnMin= 0.731287734922034     IErMin= 6 ErrMin= 3.21D-05
 ErrMax= 3.21D-05  0.00D+00 EMaxC= 1.00D-01 BMatC= 2.70D-08 BMatP= 4.62D-08
 IDIUse=1 WtCom= 1.00D+00 WtEn= 0.00D+00
 Coeff-Com:  0.190D-01-0.460D-01-0.100D+00 0.184D+01-0.476D+01 0.404D+01
 Coeff:      0.190D-01-0.460D-01-0.100D+00 0.184D+01-0.476D+01 0.404D+01
 Gap=     0.362 Goal=   None    Shift=    0.000
 RMSDP=9.89D-05 MaxDP=9.69D-04 DE=-5.94D-07 OVMax= 9.83D-04

 Cycle   7  Pass 1  IDiag  3:
 E= 0.731286977283347     Delta-E=       -0.000000757639 Rises=F Damp=F
 DIIS: error= 1.64D-05 at cycle   7 NSaved=   7.
 NSaved= 7 IEnMin= 7 EnMin= 0.731286977283347     IErMin= 7 ErrMin= 1.64D-05
 ErrMax= 1.64D-05  0.00D+00 EMaxC= 1.00D-01 BMatC= 7.34D-09 BMatP= 2.70D-08
 IDIUse=1 WtCom= 1.00D+00 WtEn= 0.00D+00
 Coeff-Com: -0.202D-01 0.513D-01 0.773D-01-0.176D+01 0.488D+01-0.499D+01
 Coeff-Com:  0.277D+01
 Coeff:     -0.202D-01 0.513D-01 0.773D-01-0.176D+01 0.488D+01-0.499D+01
 Coeff:      0.277D+01
 Gap=     0.362 Goal=   None    Shift=    0.000
 RMSDP=7.70D-05 MaxDP=7.26D-04 DE=-7.58D-07 OVMax= 7.82D-04

 Cycle   8  Pass 1  IDiag  3:
 E= 0.731286741680520     Delta-E=       -0.000000235603 Rises=F Damp=F
 DIIS: error= 6.02D-06 at cycle   8 NSaved=   8.
 NSaved= 8 IEnMin= 8 EnMin= 0.731286741680520     IErMin= 8 ErrMin= 6.02D-06
 ErrMax= 6.02D-06  0.00D+00 EMaxC= 1.00D-01 BMatC= 8.53D-10 BMatP= 7.34D-09
 IDIUse=1 WtCom= 1.00D+00 WtEn= 0.00D+00
 Coeff-Com:  0.152D-01-0.406D-01-0.156D-01 0.878D+00-0.254D+01 0.271D+01
 Coeff-Com: -0.175D+01 0.175D+01
 Coeff:      0.152D-01-0.406D-01-0.156D-01 0.878D+00-0.254D+01 0.271D+01
 Coeff:     -0.175D+01 0.175D+01
 Gap=     0.362 Goal=   None    Shift=    0.000
 RMSDP=1.27D-05 MaxDP=1.34D-04 DE=-2.36D-07 OVMax= 1.25D-04

 Cycle   9  Pass 1  IDiag  3:
 E= 0.731286729148991     Delta-E=       -0.000000012532 Rises=F Damp=F
 DIIS: error= 2.86D-06 at cycle   9 NSaved=   9.
 NSaved= 9 IEnMin= 9 EnMin= 0.731286729148991     IErMin= 9 ErrMin= 2.86D-06
 ErrMax= 2.86D-06  0.00D+00 EMaxC= 1.00D-01 BMatC= 2.33D-10 BMatP= 8.53D-10
 IDIUse=1 WtCom= 1.00D+00 WtEn= 0.00D+00
 Coeff-Com: -0.658D-02 0.166D-01 0.282D-01-0.609D+00 0.169D+01-0.177D+01
 Coeff-Com:  0.115D+01-0.163D+01 0.213D+01
 Coeff:     -0.658D-02 0.166D-01 0.282D-01-0.609D+00 0.169D+01-0.177D+01
 Coeff:      0.115D+01-0.163D+01 0.213D+01
 Gap=     0.362 Goal=   None    Shift=    0.000
 RMSDP=5.98D-06 MaxDP=6.79D-05 DE=-1.25D-08 OVMax= 4.88D-05

 Cycle  10  Pass 1  IDiag  3:
 E= 0.731286725998032     Delta-E=       -0.000000003151 Rises=F Damp=F
 DIIS: error= 8.91D-07 at cycle  10 NSaved=  10.
 NSaved=10 IEnMin=10 EnMin= 0.731286725998032     IErMin=10 ErrMin= 8.91D-07
 ErrMax= 8.91D-07  0.00D+00 EMaxC= 1.00D-01 BMatC= 3.36D-11 BMatP= 2.33D-10
[...]
     18  0.329853D-01  0.126492D-01  0.161342D-01 -0.962740D-03  0.811907D-02
     19 -0.195818D-01  0.364236D-01 -0.170919D-02 -0.167731D-02 -0.978429D-03
     20  0.503299D-02 -0.507618D-01  0.429322D-02 -0.924902D-02 -0.368876D-01
     21 -0.807227D-03  0.107022D-01 -0.172955D-02  0.454936D-02  0.164891D-01
     22 -0.422577D-02  0.400596D-01 -0.256367D-02  0.469966D-02  0.203985D-01
     23  0.488112D-04 -0.505297D-05  0.330053D-05  0.000000D+00  0.152579D-05
     24  0.240801D-04 -0.103788D-04  0.000000D+00  0.000000D+00  0.000000D+00
     25  0.439151D-04  0.115934D-04  0.539733D-05  0.000000D+00  0.156106D-04
     26  0.191840D-04  0.626766D-05  0.113599D-05  0.000000D+00  0.138688D-04
     27  0.168774D-04  0.262311D-04  0.393912D-05 -0.278180D-05  0.000000D+00
     28  0.168233D-05  0.231584D-04  0.136185D-05  0.000000D+00  0.000000D+00
     29  0.271917D-04  0.793743D-05  0.276304D-05 -0.288103D-05 -0.290030D-05
     30  0.119966D-04  0.486480D-05  0.000000D+00  0.000000D+00 -0.231049D-05
     31  0.467414D-04 -0.425800D-04 -0.352765D-05 -0.246071D-05  0.298014D-04
     32  0.653262D-04 -0.293907D-04  0.000000D+00 -0.239000D-05  0.296481D-04
     33 -0.239376D-04 -0.790134D-04 -0.493789D-05  0.000000D+00  0.144379D-04
     34 -0.381797D-04 -0.132611D-04 -0.224071D-05  0.000000D+00  0.455775D-05
     35  0.567778D-05  0.205630D-04  0.719107D-05  0.237989D-05 -0.357565D-05
     36  0.209540D-04  0.351061D-04  0.957251D-05  0.000000D+00 -0.159593D-05
     37 -0.323587D-04 -0.152309D-04 -0.113411D-04  0.000000D+00  0.000000D+00
     38 -0.170825D-04  0.000000D+00 -0.895966D-05 -0.252783D-05  0.296548D-05
               11            12            13            14            15 
     11  0.556196D-01
     12 -0.163116D-01  0.538616D-01
     13  0.191998D-01  0.194801D-01  0.100826D+00
     14 -0.746474D-02 -0.755765D-02 -0.432995D-01  0.599124D-01
     15 -0.117350D-01 -0.119224D-01 -0.575262D-01 -0.166128D-01  0.741390D-01
     16 -0.703768D-02  0.118770D-02 -0.696757D-01  0.326296D-01  0.370461D-01
     17  0.675080D-02  0.389810D-03  0.146417D-01 -0.335122D-02 -0.112905D-01
     18 -0.554435D-02 -0.257470D-02 -0.112868D-01  0.302951D-02  0.825724D-02
     19 -0.120646D-02  0.218491D-02 -0.335491D-02  0.321708D-03  0.303320D-02
     20  0.203952D-01  0.164925D-01 -0.711188D-02 -0.100123D-02  0.811311D-02
     21 -0.961364D-02 -0.687547D-02  0.376270D-03  0.219626D-02 -0.257253D-02
     22 -0.107815D-01 -0.961700D-02  0.673560D-02 -0.119503D-02 -0.554057D-02
     23 -0.522305D-05 -0.875479D-05  0.411947D-04 -0.250327D-04 -0.217658D-04
     24  0.126175D-04 -0.214434D-04  0.199963D-04 -0.795648D-05 -0.885260D-05
     25 -0.404394D-04  0.295185D-04  0.205841D-04 -0.114316D-04 -0.134970D-04
     26 -0.225989D-04  0.168299D-04  0.000000D+00  0.564462D-05  0.000000D+00
     27  0.115229D-04  0.263657D-05  0.204239D-04 -0.216233D-05 -0.148072D-04
     28  0.149550D-04 -0.655551D-05 -0.629891D-05  0.923114D-05 -0.173503D-05
     29 -0.304266D-04  0.310704D-04  0.350508D-04 -0.129572D-04 -0.197935D-04
     30 -0.269944D-04  0.218783D-04  0.832800D-05 -0.156373D-05 -0.672142D-05
     31 -0.118358D-04 -0.112579D-04 -0.236644D-04  0.233470D-04  0.591707D-05
     32 -0.252746D-04  0.000000D+00  0.000000D+00 -0.224425D-04  0.208783D-04
     33  0.132279D-05 -0.135396D-04 -0.578517D-04  0.223865D-04  0.321579D-04
     34 -0.659443D-05 -0.105754D-05 -0.403030D-04  0.201149D-04  0.185976D-04
     35 -0.113674D-04  0.527506D-05 -0.187364D-04  0.155831D-04  0.308019D-05
     36 -0.162402D-04  0.137983D-04  0.126439D-04  0.214006D-05 -0.123990D-04
     37  0.000000D+00 -0.497719D-05 -0.371462D-04  0.165757D-04  0.183477D-04
     38 -0.389409D-05  0.354601D-05 -0.576597D-05  0.313265D-05  0.286848D-05
               16            17            18            19            20 
     16  0.127595D+00
     17 -0.696612D-01  0.100865D+00
     18  0.370259D-01 -0.575068D-01  0.740732D-01
     19  0.326353D-01 -0.433578D-01 -0.165665D-01  0.599243D-01
     20  0.589174D-02 -0.387044D-01  0.236485D-01  0.150558D-01  0.768121D-01
     21  0.116706D-02  0.194845D-01 -0.119123D-01 -0.757223D-02 -0.375169D-01
     22 -0.705878D-02  0.192199D-01 -0.117362D-01 -0.748359D-02 -0.392952D-01
     23 -0.778133D-04  0.287796D-04 -0.370699D-05 -0.248785D-04 -0.109063D-04
     24 -0.490544D-04  0.375887D-04 -0.172904D-04 -0.144577D-04 -0.563514D-05
     25 -0.279476D-04 -0.558419D-05  0.859453D-05 -0.927230D-05 -0.139613D-04
     26  0.000000D+00  0.322492D-05 -0.498886D-05  0.114851D-05 -0.869008D-05
     27  0.000000D+00 -0.166105D-04  0.882572D-05 -0.129460D-05  0.000000D+00
     28  0.370345D-04 -0.287915D-04  0.802621D-05  0.147402D-04  0.253611D-05
     29 -0.371885D-04  0.789275D-05  0.137665D-05 -0.124312D-04 -0.467409D-05
     30  0.000000D+00 -0.428829D-05  0.000000D+00  0.360356D-05 -0.276643D-05
     31 -0.204600D-04  0.547131D-04 -0.365827D-04 -0.943315D-05 -0.162301D-04
     32 -0.500770D-04  0.466294D-04 -0.252565D-04 -0.171728D-04 -0.180513D-04
     33  0.236772D-04  0.147784D-04  0.387140D-05 -0.333721D-04 -0.168075D-04
     34  0.475883D-04 -0.227766D-05 -0.527217D-04  0.587335D-04 -0.182550D-04
     35  0.616075D-04 -0.243489D-04  0.102617D-04  0.288261D-04 -0.364704D-05
     36  0.183118D-04 -0.971488D-05  0.103003D-04  0.108274D-04 -0.917062D-05
     37  0.534397D-04 -0.254686D-04 -0.194479D-05  0.190434D-04  0.311659D-05
     38  0.101440D-04 -0.108346D-04 -0.190614D-05  0.104475D-05 -0.240699D-05
               21            22            23            24            25 
     21  0.538548D-01
     22 -0.163378D-01  0.556330D-01
     23  0.177899D-05  0.120308D-04  0.151794D-01
     24  0.335846D-05  0.318081D-05  0.290377D-02  0.988565D-02
     25  0.107175D-05  0.141017D-04  0.510539D-02 -0.441143D-02  0.889952D-02
     26  0.265122D-05  0.525169D-05 -0.717023D-02  0.257044D-02 -0.617300D-03
     27 -0.121693D-05 -0.345311D-05 -0.126750D-01 -0.510796D-02 -0.178945D-02
     28 -0.106275D-04  0.877163D-05 -0.549453D-02 -0.287198D-02  0.120830D-02
     29  0.401495D-05 -0.183226D-05 -0.344143D-02  0.159695D-02 -0.526700D-02
     30 -0.539566D-05  0.103925D-04  0.373906D-02  0.383294D-02 -0.226924D-02
     31  0.993875D-05  0.562465D-05 -0.118755D-01  0.391057D-03 -0.644887D-02
     32  0.703992D-05  0.119371D-04 -0.209853D-02 -0.516969D-02  0.113084D-02
     33  0.921395D-05  0.557832D-05  0.346441D-02 -0.378064D-02  0.526136D-02
     34  0.709987D-05  0.996250D-05  0.359368D-02  0.109679D-03  0.109038D-02
     35  0.509014D-05  0.229846D-05  0.565532D-02  0.549512D-02 -0.216634D-02
     36 -0.546953D-05  0.132397D-04 -0.216408D-02  0.306017D-02 -0.543083D-02
     37  0.526122D-05 -0.566622D-05  0.549344D-02  0.624097D-03  0.305605D-02
     38 -0.529845D-05  0.527508D-05 -0.232597D-02 -0.181085D-02 -0.208435D-03
               26            27            28            29            30 
     26  0.912337D-02
     27  0.577760D-02  0.154221D-01
     28  0.383085D-02  0.542678D-02  0.710902D-02
     29 -0.228618D-03  0.544461D-02 -0.716895D-03  0.711794D-02
     30 -0.217537D-02 -0.455068D-02  0.965340D-03  0.956436D-03  0.647246D-02
     31  0.581769D-02  0.511506D-02  0.346626D-02  0.141141D-03 -0.150766D-02
     32 -0.194031D-02 -0.911756D-03  0.137751D-02 -0.387169D-02 -0.158243D-02
     33 -0.198369D-02  0.511888D-02  0.134904D-03  0.347183D-02 -0.151215D-02
     34 -0.239361D-02 -0.928684D-03 -0.387828D-02  0.136578D-02 -0.158381D-02
     35 -0.232655D-02 -0.126798D-01 -0.342660D-02 -0.551068D-02  0.374257D-02
     36 -0.206576D-03 -0.179518D-02 -0.525851D-02  0.119907D-02 -0.226426D-02
     37 -0.181329D-02 -0.510779D-02  0.159827D-02 -0.287375D-02  0.383231D-02
     38  0.306688D-03  0.577688D-02 -0.233648D-03  0.383600D-02 -0.217452D-02
               31            32            33            34            35 
     31  0.140553D-01
     32  0.428557D-02  0.673162D-02
     33 -0.106609D-01 -0.489054D-02  0.140578D-01
     34 -0.486781D-02 -0.209297D-02  0.425157D-02  0.673887D-02
     35  0.347225D-02  0.359984D-02 -0.118865D-01 -0.206918D-02  0.151951D-01
     36  0.526776D-02  0.110688D-02 -0.645903D-02  0.114287D-02  0.511848D-02
     37 -0.378115D-02  0.970480D-04  0.391668D-03 -0.518336D-02  0.290303D-02
     38 -0.198564D-02 -0.239591D-02  0.581912D-02 -0.197131D-02 -0.717358D-02
               36            37            38 
     36  0.888999D-02
     37 -0.439973D-02  0.988347D-02
     38 -0.628232D-03  0.258071D-02  0.912605D-02
 Leave Link  716 at Sun Nov 29 12:22:31 2015, MaxMem=    33554432 cpu:         0.0
 (Enter /home/Applications/g09/g09/l103.exe)

 GradGradGradGradGradGradGradGradGradGradGradGradGradGradGradGradGradGrad
 Berny optimization.
 Red2BG is reusing G-inverse.
 Internal  Forces:  Max     0.000242478 RMS     0.000087284
 Search for a local minimum.
 Step number   1 out of a maximum of    2
 All quantities printed in internal units (Hartrees-Bohrs-Radians)
 Second derivative matrix not updated -- analytic derivatives used.
 ITU=  0
     Eigenvalues ---    0.00899   0.01178   0.01844   0.02432   0.04721
     Eigenvalues ---    0.05314   0.06568   0.06793   0.07047   0.07707
     Eigenvalues ---    0.17810   0.24473   0.25289   0.31191   0.31864
     Eigenvalues ---    0.31965   0.32968   0.35159   0.39667   0.47701
     Eigenvalues ---    0.63825
 Angle between quadratic step and forces=  44.67 degrees.
 Linear search not attempted -- first point.
 Iteration  1 RMS(Cart)=  0.00067632 RMS(Int)=  0.00000098
 Iteration  2 RMS(Cart)=  0.00000071 RMS(Int)=  0.00000068
 ITry= 1 IFail=0 DXMaxC= 2.33D-03 DCOld= 1.00D+10 DXMaxT= 3.00D-01 DXLimC= 3.00D+00 Rises=F
 Variable       Old X    -DE/DX   Delta X   Delta X   Delta X     New X
                                 (Linear)    (Quad)   (Total)
    R1        2.56775   0.00013   0.00000   0.00039   0.00039   2.56814
    R2        2.71039  -0.00007   0.00000  -0.00036  -0.00036   2.71003
    R3        2.05205   0.00024   0.00000   0.00073   0.00073   2.05279
    R4        2.59542  -0.00016   0.00000  -0.00092  -0.00092   2.59450
    R5        2.06509   0.00023   0.00000   0.00077   0.00077   2.06587
    R6        2.59352   0.00014   0.00000   0.00098   0.00098   2.59450
    R7        2.56816   0.00003   0.00000  -0.00002  -0.00002   2.56814
    R8        2.06597  -0.00002   0.00000  -0.00010  -0.00010   2.06587
    R9        2.05321  -0.00015   0.00000  -0.00042  -0.00042   2.05279
    A1        1.85864   0.00006   0.00000   0.00026   0.00026   1.85890
    A2        2.27049  -0.00010   0.00000  -0.00124  -0.00124   2.26925
    A3        2.15406   0.00004   0.00000   0.00098   0.00098   2.15504
    A4        1.92055  -0.00008   0.00000  -0.00022  -0.00022   1.92033
    A5        2.34186   0.00005   0.00000   0.00000   0.00000   2.34186
    A6        2.02078   0.00003   0.00000   0.00022   0.00022   2.02100
    A7        1.86599   0.00009   0.00000   0.00034   0.00034   1.86633
    A8        1.92078  -0.00007   0.00000  -0.00046  -0.00046   1.92033
    A9        2.02253  -0.00008   0.00000  -0.00153  -0.00153   2.02100
   A10        2.33987   0.00015   0.00000   0.00198   0.00198   2.34185
   A11        1.85882   0.00000   0.00000   0.00008   0.00008   1.85890
   A12        2.15520  -0.00001   0.00000  -0.00016  -0.00016   2.15504
   A13        2.26917   0.00001   0.00000   0.00009   0.00009   2.26925
    D1        0.00116  -0.00006   0.00000  -0.00116  -0.00116   0.00000
    D2       -3.14104  -0.00001   0.00000  -0.00055  -0.00055  -3.14159
    D3        3.14135  -0.00002   0.00000   0.00024   0.00024   3.14159
    D4       -0.00085   0.00003   0.00000   0.00085   0.00085   0.00000
    D5       -0.00021   0.00001   0.00000   0.00021   0.00021   0.00000
    D6        3.14099   0.00002   0.00000   0.00060   0.00060  -3.14159
    D7       -3.14052  -0.00002   0.00000  -0.00107  -0.00108  -3.14159
    D8        0.00069  -0.00001   0.00000  -0.00069  -0.00069   0.00000
    D9       -0.00166   0.00008   0.00000   0.00166   0.00166   0.00000
   D10        3.14042   0.00004   0.00000   0.00118   0.00118   3.14159
   D11        0.00152  -0.00007   0.00000  -0.00152  -0.00152   0.00000
   D12       -3.14135  -0.00002   0.00000  -0.00025  -0.00025   3.14159
   D13       -0.00081   0.00004   0.00000   0.00081   0.00081   0.00000
   D14        3.14120   0.00003   0.00000   0.00039   0.00039   3.14159
   D15       -3.14081  -0.00002   0.00000  -0.00078  -0.00078  -3.14159
   D16        0.00121  -0.00003   0.00000  -0.00120  -0.00120   0.00000
         Item               Value     Threshold  Converged?
 Maximum Force            0.000242     0.000450     YES
 RMS     Force            0.000087     0.000300     YES
 Maximum Displacement     0.002328     0.001800     NO 
 RMS     Displacement     0.000676     0.001200     YES
 Predicted change in Energy=-9.860096D-07
 GradGradGradGradGradGradGradGradGradGradGradGradGradGradGradGradGradGrad

 Leave Link  103 at Sun Nov 29 12:22:31 2015, MaxMem=    33554432 cpu:         0.0
 (Enter /home/Applications/g09/g09/l9999.exe)
 1\1\GINC-DUSTIN-DESKTOP\Freq\RAM1\ZDO\C4H4O1\DUSTIN\29-Nov-2015\0\\#P 
 Geom=AllCheck Guess=TCheck SCRF=Check GenChk RAM1/ZDO Freq\\AM1-Repara
 m Input\\0,1\C,0.9375890092,-0.7224212813,0.0024771453\C,-0.3650192691
 ,-1.1091230151,0.0027346038\O,-1.1833673906,-0.0061844325,0.0151945565
 \C,-0.366748063,1.0968136033,0.0250805718\C,0.9365555551,0.7117788807,
 0.0171852207\H,1.8423131123,1.3118561485,0.0209453641\H,-0.8733150028,
 2.0655769011,0.035932139\H,-0.8720697775,-2.0771370435,-0.0051132883\H
 ,1.8443868265,-1.3197757611,-0.0054183129\\Version=ES64L-G09RevD.01\St
 ate=1-A\HF=0.7309431\RMSD=7.305e-10\RMSF=1.537e-04\ZeroPoint=0.0648977
 \Thermal=0.068849\Dipole=-0.2008228,0.0015999,0.002114\DipoleDeriv=-0.
 5733934,0.0816689,0.0003655,0.34288,-0.6026164,-0.0019757,0.0033732,-0
 .0009763,-0.552206,0.2705783,0.0035355,0.0003481,-0.334456,-0.2230638,
 -0.0032858,-0.002917,-0.0033593,0.1593624,-0.8850782,0.0006899,0.00137
 51,-0.0025368,0.0814119,0.0034496,0.0006414,0.0036636,-0.2804386,0.275
 9273,-0.0073787,0.0004074,0.3363385,-0.2230678,-0.0041535,0.0038755,-0
 .0042278,0.1617839,-0.5766873,-0.0793581,-0.0012409,-0.3425184,-0.6098
 971,0.0010096,-0.0037719,-0.0000484,-0.5555486,0.4657667,0.091784,0.00
 05021,0.2040679,0.3056776,-0.0006309,0.0016817,-0.0002716,0.3037193,0.
 2782501,-0.1917187,-0.0020957,-0.1950128,0.4834462,0.0030621,-0.002160
 7,0.0031091,0.2298967,0.2785485,0.1922649,0.0016986,0.1948652,0.483392
 ,0.0018596,0.0016771,0.0018347,0.2301808,0.4661409,-0.0915021,-0.00136
 07,-0.2037214,0.3047697,0.0006659,-0.002407,0.000288,0.303256\Polar=57
 .0039219,0.0261248,48.5977811,-0.156395,0.3985851,8.7917657\HyperPolar
 =46.2518869,1.1830685,-235.4659978,-0.496272,-0.1764673,-2.426443,0.86
 71865,6.1065117,0.0034101,-0.0526913\PG=C01 [X(C4H4O1)]\NImag=0\\0.788
 57841,-0.08755490,0.56748855,-0.00266939,0.00445393,0.14164168,-0.3975
 8431,-0.06875561,0.00032704,0.62928223,-0.13201953,-0.12081249,-0.0000
 1690,0.20291537,0.60930796,-0.00031598,-0.00016477,-0.08030814,0.00055
 542,0.00399385,0.13709330,-0.09999412,0.01288571,0.00041899,-0.1510368
 6,0.07854340,0.00093502,0.49319166,0.05513485,0.00374313,-0.00024734,0
 .04087852,-0.13323215,-0.00078115,0.00112184,0.34528133,0.00085559,-0.
 00020670,0.01731138,0.00056886,-0.00085053,-0.06283595,-0.00089395,0.0
 0270024,0.07703690,0.00085797,0.07816731,0.00084404,0.02582437,-0.0173
 9381,-0.00016915,-0.15168275,-0.04170475,-0.00026745,0.62957378,0.0295
 4715,-0.02992685,-0.00060233,0.01737721,-0.11070012,-0.00125327,-0.079
 55668,-0.13488019,-0.00059006,-0.20121624,0.61020753,0.00035107,-0.000
 71162,0.01828856,0.00018030,-0.00119627,0.01064016,-0.00066012,-0.0006
 5537,-0.06278701,-0.00339041,0.00536624,0.13728207,-0.06592249,-0.0315
 4723,-0.00035305,0.00098945,-0.02940231,-0.00024741,-0.10004435,-0.055
 43694,-0.00027177,-0.39727425,0.13162035,0.00229046,0.78709660,0.03187
 804,-0.29174127,-0.00229937,-0.07803084,-0.03017518,-0.00027418,-0.013
 04221,0.00388641,-0.00007087,0.06823500,-0.12064916,-0.00062443,0.0875
 4663,0.56789544,0.00029015,-0.00212503,-0.07581286,-0.00074103,-0.0003
 8138,0.01828319,0.00015493,-0.00002707,0.01736631,0.00166416,-0.000785
 05,-0.08042036,-0.00091596,0.00414348,0.14181544,-0.00037595,-0.003724
 34,-0.00002707,0.00215784,-0.00190111,-0.00001756,-0.00050315,0.005927
 78,0.00007554,-0.02670272,-0.01242401,-0.00004305,-0.20990559,-0.12109
 029,-0.00077635,0.23420290,-0.01615254,-0.01985698,-0.00021022,0.00153
 434,-0.00378448,-0.00006007,0.00301049,0.00370149,-0.00001699,0.003510
 46,0.00514902,-0.00000897,-0.12447453,-0.10726733,-0.00040934,0.132694
 62,0.12165411,-0.00015184,-0.00023918,0.00463280,0.00001410,-0.0000546
 6,0.00182711,0.00004712,-0.00002044,0.00455534,0.00012429,0.00003746,0
 .00476963,-0.00081545,-0.00042526,-0.03506145,0.00078614,0.00069682,0.
 01952270,-0.00226079,-0.00073860,0.00000646,-0.00046647,-0.00504777,-0
 .00004458,0.00529174,-0.01314730,-0.00014268,-0.08229586,0.10766274,0.
 00119422,-0.01225183,0.01999356,0.00025331,-0.00027888,-0.00043256,-0.
 00000472,0.09153757,-0.00049545,0.00204640,-0.00000840,-0.00539730,0.0
 0212132,0.00000017,0.00200872,-0.04605180,-0.00050113,0.10651620,-0.21
 752363,-0.00210500,0.00502332,-0.00416931,-0.00011538,0.00118015,0.001
 20244,0.00001147,-0.10874102,0.26353531,0.00001431,-0.00000394,0.00334
 931,-0.00005951,0.00000902,0.00278873,0.00002320,-0.00047734,0.0023931
 8,0.00116021,-0.00209034,-0.03238316,0.00011730,-0.00016909,0.00583176
 ,0.00001196,0.00001633,-0.00023941,-0.00126559,0.00273041,0.01816797,-
 0.01223492,-0.02001349,-0.00014090,-0.08246104,-0.10805365,-0.00089822
 ,0.00526163,0.01315684,0.00012090,-0.00045339,0.00507003,0.00005786,-0
 .00227051,0.00074942,0.00002322,-0.00002104,-0.00020545,-0.00000187,0.
 00074783,-0.00024610,-0.00000336,0.09171309,-0.00504787,-0.00418244,-0
 .00007902,-0.10689991,-0.21790397,-0.00147899,-0.00196667,-0.04611997,
 -0.00046397,0.00540522,0.00211391,-0.00001161,0.00048700,0.00206312,-0
 .00001410,-0.00015095,-0.00020720,-0.00000076,0.00024488,-0.00095556,-
 0.00001258,0.10910890,0.26399384,0.00000904,-0.00003114,0.00581832,-0.
 00089547,-0.00147542,-0.03224921,-0.00001431,-0.00049427,0.00239831,0.
 00005165,-0.00002452,0.00278027,0.00002224,-0.00002093,0.00335886,-0.0
 0000157,-0.00000005,-0.00007590,0.00000100,-0.00001014,0.00016782,0.00
 083828,0.00204422,0.01803949,-0.21106831,0.12127994,0.00159387,-0.0266
 9474,0.01236161,0.00020244,-0.00049715,-0.00592981,-0.00004495,0.00216
 271,0.00191614,0.00001960,-0.00042193,0.00376186,0.00004759,0.00142606
 ,0.00051472,0.00000223,-0.00002174,0.00015083,0.00000147,-0.00027992,-
 0.00117972,-0.00001085,0.23539466,0.12470213,-0.10675867,-0.00099035,-
 0.00362144,0.00518547,0.00001852,-0.00300436,0.00366824,-0.00000005,-0
 .00152218,-0.00378474,-0.00005298,0.01619381,-0.01984556,-0.00028615,-
 0.00051093,-0.00059201,-0.00000547,0.00020501,-0.00020675,-0.00000249,
 0.00043467,0.00119720,0.00001225,-0.13287639,0.12113528,0.00161699,-0.
 00097147,-0.03492119,0.00004966,-0.00002686,0.00476072,-0.00001068,0.0
 0000145,0.00456407,-0.00001728,-0.00005757,0.00182972,0.00017404,-0.00
 025945,0.00463858,-0.00000795,-0.00000741,0.00006902,0.00000266,-0.000
 00216,-0.00007708,0.00000405,0.00001670,-0.00023867,-0.00181147,0.0013
 0675,0.01937492\\0.00007973,-0.00040257,-0.00013695,0.00013036,-0.0001
 3811,0.00015150,-0.00009897,0.00021470,-0.00017086,-0.00013452,-0.0002
 8313,0.00017617,-0.00013539,0.00006082,-0.00004015,0.00011962,0.000091
 91,0.00000573,0.00008754,0.00006614,-0.00002403,0.00011634,0.00019991,
 0.00000724,-0.00016471,0.00019034,0.00003135\\\@


 YOU CANNOT THROW TO THE GROUND THE LETTERS OF
 THE GREEK ALPHABET AND PICK UP THE ILIAD.
        - RUFUS CHOATE, 1799-1859
 Job cpu time:       0 days  0 hours  0 minutes  0.3 seconds.
 File lengths (MBytes):  RWF=      5 Int=      0 D2E=      0 Chk=      2 Scr=      1
 Normal termination of Gaussian 09 at Sun Nov 29 12:22:31 2015.
