 Entering Gaussian System, Link 0=g09
 Input=FuranDFT631.com
 Output=FuranDFT631.log
 Initial command:
 /home/Applications/g09/g09/l1.exe "/home/Applications/g09/scratch/Gau-11949.inp" -scrdir="/home/Applications/g09/scratch/"
 Entering Link 1 = /home/Applications/g09/g09/l1.exe PID=     11951.
  
 Copyright (c) 1988,1990,1992,1993,1995,1998,2003,2009,2013,
            Gaussian, Inc.  All Rights Reserved.
  
 This is part of the Gaussian(R) 09 program.  It is based on
 the Gaussian(R) 03 system (copyright 2003, Gaussian, Inc.),
 the Gaussian(R) 98 system (copyright 1998, Gaussian, Inc.),
 the Gaussian(R) 94 system (copyright 1995, Gaussian, Inc.),
 the Gaussian 92(TM) system (copyright 1992, Gaussian, Inc.),
 the Gaussian 90(TM) system (copyright 1990, Gaussian, Inc.),
 the Gaussian 88(TM) system (copyright 1988, Gaussian, Inc.),
 the Gaussian 86(TM) system (copyright 1986, Carnegie Mellon
 University), and the Gaussian 82(TM) system (copyright 1983,
 Carnegie Mellon University). Gaussian is a federally registered
 trademark of Gaussian, Inc.
  
 This software contains proprietary and confidential information,
 including trade secrets, belonging to Gaussian, Inc.
  
 This software is provided under written license and may be
 used, copied, transmitted, or stored only in accord with that
 written license.
  
 The following legend is applicable only to US Government
 contracts under FAR:
  
                    RESTRICTED RIGHTS LEGEND
  
 Use, reproduction and disclosure by the US Government is
 subject to restrictions as set forth in subparagraphs (a)
 and (c) of the Commercial Computer Software - Restricted
 Rights clause in FAR 52.227-19.
  
 Gaussian, Inc.
 340 Quinnipiac St., Bldg. 40, Wallingford CT 06492
  
  
 ---------------------------------------------------------------
 Warning -- This program may not be used in any manner that
 competes with the business of Gaussian, Inc. or will provide
 assistance to any competitor of Gaussian, Inc.  The licensee
 of this program is prohibited from giving any competitor of
 Gaussian, Inc. access to this program.  By using this program,
 the user acknowledges that Gaussian, Inc. is engaged in the
 business of creating and licensing software in the field of
 computational chemistry and represents and warrants to the
 licensee that it is not a competitor of Gaussian, Inc. and that
 it will not use this program in any manner prohibited above.
 ---------------------------------------------------------------
  

 Cite this work as:
 Gaussian 09, Revision D.01,
 M. J. Frisch, G. W. Trucks, H. B. Schlegel, G. E. Scuseria, 
 M. A. Robb, J. R. Cheeseman, G. Scalmani, V. Barone, B. Mennucci, 
 G. A. Petersson, H. Nakatsuji, M. Caricato, X. Li, H. P. Hratchian, 
 A. F. Izmaylov, J. Bloino, G. Zheng, J. L. Sonnenberg, M. Hada, 
 M. Ehara, K. Toyota, R. Fukuda, J. Hasegawa, M. Ishida, T. Nakajima, 
 Y. Honda, O. Kitao, H. Nakai, T. Vreven, J. A. Montgomery, Jr., 
 J. E. Peralta, F. Ogliaro, M. Bearpark, J. J. Heyd, E. Brothers, 
 K. N. Kudin, V. N. Staroverov, T. Keith, R. Kobayashi, J. Normand, 
 K. Raghavachari, A. Rendell, J. C. Burant, S. S. Iyengar, J. Tomasi, 
 M. Cossi, N. Rega, J. M. Millam, M. Klene, J. E. Knox, J. B. Cross, 
 V. Bakken, C. Adamo, J. Jaramillo, R. Gomperts, R. E. Stratmann, 
 O. Yazyev, A. J. Austin, R. Cammi, C. Pomelli, J. W. Ochterski, 
 R. L. Martin, K. Morokuma, V. G. Zakrzewski, G. A. Voth, 
 P. Salvador, J. J. Dannenberg, S. Dapprich, A. D. Daniels, 
 O. Farkas, J. B. Foresman, J. V. Ortiz, J. Cioslowski, 
 and D. J. Fox, Gaussian, Inc., Wallingford CT, 2013.
 
 ******************************************
 Gaussian 09:  ES64L-G09RevD.01 24-Apr-2013
                23-Nov-2015 
 ******************************************
 --------------------------------------------------
 #P B3LYP/6-31G* CIS(Singlets,NStates=15) pop(full)
 --------------------------------------------------
 1/38=1/1;
 2/12=2,17=6,18=5,40=1/2;
 3/5=1,6=6,7=1,11=9,16=1,25=1,30=1,74=-5/1,2,8,3;
 4//1;
 5/5=2,38=5/2;
 8/6=1,10=2,108=15/1;
 9/41=15,42=1,48=1/14;
 6/7=3/1;
 99/5=1,9=1/99;
 Leave Link    1 at Mon Nov 23 16:21:46 2015, MaxMem=           0 cpu:         0.0
 (Enter /home/Applications/g09/g09/l101.exe)
 --------
 FuranDFT
 --------
 Symbolic Z-matrix:
 Charge =  0 Multiplicity = 1
 6                     0.95548  -0.71596   0. 
 6                    -0.34563  -1.09282   0. 
 8                    -1.15731   0.        0. 
 6                    -0.34563   1.09282   0. 
 6                     0.95548   0.71596   0. 
 1                     1.81044   1.36938   0. 
 1                    -0.84031   2.04688   0. 
 1                    -0.84031  -2.04688   0. 
 1                     1.81044  -1.36938   0. 
 
 NAtoms=      9 NQM=        9 NQMF=       0 NMMI=      0 NMMIF=      0
                NMic=       0 NMicF=      0.
                    Isotopes and Nuclear Properties:
 (Nuclear quadrupole moments (NQMom) in fm**2, nuclear magnetic moments (NMagM)
  in nuclear magnetons)

  Atom         1           2           3           4           5           6           7           8           9
 IAtWgt=          12          12          16          12          12           1           1           1           1
 AtmWgt=  12.0000000  12.0000000  15.9949146  12.0000000  12.0000000   1.0078250   1.0078250   1.0078250   1.0078250
 NucSpn=           0           0           0           0           0           1           1           1           1
 AtZEff=   0.0000000   0.0000000   0.0000000   0.0000000   0.0000000   0.0000000   0.0000000   0.0000000   0.0000000
 NQMom=    0.0000000   0.0000000   0.0000000   0.0000000   0.0000000   0.0000000   0.0000000   0.0000000   0.0000000
 NMagM=    0.0000000   0.0000000   0.0000000   0.0000000   0.0000000   2.7928460   2.7928460   2.7928460   2.7928460
 AtZNuc=   6.0000000   6.0000000   8.0000000   6.0000000   6.0000000   1.0000000   1.0000000   1.0000000   1.0000000
 Leave Link  101 at Mon Nov 23 16:21:46 2015, MaxMem=    33554432 cpu:         0.0
 (Enter /home/Applications/g09/g09/l202.exe)
                          Input orientation:                          
 ---------------------------------------------------------------------
 Center     Atomic      Atomic             Coordinates (Angstroms)
 Number     Number       Type             X           Y           Z
 ---------------------------------------------------------------------
      1          6           0        0.955475   -0.715963    0.000000
      2          6           0       -0.345627   -1.092818    0.000000
      3          8           0       -1.157305    0.000000    0.000000
      4          6           0       -0.345627    1.092818    0.000000
      5          6           0        0.955475    0.715963    0.000000
      6          1           0        1.810438    1.369382    0.000000
      7          1           0       -0.840307    2.046884    0.000000
      8          1           0       -0.840307   -2.046884    0.000000
      9          1           0        1.810438   -1.369382    0.000000
 ---------------------------------------------------------------------
                    Distance matrix (angstroms):
                    1          2          3          4          5
     1  C    0.000000
     2  C    1.354580   0.000000
     3  O    2.230794   1.361276   0.000000
     4  C    2.228128   2.185636   1.361276   0.000000
     5  C    1.431926   2.228128   2.230794   1.354580   0.000000
     6  H    2.253802   3.272773   3.268441   2.173730   1.076066
     7  H    3.295172   3.178433   2.071285   1.074686   2.235214
     8  H    2.235214   1.074686   2.071285   3.178433   3.295172
     9  H    1.076066   2.173730   3.268441   3.272773   2.253802
                    6          7          8          9
     6  H    0.000000
     7  H    2.735957   0.000000
     8  H    4.324040   4.093768   0.000000
     9  H    2.738764   4.324040   2.735957   0.000000
 Stoichiometry    C4H4O
 Framework group  C2V[C2(O),SGV(C4H4)]
 Deg. of freedom     8
 Full point group                 C2V     NOp   4
 Largest Abelian subgroup         C2V     NOp   4
 Largest concise Abelian subgroup C2      NOp   2
                         Standard orientation:                         
 ---------------------------------------------------------------------
 Center     Atomic      Atomic             Coordinates (Angstroms)
 Number     Number       Type             X           Y           Z
 ---------------------------------------------------------------------
      1          6           0        0.000000    0.715963   -0.955475
      2          6           0        0.000000    1.092818    0.345627
      3          8           0        0.000000    0.000000    1.157305
      4          6           0        0.000000   -1.092818    0.345627
      5          6           0        0.000000   -0.715963   -0.955475
      6          1           0        0.000000   -1.369382   -1.810438
      7          1           0        0.000000   -2.046884    0.840307
      8          1           0        0.000000    2.046884    0.840307
      9          1           0        0.000000    1.369382   -1.810438
 ---------------------------------------------------------------------
 Rotational constants (GHZ):      9.5015164      9.3284592      4.7070963
 Leave Link  202 at Mon Nov 23 16:21:46 2015, MaxMem=    33554432 cpu:         0.0
 (Enter /home/Applications/g09/g09/l301.exe)
 Standard basis: 6-31G(d) (6D, 7F)
 Ernie: Thresh=  0.10000D-02 Tol=  0.10000D-05 Strict=F.
 There are    34 symmetry adapted cartesian basis functions of A1  symmetry.
 There are     9 symmetry adapted cartesian basis functions of A2  symmetry.
 There are    11 symmetry adapted cartesian basis functions of B1  symmetry.
 There are    29 symmetry adapted cartesian basis functions of B2  symmetry.
 There are    34 symmetry adapted basis functions of A1  symmetry.
 There are     9 symmetry adapted basis functions of A2  symmetry.
 There are    11 symmetry adapted basis functions of B1  symmetry.
 There are    29 symmetry adapted basis functions of B2  symmetry.
    83 basis functions,   156 primitive gaussians,    83 cartesian basis functions
    18 alpha electrons       18 beta electrons
       nuclear repulsion energy       161.2261194346 Hartrees.
 IExCor=  402 DFT=T Ex+Corr=B3LYP ExCW=0 ScaHFX=  0.200000
 ScaDFX=  0.800000  0.720000  1.000000  0.810000 ScalE2=  1.000000  1.000000
 IRadAn=      0 IRanWt=     -1 IRanGd=            0 ICorTp=0 IEmpDi=  4
 NAtoms=    9 NActive=    9 NUniq=    5 SFac= 3.24D+00 NAtFMM=   60 NAOKFM=F Big=F
 Integral buffers will be    131072 words long.
 Regular integral format.
 Two-electron integral symmetry is turned on.
 Leave Link  301 at Mon Nov 23 16:21:46 2015, MaxMem=    33554432 cpu:         0.0
 (Enter /home/Applications/g09/g09/l302.exe)
 NPDir=0 NMtPBC=     1 NCelOv=     1 NCel=       1 NClECP=     1 NCelD=      1
         NCelK=      1 NCelE2=     1 NClLst=     1 CellRange=     0.0.
 One-electron integrals computed using PRISM.
 One-electron integral symmetry used in STVInt
 NBasis=    83 RedAO= T EigKep=  1.12D-03  NBF=    34     9    11    29
 NBsUse=    83 1.00D-06 EigRej= -1.00D+00 NBFU=    34     9    11    29
 Precomputing XC quadrature grid using
 IXCGrd= 4 IRadAn=           0 IRanWt=          -1 IRanGd=           0 AccXCQ= 0.00D+00.
 Generated NRdTot=       0 NPtTot=           0 NUsed=           0 NTot=          32
 NSgBfM=    83    83    83    83    83 MxSgAt=     9 MxSgA2=     9.
 Leave Link  302 at Mon Nov 23 16:21:46 2015, MaxMem=    33554432 cpu:         0.1
 (Enter /home/Applications/g09/g09/l308.exe)
 Leave Link  308 at Mon Nov 23 16:21:46 2015, MaxMem=    33554432 cpu:         0.0
 (Enter /home/Applications/g09/g09/l303.exe)
 DipDrv:  MaxL=1.
 Leave Link  303 at Mon Nov 23 16:21:46 2015, MaxMem=    33554432 cpu:         0.0
 (Enter /home/Applications/g09/g09/l401.exe)
 ExpMin= 1.61D-01 ExpMax= 5.48D+03 ExpMxC= 8.25D+02 IAcc=1 IRadAn=         1 AccDes= 0.00D+00
 Harris functional with IExCor=  402 and IRadAn=       1 diagonalized for initial guess.
 HarFok:  IExCor=  402 AccDes= 0.00D+00 IRadAn=         1 IDoV= 1 UseB2=F ITyADJ=14
 ICtDFT=  3500011 ScaDFX=  1.000000  1.000000  1.000000  1.000000
 FoFCou: FMM=F IPFlag=           0 FMFlag=      100000 FMFlg1=           0
         NFxFlg=           0 DoJE=T BraDBF=F KetDBF=T FulRan=T
         wScrn=  0.000000 ICntrl=     500 IOpCl=  0 I1Cent=   200000004 NGrid=           0
         NMat0=    1 NMatS0=      1 NMatT0=    0 NMatD0=    1 NMtDS0=    0 NMtDT0=    0
 Petite list used in FoFCou.
 Harris En= -230.031610657275    
 JPrj=0 DoOrth=F DoCkMO=F.
 Initial guess orbital symmetries:
       Occupied  (A1) (A1) (B2) (B2) (A1) (A1) (A1) (B2) (B2) (A1)
                 (A1) (B2) (B2) (B1) (A1) (A1) (B1) (A2)
       Virtual   (B1) (A2) (A1) (B2) (A1) (B2) (B2) (A1) (A1) (B2)
                 (B2) (A1) (B1) (B2) (A1) (A1) (A2) (B1) (B2) (A1)
                 (A2) (B2) (A1) (B2) (A1) (B2) (B1) (A1) (A1) (B2)
                 (B2) (A1) (B1) (B1) (A2) (B2) (A2) (B1) (B2) (A1)
                 (A1) (A1) (A1) (B2) (A1) (B2) (A2) (A1) (B1) (B2)
                 (A2) (B1) (A2) (B2) (A1) (A1) (B2) (B2) (A1) (B2)
                 (A1) (B2) (A1) (A1) (B2)
 The electronic state of the initial guess is 1-A1.
 Leave Link  401 at Mon Nov 23 16:21:46 2015, MaxMem=    33554432 cpu:         0.1
 (Enter /home/Applications/g09/g09/l502.exe)
 Closed shell SCF:
 Using DIIS extrapolation, IDIIS=  1040.
 Integral symmetry usage will be decided dynamically.
 Keep R1 ints in memory in symmetry-blocked form, NReq=7765455.
 IVT=       40521 IEndB=       40521 NGot=    33554432 MDV=    31866902
 LenX=    31866902 LenY=    31859572
 Requested convergence on RMS density matrix=1.00D-08 within 128 cycles.
 Requested convergence on MAX density matrix=1.00D-06.
 Requested convergence on             energy=1.00D-06.
 No special actions if energy rises.
 FoFCou: FMM=F IPFlag=           0 FMFlag=           0 FMFlg1=           0
         NFxFlg=           0 DoJE=F BraDBF=F KetDBF=F FulRan=T
         wScrn=  0.000000 ICntrl=     600 IOpCl=  0 I1Cent=           0 NGrid=           0
         NMat0=    1 NMatS0=   3486 NMatT0=    0 NMatD0=    1 NMtDS0=    0 NMtDT0=    0
 Petite list used in FoFCou.
 Integral accuracy reduced to 1.0D-05 until final iterations.

 Cycle   1  Pass 0  IDiag  1:
 E= -229.906886616645    
 DIIS: error= 4.66D-02 at cycle   1 NSaved=   1.
 NSaved= 1 IEnMin= 1 EnMin= -229.906886616645     IErMin= 1 ErrMin= 4.66D-02
 ErrMax= 4.66D-02  0.00D+00 EMaxC= 1.00D-01 BMatC= 1.06D-01 BMatP= 1.06D-01
 IDIUse=3 WtCom= 5.34D-01 WtEn= 4.66D-01
 Coeff-Com:  0.100D+01
 Coeff-En:   0.100D+01
 Coeff:      0.100D+01
 Gap=     0.224 Goal=   None    Shift=    0.000
 GapD=    0.224 DampG=1.000 DampE=0.500 DampFc=0.5000 IDamp=-1.
 Damping current iteration by 5.00D-01
 RMSDP=8.71D-03 MaxDP=1.37D-01              OVMax= 2.04D-01

 Cycle   2  Pass 0  IDiag  1:
 E= -229.953073331804     Delta-E=       -0.046186715158 Rises=F Damp=T
 DIIS: error= 1.25D-02 at cycle   2 NSaved=   2.
 NSaved= 2 IEnMin= 2 EnMin= -229.953073331804     IErMin= 2 ErrMin= 1.25D-02
 ErrMax= 1.25D-02  0.00D+00 EMaxC= 1.00D-01 BMatC= 1.07D-02 BMatP= 1.06D-01
 IDIUse=3 WtCom= 8.75D-01 WtEn= 1.25D-01
 Coeff-Com:  0.959D-01 0.904D+00
 Coeff-En:   0.169D+00 0.831D+00
 Coeff:      0.105D+00 0.895D+00
 Gap=     0.238 Goal=   None    Shift=    0.000
 RMSDP=2.74D-03 MaxDP=3.78D-02 DE=-4.62D-02 OVMax= 1.69D-01

 Cycle   3  Pass 0  IDiag  1:
 E= -230.007986340965     Delta-E=       -0.054913009161 Rises=F Damp=F
 DIIS: error= 1.84D-02 at cycle   3 NSaved=   3.
 NSaved= 3 IEnMin= 3 EnMin= -230.007986340965     IErMin= 2 ErrMin= 1.25D-02
 ErrMax= 1.84D-02  0.00D+00 EMaxC= 1.00D-01 BMatC= 1.30D-02 BMatP= 1.07D-02
 IDIUse=2 WtCom= 0.00D+00 WtEn= 1.00D+00
 Coeff-En:   0.000D+00 0.000D+00 0.100D+01
 Coeff:      0.000D+00 0.000D+00 0.100D+01
 Gap=     0.233 Goal=   None    Shift=    0.000
 RMSDP=3.69D-03 MaxDP=6.76D-02 DE=-5.49D-02 OVMax= 1.40D-01

 Cycle   4  Pass 0  IDiag  1:
 E= -229.968761424599     Delta-E=        0.039224916366 Rises=F Damp=F
 DIIS: error= 3.74D-02 at cycle   4 NSaved=   4.
 NSaved= 4 IEnMin= 3 EnMin= -230.007986340965     IErMin= 2 ErrMin= 1.25D-02
 ErrMax= 3.74D-02  0.00D+00 EMaxC= 1.00D-01 BMatC= 5.49D-02 BMatP= 1.07D-02
 IDIUse=2 WtCom= 0.00D+00 WtEn= 1.00D+00
 Coeff-En:   0.000D+00 0.000D+00 0.757D+00 0.243D+00
 Coeff:      0.000D+00 0.000D+00 0.757D+00 0.243D+00
 Gap=     0.242 Goal=   None    Shift=    0.000
 RMSDP=1.85D-03 MaxDP=3.43D-02 DE= 3.92D-02 OVMax= 7.55D-02

 Cycle   5  Pass 0  IDiag  1:
 E= -230.017192254482     Delta-E=       -0.048430829883 Rises=F Damp=F
 DIIS: error= 9.38D-03 at cycle   5 NSaved=   5.
 NSaved= 5 IEnMin= 5 EnMin= -230.017192254482     IErMin= 5 ErrMin= 9.38D-03
 ErrMax= 9.38D-03  0.00D+00 EMaxC= 1.00D-01 BMatC= 3.32D-03 BMatP= 1.07D-02
 IDIUse=3 WtCom= 9.06D-01 WtEn= 9.38D-02
 Coeff-Com: -0.534D-02 0.204D-01 0.219D+00-0.120D+00 0.886D+00
 Coeff-En:   0.000D+00 0.000D+00 0.251D+00 0.000D+00 0.749D+00
 Coeff:     -0.484D-02 0.185D-01 0.222D+00-0.109D+00 0.873D+00
 Gap=     0.246 Goal=   None    Shift=    0.000
 RMSDP=6.61D-04 MaxDP=1.14D-02 DE=-4.84D-02 OVMax= 2.53D-02

 Cycle   6  Pass 0  IDiag  1:
 E= -230.020338842299     Delta-E=       -0.003146587816 Rises=F Damp=F
 DIIS: error= 4.92D-04 at cycle   6 NSaved=   6.
 NSaved= 6 IEnMin= 6 EnMin= -230.020338842299     IErMin= 6 ErrMin= 4.92D-04
 ErrMax= 4.92D-04  0.00D+00 EMaxC= 1.00D-01 BMatC= 1.27D-05 BMatP= 3.32D-03
 IDIUse=3 WtCom= 9.95D-01 WtEn= 4.92D-03
 Coeff-Com: -0.391D-02 0.901D-02 0.914D-01-0.671D-01 0.460D+00 0.511D+00
 Coeff-En:   0.000D+00 0.000D+00 0.000D+00 0.000D+00 0.000D+00 0.100D+01
 Coeff:     -0.389D-02 0.896D-02 0.910D-01-0.668D-01 0.458D+00 0.513D+00
 Gap=     0.246 Goal=   None    Shift=    0.000
 RMSDP=4.31D-05 MaxDP=6.92D-04 DE=-3.15D-03 OVMax= 1.65D-03

 Cycle   7  Pass 0  IDiag  1:
 E= -230.020352068620     Delta-E=       -0.000013226321 Rises=F Damp=F
 DIIS: error= 2.88D-05 at cycle   7 NSaved=   7.
 NSaved= 7 IEnMin= 7 EnMin= -230.020352068620     IErMin= 7 ErrMin= 2.88D-05
 ErrMax= 2.88D-05  0.00D+00 EMaxC= 1.00D-01 BMatC= 9.21D-08 BMatP= 1.27D-05
 IDIUse=1 WtCom= 1.00D+00 WtEn= 0.00D+00
 Coeff-Com: -0.164D-03-0.133D-03 0.956D-02-0.564D-02 0.467D-01 0.137D+00
 Coeff-Com:  0.812D+00
 Coeff:     -0.164D-03-0.133D-03 0.956D-02-0.564D-02 0.467D-01 0.137D+00
 Coeff:      0.812D+00
 Gap=     0.246 Goal=   None    Shift=    0.000
 RMSDP=3.20D-06 MaxDP=4.45D-05 DE=-1.32D-05 OVMax= 8.14D-05

 Initial convergence to 1.0D-05 achieved.  Increase integral accuracy.
 Cycle   8  Pass 1  IDiag  1:
 E= -230.020399608772     Delta-E=       -0.000047540152 Rises=F Damp=F
 DIIS: error= 1.56D-05 at cycle   1 NSaved=   1.
 NSaved= 1 IEnMin= 1 EnMin= -230.020399608772     IErMin= 1 ErrMin= 1.56D-05
 ErrMax= 1.56D-05  0.00D+00 EMaxC= 1.00D-01 BMatC= 1.26D-08 BMatP= 1.26D-08
 IDIUse=1 WtCom= 1.00D+00 WtEn= 0.00D+00
 Coeff-Com:  0.100D+01
 Coeff:      0.100D+01
 Gap=     0.246 Goal=   None    Shift=    0.000
 RMSDP=3.20D-06 MaxDP=4.45D-05 DE=-4.75D-05 OVMax= 5.39D-05

 Cycle   9  Pass 1  IDiag  1:
 E= -230.020399619316     Delta-E=       -0.000000010544 Rises=F Damp=F
 DIIS: error= 9.20D-06 at cycle   2 NSaved=   2.
 NSaved= 2 IEnMin= 2 EnMin= -230.020399619316     IErMin= 2 ErrMin= 9.20D-06
 ErrMax= 9.20D-06  0.00D+00 EMaxC= 1.00D-01 BMatC= 3.66D-09 BMatP= 1.26D-08
 IDIUse=1 WtCom= 1.00D+00 WtEn= 0.00D+00
 Coeff-Com:  0.267D+00 0.733D+00
 Coeff:      0.267D+00 0.733D+00
 Gap=     0.246 Goal=   None    Shift=    0.000
 RMSDP=1.44D-06 MaxDP=2.62D-05 DE=-1.05D-08 OVMax= 5.22D-05

 Cycle  10  Pass 1  IDiag  1:
 E= -230.020399617369     Delta-E=        0.000000001947 Rises=F Damp=F
 DIIS: error= 1.22D-05 at cycle   3 NSaved=   3.
 NSaved= 3 IEnMin= 2 EnMin= -230.020399619316     IErMin= 2 ErrMin= 9.20D-06
 ErrMax= 1.22D-05  0.00D+00 EMaxC= 1.00D-01 BMatC= 5.81D-09 BMatP= 3.66D-09
 IDIUse=1 WtCom= 1.00D+00 WtEn= 0.00D+00
 Coeff-Com: -0.161D-01 0.564D+00 0.452D+00
 Coeff:     -0.161D-01 0.564D+00 0.452D+00
 Gap=     0.246 Goal=   None    Shift=    0.000
 RMSDP=8.21D-07 MaxDP=1.53D-05 DE= 1.95D-09 OVMax= 3.22D-05

 Cycle  11  Pass 1  IDiag  1:
 E= -230.020399622761     Delta-E=       -0.000000005391 Rises=F Damp=F
 DIIS: error= 4.72D-07 at cycle   4 NSaved=   4.
 NSaved= 4 IEnMin= 4 EnMin= -230.020399622761     IErMin= 4 ErrMin= 4.72D-07
 ErrMax= 4.72D-07  0.00D+00 EMaxC= 1.00D-01 BMatC= 3.05D-11 BMatP= 3.66D-09
 IDIUse=1 WtCom= 1.00D+00 WtEn= 0.00D+00
 Coeff-Com: -0.115D-01 0.244D+00 0.206D+00 0.561D+00
 Coeff:     -0.115D-01 0.244D+00 0.206D+00 0.561D+00
 Gap=     0.246 Goal=   None    Shift=    0.000
 RMSDP=6.29D-08 MaxDP=9.07D-07 DE=-5.39D-09 OVMax= 1.30D-06

 Cycle  12  Pass 1  IDiag  1:
 E= -230.020399622785     Delta-E=       -0.000000000025 Rises=F Damp=F
 DIIS: error= 1.70D-07 at cycle   5 NSaved=   5.
 NSaved= 5 IEnMin= 5 EnMin= -230.020399622785     IErMin= 5 ErrMin= 1.70D-07
 ErrMax= 1.70D-07  0.00D+00 EMaxC= 1.00D-01 BMatC= 2.10D-12 BMatP= 3.05D-11
 IDIUse=1 WtCom= 1.00D+00 WtEn= 0.00D+00
 Coeff-Com: -0.268D-02 0.422D-01 0.395D-01 0.235D+00 0.686D+00
 Coeff:     -0.268D-02 0.422D-01 0.395D-01 0.235D+00 0.686D+00
 Gap=     0.246 Goal=   None    Shift=    0.000
 RMSDP=1.94D-08 MaxDP=3.58D-07 DE=-2.49D-11 OVMax= 8.85D-07

 Cycle  13  Pass 1  IDiag  1:
 E= -230.020399622785     Delta-E=        0.000000000001 Rises=F Damp=F
 DIIS: error= 7.70D-08 at cycle   6 NSaved=   6.
 NSaved= 6 IEnMin= 5 EnMin= -230.020399622785     IErMin= 6 ErrMin= 7.70D-08
 ErrMax= 7.70D-08  0.00D+00 EMaxC= 1.00D-01 BMatC= 4.87D-13 BMatP= 2.10D-12
 IDIUse=1 WtCom= 1.00D+00 WtEn= 0.00D+00
 Coeff-Com: -0.499D-03 0.601D-03 0.267D-02 0.847D-01 0.415D+00 0.498D+00
 Coeff:     -0.499D-03 0.601D-03 0.267D-02 0.847D-01 0.415D+00 0.498D+00
 Gap=     0.246 Goal=   None    Shift=    0.000
 RMSDP=6.86D-09 MaxDP=8.97D-08 DE= 7.39D-13 OVMax= 1.48D-07

 SCF Done:  E(RB3LYP) =  -230.020399623     A.U. after   13 cycles
            NFock= 13  Conv=0.69D-08     -V/T= 2.0090
 KE= 2.279708561715D+02 PE=-8.581348390702D+02 EE= 2.389174638414D+02
 Leave Link  502 at Mon Nov 23 16:21:48 2015, MaxMem=    33554432 cpu:         1.8
 (Enter /home/Applications/g09/g09/l801.exe)
 DoSCS=F DFT=T ScalE2(SS,OS)=  1.000000  1.000000
 ExpMin= 1.61D-01 ExpMax= 5.48D+03 ExpMxC= 8.25D+02 IAcc=3 IRadAn=         5 AccDes= 0.00D+00
 HarFok:  IExCor=  205 AccDes= 0.00D+00 IRadAn=         5 IDoV=-2 UseB2=F ITyADJ=14
 ICtDFT= 12500011 ScaDFX=  1.000000  1.000000  1.000000  1.000000
 Largest valence mixing into a core orbital is  5.53D-05
 Largest core mixing into a valence orbital is  1.14D-05
 Range of M.O.s used for correlation:     6    83
 NBasis=    83 NAE=    18 NBE=    18 NFC=     5 NFV=     0
 NROrb=     78 NOA=    13 NOB=    13 NVA=    65 NVB=    65
 Leave Link  801 at Mon Nov 23 16:21:48 2015, MaxMem=    33554432 cpu:         0.2
 (Enter /home/Applications/g09/g09/l914.exe)
 RHF ground state
 MDV=    33554432 DFT=T DoStab=F Mixed=T DoRPA=F DoScal=F NonHer=F
 Keep R1, R2, and R3 ints in memory in symmetry-blocked form, NReq=10591353.
 FoFCou: FMM=F IPFlag=           0 FMFlag=           0 FMFlg1=           0
         NFxFlg=           0 DoJE=F BraDBF=F KetDBF=F FulRan=T
         wScrn=  0.000000 ICntrl=     600 IOpCl=  0 I1Cent=           0 NGrid=           0
         NMat0=    1 NMatS0=   3486 NMatT0=    0 NMatD0=    1 NMtDS0=    0 NMtDT0=    0
 Petite list used in FoFCou.
 Making orbital integer symmetry assigments:
 Orbital symmetries:
       Occupied  (A1) (B2) (A1) (A1) (B2) (A1) (A1) (B2) (B2) (A1)
                 (A1) (B1) (B2) (B2) (A1) (A1) (B1) (A2)
       Virtual   (B1) (A2) (A1) (A1) (B2) (B2) (A1) (B2) (A1) (B2)
                 (B2) (A1) (B1) (A1) (B2) (A2) (A1) (B1) (B2) (A1)
                 (A2) (B2) (A1) (B2) (B2) (A1) (B1) (A1) (A1) (B2)
                 (B2) (A1) (B1) (A2) (B2) (B1) (B2) (A2) (B1) (A1)
                 (A1) (A1) (A1) (B2) (A1) (B2) (A2) (A1) (B1) (B2)
                 (A2) (B1) (A2) (A1) (B2) (A1) (B2) (A1) (B2) (B2)
                 (A1) (B2) (A1) (A1) (B2)
    60 initial guesses have been made.
 Convergence on wavefunction:    0.001000000000000
 Davidson Disk Diagonalization:  ConvIn= 1.00D-03 SkipCon=T Conv= 1.00D-03.
 Max sub-space:   240 roots to seek:    60 dimension of matrix:         1690
 Iteration     1 Dimension    60 NMult     0 NNew     60
 CISAX will form    60 AO SS matrices at one time.
 NMat=    60 NSing=    60 JSym2X=-1.
 New state      1 was old state      3
 New state      2 was old state      1
 New state      3 was old state      4
 New state      4 was old state      6
 New state      5 was old state      8
 New state      6 was old state      7
 New state      7 was old state      9
 New state      8 was old state     10
 New state      9 was old state     11
 New state     10 was old state      5
 New state     11 was old state     14
 New state     14 was old state     16
 Excitation Energies [eV] at current iteration:
 Root      1 :     7.207122105655599
 Root      2 :     7.781720143753496
 Root      3 :     8.165197205082162
 Root      4 :     8.915837201906687
 Root      5 :     8.978962590841686
 Root      6 :     9.178037278154118
 Root      7 :     9.490747050348409
 Root      8 :     9.663884813903639
 Root      9 :     9.855833290763838
 Root     10 :     9.952805364729752
 Root     11 :    10.087976649507940
 Root     12 :    10.171735918857110
 Root     13 :    10.191218164161520
 Root     14 :    10.518885200897500
 Root     15 :    10.653756430882680
 Root     16 :    10.740959421755520
 Root     17 :    10.780502739440280
 Root     18 :    10.911792259090270
 Root     19 :    11.261416150375950
 Root     20 :    11.287801793818730
 Root     21 :    11.573902768382010
 Root     22 :    11.586106151674540
 Root     23 :    11.779290393089490
 Root     24 :    12.070303296150830
 Root     25 :    12.526671382872800
 Root     26 :    13.053412555360790
 Root     27 :    13.064296660262640
 Root     28 :    13.136049119572390
 Root     29 :    13.429069958921700
 Root     30 :    13.504834372256110
 Root     31 :    13.523018386377670
 Root     32 :    13.568461083133590
 Root     33 :    13.614210917843640
 Root     34 :    13.860968577600900
 Root     35 :    13.927908891773630
 Root     36 :    14.102196682918210
 Root     37 :    14.163437332409750
 Root     38 :    14.198953315539170
 Root     39 :    14.241345020494180
 Root     40 :    14.423662947801080
 Root     41 :    14.472729230813010
 Root     42 :    14.542833691421090
 Root     43 :    14.570654672907290
 Root     44 :    14.714248211079330
 Root     45 :    14.715991635854720
 Root     46 :    14.977077745683970
 Root     47 :    15.081118962751010
 Root     48 :    15.126121050964390
 Root     49 :    15.136701733353170
 Root     50 :    15.194400172121660
 Root     51 :    15.254847812826670
 Root     52 :    15.482272770437050
 Root     53 :    15.504285386401660
 Root     54 :    15.607950419534350
 Root     55 :    15.709701585062730
 Root     56 :    15.776847640708080
 Root     57 :    15.787655255992580
 Root     58 :    16.700048114969050
 Root     59 :    16.813044197356150
 Root     60 :    17.951308151480340
 Iteration     2 Dimension   120 NMult    60 NNew     60
 CISAX will form    60 AO SS matrices at one time.
 NMat=    60 NSing=    60 JSym2X=-1.
 New state      1 was old state      2
 Root      1 not converged, maximum delta is    0.056784169991631
 New state      2 was old state      1
 Root      2 not converged, maximum delta is    0.044122423463610
 Root      3 not converged, maximum delta is    0.010438251253413
 Root      4 not converged, maximum delta is    0.018434676838259
 Root      5 not converged, maximum delta is    0.033210462593377
 Root      6 not converged, maximum delta is    0.020202072690099
 New state      7 was old state     10
 Root      7 not converged, maximum delta is    0.054121620349668
 New state      8 was old state      7
 Root      8 not converged, maximum delta is    0.039157703416433
 New state      9 was old state     17
 Root      9 not converged, maximum delta is    0.089650939551759
 New state     10 was old state      8
 Root     10 not converged, maximum delta is    0.018094430029709
 New state     11 was old state      9
 Root     11 not converged, maximum delta is    0.026874072909071
 New state     12 was old state     11
 Root     12 not converged, maximum delta is    0.033318921758198
 New state     13 was old state     12
 Root     13 not converged, maximum delta is    0.048617303229043
 New state     14 was old state     13
 Root     14 not converged, maximum delta is    0.030066714039172
 New state     15 was old state     14
 Root     15 not converged, maximum delta is    0.047898562647008
 Excitation Energies [eV] at current iteration:
 Root      1 :     7.008291143773044   Change is   -0.773428999980453
 Root      2 :     7.059184112288623   Change is   -0.147937993366976
 Root      3 :     8.149964359197838   Change is   -0.015232845884323
 Root      4 :     8.868995801966591   Change is   -0.046841399940095
 Root      5 :     8.933510196951852   Change is   -0.045452393889834
 Root      6 :     9.161005333410410   Change is   -0.017031944743708
 Root      7 :     9.377324864310083   Change is   -0.575480500419668
 Root      8 :     9.457246261017373   Change is   -0.033500789331037
 Root      9 :     9.468960117104460   Change is   -1.311542622335821
 Root     10 :     9.656665790150958   Change is   -0.007219023752682
 Root     11 :     9.820659876795119   Change is   -0.035173413968720
 Root     12 :    10.070470634488560   Change is   -0.017506015019382
 Root     13 :    10.135623880084820   Change is   -0.036112038772290
 Root     14 :    10.167406685341040   Change is   -0.023811478820484
 Root     15 :    10.463832312401460   Change is   -0.055052888496036
 Root     16 :    10.645398069038250   Change is   -0.008358361844424
 Root     17 :    10.709087129383470   Change is   -0.031872292372049
 Root     18 :    10.888183000811090   Change is   -0.023609258279180
 Root     19 :    11.177874363563010   Change is   -0.083541786812947
 Root     20 :    11.261047377285820   Change is   -0.026754416532907
 Root     21 :    11.540254066238980   Change is   -0.045852085435557
 Root     22 :    11.553215273766430   Change is   -0.020687494615579
 Root     23 :    11.719570156620730   Change is   -0.059720236468762
 Root     24 :    11.836393161747940   Change is   -0.233910134402892
 Root     25 :    12.326439361479570   Change is   -0.200232021393232
 Root     26 :    12.763168769100920   Change is   -0.301127891161722
 Root     27 :    12.992888665262200   Change is   -0.060523890098592
 Root     28 :    13.087288998942740   Change is   -0.417545373313377
 Root     29 :    13.111782768048540   Change is   -0.024266351523849
 Root     30 :    13.233382607045810   Change is   -0.380828310797836
 Root     31 :    13.381261725669230   Change is   -0.047808233252462
 Root     32 :    13.432672948682210   Change is   -0.090345437695462
 Root     33 :    13.545897809139030   Change is   -0.022563273994561
 Root     34 :    13.638528821544540   Change is   -0.785134126256535
 Root     35 :    13.811184339086780   Change is   -0.049784238514129
 Root     36 :    13.895309290088440   Change is   -0.032599601685188
 Root     37 :    14.004175024078540   Change is   -0.098021658839667
 Root     38 :    14.127931825758830   Change is   -0.071021489780340
 Root     39 :    14.144680573598810   Change is   -0.018756758810940
 Root     40 :    14.187144673941710   Change is   -0.054200346552468
 Root     41 :    14.352729816458760   Change is   -0.119999414354248
 Root     42 :    14.453754279854310   Change is   -0.262237356000410
 Root     43 :    14.467147938300560   Change is   -0.075685753120531
 Root     44 :    14.535775137089510   Change is   -0.034879535817783
 Root     45 :    14.644541665065840   Change is   -0.069706546013486
 Root     46 :    14.810470259645210   Change is   -0.166607486038759
 Root     47 :    14.859459246194180   Change is   -0.266661804770215
 Root     48 :    14.997600811927560   Change is   -0.083518150823446
 Root     49 :    15.114521749425220   Change is   -0.022179983927952
 Root     50 :    15.162074219400430   Change is   -0.032325952721230
 Root     51 :    15.182379505602300   Change is   -0.072468307224368
 Root     52 :    15.206211998830700   Change is   -0.298073387570963
 Root     53 :    15.211554800188750   Change is   -0.396395619345602
 Root     54 :    15.431640419697380   Change is   -0.050632350739676
 Root     55 :    15.473639395661700   Change is   -0.303208245046370
 Root     56 :    15.591526411774180   Change is   -0.196128844218401
 Root     57 :    15.688198471733780   Change is   -0.021503113328956
 Root     58 :    15.719841451197920   Change is   -0.980206663771133
 Root     59 :    15.815465792102280   Change is   -0.997578405253875
 Root     60 :    16.682555582710960
 Iteration     3 Dimension   135 NMult   120 NNew     15
 CISAX will form    15 AO SS matrices at one time.
 NMat=    15 NSing=    15 JSym2X=-1.
 Root      1 not converged, maximum delta is    0.002726187660264
 Root      2 not converged, maximum delta is    0.001837028781470
 Root      3 has converged.
 Root      4 has converged.
 Root      5 has converged.
 Root      6 has converged.
 Root      7 not converged, maximum delta is    0.003823886314164
 Root      8 not converged, maximum delta is    0.001515438027572
 Root      9 not converged, maximum delta is    0.003808543805310
 Root     10 has converged.
 Root     11 not converged, maximum delta is    0.001942729044202
 Root     12 has converged.
 Root     13 not converged, maximum delta is    0.001266285492333
 Root     14 has converged.
 Root     15 not converged, maximum delta is    0.002081491918532
 Excitation Energies [eV] at current iteration:
 Root      1 :     7.006047347664138   Change is   -0.002243796108906
 Root      2 :     7.058024756087815   Change is   -0.001159356200809
 Root      3 :     8.149939476195643   Change is   -0.000024883002196
 Root      4 :     8.868845502124039   Change is   -0.000150299842554
 Root      5 :     8.933282027949218   Change is   -0.000228169002633
 Root      6 :     9.160966232913779   Change is   -0.000039100496631
 Root      7 :     9.375321287773639   Change is   -0.002003576536444
 Root      8 :     9.457035086098800   Change is   -0.000211174918573
 Root      9 :     9.462708624889073   Change is   -0.006251492215386
 Root     10 :     9.656643779263955   Change is   -0.000022010887002
 Root     11 :     9.820389355386798   Change is   -0.000270521408321
 Root     12 :    10.070420390856960   Change is   -0.000050243631595
 Root     13 :    10.135459174231430   Change is   -0.000164705853391
 Root     14 :    10.167328628383560   Change is   -0.000078056957474
 Root     15 :    10.463559025519980   Change is   -0.000273286881484
 Iteration     4 Dimension   143 NMult   135 NNew      8
 CISAX will form     8 AO SS matrices at one time.
 NMat=     8 NSing=     8 JSym2X=-1.
 Root      1 has converged.
 Root      2 has converged.
 Root      3 has converged.
 Root      4 has converged.
 Root      5 has converged.
 Root      6 has converged.
 Root      7 has converged.
 Root      8 has converged.
 Root      9 has converged.
 Root     10 has converged.
 Root     11 has converged.
 Root     12 has converged.
 Root     13 has converged.
 Root     14 has converged.
 Root     15 has converged.
 Excitation Energies [eV] at current iteration:
 Root      1 :     7.006040548508027   Change is   -0.000006799156111
 Root      2 :     7.058021798994943   Change is   -0.000002957092872
 Root      3 :     8.149939476195595   Change is   -0.000000000000048
 Root      4 :     8.868845502123998   Change is   -0.000000000000041
 Root      5 :     8.933281837809854   Change is   -0.000000190139364
 Root      6 :     9.160966210804357   Change is   -0.000000022109422
 Root      7 :     9.375317096913003   Change is   -0.000004190860638
 Root      8 :     9.457034816018403   Change is   -0.000000270080397
 Root      9 :     9.462692823361602   Change is   -0.000015801527473
 Root     10 :     9.656643761517117   Change is   -0.000000017746839
 Root     11 :     9.820388968925389   Change is   -0.000000386461409
 Root     12 :    10.070420390856950   Change is   -0.000000000000014
 Root     13 :    10.135459034060700   Change is   -0.000000140170725
 Root     14 :    10.167328628383550   Change is   -0.000000000000009
 Root     15 :    10.463558583641010   Change is   -0.000000441878964
 Convergence achieved on expansion vectors.
 ***********************************************************************
 Excited states from <AA,BB:AA,BB> singles matrix:
 ***********************************************************************
 
 1PDM for each excited state written to RWF  633
 Ground to excited state transition densities written to RWF  633
 Ground to excited state transition electric dipole moments (Au):
       state          X           Y           Z        Dip. S.      Osc.
         1         0.0000     -1.1303      0.0000      1.2776      0.2193
         2         0.0000      0.0000      0.0463      0.0021      0.0004
         3         0.0000      0.0000      0.0000      0.0000      0.0000
         4         0.0000      0.0000      0.0000      0.0000      0.0000
         5         0.1010      0.0000      0.0000      0.0102      0.0022
         6         0.0078      0.0000      0.0000      0.0001      0.0000
         7         0.0000      0.8297      0.0000      0.6884      0.1581
         8        -0.0308      0.0000      0.0000      0.0009      0.0002
         9         0.0000      0.0000      1.5952      2.5448      0.5900
        10        -0.0056      0.0000      0.0000      0.0000      0.0000
        11         0.0631      0.0000      0.0000      0.0040      0.0010
        12         0.0000      0.0000      0.0000      0.0000      0.0000
        13        -0.0587      0.0000      0.0000      0.0034      0.0009
        14         0.0000      0.0000      0.0000      0.0000      0.0000
        15         0.1286      0.0000      0.0000      0.0165      0.0042
 Ground to excited state transition velocity dipole moments (Au):
       state          X           Y           Z        Dip. S.      Osc.
         1         0.0000      0.0105      0.0000      0.0001      0.0003
         2         0.0000      0.0000      0.0459      0.0021      0.0054
         3         0.0000      0.0000      0.0000      0.0000      0.0000
         4         0.0000      0.0000      0.0000      0.0000      0.0000
         5        -0.0110      0.0000      0.0000      0.0001      0.0002
         6        -0.0453      0.0000      0.0000      0.0021      0.0041
         7         0.0000     -0.1104      0.0000      0.0122      0.0236
         8        -0.0219      0.0000      0.0000      0.0005      0.0009
         9         0.0000      0.0000     -0.0911      0.0083      0.0159
        10        -0.0202      0.0000      0.0000      0.0004      0.0008
        11        -0.0177      0.0000      0.0000      0.0003      0.0006
        12         0.0000      0.0000      0.0000      0.0000      0.0000
        13        -0.0480      0.0000      0.0000      0.0023      0.0041
        14         0.0000      0.0000      0.0000      0.0000      0.0000
        15         0.0326      0.0000      0.0000      0.0011      0.0018
 Ground to excited state transition magnetic dipole moments (Au):
       state          X           Y           Z
         1         0.5616      0.0000      0.0000
         2         0.0000      0.0000      0.0000
         3         0.0000      0.0000     -0.4853
         4         0.0000      0.0000      0.2617
         5         0.0000     -1.5533      0.0000
         6         0.0000      0.2855      0.0000
         7         0.3804      0.0000      0.0000
         8         0.0000      0.1550      0.0000
         9         0.0000      0.0000      0.0000
        10         0.0000     -0.0093      0.0000
        11         0.0000      0.0286      0.0000
        12         0.0000      0.0000      0.6990
        13         0.0000     -0.3178      0.0000
        14         0.0000      0.0000      0.2287
        15         0.0000      0.0704      0.0000
 Ground to excited state transition velocity quadrupole moments (Au):
       state          XX          YY          ZZ          XY          XZ          YZ
         1         0.0000      0.0000      0.0000      0.0000      0.0000      0.2210
         2         0.0136      0.0066     -0.0350      0.0000      0.0000      0.0000
         3         0.0000      0.0000      0.0000      0.1693      0.0000      0.0000
         4         0.0000      0.0000      0.0000      0.1930      0.0000      0.0000
         5         0.0000      0.0000      0.0000      0.0000     -0.1350      0.0000
         6         0.0000      0.0000      0.0000      0.0000     -0.0589      0.0000
         7         0.0000      0.0000      0.0000      0.0000      0.0000      0.4143
         8         0.0000      0.0000      0.0000      0.0000      0.2125      0.0000
         9         0.0564     -0.2891      0.2716      0.0000      0.0000      0.0000
        10         0.0000      0.0000      0.0000      0.0000      0.0672      0.0000
        11         0.0000      0.0000      0.0000      0.0000      0.0568      0.0000
        12         0.0000      0.0000      0.0000      0.0025      0.0000      0.0000
        13         0.0000      0.0000      0.0000      0.0000     -0.1205      0.0000
        14         0.0000      0.0000      0.0000      0.0269      0.0000      0.0000
        15         0.0000      0.0000      0.0000      0.0000     -0.0907      0.0000
 <0|del|b> * <b|rxdel|0> + <0|del|b> * <b|delr+rdel|0>
 Rotatory Strengths (R) in cgs (10**-40 erg-esu-cm/Gauss)
       state          XX          YY          ZZ    R(velocity)    E-M Angle
         1         0.0000      0.0000      0.0000      0.0000       90.00
         2         0.0000      0.0000      0.0000      0.0000       90.00
         3         0.0000      0.0000      0.0000      0.0000       90.00
         4         0.0000      0.0000      0.0000      0.0000       90.00
         5         0.0000      0.0000      0.0000      0.0000       90.00
         6         0.0000      0.0000      0.0000      0.0000       90.00
         7         0.0000      0.0000      0.0000      0.0000       90.00
         8         0.0000      0.0000      0.0000      0.0000       90.00
         9         0.0000      0.0000      0.0000      0.0000       90.00
        10         0.0000      0.0000      0.0000      0.0000       90.00
        11         0.0000      0.0000      0.0000      0.0000       90.00
        12         0.0000      0.0000      0.0000      0.0000       90.00
        13         0.0000      0.0000      0.0000      0.0000       90.00
        14         0.0000      0.0000      0.0000      0.0000       90.00
        15         0.0000      0.0000      0.0000      0.0000       90.00
 1/2[<0|r|b>*<b|rxdel|0> + (<0|rxdel|b>*<b|r|0>)*]
 Rotatory Strengths (R) in cgs (10**-40 erg-esu-cm/Gauss)
       state          XX          YY          ZZ     R(length)
         1         0.0000      0.0000      0.0000      0.0000
         2         0.0000      0.0000      0.0000      0.0000
         3         0.0000      0.0000      0.0000      0.0000
         4         0.0000      0.0000      0.0000      0.0000
         5         0.0000      0.0000      0.0000      0.0000
         6         0.0000      0.0000      0.0000      0.0000
         7         0.0000      0.0000      0.0000      0.0000
         8         0.0000      0.0000      0.0000      0.0000
         9         0.0000      0.0000      0.0000      0.0000
        10         0.0000      0.0000      0.0000      0.0000
        11         0.0000      0.0000      0.0000      0.0000
        12         0.0000      0.0000      0.0000      0.0000
        13         0.0000      0.0000      0.0000      0.0000
        14         0.0000      0.0000      0.0000      0.0000
        15         0.0000      0.0000      0.0000      0.0000
  1/2[<0|del|b>*<b|r|0> + (<0|r|b>*<b|del|0>)*] (Au)
       state          X           Y           Z        Dip. S.   Osc.(frdel)
         1         0.0000     -0.0118      0.0000      0.0118      0.0079
         2         0.0000      0.0000      0.0021     -0.0021     -0.0014
         3         0.0000      0.0000      0.0000      0.0000      0.0000
         4         0.0000      0.0000      0.0000      0.0000      0.0000
         5        -0.0011      0.0000      0.0000      0.0011      0.0007
         6        -0.0004      0.0000      0.0000      0.0004      0.0002
         7         0.0000     -0.0916      0.0000      0.0916      0.0610
         8         0.0007      0.0000      0.0000     -0.0007     -0.0004
         9         0.0000      0.0000     -0.1454      0.1454      0.0969
        10         0.0001      0.0000      0.0000     -0.0001     -0.0001
        11        -0.0011      0.0000      0.0000      0.0011      0.0007
        12         0.0000      0.0000      0.0000      0.0000      0.0000
        13         0.0028      0.0000      0.0000     -0.0028     -0.0019
        14         0.0000      0.0000      0.0000      0.0000      0.0000
        15         0.0042      0.0000      0.0000     -0.0042     -0.0028

 Excitation energies and oscillator strengths:
 
 Excited State   1:      Singlet-B2     7.0060 eV  176.97 nm  f=0.2193  <S**2>=0.000
      18 -> 19         0.68530
 This state for optimization and/or second-order correction.
 Total Energy, E(CIS) =  -229.762932359    
 Copying the excited state density for this state as the 1-particle RhoCI density.
 
 Excited State   2:      Singlet-A1     7.0580 eV  175.66 nm  f=0.0004  <S**2>=0.000
      17 -> 19         0.51621
      18 -> 20        -0.47669
 
 Excited State   3:      Singlet-A2     8.1499 eV  152.13 nm  f=0.0000  <S**2>=0.000
      18 -> 21         0.69489
      18 -> 22        -0.10521
 
 Excited State   4:      Singlet-A2     8.8688 eV  139.80 nm  f=0.0000  <S**2>=0.000
      18 -> 21         0.10725
      18 -> 22         0.69019
 
 Excited State   5:      Singlet-B1     8.9333 eV  138.79 nm  f=0.0022  <S**2>=0.000
      16 -> 19         0.69230
      18 -> 23         0.11715
 
 Excited State   6:      Singlet-B1     9.1610 eV  135.34 nm  f=0.0000  <S**2>=0.000
      17 -> 21         0.23677
      18 -> 23         0.62861
      18 -> 24         0.14757
      18 -> 26         0.10587
 
 Excited State   7:      Singlet-B2     9.3753 eV  132.25 nm  f=0.1581  <S**2>=0.000
      17 -> 20         0.68420
 
 Excited State   8:      Singlet-B1     9.4570 eV  131.10 nm  f=0.0002  <S**2>=0.000
      17 -> 21         0.58988
      18 -> 23        -0.25880
      18 -> 24         0.24655
 
 Excited State   9:      Singlet-A1     9.4627 eV  131.02 nm  f=0.5900  <S**2>=0.000
      15 -> 25         0.10096
      17 -> 19         0.44325
      18 -> 20         0.48983
 
 Excited State  10:      Singlet-B1     9.6566 eV  128.39 nm  f=0.0000  <S**2>=0.000
      15 -> 19        -0.13408
      17 -> 21        -0.28557
      18 -> 24         0.62884
 
 Excited State  11:      Singlet-B1     9.8204 eV  126.25 nm  f=0.0010  <S**2>=0.000
      15 -> 19         0.67860
      18 -> 23        -0.10312
      18 -> 24         0.13995
 
 Excited State  12:      Singlet-A2    10.0704 eV  123.12 nm  f=0.0000  <S**2>=0.000
      14 -> 19         0.61569
      16 -> 20        -0.23485
      18 -> 25         0.23487
 
 Excited State  13:      Singlet-B1    10.1355 eV  122.33 nm  f=0.0009  <S**2>=0.000
      17 -> 21         0.10910
      17 -> 22         0.67280
      18 -> 26        -0.16125
 
 Excited State  14:      Singlet-A2    10.1673 eV  121.94 nm  f=0.0000  <S**2>=0.000
      14 -> 19        -0.21184
      16 -> 20         0.11413
      18 -> 25         0.65396
 
 Excited State  15:      Singlet-B1    10.4636 eV  118.49 nm  f=0.0042  <S**2>=0.000
      17 -> 22         0.16592
      18 -> 23        -0.10275
      18 -> 26         0.67448
 SavETr:  write IOETrn=   770 NScale= 10 NData=  16 NLR=1 NState=   15 LETran=     280.
 Leave Link  914 at Mon Nov 23 16:22:10 2015, MaxMem=    33554432 cpu:        21.6
 (Enter /home/Applications/g09/g09/l601.exe)
 Copying SCF densities to generalized density rwf, IOpCl= 0 IROHF=0.

 **********************************************************************

            Population analysis using the SCF density.

 **********************************************************************

 Orbital symmetries:
       Occupied  (A1) (B2) (A1) (A1) (B2) (A1) (A1) (B2) (B2) (A1)
                 (A1) (B1) (B2) (B2) (A1) (A1) (B1) (A2)
       Virtual   (B1) (A2) (A1) (A1) (B2) (B2) (A1) (B2) (A1) (B2)
                 (B2) (A1) (B1) (A1) (B2) (A2) (A1) (B1) (B2) (A1)
                 (A2) (B2) (A1) (B2) (B2) (A1) (B1) (A1) (A1) (B2)
                 (B2) (A1) (B1) (A2) (B2) (B1) (B2) (A2) (B1) (A1)
                 (A1) (A1) (A1) (B2) (A1) (B2) (A2) (A1) (B1) (B2)
                 (A2) (B1) (A2) (A1) (B2) (A1) (B2) (A1) (B2) (B2)
                 (A1) (B2) (A1) (A1) (B2)
 The electronic state is 1-A1.
 Alpha  occ. eigenvalues --  -19.21079 -10.23005 -10.23003 -10.18227 -10.18185
 Alpha  occ. eigenvalues --   -1.10500  -0.79418  -0.74085  -0.59420  -0.56652
 Alpha  occ. eigenvalues --   -0.53795  -0.44289  -0.44278  -0.40820  -0.39366
 Alpha  occ. eigenvalues --   -0.36667  -0.27380  -0.22502
 Alpha virt. eigenvalues --    0.02115   0.08045   0.11917   0.14299   0.15695
 Alpha virt. eigenvalues --    0.16802   0.19738   0.20754   0.31626   0.37967
 Alpha virt. eigenvalues --    0.43638   0.51473   0.53304   0.58317   0.58412
 Alpha virt. eigenvalues --    0.58461   0.59520   0.61522   0.63195   0.67567
 Alpha virt. eigenvalues --    0.68054   0.80276   0.83148   0.84555   0.91008
 Alpha virt. eigenvalues --    0.91012   0.98275   0.99047   1.01646   1.03879
 Alpha virt. eigenvalues --    1.13785   1.14327   1.34718   1.37662   1.38757
 Alpha virt. eigenvalues --    1.39434   1.53657   1.55539   1.56842   1.57654
 Alpha virt. eigenvalues --    1.68270   1.84527   1.93898   2.02330   2.06151
 Alpha virt. eigenvalues --    2.09222   2.20013   2.22744   2.26541   2.26621
 Alpha virt. eigenvalues --    2.32574   2.40237   2.58127   2.62629   2.63227
 Alpha virt. eigenvalues --    2.70886   2.78780   2.94347   2.96021   3.10834
 Alpha virt. eigenvalues --    3.93989   4.15166   4.15769   4.28911   4.46461
     Molecular Orbital Coefficients:
                           1         2         3         4         5
                        (A1)--O   (B2)--O   (A1)--O   (A1)--O   (B2)--O
     Eigenvalues --   -19.21079 -10.23005 -10.23003 -10.18227 -10.18185
   1 1   C  1S         -0.00001   0.00531   0.00535   0.70185   0.70211
   2        2S          0.00008  -0.00015  -0.00003   0.03497   0.03560
   3        2PX         0.00000   0.00000   0.00000   0.00000   0.00000
   4        2PY         0.00007  -0.00003  -0.00016   0.00003  -0.00035
   5        2PZ        -0.00005  -0.00021  -0.00031   0.00015   0.00029
   6        3S         -0.00023   0.00715   0.00129  -0.00800  -0.01832
   7        3PX         0.00000   0.00000   0.00000   0.00000   0.00000
   8        3PY        -0.00048  -0.00013   0.00078  -0.00013   0.00425
   9        3PZ         0.00019   0.00351   0.00007  -0.00177  -0.00409
  10        4XX        -0.00002  -0.00017  -0.00011  -0.00691  -0.00667
  11        4YY        -0.00005  -0.00030  -0.00010  -0.00693  -0.00627
  12        4ZZ        -0.00014  -0.00022  -0.00027  -0.00664  -0.00629
  13        4XY         0.00000   0.00000   0.00000   0.00000   0.00000
  14        4XZ         0.00000   0.00000   0.00000   0.00000   0.00000
  15        4YZ         0.00001   0.00008  -0.00001  -0.00006  -0.00008
  16 2   C  1S          0.00000   0.70202   0.70193  -0.00565  -0.00566
  17        2S          0.00032   0.03501   0.03439  -0.00068  -0.00067
  18        2PX         0.00000   0.00000   0.00000   0.00000   0.00000
  19        2PY        -0.00032  -0.00083  -0.00086   0.00004   0.00015
  20        2PZ         0.00025   0.00049   0.00062   0.00031   0.00019
  21        3S         -0.00179  -0.01115  -0.00535   0.00438   0.00690
  22        3PX         0.00000   0.00000   0.00000   0.00000   0.00000
  23        3PY         0.00111   0.00287  -0.00173  -0.00141  -0.00252
  24        3PZ        -0.00100   0.00329  -0.00014  -0.00165  -0.00236
  25        4XX         0.00000  -0.00673  -0.00698  -0.00006  -0.00007
  26        4YY         0.00003  -0.00638  -0.00615  -0.00004  -0.00016
  27        4ZZ         0.00013  -0.00644  -0.00642  -0.00014  -0.00022
  28        4XY         0.00000   0.00000   0.00000   0.00000   0.00000
  29        4XZ         0.00000   0.00000   0.00000   0.00000   0.00000
  30        4YZ        -0.00009  -0.00008  -0.00009  -0.00002  -0.00009
  31 3   O  1S          0.99270   0.00000   0.00002   0.00009   0.00000
  32        2S          0.02573   0.00000   0.00076   0.00033   0.00000
  33        2PX         0.00000   0.00000   0.00000   0.00000   0.00000
  34        2PY         0.00000   0.00000   0.00000   0.00000   0.00001
  35        2PZ        -0.00095   0.00000  -0.00005  -0.00010   0.00000
  36        3S          0.01341   0.00000  -0.00289  -0.00235   0.00000
  37        3PX         0.00000   0.00000   0.00000   0.00000   0.00000
  38        3PY         0.00000  -0.00114   0.00000   0.00000  -0.00060
  39        3PZ        -0.00044   0.00000   0.00222   0.00072   0.00000
  40        4XX        -0.00820   0.00000   0.00077   0.00023   0.00000
  41        4YY        -0.00825   0.00000  -0.00040   0.00025   0.00000
  42        4ZZ        -0.00827   0.00000  -0.00024   0.00030   0.00000
  43        4XY         0.00000   0.00000   0.00000   0.00000   0.00000
  44        4XZ         0.00000   0.00000   0.00000   0.00000   0.00000
  45        4YZ         0.00000   0.00057   0.00000   0.00000   0.00001
  46 4   C  1S          0.00000  -0.70202   0.70193  -0.00565   0.00566
  47        2S          0.00032  -0.03501   0.03439  -0.00068   0.00067
  48        2PX         0.00000   0.00000   0.00000   0.00000   0.00000
  49        2PY         0.00032  -0.00083   0.00086  -0.00004   0.00015
  50        2PZ         0.00025  -0.00049   0.00062   0.00031  -0.00019
  51        3S         -0.00179   0.01115  -0.00535   0.00438  -0.00690
  52        3PX         0.00000   0.00000   0.00000   0.00000   0.00000
  53        3PY        -0.00111   0.00287   0.00173   0.00141  -0.00252
  54        3PZ        -0.00100  -0.00329  -0.00014  -0.00165   0.00236
  55        4XX         0.00000   0.00673  -0.00698  -0.00006   0.00007
  56        4YY         0.00003   0.00638  -0.00615  -0.00004   0.00016
  57        4ZZ         0.00013   0.00644  -0.00642  -0.00014   0.00022
  58        4XY         0.00000   0.00000   0.00000   0.00000   0.00000
  59        4XZ         0.00000   0.00000   0.00000   0.00000   0.00000
  60        4YZ         0.00009  -0.00008   0.00009   0.00002  -0.00009
  61 5   C  1S         -0.00001  -0.00531   0.00535   0.70185  -0.70211
  62        2S          0.00008   0.00015  -0.00003   0.03497  -0.03560
  63        2PX         0.00000   0.00000   0.00000   0.00000   0.00000
  64        2PY        -0.00007  -0.00003   0.00016  -0.00003  -0.00035
  65        2PZ        -0.00005   0.00021  -0.00031   0.00015  -0.00029
  66        3S         -0.00023  -0.00715   0.00129  -0.00800   0.01832
  67        3PX         0.00000   0.00000   0.00000   0.00000   0.00000
  68        3PY         0.00048  -0.00013  -0.00078   0.00013   0.00425
  69        3PZ         0.00019  -0.00351   0.00007  -0.00177   0.00409
  70        4XX        -0.00002   0.00017  -0.00011  -0.00691   0.00667
  71        4YY        -0.00005   0.00030  -0.00010  -0.00693   0.00627
  72        4ZZ        -0.00014   0.00022  -0.00027  -0.00664   0.00629
  73        4XY         0.00000   0.00000   0.00000   0.00000   0.00000
  74        4XZ         0.00000   0.00000   0.00000   0.00000   0.00000
  75        4YZ        -0.00001   0.00008   0.00001   0.00006  -0.00008
  76 6   H  1S          0.00009   0.00000  -0.00010  -0.00041   0.00041
  77        2S          0.00017  -0.00041  -0.00029   0.00093  -0.00018
  78 7   H  1S          0.00008   0.00053  -0.00027  -0.00002  -0.00004
  79        2S         -0.00005  -0.00003   0.00207   0.00040  -0.00058
  80 8   H  1S          0.00008  -0.00053  -0.00027  -0.00002   0.00004
  81        2S         -0.00005   0.00003   0.00207   0.00040   0.00058
  82 9   H  1S          0.00009   0.00000  -0.00010  -0.00041  -0.00041
  83        2S          0.00017   0.00041  -0.00029   0.00093   0.00018
                           6         7         8         9        10
                        (A1)--O   (A1)--O   (B2)--O   (B2)--O   (A1)--O
     Eigenvalues --    -1.10500  -0.79418  -0.74085  -0.59420  -0.56652
   1 1   C  1S         -0.02501  -0.14005  -0.06555   0.10170   0.04606
   2        2S          0.04535   0.26960   0.13036  -0.20804  -0.09583
   3        2PX         0.00000   0.00000   0.00000   0.00000   0.00000
   4        2PY        -0.01184  -0.06592   0.06688  -0.12609   0.13320
   5        2PZ         0.03443   0.05495   0.07100  -0.00309   0.13221
   6        3S          0.03017   0.18912   0.09422  -0.14612  -0.08181
   7        3PX         0.00000   0.00000   0.00000   0.00000   0.00000
   8        3PY        -0.00807  -0.00670   0.00522  -0.05615   0.02794
   9        3PZ         0.01298   0.00443  -0.00300   0.03871   0.04874
  10        4XX        -0.00342  -0.01516  -0.00618   0.00827   0.00386
  11        4YY        -0.00042   0.00628  -0.00814   0.00835  -0.00602
  12        4ZZ         0.00464   0.00094   0.00854  -0.00463   0.00548
  13        4XY         0.00000   0.00000   0.00000   0.00000   0.00000
  14        4XZ         0.00000   0.00000   0.00000   0.00000   0.00000
  15        4YZ        -0.00116  -0.00529   0.00276   0.00447   0.00752
  16 2   C  1S         -0.07282  -0.05375  -0.13692  -0.01320  -0.10283
  17        2S          0.13459   0.10570   0.27837   0.02992   0.21497
  18        2PX         0.00000   0.00000   0.00000   0.00000   0.00000
  19        2PY        -0.09813  -0.00787  -0.01868  -0.04520   0.16703
  20        2PZ         0.04673  -0.13818   0.01108   0.23479   0.00075
  21        3S          0.02467   0.06350   0.19885   0.00163   0.19123
  22        3PX         0.00000   0.00000   0.00000   0.00000   0.00000
  23        3PY         0.02318   0.00167   0.01822   0.00244   0.06722
  24        3PZ         0.00387  -0.01560  -0.00567   0.06528   0.01179
  25        4XX        -0.01198  -0.00484  -0.01542  -0.00455  -0.00738
  26        4YY         0.01419  -0.00307  -0.00200   0.00786  -0.00064
  27        4ZZ        -0.00101   0.00369   0.00469  -0.00265  -0.00520
  28        4XY         0.00000   0.00000   0.00000   0.00000   0.00000
  29        4XZ         0.00000   0.00000   0.00000   0.00000   0.00000
  30        4YZ        -0.01315   0.01607  -0.00138  -0.01254   0.01372
  31 3   O  1S         -0.19457   0.07876   0.00000   0.00000   0.05083
  32        2S          0.42870  -0.18875   0.00000   0.00000  -0.12495
  33        2PX         0.00000   0.00000   0.00000   0.00000   0.00000
  34        2PY         0.00000   0.00000   0.26243   0.31062   0.00000
  35        2PZ        -0.12091  -0.04261   0.00000   0.00000  -0.01635
  36        3S          0.42404  -0.19721   0.00000   0.00000  -0.15212
  37        3PX         0.00000   0.00000   0.00000   0.00000   0.00000
  38        3PY         0.00000   0.00000   0.12372   0.14015   0.00000
  39        3PZ        -0.06478  -0.02972   0.00000   0.00000  -0.02276
  40        4XX        -0.01138  -0.00313   0.00000   0.00000  -0.00189
  41        4YY         0.00429  -0.00482   0.00000   0.00000   0.01023
  42        4ZZ         0.00607   0.00955   0.00000   0.00000   0.00046
  43        4XY         0.00000   0.00000   0.00000   0.00000   0.00000
  44        4XZ         0.00000   0.00000   0.00000   0.00000   0.00000
  45        4YZ         0.00000   0.00000  -0.02134  -0.01018   0.00000
  46 4   C  1S         -0.07282  -0.05375   0.13692   0.01320  -0.10283
  47        2S          0.13459   0.10570  -0.27837  -0.02992   0.21497
  48        2PX         0.00000   0.00000   0.00000   0.00000   0.00000
  49        2PY         0.09813   0.00787  -0.01868  -0.04520  -0.16703
  50        2PZ         0.04673  -0.13818  -0.01108  -0.23479   0.00075
  51        3S          0.02467   0.06350  -0.19885  -0.00163   0.19123
  52        3PX         0.00000   0.00000   0.00000   0.00000   0.00000
  53        3PY        -0.02318  -0.00167   0.01822   0.00244  -0.06722
  54        3PZ         0.00387  -0.01560   0.00567  -0.06528   0.01179
  55        4XX        -0.01198  -0.00484   0.01542   0.00455  -0.00738
  56        4YY         0.01419  -0.00307   0.00200  -0.00786  -0.00064
  57        4ZZ        -0.00101   0.00369  -0.00469   0.00265  -0.00520
  58        4XY         0.00000   0.00000   0.00000   0.00000   0.00000
  59        4XZ         0.00000   0.00000   0.00000   0.00000   0.00000
  60        4YZ         0.01315  -0.01607  -0.00138  -0.01254  -0.01372
  61 5   C  1S         -0.02501  -0.14005   0.06555  -0.10170   0.04606
  62        2S          0.04535   0.26960  -0.13036   0.20804  -0.09583
  63        2PX         0.00000   0.00000   0.00000   0.00000   0.00000
  64        2PY         0.01184   0.06592   0.06688  -0.12609  -0.13320
  65        2PZ         0.03443   0.05495  -0.07100   0.00309   0.13221
  66        3S          0.03017   0.18912  -0.09422   0.14612  -0.08181
  67        3PX         0.00000   0.00000   0.00000   0.00000   0.00000
  68        3PY         0.00807   0.00670   0.00522  -0.05615  -0.02794
  69        3PZ         0.01298   0.00443   0.00300  -0.03871   0.04874
  70        4XX        -0.00342  -0.01516   0.00618  -0.00827   0.00386
  71        4YY        -0.00042   0.00628   0.00814  -0.00835  -0.00602
  72        4ZZ         0.00464   0.00094  -0.00854   0.00463   0.00548
  73        4XY         0.00000   0.00000   0.00000   0.00000   0.00000
  74        4XZ         0.00000   0.00000   0.00000   0.00000   0.00000
  75        4YZ         0.00116   0.00529   0.00276   0.00447  -0.00752
  76 6   H  1S          0.00435   0.06117  -0.03877   0.11859  -0.05401
  77        2S          0.00280   0.00874  -0.00572   0.03971  -0.02183
  78 7   H  1S          0.01636   0.01384  -0.09049  -0.03952   0.16571
  79        2S         -0.00974  -0.00056  -0.01811  -0.01615   0.07710
  80 8   H  1S          0.01636   0.01384   0.09049   0.03952   0.16571
  81        2S         -0.00974  -0.00056   0.01811   0.01615   0.07710
  82 9   H  1S          0.00435   0.06117   0.03877  -0.11859  -0.05401
  83        2S          0.00280   0.00874   0.00572  -0.03971  -0.02183
                          11        12        13        14        15
                        (A1)--O   (B1)--O   (B2)--O   (B2)--O   (A1)--O
     Eigenvalues --    -0.53795  -0.44289  -0.44278  -0.40820  -0.39366
   1 1   C  1S         -0.03612   0.00000  -0.04005   0.00135   0.01985
   2        2S          0.07361   0.00000   0.07984   0.00614  -0.04917
   3        2PX         0.00000   0.12468   0.00000   0.00000   0.00000
   4        2PY         0.07600   0.00000   0.03333  -0.04510   0.36393
   5        2PZ        -0.22031   0.00000  -0.07321   0.30021  -0.04799
   6        3S          0.09012   0.00000   0.15030  -0.04403  -0.06170
   7        3PX         0.00000   0.05871   0.00000   0.00000   0.00000
   8        3PY         0.03076   0.00000  -0.00496  -0.00926   0.10777
   9        3PZ        -0.07288   0.00000  -0.00345   0.04810   0.00213
  10        4XX        -0.00195   0.00000  -0.00370   0.00131   0.00017
  11        4YY         0.00506   0.00000  -0.00628  -0.01053  -0.00969
  12        4ZZ        -0.00246   0.00000   0.00593   0.00277   0.01585
  13        4XY         0.00000  -0.00408   0.00000   0.00000   0.00000
  14        4XZ         0.00000   0.00917   0.00000   0.00000   0.00000
  15        4YZ         0.00188   0.00000  -0.01256   0.02001  -0.00588
  16 2   C  1S          0.00844   0.00000   0.03020  -0.03796  -0.00710
  17        2S         -0.01962   0.00000  -0.05620   0.08721   0.02061
  18        2PX         0.00000   0.21714   0.00000   0.00000   0.00000
  19        2PY         0.17841   0.00000  -0.28601  -0.14995  -0.10122
  20        2PZ         0.10057   0.00000   0.03178  -0.22732  -0.06975
  21        3S          0.01782   0.00000  -0.10179   0.12450  -0.00874
  22        3PX         0.00000   0.11481   0.00000   0.00000   0.00000
  23        3PY         0.03944   0.00000  -0.07136  -0.04362   0.00958
  24        3PZ         0.03483   0.00000   0.03442  -0.08339  -0.04789
  25        4XX         0.00205   0.00000  -0.00063  -0.00127  -0.00129
  26        4YY        -0.00797   0.00000  -0.00867  -0.01131  -0.00025
  27        4ZZ         0.00860   0.00000   0.01017  -0.00043  -0.00372
  28        4XY         0.00000  -0.01869   0.00000   0.00000   0.00000
  29        4XZ         0.00000   0.00598   0.00000   0.00000   0.00000
  30        4YZ        -0.00225   0.00000  -0.02616   0.00256  -0.01835
  31 3   O  1S         -0.04417   0.00000   0.00000   0.00000   0.00550
  32        2S          0.10487   0.00000   0.00000   0.00000  -0.01320
  33        2PX         0.00000   0.48021   0.00000   0.00000   0.00000
  34        2PY         0.00000   0.00000   0.33824  -0.02727   0.00000
  35        2PZ         0.25549   0.00000   0.00000   0.00000  -0.26729
  36        3S          0.13746   0.00000   0.00000   0.00000   0.03235
  37        3PX         0.00000   0.30170   0.00000   0.00000   0.00000
  38        3PY         0.00000   0.00000   0.17073  -0.01430   0.00000
  39        3PZ         0.15333   0.00000   0.00000   0.00000  -0.18269
  40        4XX         0.00568   0.00000   0.00000   0.00000  -0.00426
  41        4YY         0.01417   0.00000   0.00000   0.00000  -0.01081
  42        4ZZ        -0.02371   0.00000   0.00000   0.00000   0.01289
  43        4XY         0.00000   0.00000   0.00000   0.00000   0.00000
  44        4XZ         0.00000  -0.02807   0.00000   0.00000   0.00000
  45        4YZ         0.00000   0.00000  -0.01352  -0.01002   0.00000
  46 4   C  1S          0.00844   0.00000  -0.03020   0.03796  -0.00710
  47        2S         -0.01962   0.00000   0.05620  -0.08721   0.02061
  48        2PX         0.00000   0.21714   0.00000   0.00000   0.00000
  49        2PY        -0.17841   0.00000  -0.28601  -0.14995   0.10122
  50        2PZ         0.10057   0.00000  -0.03178   0.22732  -0.06975
  51        3S          0.01782   0.00000   0.10179  -0.12450  -0.00874
  52        3PX         0.00000   0.11481   0.00000   0.00000   0.00000
  53        3PY        -0.03944   0.00000  -0.07136  -0.04362  -0.00958
  54        3PZ         0.03483   0.00000  -0.03442   0.08339  -0.04789
  55        4XX         0.00205   0.00000   0.00063   0.00127  -0.00129
  56        4YY        -0.00797   0.00000   0.00867   0.01131  -0.00025
  57        4ZZ         0.00860   0.00000  -0.01017   0.00043  -0.00372
  58        4XY         0.00000   0.01869   0.00000   0.00000   0.00000
  59        4XZ         0.00000   0.00598   0.00000   0.00000   0.00000
  60        4YZ         0.00225   0.00000  -0.02616   0.00256   0.01835
  61 5   C  1S         -0.03612   0.00000   0.04005  -0.00135   0.01985
  62        2S          0.07361   0.00000  -0.07984  -0.00614  -0.04917
  63        2PX         0.00000   0.12468   0.00000   0.00000   0.00000
  64        2PY        -0.07600   0.00000   0.03333  -0.04510  -0.36393
  65        2PZ        -0.22031   0.00000   0.07321  -0.30021  -0.04799
  66        3S          0.09012   0.00000  -0.15030   0.04403  -0.06170
  67        3PX         0.00000   0.05871   0.00000   0.00000   0.00000
  68        3PY        -0.03076   0.00000  -0.00496  -0.00926  -0.10777
  69        3PZ        -0.07288   0.00000   0.00345  -0.04810   0.00213
  70        4XX        -0.00195   0.00000   0.00370  -0.00131   0.00017
  71        4YY         0.00506   0.00000   0.00628   0.01053  -0.00969
  72        4ZZ        -0.00246   0.00000  -0.00593  -0.00277   0.01585
  73        4XY         0.00000   0.00408   0.00000   0.00000   0.00000
  74        4XZ         0.00000   0.00917   0.00000   0.00000   0.00000
  75        4YZ        -0.00188   0.00000  -0.01256   0.02001   0.00588
  76 6   H  1S          0.14127   0.00000  -0.09677   0.17969   0.14986
  77        2S          0.07940   0.00000  -0.07629   0.17696   0.15314
  78 7   H  1S          0.08926   0.00000   0.18811   0.10455  -0.08108
  79        2S          0.05847   0.00000   0.15883   0.10477  -0.09083
  80 8   H  1S          0.08926   0.00000  -0.18811  -0.10455  -0.08108
  81        2S          0.05847   0.00000  -0.15883  -0.10477  -0.09083
  82 9   H  1S          0.14127   0.00000   0.09677  -0.17969   0.14986
  83        2S          0.07940   0.00000   0.07629  -0.17696   0.15314
                          16        17        18        19        20
                        (A1)--O   (B1)--O   (A2)--O   (B1)--V   (A2)--V
     Eigenvalues --    -0.36667  -0.27380  -0.22502   0.02115   0.08045
   1 1   C  1S         -0.01654   0.00000   0.00000   0.00000   0.00000
   2        2S          0.03097   0.00000   0.00000   0.00000   0.00000
   3        2PX         0.00000  -0.33569   0.22515  -0.19881   0.39020
   4        2PY         0.13946   0.00000   0.00000   0.00000   0.00000
   5        2PZ         0.19450   0.00000   0.00000   0.00000   0.00000
   6        3S          0.09733   0.00000   0.00000   0.00000   0.00000
   7        3PX         0.00000  -0.23397   0.16835  -0.27813   0.65166
   8        3PY         0.07709   0.00000   0.00000   0.00000   0.00000
   9        3PZ         0.09602   0.00000   0.00000   0.00000   0.00000
  10        4XX        -0.00136   0.00000   0.00000   0.00000   0.00000
  11        4YY        -0.00385   0.00000   0.00000   0.00000   0.00000
  12        4ZZ         0.00300   0.00000   0.00000   0.00000   0.00000
  13        4XY         0.00000   0.01058   0.01337   0.01653   0.01695
  14        4XZ         0.00000  -0.00534   0.01381   0.02163  -0.01033
  15        4YZ         0.00105   0.00000   0.00000   0.00000   0.00000
  16 2   C  1S          0.01240   0.00000   0.00000   0.00000   0.00000
  17        2S         -0.03115   0.00000   0.00000   0.00000   0.00000
  18        2PX         0.00000  -0.08734   0.37604   0.36971  -0.25147
  19        2PY         0.01609   0.00000   0.00000   0.00000   0.00000
  20        2PZ        -0.24560   0.00000   0.00000   0.00000   0.00000
  21        3S         -0.06421   0.00000   0.00000   0.00000   0.00000
  22        3PX         0.00000  -0.04145   0.27761   0.46958  -0.40937
  23        3PY         0.01626   0.00000   0.00000   0.00000   0.00000
  24        3PZ        -0.02131   0.00000   0.00000   0.00000   0.00000
  25        4XX         0.00362   0.00000   0.00000   0.00000   0.00000
  26        4YY        -0.02376   0.00000   0.00000   0.00000   0.00000
  27        4ZZ         0.01456   0.00000   0.00000   0.00000   0.00000
  28        4XY         0.00000  -0.00534  -0.00079   0.01550  -0.00425
  29        4XZ         0.00000   0.02283  -0.00701   0.00087  -0.02685
  30        4YZ        -0.00014   0.00000   0.00000   0.00000   0.00000
  31 3   O  1S         -0.05705   0.00000   0.00000   0.00000   0.00000
  32        2S          0.10942   0.00000   0.00000   0.00000   0.00000
  33        2PX         0.00000   0.37187   0.00000  -0.33771   0.00000
  34        2PY         0.00000   0.00000   0.00000   0.00000   0.00000
  35        2PZ         0.46119   0.00000   0.00000   0.00000   0.00000
  36        3S          0.27327   0.00000   0.00000   0.00000   0.00000
  37        3PX         0.00000   0.28005   0.00000  -0.36850   0.00000
  38        3PY         0.00000   0.00000   0.00000   0.00000   0.00000
  39        3PZ         0.28358   0.00000   0.00000   0.00000   0.00000
  40        4XX        -0.00090   0.00000   0.00000   0.00000   0.00000
  41        4YY        -0.00708   0.00000   0.00000   0.00000   0.00000
  42        4ZZ        -0.02237   0.00000   0.00000   0.00000   0.00000
  43        4XY         0.00000   0.00000   0.02055   0.00000  -0.02445
  44        4XZ         0.00000  -0.00894   0.00000  -0.00072   0.00000
  45        4YZ         0.00000   0.00000   0.00000   0.00000   0.00000
  46 4   C  1S          0.01240   0.00000   0.00000   0.00000   0.00000
  47        2S         -0.03115   0.00000   0.00000   0.00000   0.00000
  48        2PX         0.00000  -0.08734  -0.37604   0.36971   0.25147
  49        2PY        -0.01609   0.00000   0.00000   0.00000   0.00000
  50        2PZ        -0.24560   0.00000   0.00000   0.00000   0.00000
  51        3S         -0.06421   0.00000   0.00000   0.00000   0.00000
  52        3PX         0.00000  -0.04145  -0.27761   0.46958   0.40937
  53        3PY        -0.01626   0.00000   0.00000   0.00000   0.00000
  54        3PZ        -0.02131   0.00000   0.00000   0.00000   0.00000
  55        4XX         0.00362   0.00000   0.00000   0.00000   0.00000
  56        4YY        -0.02376   0.00000   0.00000   0.00000   0.00000
  57        4ZZ         0.01456   0.00000   0.00000   0.00000   0.00000
  58        4XY         0.00000   0.00534  -0.00079  -0.01550  -0.00425
  59        4XZ         0.00000   0.02283   0.00701   0.00087   0.02685
  60        4YZ         0.00014   0.00000   0.00000   0.00000   0.00000
  61 5   C  1S         -0.01654   0.00000   0.00000   0.00000   0.00000
  62        2S          0.03097   0.00000   0.00000   0.00000   0.00000
  63        2PX         0.00000  -0.33569  -0.22515  -0.19881  -0.39020
  64        2PY        -0.13946   0.00000   0.00000   0.00000   0.00000
  65        2PZ         0.19450   0.00000   0.00000   0.00000   0.00000
  66        3S          0.09733   0.00000   0.00000   0.00000   0.00000
  67        3PX         0.00000  -0.23397  -0.16835  -0.27813  -0.65166
  68        3PY        -0.07709   0.00000   0.00000   0.00000   0.00000
  69        3PZ         0.09602   0.00000   0.00000   0.00000   0.00000
  70        4XX        -0.00136   0.00000   0.00000   0.00000   0.00000
  71        4YY        -0.00385   0.00000   0.00000   0.00000   0.00000
  72        4ZZ         0.00300   0.00000   0.00000   0.00000   0.00000
  73        4XY         0.00000  -0.01058   0.01337  -0.01653   0.01695
  74        4XZ         0.00000  -0.00534  -0.01381   0.02163   0.01033
  75        4YZ        -0.00105   0.00000   0.00000   0.00000   0.00000
  76 6   H  1S         -0.03030   0.00000   0.00000   0.00000   0.00000
  77        2S         -0.03722   0.00000   0.00000   0.00000   0.00000
  78 7   H  1S         -0.09598   0.00000   0.00000   0.00000   0.00000
  79        2S         -0.09616   0.00000   0.00000   0.00000   0.00000
  80 8   H  1S         -0.09598   0.00000   0.00000   0.00000   0.00000
  81        2S         -0.09616   0.00000   0.00000   0.00000   0.00000
  82 9   H  1S         -0.03030   0.00000   0.00000   0.00000   0.00000
  83        2S         -0.03722   0.00000   0.00000   0.00000   0.00000
                          21        22        23        24        25
                        (A1)--V   (A1)--V   (B2)--V   (B2)--V   (A1)--V
     Eigenvalues --     0.11917   0.14299   0.15695   0.16802   0.19738
   1 1   C  1S          0.03748  -0.03368   0.04710  -0.08276   0.04443
   2        2S         -0.05422   0.07724  -0.12278   0.16341  -0.04301
   3        2PX         0.00000   0.00000   0.00000   0.00000   0.00000
   4        2PY        -0.09146   0.04214   0.04750   0.07743  -0.18167
   5        2PZ         0.18087  -0.07052  -0.03478  -0.18166   0.03577
   6        3S         -0.66439   0.35535   0.07397   0.88981  -1.17381
   7        3PX         0.00000   0.00000   0.00000   0.00000   0.00000
   8        3PY        -0.22017   0.25766  -0.29068   0.52188  -0.67343
   9        3PZ         0.38742  -0.25867   0.34944  -1.05518   0.10187
  10        4XX        -0.00160  -0.00214  -0.00292   0.00224  -0.00127
  11        4YY        -0.00056   0.01119   0.02156  -0.00865   0.01167
  12        4ZZ         0.00784  -0.00720  -0.00454  -0.00899   0.00135
  13        4XY         0.00000   0.00000   0.00000   0.00000   0.00000
  14        4XZ         0.00000   0.00000   0.00000   0.00000   0.00000
  15        4YZ        -0.02493   0.00737   0.00534  -0.00664   0.01897
  16 2   C  1S          0.04530   0.08473  -0.05718   0.00678  -0.01038
  17        2S         -0.07815  -0.13778   0.12102  -0.04050   0.03196
  18        2PX         0.00000   0.00000   0.00000   0.00000   0.00000
  19        2PY        -0.16581   0.02335   0.24079   0.10297   0.22531
  20        2PZ        -0.04284  -0.16754   0.08260   0.06798  -0.14227
  21        3S         -0.69873  -1.03991   0.68286   0.57362   0.31261
  22        3PX         0.00000   0.00000   0.00000   0.00000   0.00000
  23        3PY        -0.33678  -0.14284   1.05882  -0.13540   0.92015
  24        3PZ        -0.10547  -0.57254   0.33996   0.13048  -0.70182
  25        4XX         0.00002  -0.00548   0.00389  -0.00229  -0.00769
  26        4YY         0.01180   0.02138  -0.00086   0.00301   0.01004
  27        4ZZ         0.00006  -0.00085  -0.01071   0.01631  -0.01577
  28        4XY         0.00000   0.00000   0.00000   0.00000   0.00000
  29        4XZ         0.00000   0.00000   0.00000   0.00000   0.00000
  30        4YZ         0.01633  -0.01734  -0.00619  -0.00229  -0.00397
  31 3   O  1S          0.00879  -0.08760   0.00000   0.00000  -0.09587
  32        2S         -0.04191   0.15406   0.00000   0.00000   0.08830
  33        2PX         0.00000   0.00000   0.00000   0.00000   0.00000
  34        2PY         0.00000   0.00000  -0.01235   0.00959   0.00000
  35        2PZ         0.07762  -0.18514   0.00000   0.00000  -0.06601
  36        3S         -0.05224   0.99276   0.00000   0.00000   1.60187
  37        3PX         0.00000   0.00000   0.00000   0.00000   0.00000
  38        3PY         0.00000   0.00000   0.02880  -0.14805   0.00000
  39        3PZ         0.13457  -0.27123   0.00000   0.00000  -0.40457
  40        4XX        -0.00876  -0.02855   0.00000   0.00000  -0.05259
  41        4YY        -0.01533  -0.03913   0.00000   0.00000  -0.04295
  42        4ZZ         0.00389  -0.01244   0.00000   0.00000  -0.03450
  43        4XY         0.00000   0.00000   0.00000   0.00000   0.00000
  44        4XZ         0.00000   0.00000   0.00000   0.00000   0.00000
  45        4YZ         0.00000   0.00000  -0.00817   0.01952   0.00000
  46 4   C  1S          0.04530   0.08473   0.05718  -0.00678  -0.01038
  47        2S         -0.07815  -0.13778  -0.12102   0.04050   0.03196
  48        2PX         0.00000   0.00000   0.00000   0.00000   0.00000
  49        2PY         0.16581  -0.02335   0.24079   0.10297  -0.22531
  50        2PZ        -0.04284  -0.16754  -0.08260  -0.06798  -0.14227
  51        3S         -0.69873  -1.03991  -0.68286  -0.57362   0.31261
  52        3PX         0.00000   0.00000   0.00000   0.00000   0.00000
  53        3PY         0.33678   0.14284   1.05882  -0.13540  -0.92015
  54        3PZ        -0.10547  -0.57254  -0.33996  -0.13048  -0.70182
  55        4XX         0.00002  -0.00548  -0.00389   0.00229  -0.00769
  56        4YY         0.01180   0.02138   0.00086  -0.00301   0.01004
  57        4ZZ         0.00006  -0.00085   0.01071  -0.01631  -0.01577
  58        4XY         0.00000   0.00000   0.00000   0.00000   0.00000
  59        4XZ         0.00000   0.00000   0.00000   0.00000   0.00000
  60        4YZ        -0.01633   0.01734  -0.00619  -0.00229   0.00397
  61 5   C  1S          0.03748  -0.03368  -0.04710   0.08276   0.04443
[...]
  64        2PY         0.00201   0.00000   0.00741   0.00419  -0.00006
  65        2PZ         0.03518   0.00000   0.00062   0.01048  -0.00074
  66        3S         -0.01096   0.00000   0.00246   0.00108  -0.00047
  67        3PX         0.00000   0.07270   0.00000   0.00000   0.00000
  68        3PY        -0.00010   0.00000   0.00619   0.00287   0.00008
  69        3PZ         0.00949   0.00000  -0.00017   0.00013  -0.00047
  70        4XX        -0.00051   0.00000  -0.00005  -0.00049   0.00002
  71        4YY        -0.00140   0.00000  -0.00007  -0.00159   0.00001
  72        4ZZ         0.00151   0.00000  -0.00007   0.00094  -0.00006
  73        4XY         0.00000   0.00025   0.00000   0.00000   0.00000
  74        4XZ         0.00000   0.00157   0.00000   0.00000   0.00000
  75        4YZ         0.00049   0.00000   0.00016   0.00008  -0.00001
  76 6   H  1S         -0.00378   0.00000   0.00021  -0.00261   0.00000
  77        2S         -0.01482   0.00000   0.00051  -0.00862   0.00002
  78 7   H  1S          0.05030   0.00000   0.02973   0.00720  -0.00070
  79        2S          0.04158   0.00000   0.02173   0.00723  -0.00050
  80 8   H  1S          0.00017   0.00000   0.00028   0.00004   0.00000
  81        2S          0.00160   0.00000   0.00278   0.00020   0.00000
  82 9   H  1S          0.00016   0.00000  -0.00004   0.00027   0.00000
  83        2S          0.00236   0.00000  -0.00005   0.00264   0.00000
                          56        57        58        59        60
  56        4YY         0.00237
  57        4ZZ        -0.00031   0.00111
  58        4XY         0.00000   0.00000   0.00076
  59        4XZ         0.00000   0.00000   0.00000   0.00121
  60        4YZ         0.00000   0.00000   0.00000   0.00000   0.00362
  61 5   C  1S          0.00002  -0.00025   0.00000   0.00000  -0.00008
  62        2S         -0.00089   0.00290   0.00000   0.00000   0.00077
  63        2PX         0.00000   0.00000   0.00007   0.00292   0.00000
  64        2PY         0.00008   0.00046   0.00000   0.00000   0.00120
  65        2PZ        -0.00187   0.00005   0.00000   0.00000   0.00202
  66        3S         -0.00276   0.00400   0.00000   0.00000   0.00001
  67        3PX         0.00000   0.00000   0.00000   0.00190   0.00000
  68        3PY        -0.00037   0.00031   0.00000   0.00000   0.00023
  69        3PZ        -0.00155   0.00025   0.00000   0.00000   0.00003
  70        4XX         0.00001  -0.00006   0.00000   0.00000  -0.00002
  71        4YY         0.00003  -0.00001   0.00000   0.00000  -0.00002
  72        4ZZ        -0.00005   0.00004   0.00000   0.00000  -0.00016
  73        4XY         0.00000   0.00000   0.00000  -0.00003   0.00000
  74        4XZ         0.00000   0.00000   0.00003   0.00009   0.00000
  75        4YZ         0.00001  -0.00006   0.00000   0.00000  -0.00015
  76 6   H  1S          0.00000   0.00006   0.00000   0.00000   0.00002
  77        2S          0.00016   0.00017   0.00000   0.00000   0.00013
  78 7   H  1S          0.00365  -0.00106   0.00000   0.00000   0.00372
  79        2S          0.00361  -0.00187   0.00000   0.00000   0.00072
  80 8   H  1S          0.00000   0.00000   0.00000   0.00000   0.00000
  81        2S         -0.00003   0.00001   0.00000   0.00000   0.00000
  82 9   H  1S          0.00000   0.00000   0.00000   0.00000   0.00000
  83        2S         -0.00001  -0.00002   0.00000   0.00000  -0.00002
                          61        62        63        64        65
  61 5   C  1S          2.05238
  62        2S         -0.01350   0.32379
  63        2PX         0.00000   0.00000   0.35786
  64        2PY         0.00000   0.00000   0.00000   0.40683
  65        2PZ         0.00000   0.00000   0.00000   0.00000   0.42178
  66        3S         -0.03046   0.20527   0.00000   0.00000   0.00000
  67        3PX         0.00000   0.00000   0.14103   0.00000   0.00000
  68        3PY         0.00000   0.00000   0.00000   0.07321   0.00000
  69        3PZ         0.00000   0.00000   0.00000   0.00000   0.06395
  70        4XX        -0.00089  -0.01151   0.00000   0.00000   0.00000
  71        4YY        -0.00144  -0.00121   0.00000   0.00000   0.00000
  72        4ZZ        -0.00158   0.00168   0.00000   0.00000   0.00000
  73        4XY         0.00000   0.00000   0.00000   0.00000   0.00000
  74        4XZ         0.00000   0.00000   0.00000   0.00000   0.00000
  75        4YZ         0.00000   0.00000   0.00000   0.00000   0.00000
  76 6   H  1S         -0.00223   0.03406   0.00000   0.03612   0.06355
  77        2S         -0.00158   0.01523   0.00000   0.02228   0.03913
  78 7   H  1S          0.00000  -0.00016   0.00000  -0.00020  -0.00040
  79        2S          0.00020  -0.00297   0.00000  -0.00381  -0.00561
  80 8   H  1S          0.00000   0.00000   0.00000   0.00000   0.00000
  81        2S          0.00000   0.00017   0.00000   0.00052   0.00001
  82 9   H  1S          0.00000  -0.00011   0.00000  -0.00039  -0.00008
  83        2S          0.00014  -0.00213   0.00000  -0.00648  -0.00170
                          66        67        68        69        70
  66        3S          0.23996
  67        3PX         0.00000   0.17306
  68        3PY         0.00000   0.00000   0.04541
  69        3PZ         0.00000   0.00000   0.00000   0.04193
  70        4XX        -0.00735   0.00000   0.00000   0.00000   0.00095
  71        4YY         0.00006   0.00000   0.00000   0.00000   0.00006
  72        4ZZ         0.00174   0.00000   0.00000   0.00000  -0.00002
  73        4XY         0.00000   0.00000   0.00000   0.00000   0.00000
  74        4XZ         0.00000   0.00000   0.00000   0.00000   0.00000
  75        4YZ         0.00000   0.00000   0.00000   0.00000   0.00000
  76 6   H  1S          0.04599   0.00000   0.01520   0.02367  -0.00077
  77        2S          0.03298   0.00000   0.01332   0.01877  -0.00085
  78 7   H  1S         -0.00329   0.00000  -0.00174  -0.00284   0.00000
  79        2S         -0.01153   0.00000  -0.00566  -0.00875   0.00009
  80 8   H  1S          0.00010   0.00000   0.00022  -0.00007   0.00000
  81        2S          0.00120   0.00000   0.00242  -0.00068   0.00000
  82 9   H  1S         -0.00306   0.00000  -0.00242   0.00018   0.00000
  83        2S         -0.01254   0.00000  -0.00841  -0.00009   0.00006
                          71        72        73        74        75
  71        4YY         0.00117
  72        4ZZ        -0.00020   0.00108
  73        4XY         0.00000   0.00000   0.00061
  74        4XZ         0.00000   0.00000   0.00000   0.00061
  75        4YZ         0.00000   0.00000   0.00000   0.00000   0.00142
  76 6   H  1S          0.00003   0.00182   0.00000   0.00000   0.00381
  77        2S          0.00019   0.00180   0.00000   0.00000   0.00076
  78 7   H  1S          0.00002  -0.00002   0.00000   0.00000   0.00004
  79        2S          0.00048  -0.00049   0.00000   0.00000   0.00010
  80 8   H  1S          0.00000   0.00000   0.00000   0.00000   0.00000
  81        2S         -0.00002   0.00000   0.00000   0.00000  -0.00001
  82 9   H  1S          0.00000   0.00000   0.00000   0.00000   0.00004
  83        2S         -0.00035   0.00023   0.00000   0.00000   0.00024
                          76        77        78        79        80
  76 6   H  1S          0.21446
  77        2S          0.10682   0.14090
  78 7   H  1S          0.00000  -0.00008   0.21548
  79        2S         -0.00018  -0.00035   0.10207   0.12751
  80 8   H  1S          0.00000   0.00000   0.00000   0.00000   0.21548
  81        2S          0.00000  -0.00012   0.00000  -0.00016   0.10207
  82 9   H  1S          0.00000  -0.00028   0.00000   0.00000   0.00000
  83        2S         -0.00028  -0.00162   0.00000  -0.00012  -0.00008
                          81        82        83
  81        2S          0.12751
  82 9   H  1S         -0.00018   0.21446
  83        2S         -0.00035   0.10682   0.14090
     Gross orbital populations:
                           1
   1 1   C  1S          1.99181
   2        2S          0.70414
   3        2PX         0.60678
   4        2PY         0.73439
   5        2PZ         0.76109
   6        3S          0.52078
   7        3PX         0.45583
   8        3PY         0.19582
   9        3PZ         0.19317
  10        4XX        -0.02474
  11        4YY         0.00399
  12        4ZZ         0.01065
  13        4XY         0.00515
  14        4XZ         0.00484
  15        4YZ         0.01222
  16 2   C  1S          1.99171
  17        2S          0.71083
  18        2PX         0.64022
  19        2PY         0.66970
  20        2PZ         0.72883
  21        3S          0.45102
  22        3PX         0.43171
  23        3PY         0.12252
  24        3PZ         0.13784
  25        4XX        -0.02606
  26        4YY         0.01672
  27        4ZZ         0.00292
  28        4XY         0.00562
  29        4XZ         0.00991
  30        4YZ         0.02670
  31 3   O  1S          1.99232
  32        2S          0.91206
  33        2PX         1.02347
  34        2PY         0.85025
  35        2PZ         1.04276
  36        3S          0.95765
  37        3PX         0.64260
  38        3PY         0.37703
  39        3PZ         0.57044
  40        4XX        -0.01075
  41        4YY         0.01193
  42        4ZZ        -0.00327
  43        4XY         0.00833
  44        4XZ         0.00548
  45        4YZ         0.01355
  46 4   C  1S          1.99171
  47        2S          0.71083
  48        2PX         0.64022
  49        2PY         0.66970
  50        2PZ         0.72883
  51        3S          0.45102
  52        3PX         0.43171
  53        3PY         0.12252
  54        3PZ         0.13784
  55        4XX        -0.02606
  56        4YY         0.01672
  57        4ZZ         0.00292
  58        4XY         0.00562
  59        4XZ         0.00991
  60        4YZ         0.02670
  61 5   C  1S          1.99181
  62        2S          0.70414
  63        2PX         0.60678
  64        2PY         0.73439
  65        2PZ         0.76109
  66        3S          0.52078
  67        3PX         0.45583
  68        3PY         0.19582
  69        3PZ         0.19317
  70        4XX        -0.02474
  71        4YY         0.00399
  72        4ZZ         0.01065
  73        4XY         0.00515
  74        4XZ         0.00484
  75        4YZ         0.01222
  76 6   H  1S          0.52986
  77        2S          0.33102
  78 7   H  1S          0.53140
  79        2S          0.31470
  80 8   H  1S          0.53140
  81        2S          0.31470
  82 9   H  1S          0.52986
  83        2S          0.33102
          Condensed to atoms (all electrons):
               1          2          3          4          5          6
     1  C    4.906563   0.595275  -0.058588  -0.054135   0.503064  -0.036869
     2  C    0.595275   4.825642   0.322638  -0.116612  -0.054135   0.006164
     3  O   -0.058588   0.322638   7.938568   0.322638  -0.058588   0.003543
     4  C   -0.054135  -0.116612   0.322638   4.825642   0.595275  -0.041293
     5  C    0.503064  -0.054135  -0.058588   0.595275   4.906563   0.363281
     6  H   -0.036869   0.006164   0.003543  -0.041293   0.363281   0.568987
     7  H    0.003847   0.006066  -0.039947   0.376447  -0.046542  -0.000614
     8  H   -0.046542   0.376447  -0.039947   0.006066   0.003847  -0.000126
     9  H    0.363281  -0.041293   0.003543   0.006164  -0.036869  -0.002186
               7          8          9
     1  C    0.003847  -0.046542   0.363281
     2  C    0.006066   0.376447  -0.041293
     3  O   -0.039947  -0.039947   0.003543
     4  C    0.376447   0.006066   0.006164
     5  C   -0.046542   0.003847  -0.036869
     6  H   -0.000614  -0.000126  -0.002186
     7  H    0.547134  -0.000167  -0.000126
     8  H   -0.000167   0.547134  -0.000614
     9  H   -0.000126  -0.000614   0.568987
 Mulliken charges:
               1
     1  C   -0.175896
     2  C    0.079809
     3  O   -0.393858
     4  C    0.079809
     5  C   -0.175896
     6  H    0.139113
     7  H    0.153903
     8  H    0.153903
     9  H    0.139113
 Sum of Mulliken charges =   0.00000
 Mulliken charges with hydrogens summed into heavy atoms:
               1
     1  C   -0.036783
     2  C    0.233712
     3  O   -0.393858
     4  C    0.233712
     5  C   -0.036783
 Electronic spatial extent (au):  <R**2>=            288.6111
 Charge=              0.0000 electrons
 Dipole moment (field-independent basis, Debye):
    X=              0.0000    Y=              0.0000    Z=             -0.6285  Tot=              0.6285
 Quadrupole moment (field-independent basis, Debye-Ang):
   XX=            -30.9747   YY=            -23.6845   ZZ=            -27.6489
   XY=              0.0000   XZ=              0.0000   YZ=              0.0000
 Traceless Quadrupole moment (field-independent basis, Debye-Ang):
   XX=             -3.5387   YY=              3.7515   ZZ=             -0.2128
   XY=              0.0000   XZ=              0.0000   YZ=              0.0000
 Octapole moment (field-independent basis, Debye-Ang**2):
  XXX=              0.0000  YYY=              0.0000  ZZZ=             -1.3599  XYY=              0.0000
  XXY=              0.0000  XXZ=              2.9740  XZZ=              0.0000  YZZ=              0.0000
  YYZ=              4.0702  XYZ=              0.0000
 Hexadecapole moment (field-independent basis, Debye-Ang**3):
 XXXX=            -30.2560 YYYY=           -160.3509 ZZZZ=           -160.4135 XXXY=              0.0000
 XXXZ=              0.0000 YYYX=              0.0000 YYYZ=              0.0000 ZZZX=              0.0000
 ZZZY=              0.0000 XXYY=            -38.7109 XXZZ=            -34.3217 YYZZ=            -47.4425
 XXYZ=              0.0000 YYXZ=              0.0000 ZZXY=              0.0000
 N-N= 1.612261194346D+02 E-N=-8.581348448197D+02  KE= 2.279708561715D+02
 Symmetry A1   KE= 1.429020853895D+02
 Symmetry A2   KE= 2.437796417133D+00
 Symmetry B1   KE= 6.318386606660D+00
 Symmetry B2   KE= 7.631258775817D+01
 Orbital energies and kinetic energies (alpha):
                                 1                 2
   1         (A1)--O         -19.210788         29.026231
   2         (B2)--O         -10.230045         15.881596
   3         (A1)--O         -10.230031         15.880157
   4         (A1)--O         -10.182268         15.874783
   5         (B2)--O         -10.181846         15.883534
   6         (A1)--O          -1.104997          2.491555
   7         (A1)--O          -0.794176          1.786139
   8         (B2)--O          -0.740846          1.793830
   9         (B2)--O          -0.594202          1.668922
  10         (A1)--O          -0.566524          1.458605
  11         (A1)--O          -0.537949          1.298465
  12         (B1)--O          -0.442891          1.638097
  13         (B2)--O          -0.442776          1.565695
  14         (B2)--O          -0.408205          1.362717
  15         (A1)--O          -0.393658          1.509478
  16         (A1)--O          -0.366667          2.125631
  17         (B1)--O          -0.273802          1.521096
  18         (A2)--O          -0.225021          1.218898
  19         (B1)--V           0.021146          1.751624
  20         (A2)--V           0.080451          1.453267
  21         (A1)--V           0.119174          0.992169
  22         (A1)--V           0.142988          1.610662
  23         (B2)--V           0.156946          1.070166
  24         (B2)--V           0.168020          1.061695
  25         (A1)--V           0.197377          1.457748
  26         (B2)--V           0.207537          1.975211
  27         (A1)--V           0.316263          1.442369
  28         (B2)--V           0.379671          1.295002
  29         (B2)--V           0.436380          2.549367
  30         (A1)--V           0.514730          1.599821
  31         (B1)--V           0.533041          1.989833
  32         (A1)--V           0.583167          2.974850
  33         (B2)--V           0.584124          2.385914
  34         (A2)--V           0.584605          1.971545
  35         (A1)--V           0.595197          2.121720
  36         (B1)--V           0.615220          2.123378
  37         (B2)--V           0.631951          2.257968
  38         (A1)--V           0.675668          1.984013
  39         (A2)--V           0.680545          2.235857
  40         (B2)--V           0.802763          2.487595
  41         (A1)--V           0.831477          2.704490
  42         (B2)--V           0.845549          2.868023
  43         (B2)--V           0.910079          2.457301
  44         (A1)--V           0.910116          2.488635
  45         (B1)--V           0.982752          3.512261
  46         (A1)--V           0.990468          2.207251
  47         (A1)--V           1.016460          2.681817
  48         (B2)--V           1.038786          2.648305
  49         (B2)--V           1.137849          2.503451
  50         (A1)--V           1.143267          2.298694
  51         (B1)--V           1.347182          2.505045
  52         (A2)--V           1.376615          2.534652
  53         (B2)--V           1.387566          2.792099
  54         (B1)--V           1.394340          2.535227
  55         (B2)--V           1.536570          2.655167
  56         (A2)--V           1.555389          2.785005
  57         (B1)--V           1.568418          2.736615
  58         (A1)--V           1.576541          2.985893
  59         (A1)--V           1.682699          2.859670
  60         (A1)--V           1.845273          3.273740
  61         (A1)--V           1.938977          3.494960
  62         (B2)--V           2.023301          3.645877
  63         (A1)--V           2.061513          3.651235
  64         (B2)--V           2.092224          3.926828
  65         (A2)--V           2.200131          3.407350
  66         (A1)--V           2.227437          3.849059
  67         (B1)--V           2.265410          3.496466
  68         (B2)--V           2.266214          3.607610
  69         (A2)--V           2.325742          3.566138
  70         (B1)--V           2.402373          3.637907
  71         (A2)--V           2.581272          3.832756
  72         (A1)--V           2.626291          4.482285
  73         (B2)--V           2.632274          4.321378
  74         (A1)--V           2.708855          4.758969
  75         (B2)--V           2.787805          4.697781
  76         (A1)--V           2.943474          4.490862
  77         (B2)--V           2.960207          4.771641
  78         (B2)--V           3.108336          4.815880
  79         (A1)--V           3.939888         10.687580
  80         (B2)--V           4.151655         10.167821
  81         (A1)--V           4.157693         10.529314
  82         (A1)--V           4.289115          9.963324
  83         (B2)--V           4.464615         10.225203
 Total kinetic energy from orbitals= 2.279708561715D+02
 Leave Link  601 at Mon Nov 23 16:22:10 2015, MaxMem=    33554432 cpu:         0.0
 (Enter /home/Applications/g09/g09/l9999.exe)
 1\1\GINC-DUSTIN-DESKTOP\SP\RB3LYP-FC\6-31G(d)\C4H4O1\DUSTIN\23-Nov-201
 5\0\\#P B3LYP/6-31G* CIS(Singlets,NStates=15) pop(full)\\FuranDFT\\0,1
 \C,0,0.955475,-0.715963,0.\C,0,-0.345627,-1.092818,0.\O,0,-1.157305,0.
 ,0.\C,0,-0.345627,1.092818,0.\C,0,0.955475,0.715963,0.\H,0,1.810438,1.
 369382,0.\H,0,-0.840307,2.046884,0.\H,0,-0.840307,-2.046884,0.\H,0,1.8
 10438,-1.369382,0.\\Version=ES64L-G09RevD.01\State=1-A1\HF=-230.020399
 6\RMSD=6.863e-09\PG=C02V [C2(O1),SGV(C4H4)]\\@


 Until you make peace with who you are,
 you'll never be content with what you have.
                           -- Doris Mortman
 Job cpu time:       0 days  0 hours  0 minutes 23.9 seconds.
 File lengths (MBytes):  RWF=     23 Int=      0 D2E=      0 Chk=      5 Scr=      1
 Normal termination of Gaussian 09 at Mon Nov 23 16:22:10 2015.
