 Entering Gaussian System, Link 0=g09
 Input=FuranAM1Best6.com
 Output=FuranAM1Best6.log
 Initial command:
 /home/Applications/g09/g09/l1.exe "/home/Applications/g09/scratch/Gau-20957.inp" -scrdir="/home/Applications/g09/scratch/"
 Entering Link 1 = /home/Applications/g09/g09/l1.exe PID=     20959.
  
 Copyright (c) 1988,1990,1992,1993,1995,1998,2003,2009,2013,
            Gaussian, Inc.  All Rights Reserved.
  
 This is part of the Gaussian(R) 09 program.  It is based on
 the Gaussian(R) 03 system (copyright 2003, Gaussian, Inc.),
 the Gaussian(R) 98 system (copyright 1998, Gaussian, Inc.),
 the Gaussian(R) 94 system (copyright 1995, Gaussian, Inc.),
 the Gaussian 92(TM) system (copyright 1992, Gaussian, Inc.),
 the Gaussian 90(TM) system (copyright 1990, Gaussian, Inc.),
 the Gaussian 88(TM) system (copyright 1988, Gaussian, Inc.),
 the Gaussian 86(TM) system (copyright 1986, Carnegie Mellon
 University), and the Gaussian 82(TM) system (copyright 1983,
 Carnegie Mellon University). Gaussian is a federally registered
 trademark of Gaussian, Inc.
  
 This software contains proprietary and confidential information,
 including trade secrets, belonging to Gaussian, Inc.
  
 This software is provided under written license and may be
 used, copied, transmitted, or stored only in accord with that
 written license.
  
 The following legend is applicable only to US Government
 contracts under FAR:
  
                    RESTRICTED RIGHTS LEGEND
  
 Use, reproduction and disclosure by the US Government is
 subject to restrictions as set forth in subparagraphs (a)
 and (c) of the Commercial Computer Software - Restricted
 Rights clause in FAR 52.227-19.
  
 Gaussian, Inc.
 340 Quinnipiac St., Bldg. 40, Wallingford CT 06492
  
  
 ---------------------------------------------------------------
 Warning -- This program may not be used in any manner that
 competes with the business of Gaussian, Inc. or will provide
 assistance to any competitor of Gaussian, Inc.  The licensee
 of this program is prohibited from giving any competitor of
 Gaussian, Inc. access to this program.  By using this program,
 the user acknowledges that Gaussian, Inc. is engaged in the
 business of creating and licensing software in the field of
 computational chemistry and represents and warrants to the
 licensee that it is not a competitor of Gaussian, Inc. and that
 it will not use this program in any manner prohibited above.
 ---------------------------------------------------------------
  

 Cite this work as:
 Gaussian 09, Revision D.01,
 M. J. Frisch, G. W. Trucks, H. B. Schlegel, G. E. Scuseria, 
 M. A. Robb, J. R. Cheeseman, G. Scalmani, V. Barone, B. Mennucci, 
 G. A. Petersson, H. Nakatsuji, M. Caricato, X. Li, H. P. Hratchian, 
 A. F. Izmaylov, J. Bloino, G. Zheng, J. L. Sonnenberg, M. Hada, 
 M. Ehara, K. Toyota, R. Fukuda, J. Hasegawa, M. Ishida, T. Nakajima, 
 Y. Honda, O. Kitao, H. Nakai, T. Vreven, J. A. Montgomery, Jr., 
 J. E. Peralta, F. Ogliaro, M. Bearpark, J. J. Heyd, E. Brothers, 
 K. N. Kudin, V. N. Staroverov, T. Keith, R. Kobayashi, J. Normand, 
 K. Raghavachari, A. Rendell, J. C. Burant, S. S. Iyengar, J. Tomasi, 
 M. Cossi, N. Rega, J. M. Millam, M. Klene, J. E. Knox, J. B. Cross, 
 V. Bakken, C. Adamo, J. Jaramillo, R. Gomperts, R. E. Stratmann, 
 O. Yazyev, A. J. Austin, R. Cammi, C. Pomelli, J. W. Ochterski, 
 R. L. Martin, K. Morokuma, V. G. Zakrzewski, G. A. Voth, 
 P. Salvador, J. J. Dannenberg, S. Dapprich, A. D. Daniels, 
 O. Farkas, J. B. Foresman, J. V. Ortiz, J. Cioslowski, 
 and D. J. Fox, Gaussian, Inc., Wallingford CT, 2013.
 
 ******************************************
 Gaussian 09:  ES64L-G09RevD.01 24-Apr-2013
                29-Nov-2015 
 ******************************************
 ----------------------------
 #P AM1(Input,print) Opt Freq
 ----------------------------
 1/14=-1,18=20,19=15,26=1,38=1/1,3;
 2/9=110,12=2,17=6,18=5,40=1/2;
 3/5=2,16=1,25=1,41=700000,71=1,135=100,136=1/1,2,3;
 4/35=1/1;
 5/5=2,35=1,38=5/2;
 6/7=2,8=2,9=2,10=2,28=1/1;
 7//1,2,3,16;
 1/14=-1,18=20,19=15,26=1/3(2);
 2/9=110/2;
 99//99;
 2/9=110/2;
 3/5=2,16=1,25=1,41=700000,71=1,135=20,136=1/1,2,3;
 4/5=5,16=3,35=1/1;
 5/5=2,35=1,38=5/2;
 7//1,2,3,16;
 1/14=-1,18=20,19=15,26=1/3(-5);
 2/9=110/2;
 6/7=2,8=2,9=2,10=2,19=2,28=1/1;
 99/9=1/99;
 Leave Link    1 at Sun Nov 29 12:22:33 2015, MaxMem=           0 cpu:         0.0
 (Enter /home/Applications/g09/g09/l101.exe)
 -----------------
 AM1-Reparam Input
 -----------------
 Symbolic Z-matrix:
 Charge =  0 Multiplicity = 1
 6                     0.98532  -0.70845  -0.01982 
 6                    -0.33452  -1.1193   -0.01401 
 8                    -1.13433   0.04142   0.01004 
 6                    -0.34955   1.08543  -0.01159 
 6                     0.97443   0.75214  -0.02016 
 1                     1.84686   1.37203  -0.00525 
 1                    -0.82465   2.03486  -0.04449 
 1                    -0.81726  -2.06803   0.00666 
 1                     1.83349  -1.38068  -0.03991 
 
 NAtoms=      9 NQM=        9 NQMF=       0 NMMI=      0 NMMIF=      0
                NMic=       0 NMicF=      0.
                    Isotopes and Nuclear Properties:
 (Nuclear quadrupole moments (NQMom) in fm**2, nuclear magnetic moments (NMagM)
  in nuclear magnetons)

  Atom         1           2           3           4           5           6           7           8           9
 IAtWgt=          12          12          16          12          12           1           1           1           1
 AtmWgt=  12.0000000  12.0000000  15.9949146  12.0000000  12.0000000   1.0078250   1.0078250   1.0078250   1.0078250
 NucSpn=           0           0           0           0           0           1           1           1           1
 AtZEff=   0.0000000   0.0000000   0.0000000   0.0000000   0.0000000   0.0000000   0.0000000   0.0000000   0.0000000
 NQMom=    0.0000000   0.0000000   0.0000000   0.0000000   0.0000000   0.0000000   0.0000000   0.0000000   0.0000000
 NMagM=    0.0000000   0.0000000   0.0000000   0.0000000   0.0000000   2.7928460   2.7928460   2.7928460   2.7928460
 AtZNuc=   6.0000000   6.0000000   8.0000000   6.0000000   6.0000000   1.0000000   1.0000000   1.0000000   1.0000000
 Leave Link  101 at Sun Nov 29 12:22:33 2015, MaxMem=    33554432 cpu:         0.0
 (Enter /home/Applications/g09/g09/l103.exe)

 GradGradGradGradGradGradGradGradGradGradGradGradGradGradGradGradGradGrad
 Berny optimization.
 Initialization pass.
                           ----------------------------
                           !    Initial Parameters    !
                           ! (Angstroms and Degrees)  !
 --------------------------                            --------------------------
 ! Name  Definition              Value          Derivative Info.                !
 --------------------------------------------------------------------------------
 ! R1    R(1,2)                  1.3823         estimate D2E/DX2                !
 ! R2    R(1,5)                  1.4606         estimate D2E/DX2                !
 ! R3    R(1,9)                  1.0825         estimate D2E/DX2                !
 ! R4    R(2,3)                  1.4098         estimate D2E/DX2                !
 ! R5    R(2,8)                  1.0647         estimate D2E/DX2                !
 ! R6    R(3,4)                  1.3063         estimate D2E/DX2                !
 ! R7    R(4,5)                  1.3653         estimate D2E/DX2                !
 ! R8    R(4,7)                  1.0622         estimate D2E/DX2                !
 ! R9    R(5,6)                  1.0703         estimate D2E/DX2                !
 ! A1    A(2,1,5)              106.8635         estimate D2E/DX2                !
 ! A2    A(2,1,9)              124.3082         estimate D2E/DX2                !
 ! A3    A(5,1,9)              128.8182         estimate D2E/DX2                !
 ! A4    A(1,2,3)              107.2798         estimate D2E/DX2                !
 ! A5    A(1,2,8)              134.2549         estimate D2E/DX2                !
 ! A6    A(3,2,8)              118.4305         estimate D2E/DX2                !
 ! A7    A(2,3,4)              108.476          estimate D2E/DX2                !
 ! A8    A(3,4,5)              112.8052         estimate D2E/DX2                !
 ! A9    A(3,4,7)              116.4995         estimate D2E/DX2                !
 ! A10   A(5,4,7)              130.6738         estimate D2E/DX2                !
 ! A11   A(1,5,4)              104.5567         estimate D2E/DX2                !
 ! A12   A(1,5,6)              124.9635         estimate D2E/DX2                !
 ! A13   A(4,5,6)              130.463          estimate D2E/DX2                !
 ! D1    D(5,1,2,3)             -0.8894         estimate D2E/DX2                !
 ! D2    D(5,1,2,8)           -178.623          estimate D2E/DX2                !
 ! D3    D(9,1,2,3)           -179.8256         estimate D2E/DX2                !
 ! D4    D(9,1,2,8)              2.4407         estimate D2E/DX2                !
 ! D5    D(2,1,5,4)              0.1275         estimate D2E/DX2                !
 ! D6    D(2,1,5,6)            178.7688         estimate D2E/DX2                !
 ! D7    D(9,1,5,4)            178.9998         estimate D2E/DX2                !
 ! D8    D(9,1,5,6)             -2.359          estimate D2E/DX2                !
 ! D9    D(1,2,3,4)              1.3785         estimate D2E/DX2                !
 ! D10   D(8,2,3,4)            179.5328         estimate D2E/DX2                !
 ! D11   D(2,3,4,5)             -1.356          estimate D2E/DX2                !
 ! D12   D(2,3,4,7)            177.1417         estimate D2E/DX2                !
 ! D13   D(3,4,5,1)              0.7704         estimate D2E/DX2                !
 ! D14   D(3,4,5,6)           -177.766          estimate D2E/DX2                !
 ! D15   D(7,4,5,1)           -177.4568         estimate D2E/DX2                !
 ! D16   D(7,4,5,6)              4.0068         estimate D2E/DX2                !
 --------------------------------------------------------------------------------
 Trust Radius=3.00D-01 FncErr=1.00D-07 GrdErr=1.00D-07
 Number of steps in this run=     48 maximum allowed number of steps=    100.
 GradGradGradGradGradGradGradGradGradGradGradGradGradGradGradGradGradGrad

 Leave Link  103 at Sun Nov 29 12:22:33 2015, MaxMem=    33554432 cpu:         0.0
 (Enter /home/Applications/g09/g09/l202.exe)
                          Input orientation:                          
 ---------------------------------------------------------------------
 Center     Atomic      Atomic             Coordinates (Angstroms)
 Number     Number       Type             X           Y           Z
 ---------------------------------------------------------------------
      1          6           0        0.985319   -0.708448   -0.019821
      2          6           0       -0.334520   -1.119303   -0.014005
      3          8           0       -1.134331    0.041424    0.010039
      4          6           0       -0.349548    1.085429   -0.011587
      5          6           0        0.974426    0.752138   -0.020163
      6          1           0        1.846864    1.372032   -0.005252
      7          1           0       -0.824645    2.034865   -0.044492
      8          1           0       -0.817264   -2.068034    0.006660
      9          1           0        1.833493   -1.380683   -0.039908
 ---------------------------------------------------------------------
                    Distance matrix (angstroms):
                    1          2          3          4          5
     1  C    0.000000
     2  C    1.382321   0.000000
     3  O    2.248581   1.409810   0.000000
     4  C    2.236053   2.204785   1.306254   0.000000
     5  C    1.460627   2.283784   2.225507   1.365307   0.000000
     6  H    2.251859   3.311384   3.264701   2.215041   1.070345
     7  H    3.286692   3.192167   2.018090   1.062181   2.209669
     8  H    2.257982   1.064687   2.133156   3.188012   3.341294
     9  H    1.082452   2.183866   3.291331   3.293657   2.299415
                    6          7          8          9
     6  H    0.000000
     7  H    2.752789   0.000000
     8  H    4.351066   4.103224   0.000000
     9  H    2.752966   4.328012   2.738820   0.000000
 Stoichiometry    C4H4O
 Framework group  C1[X(C4H4O)]
 Deg. of freedom    21
 Full point group                 C1      NOp   1
 Largest Abelian subgroup         C1      NOp   1
 Largest concise Abelian subgroup C1      NOp   1
                         Standard orientation:                         
 ---------------------------------------------------------------------
 Center     Atomic      Atomic             Coordinates (Angstroms)
 Number     Number       Type             X           Y           Z
 ---------------------------------------------------------------------
      1          6           0       -0.810131    0.892636   -0.000185
      2          6           0       -1.088782   -0.461284    0.007916
      3          8           0        0.145180   -1.142901   -0.009362
      4          6           0        1.106678   -0.258783    0.003041
      5          6           0        0.644405    1.025876   -0.001461
      6          1           0        1.175207    1.955008   -0.025984
      7          1           0        2.098357   -0.637546    0.039655
      8          1           0       -1.985267   -1.035445   -0.006712
      9          1           0       -1.562755    1.670524    0.012066
 ---------------------------------------------------------------------
 Rotational constants (GHZ):      9.3478407      9.2111409      4.6398908
 Leave Link  202 at Sun Nov 29 12:22:33 2015, MaxMem=    33554432 cpu:         0.0
 (Enter /home/Applications/g09/g09/l301.exe)

 Semi-emprical parameters in input format:
 Method=8 CoreType=1 PeptideFC=0.0105570000 RIJScale=0.4899110000
 ****
 H       
 PQN=1 NValence=1 F0ss=0.4577290000 ZetaOverlap=1.0659780000 U=-0.3880320000
 Beta=-0.2381360000 CoreKO=1.1144350000 KON=0,0,0,1.0186160000 KON=1,0,1,1.0557690000
 KON=0,1,1,1.0725930000 KON=2,1,1,1.1590830000 EISol=-0.4188110042 EHeat=0.0830298228
 Alpha=1.5252600000
 GCore=0.0099350000,1.3986240000,2.1461900000
 GCore=0.0003630000,1.5415670000,2.7171030000
 GCore=-0.0012530000,0.5088300000,4.2039300000
 ****
 C       
 PQN=2,2 NValence=4 F0ss=0.4263360000 F0sp=0.4580860000 F0pp=0.3261620000 F2pp=0.2036090000
 G1sp=0.2073130000
 ZetaOverlap=2.1016200000,1.8587190000
 U=-1.9018080000,-1.4557970000
 Beta=-0.4792560000,-0.2700630000 DDN=0,1,0.8034860000 DDN=1,1,0.7591540000
 CoreKO=1.1325510000 KON=0,0,0,1.1996250000 KON=1,0,1,0.8437060000 KON=0,1,1,1.0478550000
 KON=2,1,1,0.8168110000 EISol=-4.4398989268 EHeat=0.2723305520 Alpha=1.4381970000
 DipHyp=1.6068795495
 GCore=0.0008260000,1.4798740000,2.8384620000
 GCore=0.0031480000,1.6675340000,3.8116200000
 GCore=-0.0011560000,1.5029710000,3.9059920000
 GCore=-0.0000920000,1.1754400000,4.8520980000
 ****
 O       
 PQN=2,2 NValence=6 F0ss=0.5413910000 F0sp=0.5145480000 F0pp=0.5091470000 F2pp=0.2175940000
 G1sp=0.4302620000
 ZetaOverlap=3.3296350000,2.5240390000
 U=-3.3343200000,-2.9854240000
 Beta=-0.9082740000,-1.1340310000 DDN=0,1,0.4988900000 DDN=1,1,0.5206270000
 CoreKO=0.9688900000 KON=0,0,0,0.8976510000 KON=1,0,1,0.5186760000 KON=0,1,1,0.8274210000
 KON=2,1,1,0.5315430000 EISol=-11.6164441184 EHeat=0.0949133088 Alpha=2.3722000000
 DipHyp=0.9977225968
 GCore=0.0212480000,1.1747580000,1.6499540000
 GCore=0.0064050000,2.1096700000,2.7148630000
 ****
 
 Standard basis: VSTO-6G (5D, 7F)
 Ernie: Thresh=  0.10000D-02 Tol=  0.10000D-05 Strict=F.
  NNHCO=     0 NNPyr=     0 NCTC=     0               EPep=         0.000000000
    EC=        67.796363422  ECS=         1.642237489   EG=         0.440101751
   EHC=         0.000000000  EAt=       -31.051283842  AtH=         1.516354808
 EPDDG=         0.000000000  ECC=        69.878702662 EAtT=        32.567638650
 There are    24 symmetry adapted cartesian basis functions of A   symmetry.
 There are    24 symmetry adapted basis functions of A   symmetry.
    24 basis functions,   144 primitive gaussians,    24 cartesian basis functions
    13 alpha electrons       13 beta electrons
       nuclear repulsion energy       102.4463413121 Hartrees.
 IExCor=    0 DFT=F Ex=HF Corr=None ExCW=0 ScaHFX=  1.000000
 ScaDFX=  1.000000  1.000000  1.000000  1.000000 ScalE2=  1.000000  1.000000
 IRadAn=      0 IRanWt=     -1 IRanGd=            0 ICorTp=0 IEmpDi=  4
 Integral buffers will be    131072 words long.
 Regular integral format.
 Two-electron integral symmetry is turned off.
 Leave Link  301 at Sun Nov 29 12:22:33 2015, MaxMem=    33554432 cpu:         0.0
 (Enter /home/Applications/g09/g09/l302.exe)
 Do NDO integrals.
 NPDir=0 NMtPBC=     1 NCelOv=     1 NCel=       1 NClECP=     1 NCelD=      1
         NCelK=      1 NCelE2=     1 NClLst=     1 CellRange=     0.0.
 One-electron integrals computed using PRISM.
 NBasis=    24 RedAO= F EigKep=  0.00D+00  NBF=    24
 NBsUse=    24 1.00D-04 EigRej=  0.00D+00 NBFU=    24
 Leave Link  302 at Sun Nov 29 12:22:33 2015, MaxMem=    33554432 cpu:         0.0
 (Enter /home/Applications/g09/g09/l303.exe)
 DipDrv:  MaxL=1.
 Leave Link  303 at Sun Nov 29 12:22:33 2015, MaxMem=    33554432 cpu:         0.0
 (Enter /home/Applications/g09/g09/l401.exe)
 Simple Huckel Guess.
 JPrj=0 DoOrth=F DoCkMO=F.
 Leave Link  401 at Sun Nov 29 12:22:33 2015, MaxMem=    33554432 cpu:         0.0
 (Enter /home/Applications/g09/g09/l502.exe)
 Closed shell SCF:
 Using DIIS extrapolation, IDIIS=  1040.
 Overlap will be assumed to be unity.
 Two-electron integral symmetry not used.
 Keep J ints in memory in canonical form, NReq=888082.
 IVT=       79475 IEndB=       79475 NGot=    33554432 MDV=    33473473
 LenX=    33473473 LenY=    33472456
 Requested convergence on RMS density matrix=1.00D-08 within 128 cycles.
 Requested convergence on MAX density matrix=1.00D-06.
 Requested convergence on             energy=1.00D-06.
 No special actions if energy rises.
 FoFCou: FMM=F IPFlag=           0 FMFlag=           0 FMFlg1=           0
         NFxFlg=           0 DoJE=F BraDBF=F KetDBF=F FulRan=T
         wScrn=  0.000000 ICntrl=     600 IOpCl=  2 I1Cent=           0 NGrid=           0
         NMat0=    1 NMatS0=     54 NMatT0=    0 NMatD0=    1 NMtDS0=    0 NMtDT0=    0
 Symmetry not used in FoFCou.

 Cycle   1  Pass 1  IDiag  1:
 E= 0.998626958569020    
 DIIS: error= 4.96D-02 at cycle   1 NSaved=   1.
 NSaved= 1 IEnMin= 1 EnMin= 0.998626958569020     IErMin= 1 ErrMin= 4.96D-02
 ErrMax= 4.96D-02  0.00D+00 EMaxC= 1.00D-01 BMatC= 7.27D-02 BMatP= 7.27D-02
 IDIUse=3 WtCom= 5.04D-01 WtEn= 4.96D-01
 Coeff-Com:  0.100D+01
 Coeff-En:   0.100D+01
 Coeff:      0.100D+01
 GapD=    2.000 DampG=2.000 DampE=0.500 DampFc=1.0000 IDamp=-1.
 RMSDP=1.82D-02 MaxDP=1.70D-01              OVMax= 0.00D+00

 Cycle   2  Pass 1  IDiag  1:
 E= 0.776190283380629     Delta-E=       -0.222436675188 Rises=F Damp=F
 DIIS: error= 1.91D-02 at cycle   2 NSaved=   2.
 NSaved= 2 IEnMin= 2 EnMin= 0.776190283380629     IErMin= 2 ErrMin= 1.91D-02
 ErrMax= 1.91D-02  0.00D+00 EMaxC= 1.00D-01 BMatC= 9.21D-03 BMatP= 7.27D-02
 IDIUse=3 WtCom= 8.09D-01 WtEn= 1.91D-01
 Coeff-Com: -0.465D+00 0.147D+01
 Coeff-En:   0.000D+00 0.100D+01
 Coeff:     -0.376D+00 0.138D+01
 RMSDP=9.31D-03 MaxDP=5.84D-02 DE=-2.22D-01 OVMax= 0.00D+00

 Cycle   3  Pass 1  IDiag  3:
 E= 0.741020869202885     Delta-E=       -0.035169414178 Rises=F Damp=F
 DIIS: error= 2.97D-03 at cycle   3 NSaved=   3.
 NSaved= 3 IEnMin= 3 EnMin= 0.741020869202885     IErMin= 3 ErrMin= 2.97D-03
 ErrMax= 2.97D-03  0.00D+00 EMaxC= 1.00D-01 BMatC= 5.11D-04 BMatP= 9.21D-03
 IDIUse=3 WtCom= 9.70D-01 WtEn= 2.97D-02
 Coeff-Com:  0.228D+00-0.849D+00 0.162D+01
 Coeff-En:   0.000D+00 0.000D+00 0.100D+01
 Coeff:      0.221D+00-0.824D+00 0.160D+01
 Gap=     0.359 Goal=   None    Shift=    0.000
 RMSDP=3.05D-03 MaxDP=1.92D-02 DE=-3.52D-02 OVMax= 1.43D-02

 Cycle   4  Pass 1  IDiag  3:
 E= 0.738198143601963     Delta-E=       -0.002822725601 Rises=F Damp=F
 DIIS: error= 1.15D-03 at cycle   4 NSaved=   4.
 NSaved= 4 IEnMin= 4 EnMin= 0.738198143601963     IErMin= 4 ErrMin= 1.15D-03
 ErrMax= 1.15D-03  0.00D+00 EMaxC= 1.00D-01 BMatC= 4.29D-05 BMatP= 5.11D-04
 IDIUse=3 WtCom= 9.88D-01 WtEn= 1.15D-02
 Coeff-Com:  0.250D-02-0.112D-01-0.175D+00 0.118D+01
 Coeff-En:   0.000D+00 0.000D+00 0.000D+00 0.100D+01
 Coeff:      0.247D-02-0.111D-01-0.173D+00 0.118D+01
 Gap=     0.360 Goal=   None    Shift=    0.000
 RMSDP=9.73D-04 MaxDP=8.07D-03 DE=-2.82D-03 OVMax= 1.02D-02

 Cycle   5  Pass 1  IDiag  3:
 E= 0.737893327376739     Delta-E=       -0.000304816225 Rises=F Damp=F
 DIIS: error= 7.08D-04 at cycle   5 NSaved=   5.
 NSaved= 5 IEnMin= 5 EnMin= 0.737893327376739     IErMin= 5 ErrMin= 7.08D-04
 ErrMax= 7.08D-04  0.00D+00 EMaxC= 1.00D-01 BMatC= 1.48D-05 BMatP= 4.29D-05
 IDIUse=3 WtCom= 9.93D-01 WtEn= 7.08D-03
 Coeff-Com: -0.357D-01 0.137D+00-0.122D+00-0.938D+00 0.196D+01
 Coeff-En:   0.000D+00 0.000D+00 0.000D+00 0.000D+00 0.100D+01
 Coeff:     -0.354D-01 0.136D+00-0.121D+00-0.931D+00 0.195D+01
 Gap=     0.361 Goal=   None    Shift=    0.000
 RMSDP=9.13D-04 MaxDP=8.38D-03 DE=-3.05D-04 OVMax= 1.07D-02

 Cycle   6  Pass 1  IDiag  3:
 E= 0.737733147399737     Delta-E=       -0.000160179977 Rises=F Damp=F
 DIIS: error= 3.89D-04 at cycle   6 NSaved=   6.
 NSaved= 6 IEnMin= 6 EnMin= 0.737733147399737     IErMin= 6 ErrMin= 3.89D-04
 ErrMax= 3.89D-04  0.00D+00 EMaxC= 1.00D-01 BMatC= 3.92D-06 BMatP= 1.48D-05
 IDIUse=3 WtCom= 9.96D-01 WtEn= 3.89D-03
 Coeff-Com:  0.181D-01-0.696D-01 0.468D-01 0.700D+00-0.179D+01 0.209D+01
 Coeff-En:   0.000D+00 0.000D+00 0.000D+00 0.000D+00 0.000D+00 0.100D+01
 Coeff:      0.180D-01-0.693D-01 0.466D-01 0.697D+00-0.178D+01 0.209D+01
 Gap=     0.361 Goal=   None    Shift=    0.000
 RMSDP=5.96D-04 MaxDP=5.99D-03 DE=-1.60D-04 OVMax= 6.87D-03

 Cycle   7  Pass 1  IDiag  3:
 E= 0.737681105642480     Delta-E=       -0.000052041757 Rises=F Damp=F
 DIIS: error= 2.38D-04 at cycle   7 NSaved=   7.
 NSaved= 7 IEnMin= 7 EnMin= 0.737681105642480     IErMin= 7 ErrMin= 2.38D-04
 ErrMax= 2.38D-04  0.00D+00 EMaxC= 1.00D-01 BMatC= 1.05D-06 BMatP= 3.92D-06
 IDIUse=3 WtCom= 9.98D-01 WtEn= 2.38D-03
 Coeff-Com: -0.481D-02 0.166D-01 0.263D-02-0.346D+00 0.980D+00-0.173D+01
 Coeff-Com:  0.208D+01
 Coeff-En:   0.000D+00 0.000D+00 0.000D+00 0.000D+00 0.000D+00 0.000D+00
 Coeff-En:   0.100D+01
 Coeff:     -0.480D-02 0.165D-01 0.262D-02-0.345D+00 0.978D+00-0.172D+01
 Coeff:      0.207D+01
 Gap=     0.361 Goal=   None    Shift=    0.000
 RMSDP=3.59D-04 MaxDP=4.01D-03 DE=-5.20D-05 OVMax= 3.67D-03

 Cycle   8  Pass 1  IDiag  3:
 E= 0.737664222811347     Delta-E=       -0.000016882831 Rises=F Damp=F
 DIIS: error= 1.37D-04 at cycle   8 NSaved=   8.
 NSaved= 8 IEnMin= 8 EnMin= 0.737664222811347     IErMin= 8 ErrMin= 1.37D-04
 ErrMax= 1.37D-04  0.00D+00 EMaxC= 1.00D-01 BMatC= 4.33D-07 BMatP= 1.05D-06
 IDIUse=3 WtCom= 9.99D-01 WtEn= 1.37D-03
 Coeff-Com:  0.397D-03 0.960D-03-0.216D-01 0.258D+00-0.766D+00 0.162D+01
 Coeff-Com: -0.256D+01 0.247D+01
 Coeff-En:   0.000D+00 0.000D+00 0.000D+00 0.000D+00 0.000D+00 0.000D+00
 Coeff-En:   0.000D+00 0.100D+01
 Coeff:      0.396D-03 0.959D-03-0.216D-01 0.258D+00-0.765D+00 0.162D+01
 Coeff:     -0.256D+01 0.247D+01
 Gap=     0.361 Goal=   None    Shift=    0.000
 RMSDP=2.47D-04 MaxDP=2.29D-03 DE=-1.69D-05 OVMax= 2.16D-03

 Cycle   9  Pass 1  IDiag  3:
 E= 0.737655783852688     Delta-E=       -0.000008438959 Rises=F Damp=F
 DIIS: error= 1.05D-04 at cycle   9 NSaved=   9.
 NSaved= 9 IEnMin= 9 EnMin= 0.737655783852688     IErMin= 9 ErrMin= 1.05D-04
 ErrMax= 1.05D-04  0.00D+00 EMaxC= 1.00D-01 BMatC= 2.15D-07 BMatP= 4.33D-07
 IDIUse=3 WtCom= 9.99D-01 WtEn= 1.05D-03
 Coeff-Com: -0.587D-03-0.253D-02 0.532D-01-0.563D+00 0.152D+01-0.301D+01
 Coeff-Com:  0.479D+01-0.610D+01 0.431D+01
 Coeff-En:   0.000D+00 0.000D+00 0.000D+00 0.000D+00 0.000D+00 0.000D+00
 Coeff-En:   0.000D+00 0.000D+00 0.100D+01
 Coeff:     -0.586D-03-0.253D-02 0.532D-01-0.562D+00 0.152D+01-0.300D+01
 Coeff:      0.479D+01-0.610D+01 0.430D+01
 Gap=     0.362 Goal=   None    Shift=    0.000
 RMSDP=4.34D-04 MaxDP=4.37D-03 DE=-8.44D-06 OVMax= 4.02D-03

 Cycle  10  Pass 1  IDiag  3:
 E= 0.737648631386165     Delta-E=       -0.000007152467 Rises=F Damp=F
 DIIS: error= 2.50D-05 at cycle  10 NSaved=  10.
 NSaved=10 IEnMin=10 EnMin= 0.737648631386165     IErMin=10 ErrMin= 2.50D-05
 ErrMax= 2.50D-05  0.00D+00 EMaxC= 1.00D-01 BMatC= 1.17D-08 BMatP= 2.15D-07
 IDIUse=1 WtCom= 1.00D+00 WtEn= 0.00D+00
 Coeff-Com: -0.584D-03 0.367D-02-0.194D-01 0.153D+00-0.408D+00 0.831D+00
 Coeff-Com: -0.138D+01 0.193D+01-0.163D+01 0.151D+01
 Coeff:     -0.584D-03 0.367D-02-0.194D-01 0.153D+00-0.408D+00 0.831D+00
 Coeff:     -0.138D+01 0.193D+01-0.163D+01 0.151D+01
 Gap=     0.362 Goal=   None    Shift=    0.000
 RMSDP=6.43D-05 MaxDP=7.11D-04 DE=-7.15D-06 OVMax= 5.77D-04

 Cycle  11  Pass 1  IDiag  3:
 E= 0.737648437728339     Delta-E=       -0.000000193658 Rises=F Damp=F
 DIIS: error= 5.63D-06 at cycle  11 NSaved=  11.
 NSaved=11 IEnMin=11 EnMin= 0.737648437728339     IErMin=11 ErrMin= 5.63D-06
 ErrMax= 5.63D-06  0.00D+00 EMaxC= 1.00D-01 BMatC= 1.18D-09 BMatP= 1.17D-08
 IDIUse=1 WtCom= 1.00D+00 WtEn= 0.00D+00
 Coeff-Com:  0.228D-03-0.164D-02 0.994D-02-0.826D-01 0.218D+00-0.440D+00
 Coeff-Com:  0.727D+00-0.103D+01 0.877D+00-0.976D+00 0.170D+01
 Coeff:      0.228D-03-0.164D-02 0.994D-02-0.826D-01 0.218D+00-0.440D+00
 Coeff:      0.727D+00-0.103D+01 0.877D+00-0.976D+00 0.170D+01
 Gap=     0.362 Goal=   None    Shift=    0.000
 RMSDP=1.30D-05 MaxDP=1.44D-04 DE=-1.94D-07 OVMax= 1.12D-04

 Cycle  12  Pass 1  IDiag  3:
 E= 0.737648427286842     Delta-E=       -0.000000010441 Rises=F Damp=F
 DIIS: error= 1.23D-06 at cycle  12 NSaved=  12.
 NSaved=12 IEnMin=12 EnMin= 0.737648427286842     IErMin=12 ErrMin= 1.23D-06
 ErrMax= 1.23D-06  0.00D+00 EMaxC= 1.00D-01 BMatC= 6.00D-11 BMatP= 1.18D-09
 IDIUse=1 WtCom= 1.00D+00 WtEn= 0.00D+00
 Coeff-Com: -0.829D-04 0.688D-03-0.439D-02 0.377D-01-0.100D+00 0.204D+00
 Coeff-Com: -0.337D+00 0.481D+00-0.409D+00 0.476D+00-0.960D+00 0.161D+01
 Coeff:     -0.829D-04 0.688D-03-0.439D-02 0.377D-01-0.100D+00 0.204D+00
 Coeff:     -0.337D+00 0.481D+00-0.409D+00 0.476D+00-0.960D+00 0.161D+01
 Gap=     0.362 Goal=   None    Shift=    0.000
 RMSDP=1.69D-06 MaxDP=1.04D-05 DE=-1.04D-08 OVMax= 1.54D-05

 Cycle  13  Pass 1  IDiag  3:
 E= 0.737648426836060     Delta-E=       -0.000000000451 Rises=F Damp=F
 DIIS: error= 3.81D-07 at cycle  13 NSaved=  13.
 NSaved=13 IEnMin=13 EnMin= 0.737648426836060     IErMin=13 ErrMin= 3.81D-07
 ErrMax= 3.81D-07  0.00D+00 EMaxC= 1.00D-01 BMatC= 4.05D-12 BMatP= 6.00D-11
 IDIUse=1 WtCom= 1.00D+00 WtEn= 0.00D+00
 Coeff-Com:  0.227D-04-0.206D-03 0.130D-02-0.113D-01 0.304D-01-0.621D-01
 Coeff-Com:  0.103D+00-0.149D+00 0.128D+00-0.159D+00 0.342D+00-0.753D+00
 Coeff-Com:  0.153D+01
 Coeff:      0.227D-04-0.206D-03 0.130D-02-0.113D-01 0.304D-01-0.621D-01
 Coeff:      0.103D+00-0.149D+00 0.128D+00-0.159D+00 0.342D+00-0.753D+00
 Coeff:      0.153D+01
 Gap=     0.362 Goal=   None    Shift=    0.000
 RMSDP=5.97D-07 MaxDP=4.02D-06 DE=-4.51D-10 OVMax= 6.44D-06

 Cycle  14  Pass 1  IDiag  3:
 E= 0.737648426799183     Delta-E=       -0.000000000037 Rises=F Damp=F
 DIIS: error= 1.14D-07 at cycle  14 NSaved=  14.
 NSaved=14 IEnMin=14 EnMin= 0.737648426799183     IErMin=14 ErrMin= 1.14D-07
 ErrMax= 1.14D-07  0.00D+00 EMaxC= 1.00D-01 BMatC= 2.85D-13 BMatP= 4.05D-12
 IDIUse=1 WtCom= 1.00D+00 WtEn= 0.00D+00
 Coeff-Com: -0.481D-05 0.464D-04-0.259D-03 0.224D-02-0.612D-02 0.129D-01
 Coeff-Com: -0.215D-01 0.321D-01-0.280D-01 0.370D-01-0.847D-01 0.210D+00
 Coeff-Com: -0.636D+00 0.148D+01
 Coeff:     -0.481D-05 0.464D-04-0.259D-03 0.224D-02-0.612D-02 0.129D-01
 Coeff:     -0.215D-01 0.321D-01-0.280D-01 0.370D-01-0.847D-01 0.210D+00
 Coeff:     -0.636D+00 0.148D+01
 Gap=     0.362 Goal=   None    Shift=    0.000
 RMSDP=1.44D-07 MaxDP=1.12D-06 DE=-3.69D-11 OVMax= 1.49D-06

 Cycle  15  Pass 1  IDiag  3:
 E= 0.737648426796824     Delta-E=       -0.000000000002 Rises=F Damp=F
 DIIS: error= 2.98D-08 at cycle  15 NSaved=  15.
 NSaved=15 IEnMin=15 EnMin= 0.737648426796824     IErMin=15 ErrMin= 2.98D-08
 ErrMax= 2.98D-08  0.00D+00 EMaxC= 1.00D-01 BMatC= 1.99D-14 BMatP= 2.85D-13
 IDIUse=1 WtCom= 1.00D+00 WtEn= 0.00D+00
 Coeff-Com:  0.150D-05-0.135D-04 0.511D-04-0.411D-03 0.117D-02-0.268D-02
 Coeff-Com:  0.460D-02-0.740D-02 0.672D-02-0.102D-01 0.259D-01-0.751D-01
 Coeff-Com:  0.284D+00-0.903D+00 0.168D+01
 Coeff:      0.150D-05-0.135D-04 0.511D-04-0.411D-03 0.117D-02-0.268D-02
 Coeff:      0.460D-02-0.740D-02 0.672D-02-0.102D-01 0.259D-01-0.751D-01
 Coeff:      0.284D+00-0.903D+00 0.168D+01
 Gap=     0.362 Goal=   None    Shift=    0.000
 RMSDP=4.12D-08 MaxDP=3.57D-07 DE=-2.36D-12 OVMax= 4.54D-07

 Cycle  16  Pass 1  IDiag  3:
 E= 0.737648426796838     Delta-E=        0.000000000000 Rises=F Damp=F
 DIIS: error= 4.51D-09 at cycle  16 NSaved=  16.
 NSaved=16 IEnMin=15 EnMin= 0.737648426796824     IErMin=16 ErrMin= 4.51D-09
 ErrMax= 4.51D-09  0.00D+00 EMaxC= 1.00D-01 BMatC= 9.05D-16 BMatP= 1.99D-14
 IDIUse=1 WtCom= 1.00D+00 WtEn= 0.00D+00
 Large coefficients: NSaved= 16 BigCof=    0.00 CofMax=   10.00 Det=-6.63D-16
 Inversion failed.  Reducing to 15 matrices.
 Coeff-Com:  0.214D-06 0.110D-04-0.106D-03 0.260D-03-0.431D-03 0.652D-03
 Coeff-Com: -0.671D-03 0.434D-03 0.209D-03-0.201D-02 0.116D-01-0.659D-01
 Coeff-Com:  0.274D+00-0.678D+00 0.146D+01
 Coeff:      0.214D-06 0.110D-04-0.106D-03 0.260D-03-0.431D-03 0.652D-03
 Coeff:     -0.671D-03 0.434D-03 0.209D-03-0.201D-02 0.116D-01-0.659D-01
 Coeff:      0.274D+00-0.678D+00 0.146D+01
 Gap=     0.362 Goal=   None    Shift=    0.000
 RMSDP=7.47D-09 MaxDP=5.20D-08 DE= 1.42D-14 OVMax= 6.88D-08

 Cycle  17  Pass 2  IDiag  1:
 SCF Done:  E(RAM1) =  0.737648426797     A.U. after   17 cycles
            NFock= 16  Conv=0.75D-08     -V/T= 1.0492
 KE=-1.500118648790D+01 PE=-1.712448785363D+02 EE= 8.453737213884D+01
 Leave Link  502 at Sun Nov 29 12:22:33 2015, MaxMem=    33554432 cpu:         0.0
 (Enter /home/Applications/g09/g09/l601.exe)
 Copying SCF densities to generalized density rwf, IOpCl= 0 IROHF=0.

 **********************************************************************

            Population analysis using the SCF density.

 **********************************************************************

 Orbital symmetries:
       Occupied  (A) (A) (A) (A) (A) (A) (A) (A) (A) (A) (A) (A)
                 (A)
       Virtual   (A) (A) (A) (A) (A) (A) (A) (A) (A) (A) (A)
 The electronic state is 1-A.
 Alpha  occ. eigenvalues --   -1.21202  -0.92764  -0.91541  -0.74469  -0.69078
 Alpha  occ. eigenvalues --   -0.66554  -0.62122  -0.54074  -0.51608  -0.49837
 Alpha  occ. eigenvalues --   -0.49424  -0.40554  -0.35339
 Alpha virt. eigenvalues --    0.00817   0.02003   0.11080   0.12982   0.15796
 Alpha virt. eigenvalues --    0.16857   0.19501   0.20610   0.21641   0.22818
 Alpha virt. eigenvalues --    0.24371
          Condensed to atoms (all electrons):
               1          2          3          4          5          6
     1  C    4.419650   0.000000   0.000000   0.000000   0.000000   0.000000
     2  C    0.000000   3.915427   0.000000   0.000000   0.000000   0.000000
     3  O    0.000000   0.000000   6.409136   0.000000   0.000000   0.000000
     4  C    0.000000   0.000000   0.000000   3.695649   0.000000   0.000000
     5  C    0.000000   0.000000   0.000000   0.000000   4.705727   0.000000
     6  H    0.000000   0.000000   0.000000   0.000000   0.000000   0.688638
     7  H    0.000000   0.000000   0.000000   0.000000   0.000000   0.000000
     8  H    0.000000   0.000000   0.000000   0.000000   0.000000   0.000000
     9  H    0.000000   0.000000   0.000000   0.000000   0.000000   0.000000
               7          8          9
     1  C    0.000000   0.000000   0.000000
     2  C    0.000000   0.000000   0.000000
     3  O    0.000000   0.000000   0.000000
     4  C    0.000000   0.000000   0.000000
     5  C    0.000000   0.000000   0.000000
     6  H    0.000000   0.000000   0.000000
     7  H    0.738603   0.000000   0.000000
     8  H    0.000000   0.721663   0.000000
     9  H    0.000000   0.000000   0.705508
 Mulliken charges:
               1
     1  C   -0.419650
     2  C    0.084573
     3  O   -0.409136
     4  C    0.304351
     5  C   -0.705727
     6  H    0.311362
     7  H    0.261397
     8  H    0.278337
     9  H    0.294492
 Sum of Mulliken charges =   0.00000
 Mulliken charges with hydrogens summed into heavy atoms:
               1
     1  C   -0.125158
     2  C    0.362911
     3  O   -0.409136
     4  C    0.565748
     5  C   -0.394365
 Charge=              0.0000 electrons
 Dipole moment (field-independent basis, Debye):
    X=             -0.0652    Y=             -0.6602    Z=              0.0269  Tot=              0.6640
 N-N= 1.024463413121D+02 E-N=-1.712448785398D+02  KE=-1.500118648790D+01
 Leave Link  601 at Sun Nov 29 12:22:33 2015, MaxMem=    33554432 cpu:         0.0
 (Enter /home/Applications/g09/g09/l701.exe)
 Compute integral first derivatives.
 ... and contract with generalized density number  0.
 Leave Link  701 at Sun Nov 29 12:22:33 2015, MaxMem=    33554432 cpu:         0.0
 (Enter /home/Applications/g09/g09/l702.exe)
 L702 exits ... SP integral derivatives will be done elsewhere.
 Leave Link  702 at Sun Nov 29 12:22:33 2015, MaxMem=    33554432 cpu:         0.0
 (Enter /home/Applications/g09/g09/l703.exe)
 Compute integral first derivatives, UseDBF=F ICtDFT=           0.
 Integral derivatives from FoFJK, PRISM(SPDF).
 Calling FoFJK, ICntrl=      2127 FMM=F ISym2X=0 I1Cent= 0 IOpClX= 0 NMat=1 NMatS=1 NMatT=0.
 FoFJK:  IHMeth= 8 ICntrl=    2127 DoSepK=F KAlg= 0 I1Cent=   0 FoldK=F
 IRaf=         0 NMat=   1 IRICut=       1 DoRegI=T DoRafI=F ISym2E= 0.
 FoFCou: FMM=F IPFlag=           0 FMFlag=      100000 FMFlg1=         800
         NFxFlg=           0 DoJE=F BraDBF=F KetDBF=F FulRan=T
         wScrn=  0.000000 ICntrl=    2127 IOpCl=  0 I1Cent=           0 NGrid=           0
         NMat0=    1 NMatS0=      1 NMatT0=    0 NMatD0=    1 NMtDS0=    0 NMtDT0=    0
 Symmetry not used in FoFCou.
 Leave Link  703 at Sun Nov 29 12:22:33 2015, MaxMem=    33554432 cpu:         0.0
 (Enter /home/Applications/g09/g09/l716.exe)
 Dipole        =-2.56546441D-02-2.59741702D-01 1.05850189D-02
 ***** Axes restored to original set *****
 -------------------------------------------------------------------
 Center     Atomic                   Forces (Hartrees/Bohr)
 Number     Number              X              Y              Z
 -------------------------------------------------------------------
      1        6          -0.024570009    0.008655832   -0.001817284
      2        6           0.029585464    0.037571665    0.003372076
      3        8          -0.024106493   -0.047825437   -0.001937797
      4        6           0.031738337    0.017180549   -0.000573793
      5        6          -0.007060885   -0.035788230    0.001264226
      6        1           0.006982243    0.003533874   -0.000814131
      7        1          -0.009630916    0.023287234    0.000543313
      8        1          -0.008867008   -0.010578010   -0.000380356
      9        1           0.005929267    0.003962523    0.000343746
 -------------------------------------------------------------------
 Cartesian Forces:  Max     0.047825437 RMS     0.018684836
 Leave Link  716 at Sun Nov 29 12:22:33 2015, MaxMem=    33554432 cpu:         0.0
 (Enter /home/Applications/g09/g09/l103.exe)

 GradGradGradGradGradGradGradGradGradGradGradGradGradGradGradGradGradGrad
 Berny optimization.
 FormGI is forming the generalized inverse of G from B-inverse, IUseBI=4.
 Internal  Forces:  Max     0.037242488 RMS     0.010387773
 Search for a local minimum.
 Step number   1 out of a maximum of   48
 All quantities printed in internal units (Hartrees-Bohrs-Radians)
 RMS Force = .10388D-01 SwitMx=.10000D-02 MixMth= 1
 Mixed Optimization -- RFO/linear search
 Second derivative matrix not updated -- first step.
 ITU=  0
     Eigenvalues ---    0.01650   0.01871   0.02033   0.02143   0.02418
     Eigenvalues ---    0.02657   0.15988   0.15991   0.15995   0.15996
     Eigenvalues ---    0.21999   0.22924   0.35422   0.35700   0.37187
     Eigenvalues ---    0.37910   0.38236   0.41584   0.45271   0.50547
     Eigenvalues ---    0.62416
 RFO step:  Lambda=-9.93683368D-03 EMin= 1.65022260D-02
 Linear search not attempted -- first point.
 Iteration  1 RMS(Cart)=  0.02863726 RMS(Int)=  0.00063674
 Iteration  2 RMS(Cart)=  0.00061369 RMS(Int)=  0.00020911
 Iteration  3 RMS(Cart)=  0.00000016 RMS(Int)=  0.00020911
 ITry= 1 IFail=0 DXMaxC= 8.28D-02 DCOld= 1.00D+10 DXMaxT= 3.00D-01 DXLimC= 3.00D+00 Rises=F
 Variable       Old X    -DE/DX   Delta X   Delta X   Delta X     New X
                                 (Linear)    (Quad)   (Total)
    R1        2.61221  -0.01926   0.00000  -0.04581  -0.04576   2.56645
    R2        2.76018  -0.02315   0.00000  -0.06716  -0.06720   2.69299
    R3        2.04554   0.00218   0.00000   0.00594   0.00594   2.05148
    R4        2.66415  -0.01143   0.00000  -0.02486  -0.02480   2.63936
    R5        2.01197   0.01344   0.00000   0.03454   0.03454   2.04651
    R6        2.46846   0.03724   0.00000   0.06146   0.06145   2.52991
    R7        2.58006   0.00046   0.00000   0.00520   0.00513   2.58519
    R8        2.00723   0.02511   0.00000   0.06400   0.06400   2.07123
    R9        2.02266   0.00773   0.00000   0.02024   0.02024   2.04290
    A1        1.86512   0.00557   0.00000  -0.00146  -0.00156   1.86356
    A2        2.16959   0.00416   0.00000   0.04172   0.04172   2.21130
    A3        2.24830  -0.00972   0.00000  -0.03997  -0.03998   2.20832
    A4        1.87239   0.01179   0.00000   0.03586   0.03569   1.90807
    A5        2.34319  -0.00273   0.00000   0.00113   0.00092   2.34411
    A6        2.06700  -0.00901   0.00000  -0.03579  -0.03600   2.03100
    A7        1.89326  -0.01242   0.00000  -0.03028  -0.03031   1.86296
    A8        1.96882  -0.01143   0.00000  -0.02963  -0.02977   1.93905
    A9        2.03330   0.00750   0.00000   0.02536   0.02543   2.05873
   A10        2.28069   0.00393   0.00000   0.00431   0.00439   2.28508
   A11        1.82486   0.00652   0.00000   0.02636   0.02617   1.85103
   A12        2.18103  -0.00445   0.00000  -0.02009  -0.02002   2.16101
   A13        2.27701  -0.00206   0.00000  -0.00604  -0.00597   2.27104
    D1       -0.01552   0.00072   0.00000   0.02901   0.02953   0.01400
    D2       -3.11756  -0.00046   0.00000  -0.00925  -0.00915  -3.12671
    D3       -3.13855   0.00041   0.00000   0.01397   0.01398  -3.12457
    D4        0.04260  -0.00076   0.00000  -0.02429  -0.02469   0.01791
    D5        0.00223  -0.00052   0.00000  -0.01464  -0.01424  -0.01202
    D6        3.12010  -0.00017   0.00000  -0.00525  -0.00508   3.11502
    D7        3.12414   0.00002   0.00000   0.00251   0.00243   3.12656
    D8       -0.04117   0.00036   0.00000   0.01190   0.01159  -0.02959
    D9        0.02406  -0.00113   0.00000  -0.03466  -0.03474  -0.01068
   D10        3.13344  -0.00010   0.00000  -0.00285  -0.00323   3.13021
   D11       -0.02367   0.00108   0.00000   0.02696   0.02645   0.00278
   D12        3.09171   0.00109   0.00000   0.02865   0.02822   3.11992
   D13        0.01345  -0.00031   0.00000  -0.00761  -0.00779   0.00565
   D14       -3.10260  -0.00064   0.00000  -0.01750  -0.01753  -3.12013
   D15       -3.09720  -0.00034   0.00000  -0.00988  -0.01015  -3.10735
   D16        0.06993  -0.00067   0.00000  -0.01977  -0.01988   0.05005
         Item               Value     Threshold  Converged?
 Maximum Force            0.037242     0.000450     NO 
 RMS     Force            0.010388     0.000300     NO 
 Maximum Displacement     0.082758     0.001800     NO 
 RMS     Displacement     0.028649     0.001200     NO 
 Predicted change in Energy=-5.128575D-03
 Lowest energy point so far.  Saving SCF results.
 GradGradGradGradGradGradGradGradGradGradGradGradGradGradGradGradGradGrad

 Leave Link  103 at Sun Nov 29 12:22:33 2015, MaxMem=    33554432 cpu:         0.0
 (Enter /home/Applications/g09/g09/l202.exe)
                          Input orientation:                          
 ---------------------------------------------------------------------
 Center     Atomic      Atomic             Coordinates (Angstroms)
 Number     Number       Type             X           Y           Z
 ---------------------------------------------------------------------
      1          6           0        0.975261   -0.703782   -0.023149
      2          6           0       -0.321570   -1.106686   -0.004488
      3          8           0       -1.154055    0.014787   -0.006682
      4          6           0       -0.354473    1.088537   -0.012968
      5          6           0        0.963306    0.721229   -0.018542
      6          1           0        1.856335    1.330353   -0.006498
      7          1           0       -0.823963    2.078659   -0.036580
      8          1           0       -0.813905   -2.071137    0.011615
      9          1           0        1.852859   -1.342539   -0.041237
 ---------------------------------------------------------------------
                    Distance matrix (angstroms):
                    1          2          3          4          5
     1  C    0.000000
     2  C    1.358106   0.000000
     3  O    2.247354   1.396689   0.000000
     4  C    2.231749   2.195486   1.338772   0.000000
     5  C    1.425068   2.234362   2.232133   1.368023   0.000000
     6  H    2.216816   3.268399   3.285295   2.224002   1.081054
     7  H    3.313513   3.224880   2.090316   1.096047   2.244387
     8  H    2.252107   1.082968   2.113556   3.192996   3.310090
     9  H    1.085594   2.187491   3.299251   3.283785   2.247433
                    6          7          8          9
     6  H    0.000000
     7  H    2.782959   0.000000
     8  H    4.324424   4.150088   0.000000
     9  H    2.673120   4.343960   2.765009   0.000000
 Stoichiometry    C4H4O
 Framework group  C1[X(C4H4O)]
 Deg. of freedom    21
 Full point group                 C1      NOp   1
 RotChk:  IX=0 Diff= 1.95D-01
 Largest Abelian subgroup         C1      NOp   1
 Largest concise Abelian subgroup C1      NOp   1
                         Standard orientation:                         
 ---------------------------------------------------------------------
 Center     Atomic      Atomic             Coordinates (Angstroms)
 Number     Number       Type             X           Y           Z
 ---------------------------------------------------------------------
      1          6           0       -0.913414    0.770826    0.005422
      2          6           0       -1.000451   -0.584458   -0.003554
      3          8           0        0.285192   -1.130207    0.000972
      4          6           0        1.141090   -0.100768   -0.001036
      5          6           0        0.474529    1.093878   -0.003118
      6          1           0        0.856830    2.104886   -0.022765
      7          1           0        2.213817   -0.324387    0.022883
      8          1           0       -1.822290   -1.289651   -0.013695
      9          1           0       -1.740419    1.473947    0.019521
 ---------------------------------------------------------------------
 Rotational constants (GHZ):      9.5014148      9.1781262      4.6686815
 Leave Link  202 at Sun Nov 29 12:22:33 2015, MaxMem=    33554432 cpu:         0.0
 (Enter /home/Applications/g09/g09/l301.exe)

 Semi-emprical parameters in input format:
 Method=8 CoreType=1 PeptideFC=0.0105570000 RIJScale=0.4899110000
 ****
 H       
 PQN=1 NValence=1 F0ss=0.4577290000 ZetaOverlap=1.0659780000 U=-0.3880320000
 Beta=-0.2381360000 CoreKO=1.1144350000 KON=0,0,0,1.0186160000 KON=1,0,1,1.0557690000
 KON=0,1,1,1.0725930000 KON=2,1,1,1.1590830000 EISol=-0.4188110042 EHeat=0.0830298228
 Alpha=1.5252600000
 GCore=0.0099350000,1.3986240000,2.1461900000
 GCore=0.0003630000,1.5415670000,2.7171030000
 GCore=-0.0012530000,0.5088300000,4.2039300000
 ****
 C       
 PQN=2,2 NValence=4 F0ss=0.4263360000 F0sp=0.4580860000 F0pp=0.3261620000 F2pp=0.2036090000
 G1sp=0.2073130000
 ZetaOverlap=2.1016200000,1.8587190000
 U=-1.9018080000,-1.4557970000
 Beta=-0.4792560000,-0.2700630000 DDN=0,1,0.8034860000 DDN=1,1,0.7591540000
 CoreKO=1.1325510000 KON=0,0,0,1.1996250000 KON=1,0,1,0.8437060000 KON=0,1,1,1.0478550000
 KON=2,1,1,0.8168110000 EISol=-4.4398989268 EHeat=0.2723305520 Alpha=1.4381970000
 DipHyp=1.6068795495
 GCore=0.0008260000,1.4798740000,2.8384620000
 GCore=0.0031480000,1.6675340000,3.8116200000
 GCore=-0.0011560000,1.5029710000,3.9059920000
 GCore=-0.0000920000,1.1754400000,4.8520980000
 ****
 O       
 PQN=2,2 NValence=6 F0ss=0.5413910000 F0sp=0.5145480000 F0pp=0.5091470000 F2pp=0.2175940000
 G1sp=0.4302620000
 ZetaOverlap=3.3296350000,2.5240390000
 U=-3.3343200000,-2.9854240000
 Beta=-0.9082740000,-1.1340310000 DDN=0,1,0.4988900000 DDN=1,1,0.5206270000
 CoreKO=0.9688900000 KON=0,0,0,0.8976510000 KON=1,0,1,0.5186760000 KON=0,1,1,0.8274210000
 KON=2,1,1,0.5315430000 EISol=-11.6164441184 EHeat=0.0949133088 Alpha=2.3722000000
 DipHyp=0.9977225968
 GCore=0.0212480000,1.1747580000,1.6499540000
 GCore=0.0064050000,2.1096700000,2.7148630000
 ****
 
 Standard basis: VSTO-6G (5D, 7F)
 Ernie: Thresh=  0.10000D-02 Tol=  0.10000D-05 Strict=F.
  NNHCO=     0 NNPyr=     0 NCTC=     0               EPep=         0.000000000
    EC=        67.845898523  ECS=         1.635461872   EG=         0.433998068
   EHC=         0.000000000  EAt=       -31.051283842  AtH=         1.516354808
 EPDDG=         0.000000000  ECC=        69.915358463 EAtT=        32.567638650
 There are    24 symmetry adapted cartesian basis functions of A   symmetry.
 There are    24 symmetry adapted basis functions of A   symmetry.
    24 basis functions,   144 primitive gaussians,    24 cartesian basis functions
    13 alpha electrons       13 beta electrons
       nuclear repulsion energy       102.4829971133 Hartrees.
 IExCor=    0 DFT=F Ex=HF Corr=None ExCW=0 ScaHFX=  1.000000
 ScaDFX=  1.000000  1.000000  1.000000  1.000000 ScalE2=  1.000000  1.000000
 IRadAn=      0 IRanWt=     -1 IRanGd=            0 ICorTp=0 IEmpDi=  4
 Integral buffers will be    131072 words long.
 Regular integral format.
 Two-electron integral symmetry is turned off.
 Leave Link  301 at Sun Nov 29 12:22:33 2015, MaxMem=    33554432 cpu:         0.0
 (Enter /home/Applications/g09/g09/l302.exe)
 Do NDO integrals.
 NPDir=0 NMtPBC=     1 NCelOv=     1 NCel=       1 NClECP=     1 NCelD=      1
         NCelK=      1 NCelE2=     1 NClLst=     1 CellRange=     0.0.
 One-electron integrals computed using PRISM.
 NBasis=    24 RedAO= F EigKep=  0.00D+00  NBF=    24
 NBsUse=    24 1.00D-04 EigRej=  0.00D+00 NBFU=    24
 Leave Link  302 at Sun Nov 29 12:22:33 2015, MaxMem=    33554432 cpu:         0.0
 (Enter /home/Applications/g09/g09/l303.exe)
 DipDrv:  MaxL=1.
 Leave Link  303 at Sun Nov 29 12:22:33 2015, MaxMem=    33554432 cpu:         0.0
 (Enter /home/Applications/g09/g09/l401.exe)
 Initial guess from the checkpoint file:  "/home/Applications/g09/scratch/Gau-20959.chk"
 B after Tr=     0.000000    0.000000    0.000000
         Rot=    0.997701    0.000051   -0.000133   -0.067770 Ang=   7.77 deg.
 Guess basis will be translated and rotated to current coordinates.
 JPrj=0 DoOrth=T DoCkMO=T.
 Leave Link  401 at Sun Nov 29 12:22:33 2015, MaxMem=    33554432 cpu:         0.0
 (Enter /home/Applications/g09/g09/l502.exe)
 Closed shell SCF:
 Using DIIS extrapolation, IDIIS=  1040.
 Overlap will be assumed to be unity.
 Two-electron integral symmetry not used.
 Keep J ints in memory in canonical form, NReq=888082.
 IVT=       79475 IEndB=       79475 NGot=    33554432 MDV=    33473473
 LenX=    33473473 LenY=    33472456
 Requested convergence on RMS density matrix=1.00D-08 within 128 cycles.
 Requested convergence on MAX density matrix=1.00D-06.
 Requested convergence on             energy=1.00D-06.
 No special actions if energy rises.
 FoFCou: FMM=F IPFlag=           0 FMFlag=           0 FMFlg1=           0
         NFxFlg=           0 DoJE=F BraDBF=F KetDBF=F FulRan=T
         wScrn=  0.000000 ICntrl=     600 IOpCl=  2 I1Cent=           0 NGrid=           0
         NMat0=    1 NMatS0=     54 NMatT0=    0 NMatD0=    1 NMtDS0=    0 NMtDT0=    0
 Symmetry not used in FoFCou.

 Cycle   1  Pass 1  IDiag  1:
 E= 0.734330691447468    
 DIIS: error= 3.10D-03 at cycle   1 NSaved=   1.
 NSaved= 1 IEnMin= 1 EnMin= 0.734330691447468     IErMin= 1 ErrMin= 3.10D-03
 ErrMax= 3.10D-03  0.00D+00 EMaxC= 1.00D-01 BMatC= 6.25D-04 BMatP= 6.25D-04
 IDIUse=3 WtCom= 9.69D-01 WtEn= 3.10D-02
 Coeff-Com:  0.100D+01
 Coeff-En:   0.100D+01
 Coeff:      0.100D+01
 GapD=    2.000 DampG=2.000 DampE=1.000 DampFc=2.0000 IDamp=-1.
 RMSDP=1.71D-03 MaxDP=5.85D-03              OVMax= 0.00D+00

 Cycle   2  Pass 1  IDiag  3:
 E= 0.732454980897671     Delta-E=       -0.001875710550 Rises=F Damp=F
 DIIS: error= 9.96D-04 at cycle   2 NSaved=   2.
 NSaved= 2 IEnMin= 2 EnMin= 0.732454980897671     IErMin= 2 ErrMin= 9.96D-04
 ErrMax= 9.96D-04  0.00D+00 EMaxC= 1.00D-01 BMatC= 7.69D-05 BMatP= 6.25D-04
 IDIUse=3 WtCom= 9.90D-01 WtEn= 9.96D-03
 Coeff-Com: -0.466D+00 0.147D+01
 Coeff-En:   0.000D+00 0.100D+01
 Coeff:     -0.461D+00 0.146D+01
 Gap=     0.363 Goal=   None    Shift=    0.000
 RMSDP=9.91D-04 MaxDP=4.43D-03 DE=-1.88D-03 OVMax= 5.96D-03

 Cycle   3  Pass 1  IDiag  3:
 E= 0.732128024928642     Delta-E=       -0.000326955969 Rises=F Damp=F
 DIIS: error= 3.09D-04 at cycle   3 NSaved=   3.
 NSaved= 3 IEnMin= 3 EnMin= 0.732128024928642     IErMin= 3 ErrMin= 3.09D-04
 ErrMax= 3.09D-04  0.00D+00 EMaxC= 1.00D-01 BMatC= 3.68D-06 BMatP= 7.69D-05
 IDIUse=3 WtCom= 9.97D-01 WtEn= 3.09D-03
 Coeff-Com:  0.187D+00-0.666D+00 0.148D+01
 Coeff-En:   0.000D+00 0.000D+00 0.100D+01
 Coeff:      0.187D+00-0.664D+00 0.148D+01
 Gap=     0.362 Goal=   None    Shift=    0.000
 RMSDP=3.08D-04 MaxDP=2.63D-03 DE=-3.27D-04 OVMax= 2.40D-03

 Cycle   4  Pass 1  IDiag  3:
 E= 0.732100051814882     Delta-E=       -0.000027973114 Rises=F Damp=F
 DIIS: error= 2.39D-04 at cycle   4 NSaved=   4.
 NSaved= 4 IEnMin= 4 EnMin= 0.732100051814882     IErMin= 4 ErrMin= 2.39D-04
 ErrMax= 2.39D-04  0.00D+00 EMaxC= 1.00D-01 BMatC= 1.11D-06 BMatP= 3.68D-06
 IDIUse=3 WtCom= 9.98D-01 WtEn= 2.39D-03
 Coeff-Com: -0.530D-01 0.211D+00-0.752D+00 0.159D+01
 Coeff-En:   0.000D+00 0.000D+00 0.000D+00 0.100D+01
 Coeff:     -0.529D-01 0.211D+00-0.750D+00 0.159D+01
 Gap=     0.363 Goal=   None    Shift=    0.000
 RMSDP=2.11D-04 MaxDP=2.27D-03 DE=-2.80D-05 OVMax= 2.05D-03

 Cycle   5  Pass 1  IDiag  3:
 E= 0.732087659953763     Delta-E=       -0.000012391861 Rises=F Damp=F
 DIIS: error= 1.76D-04 at cycle   5 NSaved=   5.
 NSaved= 5 IEnMin= 5 EnMin= 0.732087659953763     IErMin= 5 ErrMin= 1.76D-04
 ErrMax= 1.76D-04  0.00D+00 EMaxC= 1.00D-01 BMatC= 6.82D-07 BMatP= 1.11D-06
 IDIUse=3 WtCom= 9.98D-01 WtEn= 1.76D-03
 Coeff-Com:  0.176D-01-0.859D-01 0.627D+00-0.256D+01 0.300D+01
 Coeff-En:   0.000D+00 0.000D+00 0.000D+00 0.000D+00 0.100D+01
 Coeff:      0.176D-01-0.857D-01 0.626D+00-0.255D+01 0.299D+01
 Gap=     0.363 Goal=   None    Shift=    0.000
 RMSDP=3.53D-04 MaxDP=3.75D-03 DE=-1.24D-05 OVMax= 3.46D-03

 Cycle   6  Pass 1  IDiag  3:
 E= 0.732072851818359     Delta-E=       -0.000014808135 Rises=F Damp=F
 DIIS: error= 1.01D-04 at cycle   6 NSaved=   6.
 NSaved= 6 IEnMin= 6 EnMin= 0.732072851818359     IErMin= 6 ErrMin= 1.01D-04
 ErrMax= 1.01D-04  0.00D+00 EMaxC= 1.00D-01 BMatC= 2.90D-07 BMatP= 6.82D-07
 IDIUse=3 WtCom= 9.99D-01 WtEn= 1.01D-03
 Coeff-Com:  0.295D-01-0.770D-01-0.261D+00 0.238D+01-0.409D+01 0.302D+01
 Coeff-En:   0.000D+00 0.000D+00 0.000D+00 0.000D+00 0.000D+00 0.100D+01
 Coeff:      0.295D-01-0.769D-01-0.261D+00 0.238D+01-0.408D+01 0.301D+01
 Gap=     0.362 Goal=   None    Shift=    0.000
 RMSDP=3.90D-04 MaxDP=3.94D-03 DE=-1.48D-05 OVMax= 3.82D-03

 Cycle   7  Pass 1  IDiag  3:
 E= 0.732064223153600     Delta-E=       -0.000008628665 Rises=F Damp=F
 DIIS: error= 5.03D-05 at cycle   7 NSaved=   7.
 NSaved= 7 IEnMin= 7 EnMin= 0.732064223153600     IErMin= 7 ErrMin= 5.03D-05
 ErrMax= 5.03D-05  0.00D+00 EMaxC= 1.00D-01 BMatC= 5.71D-08 BMatP= 2.90D-07
 IDIUse=1 WtCom= 1.00D+00 WtEn= 0.00D+00
 Coeff-Com: -0.109D-01 0.245D-01 0.192D+00-0.151D+01 0.277D+01-0.259D+01
 Coeff-Com:  0.213D+01
 Coeff:     -0.109D-01 0.245D-01 0.192D+00-0.151D+01 0.277D+01-0.259D+01
 Coeff:      0.213D+01
 Gap=     0.362 Goal=   None    Shift=    0.000
 RMSDP=1.53D-04 MaxDP=1.39D-03 DE=-8.63D-06 OVMax= 1.55D-03

 Cycle   8  Pass 1  IDiag  3:
 E= 0.732062883474256     Delta-E=       -0.000001339679 Rises=F Damp=F
 DIIS: error= 2.72D-05 at cycle   8 NSaved=   8.
 NSaved= 8 IEnMin= 8 EnMin= 0.732062883474256     IErMin= 8 ErrMin= 2.72D-05
 ErrMax= 2.72D-05  0.00D+00 EMaxC= 1.00D-01 BMatC= 1.35D-08 BMatP= 5.71D-08
 IDIUse=1 WtCom= 1.00D+00 WtEn= 0.00D+00
 Coeff-Com:  0.190D-01-0.558D-01-0.614D-01 0.105D+01-0.210D+01 0.215D+01
 Coeff-Com: -0.231D+01 0.232D+01
 Coeff:      0.190D-01-0.558D-01-0.614D-01 0.105D+01-0.210D+01 0.215D+01
 Coeff:     -0.231D+01 0.232D+01
 Gap=     0.362 Goal=   None    Shift=    0.000
 RMSDP=6.19D-05 MaxDP=6.79D-04 DE=-1.34D-06 OVMax= 6.03D-04

 Cycle   9  Pass 1  IDiag  3:
 E= 0.732062642323385     Delta-E=       -0.000000241151 Rises=F Damp=F
 DIIS: error= 8.13D-06 at cycle   9 NSaved=   9.
 NSaved= 9 IEnMin= 9 EnMin= 0.732062642323385     IErMin= 9 ErrMin= 8.13D-06
 ErrMax= 8.13D-06  0.00D+00 EMaxC= 1.00D-01 BMatC= 1.93D-09 BMatP= 1.35D-08
 IDIUse=1 WtCom= 1.00D+00 WtEn= 0.00D+00
 Coeff-Com: -0.100D-01 0.271D-01 0.791D-01-0.825D+00 0.158D+01-0.157D+01
 Coeff-Com:  0.169D+01-0.202D+01 0.205D+01
 Coeff:     -0.100D-01 0.271D-01 0.791D-01-0.825D+00 0.158D+01-0.157D+01
 Coeff:      0.169D+01-0.202D+01 0.205D+01
 Gap=     0.362 Goal=   None    Shift=    0.000
 RMSDP=2.06D-05 MaxDP=2.32D-04 DE=-2.41D-07 OVMax= 1.76D-04

 Cycle  10  Pass 1  IDiag  3:
 E= 0.732062615532755     Delta-E=       -0.000000026791 Rises=F Damp=F
 DIIS: error= 1.41D-06 at cycle  10 NSaved=  10.
 NSaved=10 IEnMin=10 EnMin= 0.732062615532755     IErMin=10 ErrMin= 1.41D-06
 ErrMax= 1.41D-06  0.00D+00 EMaxC= 1.00D-01 BMatC= 1.15D-10 BMatP= 1.93D-09
 IDIUse=1 WtCom= 1.00D+00 WtEn= 0.00D+00
 Coeff-Com:  0.542D-02-0.148D-01-0.400D-01 0.431D+00-0.832D+00 0.837D+00
 Coeff-Com: -0.919D+00 0.114D+01-0.134D+01 0.174D+01
 Coeff:      0.542D-02-0.148D-01-0.400D-01 0.431D+00-0.832D+00 0.837D+00
 Coeff:     -0.919D+00 0.114D+01-0.134D+01 0.174D+01
 Gap=     0.362 Goal=   None    Shift=    0.000
 RMSDP=3.24D-06 MaxDP=2.83D-05 DE=-2.68D-08 OVMax= 3.09D-05

 Cycle  11  Pass 1  IDiag  3:
 E= 0.732062614453497     Delta-E=       -0.000000001079 Rises=F Damp=F
 DIIS: error= 2.59D-07 at cycle  11 NSaved=  11.
 NSaved=11 IEnMin=11 EnMin= 0.732062614453497     IErMin=11 ErrMin= 2.59D-07
 ErrMax= 2.59D-07  0.00D+00 EMaxC= 1.00D-01 BMatC= 4.73D-12 BMatP= 1.15D-10
 IDIUse=1 WtCom= 1.00D+00 WtEn= 0.00D+00
 Coeff-Com: -0.253D-02 0.689D-02 0.189D-01-0.202D+00 0.390D+00-0.392D+00
 Coeff-Com:  0.429D+00-0.529D+00 0.632D+00-0.941D+00 0.159D+01
 Coeff:     -0.253D-02 0.689D-02 0.189D-01-0.202D+00 0.390D+00-0.392D+00
 Coeff:      0.429D+00-0.529D+00 0.632D+00-0.941D+00 0.159D+01
 Gap=     0.362 Goal=   None    Shift=    0.000
 RMSDP=5.36D-07 MaxDP=5.08D-06 DE=-1.08D-09 OVMax= 4.61D-06

 Cycle  12  Pass 1  IDiag  3:
 E= 0.732062614416009     Delta-E=       -0.000000000037 Rises=F Damp=F
 DIIS: error= 4.73D-08 at cycle  12 NSaved=  12.
 NSaved=12 IEnMin=12 EnMin= 0.732062614416009     IErMin=12 ErrMin= 4.73D-08
 ErrMax= 4.73D-08  0.00D+00 EMaxC= 1.00D-01 BMatC= 1.78D-13 BMatP= 4.73D-12
 IDIUse=1 WtCom= 1.00D+00 WtEn= 0.00D+00
 Coeff-Com:  0.690D-03-0.185D-02-0.571D-02 0.582D-01-0.112D+00 0.112D+00
 Coeff-Com: -0.122D+00 0.151D+00-0.180D+00 0.280D+00-0.583D+00 0.140D+01
 Coeff:      0.690D-03-0.185D-02-0.571D-02 0.582D-01-0.112D+00 0.112D+00
 Coeff:     -0.122D+00 0.151D+00-0.180D+00 0.280D+00-0.583D+00 0.140D+01
 Gap=     0.362 Goal=   None    Shift=    0.000
 RMSDP=8.70D-08 MaxDP=6.25D-07 DE=-3.75D-11 OVMax= 8.90D-07

 Cycle  13  Pass 1  IDiag  3:
 E= 0.732062614415241     Delta-E=       -0.000000000001 Rises=F Damp=F
 DIIS: error= 2.14D-08 at cycle  13 NSaved=  13.
 NSaved=13 IEnMin=13 EnMin= 0.732062614415241     IErMin=13 ErrMin= 2.14D-08
 ErrMax= 2.14D-08  0.00D+00 EMaxC= 1.00D-01 BMatC= 1.49D-14 BMatP= 1.78D-13
 IDIUse=1 WtCom= 1.00D+00 WtEn= 0.00D+00
 Coeff-Com: -0.155D-03 0.403D-03 0.151D-02-0.143D-01 0.272D-01-0.270D-01
 Coeff-Com:  0.292D-01-0.362D-01 0.434D-01-0.706D-01 0.169D+00-0.657D+00
 Coeff-Com:  0.153D+01
 Coeff:     -0.155D-03 0.403D-03 0.151D-02-0.143D-01 0.272D-01-0.270D-01
 Coeff:      0.292D-01-0.362D-01 0.434D-01-0.706D-01 0.169D+00-0.657D+00
 Coeff:      0.153D+01
 Gap=     0.362 Goal=   None    Shift=    0.000
 RMSDP=3.03D-08 MaxDP=2.59D-07 DE=-7.67D-13 OVMax= 2.71D-07

 Cycle  14  Pass 1  IDiag  3:
 E= 0.732062614414787     Delta-E=        0.000000000000 Rises=F Damp=F
 DIIS: error= 6.77D-09 at cycle  14 NSaved=  14.
 NSaved=14 IEnMin=14 EnMin= 0.732062614414787     IErMin=14 ErrMin= 6.77D-09
 ErrMax= 6.77D-09  0.00D+00 EMaxC= 1.00D-01 BMatC= 9.63D-16 BMatP= 1.49D-14
 IDIUse=1 WtCom= 1.00D+00 WtEn= 0.00D+00
 Coeff-Com:  0.327D-04-0.794D-04-0.413D-03 0.353D-02-0.662D-02 0.650D-02
 Coeff-Com: -0.698D-02 0.875D-02-0.106D-01 0.183D-01-0.485D-01 0.239D+00
 Coeff-Com: -0.761D+00 0.156D+01
 Coeff:      0.327D-04-0.794D-04-0.413D-03 0.353D-02-0.662D-02 0.650D-02
 Coeff:     -0.698D-02 0.875D-02-0.106D-01 0.183D-01-0.485D-01 0.239D+00
 Coeff:     -0.761D+00 0.156D+01
 Gap=     0.362 Goal=   None    Shift=    0.000
 RMSDP=6.82D-09 MaxDP=5.41D-08 DE=-4.55D-13 OVMax= 6.69D-08

 Cycle  15  Pass 2  IDiag  1:
 SCF Done:  E(RAM1) =  0.732062614415     A.U. after   15 cycles
            NFock= 14  Conv=0.68D-08     -V/T= 1.0488
 KE=-1.498670566380D+01 PE=-1.714011919107D+02 EE= 8.463696307570D+01
 Leave Link  502 at Sun Nov 29 12:22:33 2015, MaxMem=    33554432 cpu:         0.0
 (Enter /home/Applications/g09/g09/l701.exe)
 Compute integral first derivatives.
 ... and contract with generalized density number  0.
 Leave Link  701 at Sun Nov 29 12:22:33 2015, MaxMem=    33554432 cpu:         0.0
 (Enter /home/Applications/g09/g09/l702.exe)
 L702 exits ... SP integral derivatives will be done elsewhere.
 Leave Link  702 at Sun Nov 29 12:22:33 2015, MaxMem=    33554432 cpu:         0.0
 (Enter /home/Applications/g09/g09/l703.exe)
 Compute integral first derivatives, UseDBF=F ICtDFT=           0.
 Integral derivatives from FoFJK, PRISM(SPDF).
 Calling FoFJK, ICntrl=      2127 FMM=F ISym2X=0 I1Cent= 0 IOpClX= 0 NMat=1 NMatS=1 NMatT=0.
 FoFJK:  IHMeth= 8 ICntrl=    2127 DoSepK=F KAlg= 0 I1Cent=   0 FoldK=F
 IRaf=         0 NMat=   1 IRICut=       1 DoRegI=T DoRafI=F ISym2E= 0.
 FoFCou: FMM=F IPFlag=           0 FMFlag=      100000 FMFlg1=         800
         NFxFlg=           0 DoJE=F BraDBF=F KetDBF=F FulRan=T
         wScrn=  0.000000 ICntrl=    2127 IOpCl=  0 I1Cent=           0 NGrid=           0
         NMat0=    1 NMatS0=      1 NMatT0=    0 NMatD0=    1 NMtDS0=    0 NMtDT0=    0
 Symmetry not used in FoFCou.
 Leave Link  703 at Sun Nov 29 12:22:33 2015, MaxMem=    33554432 cpu:         0.0
 (Enter /home/Applications/g09/g09/l716.exe)
 Dipole        = 5.12238573D-02-1.99544492D-01-1.79807020D-03
 ***** Axes restored to original set *****
 -------------------------------------------------------------------
 Center     Atomic                   Forces (Hartrees/Bohr)
 Number     Number              X              Y              Z
 -------------------------------------------------------------------
      1        6          -0.001786147   -0.007064387    0.000918835
      2        6          -0.003052431    0.009914430   -0.000957252
      3        8          -0.004306285   -0.018557664    0.000871315
      4        6           0.012776222    0.014881894   -0.001544495
      5        6          -0.004090783    0.000938646    0.000302495
      6        1           0.001902890    0.001767135   -0.000577546
      7        1          -0.001456577   -0.000818376    0.000863511
      8        1          -0.003202985   -0.003147273   -0.000143724
      9        1           0.003216096    0.002085595    0.000266861
 -------------------------------------------------------------------
 Cartesian Forces:  Max     0.018557664 RMS     0.006013930
 Leave Link  716 at Sun Nov 29 12:22:33 2015, MaxMem=    33554432 cpu:         0.0
 (Enter /home/Applications/g09/g09/l103.exe)

 GradGradGradGradGradGradGradGradGradGradGradGradGradGradGradGradGradGrad
 Berny optimization.
 Using GEDIIS/GDIIS optimizer.
 FormGI is forming the generalized inverse of G from B-inverse, IUseBI=4.
 Internal  Forces:  Max     0.014482587 RMS     0.003140840
 Search for a local minimum.
 Step number   2 out of a maximum of   48
 All quantities printed in internal units (Hartrees-Bohrs-Radians)
 RMS Force = .31408D-02 SwitMx=.10000D-02 MixMth= 1
 Mixed Optimization -- RFO/linear search
 Update second derivatives using D2CorX and points    1    2
 DE= -5.59D-03 DEPred=-5.13D-03 R= 1.09D+00
 TightC=F SS=  1.41D+00  RLast= 1.79D-01 DXNew= 5.0454D-01 5.3643D-01
 Trust test= 1.09D+00 RLast= 1.79D-01 DXMaxT set to 5.05D-01
 ITU=  1  0
 Use linear search instead of GDIIS.
     Eigenvalues ---    0.01669   0.01897   0.02041   0.02148   0.02424
     Eigenvalues ---    0.02651   0.14643   0.15996   0.16000   0.16160
     Eigenvalues ---    0.21685   0.23001   0.34620   0.35866   0.37079
     Eigenvalues ---    0.37444   0.40165   0.40504   0.47945   0.50302
     Eigenvalues ---    0.57496
 RFO step:  Lambda=-1.04380021D-03 EMin= 1.66892378D-02
 Quartic linear search produced a step of  0.15398.
 Iteration  1 RMS(Cart)=  0.01642609 RMS(Int)=  0.00023545
 Iteration  2 RMS(Cart)=  0.00021176 RMS(Int)=  0.00011776
 Iteration  3 RMS(Cart)=  0.00000002 RMS(Int)=  0.00011776
 ITry= 1 IFail=0 DXMaxC= 3.86D-02 DCOld= 1.00D+10 DXMaxT= 5.05D-01 DXLimC= 3.00D+00 Rises=F
 Variable       Old X    -DE/DX   Delta X   Delta X   Delta X     New X
                                 (Linear)    (Quad)   (Total)
    R1        2.56645   0.00253  -0.00705   0.00679  -0.00029   2.56615
    R2        2.69299   0.00447  -0.01035   0.01622   0.00586   2.69885
    R3        2.05148   0.00137   0.00091   0.00413   0.00504   2.05652
    R4        2.63936  -0.00709  -0.00382  -0.01747  -0.02131   2.61805
    R5        2.04651   0.00426   0.00532   0.01127   0.01659   2.06311
    R6        2.52991   0.01448   0.00946   0.02355   0.03304   2.56295
    R7        2.58519  -0.00296   0.00079  -0.00588  -0.00506   2.58013
    R8        2.07123  -0.00013   0.00985  -0.00345   0.00640   2.07763
    R9        2.04290   0.00256   0.00312   0.00696   0.01008   2.05297
    A1        1.86356   0.00039  -0.00024  -0.00220  -0.00261   1.86095
    A2        2.21130   0.00347   0.00642   0.02535   0.03179   2.24309
    A3        2.20832  -0.00387  -0.00616  -0.02320  -0.02933   2.17899
    A4        1.90807   0.00115   0.00550   0.00120   0.00649   1.91457
    A5        2.34411   0.00088   0.00014   0.00890   0.00903   2.35314
    A6        2.03100  -0.00203  -0.00554  -0.01011  -0.01566   2.01534
    A7        1.86296   0.00059  -0.00467   0.00736   0.00258   1.86553
    A8        1.93905  -0.00266  -0.00458  -0.00794  -0.01261   1.92644
    A9        2.05873  -0.00041   0.00392  -0.00883  -0.00495   2.05377
   A10        2.28508   0.00308   0.00068   0.01721   0.01785   2.30293
   A11        1.85103   0.00054   0.00403   0.00213   0.00608   1.85711
   A12        2.16101   0.00012  -0.00308   0.00204  -0.00101   2.15999
   A13        2.27104  -0.00066  -0.00092  -0.00425  -0.00514   2.26590
    D1        0.01400  -0.00060   0.00455  -0.03671  -0.03207  -0.01806
    D2       -3.12671  -0.00021  -0.00141  -0.01176  -0.01318  -3.13989
    D3       -3.12457  -0.00031   0.00215  -0.01925  -0.01681  -3.14137
    D4        0.01791   0.00007  -0.00380   0.00570   0.00208   0.01999
    D5       -0.01202   0.00046  -0.00219   0.02823   0.02602   0.01400
    D6        3.11502   0.00036  -0.00078   0.02270   0.02177   3.13679
    D7        3.12656   0.00019   0.00037   0.01092   0.01161   3.13817
    D8       -0.02959   0.00009   0.00178   0.00539   0.00735  -0.02223
    D9       -0.01068   0.00052  -0.00535   0.03133   0.02595   0.01527
   D10        3.13021   0.00022  -0.00050   0.01141   0.01113   3.14133
   D11        0.00278  -0.00022   0.00407  -0.01287  -0.00882  -0.00604
   D12        3.11992   0.00024   0.00434   0.00356   0.00767   3.12760
   D13        0.00565  -0.00014  -0.00120  -0.00924  -0.01049  -0.00484
   D14       -3.12013  -0.00004  -0.00270  -0.00331  -0.00594  -3.12607
   D15       -3.10735  -0.00060  -0.00156  -0.02789  -0.02961  -3.13696
   D16        0.05005  -0.00050  -0.00306  -0.02196  -0.02506   0.02500
         Item               Value     Threshold  Converged?
 Maximum Force            0.014483     0.000450     NO 
 RMS     Force            0.003141     0.000300     NO 
 Maximum Displacement     0.038567     0.001800     NO 
 RMS     Displacement     0.016419     0.001200     NO 
 Predicted change in Energy=-6.232684D-04
 Lowest energy point so far.  Saving SCF results.
 GradGradGradGradGradGradGradGradGradGradGradGradGradGradGradGradGradGrad

 Leave Link  103 at Sun Nov 29 12:22:33 2015, MaxMem=    33554432 cpu:         0.0
 (Enter /home/Applications/g09/g09/l202.exe)
                          Input orientation:                          
 ---------------------------------------------------------------------
 Center     Atomic      Atomic             Coordinates (Angstroms)
 Number     Number       Type             X           Y           Z
 ---------------------------------------------------------------------
      1          6           0        0.973480   -0.710174   -0.013004
      2          6           0       -0.324998   -1.107643   -0.011959
      3          8           0       -1.153246    0.002873   -0.000697
      4          6           0       -0.348653    1.094600   -0.014597
      5          6           0        0.963643    0.717897   -0.026596
      6          1           0        1.862649    1.327834   -0.026160
      7          1           0       -0.829564    2.083247   -0.022155
      8          1           0       -0.834270   -2.073287   -0.002532
      9          1           0        1.870753   -1.325927   -0.020828
 ---------------------------------------------------------------------
                    Distance matrix (angstroms):
                    1          2          3          4          5
     1  C    0.000000
     2  C    1.357950   0.000000
     3  O    2.243112   1.385413   0.000000
     4  C    2.237240   2.202372   1.356256   0.000000
     5  C    1.428170   2.234593   2.234535   1.365345   0.000000
     6  H    2.223572   3.273767   3.294205   2.223597   1.086386
     7  H    3.324793   3.230553   2.105513   1.099435   2.253839
     8  H    2.264100   1.091749   2.100521   3.204914   3.320208
     9  H    1.088262   2.206592   3.303133   3.284015   2.236091
                    6          7          8          9
     6  H    0.000000
     7  H    2.796189   0.000000
     8  H    4.340686   4.156583   0.000000
     9  H    2.653779   4.349044   2.806427   0.000000
 Stoichiometry    C4H4O
 Framework group  C1[X(C4H4O)]
 Deg. of freedom    21
 Full point group                 C1      NOp   1
 RotChk:  IX=0 Diff= 1.55D-01
 Largest Abelian subgroup         C1      NOp   1
 Largest concise Abelian subgroup C1      NOp   1
                         Standard orientation:                         
 ---------------------------------------------------------------------
 Center     Atomic      Atomic             Coordinates (Angstroms)
 Number     Number       Type             X           Y           Z
 ---------------------------------------------------------------------
      1          6           0       -0.826627    0.863700   -0.004518
      2          6           0       -1.055987   -0.474703    0.005464
      3          8           0        0.150681   -1.155314   -0.003947
      4          6           0        1.131429   -0.218539   -0.000091
      5          6           0        0.591164    1.035362    0.003721
      6          1           0        1.081996    2.004502   -0.005621
      7          1           0        2.173160   -0.569962    0.007235
      8          1           0       -1.949164   -1.102514    0.003437
      9          1           0       -1.551315    1.675567   -0.000931
 ---------------------------------------------------------------------
 Rotational constants (GHZ):      9.4421026      9.1910469      4.6575368
 Leave Link  202 at Sun Nov 29 12:22:33 2015, MaxMem=    33554432 cpu:         0.0
 (Enter /home/Applications/g09/g09/l301.exe)

 Semi-emprical parameters in input format:
 Method=8 CoreType=1 PeptideFC=0.0105570000 RIJScale=0.4899110000
 ****
 H       
 PQN=1 NValence=1 F0ss=0.4577290000 ZetaOverlap=1.0659780000 U=-0.3880320000
 Beta=-0.2381360000 CoreKO=1.1144350000 KON=0,0,0,1.0186160000 KON=1,0,1,1.0557690000
 KON=0,1,1,1.0725930000 KON=2,1,1,1.1590830000 EISol=-0.4188110042 EHeat=0.0830298228
 Alpha=1.5252600000
 GCore=0.0099350000,1.3986240000,2.1461900000
 GCore=0.0003630000,1.5415670000,2.7171030000
 GCore=-0.0012530000,0.5088300000,4.2039300000
 ****
 C       
 PQN=2,2 NValence=4 F0ss=0.4263360000 F0sp=0.4580860000 F0pp=0.3261620000 F2pp=0.2036090000
 G1sp=0.2073130000
 ZetaOverlap=2.1016200000,1.8587190000
 U=-1.9018080000,-1.4557970000
 Beta=-0.4792560000,-0.2700630000 DDN=0,1,0.8034860000 DDN=1,1,0.7591540000
 CoreKO=1.1325510000 KON=0,0,0,1.1996250000 KON=1,0,1,0.8437060000 KON=0,1,1,1.0478550000
 KON=2,1,1,0.8168110000 EISol=-4.4398989268 EHeat=0.2723305520 Alpha=1.4381970000
 DipHyp=1.6068795495
 GCore=0.0008260000,1.4798740000,2.8384620000
 GCore=0.0031480000,1.6675340000,3.8116200000
 GCore=-0.0011560000,1.5029710000,3.9059920000
 GCore=-0.0000920000,1.1754400000,4.8520980000
 ****
 O       
 PQN=2,2 NValence=6 F0ss=0.5413910000 F0sp=0.5145480000 F0pp=0.5091470000 F2pp=0.2175940000
 G1sp=0.4302620000
 ZetaOverlap=3.3296350000,2.5240390000
 U=-3.3343200000,-2.9854240000
 Beta=-0.9082740000,-1.1340310000 DDN=0,1,0.4988900000 DDN=1,1,0.5206270000
 CoreKO=0.9688900000 KON=0,0,0,0.8976510000 KON=1,0,1,0.5186760000 KON=0,1,1,0.8274210000
 KON=2,1,1,0.5315430000 EISol=-11.6164441184 EHeat=0.0949133088 Alpha=2.3722000000
 DipHyp=0.9977225968
 GCore=0.0212480000,1.1747580000,1.6499540000
 GCore=0.0064050000,2.1096700000,2.7148630000
 ****
 
 Standard basis: VSTO-6G (5D, 7F)
 Ernie: Thresh=  0.10000D-02 Tol=  0.10000D-05 Strict=F.
  NNHCO=     0 NNPyr=     0 NCTC=     0               EPep=         0.000000000
    EC=        67.777512061  ECS=         1.621291078   EG=         0.431158310
   EHC=         0.000000000  EAt=       -31.051283842  AtH=         1.516354808
 EPDDG=         0.000000000  ECC=        69.829961449 EAtT=        32.567638650
 There are    24 symmetry adapted cartesian basis functions of A   symmetry.
 There are    24 symmetry adapted basis functions of A   symmetry.
    24 basis functions,   144 primitive gaussians,    24 cartesian basis functions
    13 alpha electrons       13 beta electrons
       nuclear repulsion energy       102.3976000990 Hartrees.
 IExCor=    0 DFT=F Ex=HF Corr=None ExCW=0 ScaHFX=  1.000000
 ScaDFX=  1.000000  1.000000  1.000000  1.000000 ScalE2=  1.000000  1.000000
 IRadAn=      0 IRanWt=     -1 IRanGd=            0 ICorTp=0 IEmpDi=  4
 Integral buffers will be    131072 words long.
 Regular integral format.
 Two-electron integral symmetry is turned off.
 Leave Link  301 at Sun Nov 29 12:22:33 2015, MaxMem=    33554432 cpu:         0.0
 (Enter /home/Applications/g09/g09/l302.exe)
 Do NDO integrals.
 NPDir=0 NMtPBC=     1 NCelOv=     1 NCel=       1 NClECP=     1 NCelD=      1
         NCelK=      1 NCelE2=     1 NClLst=     1 CellRange=     0.0.
 One-electron integrals computed using PRISM.
 NBasis=    24 RedAO= F EigKep=  0.00D+00  NBF=    24
 NBsUse=    24 1.00D-04 EigRej=  0.00D+00 NBFU=    24
 Leave Link  302 at Sun Nov 29 12:22:33 2015, MaxMem=    33554432 cpu:         0.0
 (Enter /home/Applications/g09/g09/l303.exe)
 DipDrv:  MaxL=1.
 Leave Link  303 at Sun Nov 29 12:22:33 2015, MaxMem=    33554432 cpu:         0.0
 (Enter /home/Applications/g09/g09/l401.exe)
 Initial guess from the checkpoint file:  "/home/Applications/g09/scratch/Gau-20959.chk"
 B after Tr=     0.000000    0.000000    0.000000
         Rot=    0.998501    0.000003   -0.000011    0.054730 Ang=   6.27 deg.
 Guess basis will be translated and rotated to current coordinates.
 JPrj=0 DoOrth=T DoCkMO=T.
 Leave Link  401 at Sun Nov 29 12:22:33 2015, MaxMem=    33554432 cpu:         0.0
 (Enter /home/Applications/g09/g09/l502.exe)
 Closed shell SCF:
 Using DIIS extrapolation, IDIIS=  1040.
 Overlap will be assumed to be unity.
 Two-electron integral symmetry not used.
 Keep J ints in memory in canonical form, NReq=888082.
 IVT=       79475 IEndB=       79475 NGot=    33554432 MDV=    33473473
 LenX=    33473473 LenY=    33472456
 Requested convergence on RMS density matrix=1.00D-08 within 128 cycles.
 Requested convergence on MAX density matrix=1.00D-06.
 Requested convergence on             energy=1.00D-06.
 No special actions if energy rises.
 FoFCou: FMM=F IPFlag=           0 FMFlag=           0 FMFlg1=           0
         NFxFlg=           0 DoJE=F BraDBF=F KetDBF=F FulRan=T
         wScrn=  0.000000 ICntrl=     600 IOpCl=  2 I1Cent=           0 NGrid=           0
         NMat0=    1 NMatS0=     54 NMatT0=    0 NMatD0=    1 NMtDS0=    0 NMtDT0=    0
 Symmetry not used in FoFCou.

 Cycle   1  Pass 1  IDiag  1:
 E= 0.731944444317975    
 DIIS: error= 1.31D-03 at cycle   1 NSaved=   1.
 NSaved= 1 IEnMin= 1 EnMin= 0.731944444317975     IErMin= 1 ErrMin= 1.31D-03
 ErrMax= 1.31D-03  0.00D+00 EMaxC= 1.00D-01 BMatC= 1.44D-04 BMatP= 1.44D-04
 IDIUse=3 WtCom= 9.87D-01 WtEn= 1.31D-02
 Coeff-Com:  0.100D+01
 Coeff-En:   0.100D+01
 Coeff:      0.100D+01
 GapD=    2.000 DampG=2.000 DampE=1.000 DampFc=2.0000 IDamp=-1.
 RMSDP=9.48D-04 MaxDP=3.97D-03              OVMax= 0.00D+00

 Cycle   2  Pass 1  IDiag  3:
 E= 0.731433979005459     Delta-E=       -0.000510465313 Rises=F Damp=F
 DIIS: error= 6.08D-04 at cycle   2 NSaved=   2.
 NSaved= 2 IEnMin= 2 EnMin= 0.731433979005459     IErMin= 2 ErrMin= 6.08D-04
 ErrMax= 6.08D-04  0.00D+00 EMaxC= 1.00D-01 BMatC= 2.19D-05 BMatP= 1.44D-04
 IDIUse=3 WtCom= 9.94D-01 WtEn= 6.08D-03
 Coeff-Com: -0.521D+00 0.152D+01
 Coeff-En:   0.000D+00 0.100D+01
 Coeff:     -0.518D+00 0.152D+01
 Gap=     0.363 Goal=   None    Shift=    0.000
 RMSDP=6.59D-04 MaxDP=3.35D-03 DE=-5.10D-04 OVMax= 4.26D-03

 Cycle   3  Pass 1  IDiag  3:
 E= 0.731312479154326     Delta-E=       -0.000121499851 Rises=F Damp=F
 DIIS: error= 1.96D-04 at cycle   3 NSaved=   3.
 NSaved= 3 IEnMin= 3 EnMin= 0.731312479154326     IErMin= 3 ErrMin= 1.96D-04
 ErrMax= 1.96D-04  0.00D+00 EMaxC= 1.00D-01 BMatC= 1.63D-06 BMatP= 2.19D-05
 IDIUse=3 WtCom= 9.98D-01 WtEn= 1.96D-03
 Coeff-Com:  0.312D+00-0.101D+01 0.170D+01
 Coeff-En:   0.000D+00 0.000D+00 0.100D+01
 Coeff:      0.311D+00-0.101D+01 0.170D+01
 Gap=     0.363 Goal=   None    Shift=    0.000
 RMSDP=2.63D-04 MaxDP=2.16D-03 DE=-1.21D-04 OVMax= 2.29D-03

 Cycle   4  Pass 1  IDiag  3:
 E= 0.731297205880054     Delta-E=       -0.000015273274 Rises=F Damp=F
 DIIS: error= 1.50D-04 at cycle   4 NSaved=   4.
 NSaved= 4 IEnMin= 4 EnMin= 0.731297205880054     IErMin= 4 ErrMin= 1.50D-04
 ErrMax= 1.50D-04  0.00D+00 EMaxC= 1.00D-01 BMatC= 4.66D-07 BMatP= 1.63D-06
 IDIUse=3 WtCom= 9.98D-01 WtEn= 1.50D-03
 Coeff-Com: -0.127D+00 0.439D+00-0.946D+00 0.163D+01
 Coeff-En:   0.000D+00 0.000D+00 0.000D+00 0.100D+01
 Coeff:     -0.127D+00 0.438D+00-0.945D+00 0.163D+01
 Gap=     0.363 Goal=   None    Shift=    0.000
 RMSDP=1.44D-04 MaxDP=1.49D-03 DE=-1.53D-05 OVMax= 1.46D-03

 Cycle   5  Pass 1  IDiag  3:
 E= 0.731291674367526     Delta-E=       -0.000005531513 Rises=F Damp=F
 DIIS: error= 1.12D-04 at cycle   5 NSaved=   5.
 NSaved= 5 IEnMin= 5 EnMin= 0.731291674367526     IErMin= 5 ErrMin= 1.12D-04
 ErrMax= 1.12D-04  0.00D+00 EMaxC= 1.00D-01 BMatC= 3.08D-07 BMatP= 4.66D-07
 IDIUse=3 WtCom= 9.99D-01 WtEn= 1.12D-03
 Coeff-Com:  0.870D-01-0.302D+00 0.849D+00-0.308D+01 0.345D+01
 Coeff-En:   0.000D+00 0.000D+00 0.000D+00 0.000D+00 0.100D+01
 Coeff:      0.869D-01-0.302D+00 0.848D+00-0.308D+01 0.345D+01
 Gap=     0.363 Goal=   None    Shift=    0.000
 RMSDP=2.90D-04 MaxDP=2.93D-03 DE=-5.53D-06 OVMax= 2.91D-03

 Cycle   6  Pass 1  IDiag  3:
 E= 0.731283794840209     Delta-E=       -0.000007879527 Rises=F Damp=F
 DIIS: error= 6.39D-05 at cycle   6 NSaved=   6.
 NSaved= 6 IEnMin= 6 EnMin= 0.731283794840209     IErMin= 6 ErrMin= 6.39D-05
 ErrMax= 6.39D-05  0.00D+00 EMaxC= 1.00D-01 BMatC= 1.07D-07 BMatP= 3.08D-07
 IDIUse=1 WtCom= 1.00D+00 WtEn= 0.00D+00
 Coeff-Com:  0.386D-01-0.114D+00 0.280D-01 0.153D+01-0.301D+01 0.253D+01
 Coeff:      0.386D-01-0.114D+00 0.280D-01 0.153D+01-0.301D+01 0.253D+01
 Gap=     0.363 Goal=   None    Shift=    0.000
 RMSDP=2.66D-04 MaxDP=2.59D-03 DE=-7.88D-06 OVMax= 2.65D-03

 Cycle   7  Pass 1  IDiag  3:
 E= 0.731280430805072     Delta-E=       -0.000003364035 Rises=F Damp=F
 DIIS: error= 2.45D-05 at cycle   7 NSaved=   7.
 NSaved= 7 IEnMin= 7 EnMin= 0.731280430805072     IErMin= 7 ErrMin= 2.45D-05
 ErrMax= 2.45D-05  0.00D+00 EMaxC= 1.00D-01 BMatC= 1.60D-08 BMatP= 1.07D-07
 IDIUse=1 WtCom= 1.00D+00 WtEn= 0.00D+00
 Coeff-Com: -0.127D-01 0.359D-01 0.502D-01-0.110D+01 0.215D+01-0.215D+01
 Coeff-Com:  0.203D+01
 Coeff:     -0.127D-01 0.359D-01 0.502D-01-0.110D+01 0.215D+01-0.215D+01
 Coeff:      0.203D+01
 Gap=     0.363 Goal=   None    Shift=    0.000
 RMSDP=7.87D-05 MaxDP=7.48D-04 DE=-3.36D-06 OVMax= 7.82D-04

 Cycle   8  Pass 1  IDiag  3:
 E= 0.731280092333620     Delta-E=       -0.000000338471 Rises=F Damp=F
 DIIS: error= 1.19D-05 at cycle   8 NSaved=   8.
 NSaved= 8 IEnMin= 8 EnMin= 0.731280092333620     IErMin= 8 ErrMin= 1.19D-05
 ErrMax= 1.19D-05  0.00D+00 EMaxC= 1.00D-01 BMatC= 3.44D-09 BMatP= 1.60D-08
 IDIUse=1 WtCom= 1.00D+00 WtEn= 0.00D+00
 Coeff-Com:  0.271D-01-0.840D-01 0.650D-01 0.706D+00-0.160D+01 0.177D+01
 Coeff-Com: -0.207D+01 0.219D+01
 Coeff:      0.271D-01-0.840D-01 0.650D-01 0.706D+00-0.160D+01 0.177D+01
 Coeff:     -0.207D+01 0.219D+01
 Gap=     0.363 Goal=   None    Shift=    0.000
 RMSDP=2.52D-05 MaxDP=2.78D-04 DE=-3.38D-07 OVMax= 2.19D-04

 Cycle   9  Pass 1  IDiag  3:
 E= 0.731280041851377     Delta-E=       -0.000000050482 Rises=F Damp=F
 DIIS: error= 4.18D-06 at cycle   9 NSaved=   9.
 NSaved= 9 IEnMin= 9 EnMin= 0.731280041851377     IErMin= 9 ErrMin= 4.18D-06
 ErrMax= 4.18D-06  0.00D+00 EMaxC= 1.00D-01 BMatC= 5.91D-10 BMatP= 3.44D-09
 IDIUse=1 WtCom= 1.00D+00 WtEn= 0.00D+00
 Coeff-Com: -0.145D-01 0.436D-01-0.680D-02-0.643D+00 0.134D+01-0.143D+01
 Coeff-Com:  0.168D+01-0.214D+01 0.216D+01
 Coeff:     -0.145D-01 0.436D-01-0.680D-02-0.643D+00 0.134D+01-0.143D+01
 Coeff:      0.168D+01-0.214D+01 0.216D+01
 Gap=     0.363 Goal=   None    Shift=    0.000
 RMSDP=9.50D-06 MaxDP=1.06D-04 DE=-5.05D-08 OVMax= 8.54D-05

 Cycle  10  Pass 1  IDiag  3:
 E= 0.731280034461676     Delta-E=       -0.000000007390 Rises=F Damp=F
 DIIS: error= 9.21D-07 at cycle  10 NSaved=  10.
 NSaved=10 IEnMin=10 EnMin= 0.731280034461676     IErMin=10 ErrMin= 9.21D-07
 ErrMax= 9.21D-07  0.00D+00 EMaxC= 1.00D-01 BMatC= 4.46D-11 BMatP= 5.91D-10
 IDIUse=1 WtCom= 1.00D+00 WtEn= 0.00D+00
 Coeff-Com:  0.919D-02-0.279D-01 0.890D-02 0.366D+00-0.777D+00 0.835D+00
 Coeff-Com: -0.997D+00 0.131D+01-0.157D+01 0.184D+01
 Coeff:      0.919D-02-0.279D-01 0.890D-02 0.366D+00-0.777D+00 0.835D+00
 Coeff:     -0.997D+00 0.131D+01-0.157D+01 0.184D+01
 Gap=     0.363 Goal=   None    Shift=    0.000
[...]
     38  0.000000D+00  0.158220D-05  0.000000D+00  0.000000D+00  0.000000D+00
               16            17            18            19            20 
     16  0.127627D+00
     17 -0.696774D-01  0.100886D+00
     18  0.370534D-01 -0.575785D-01  0.742104D-01
     19  0.326240D-01 -0.433076D-01 -0.166319D-01  0.599395D-01
     20  0.588547D-02 -0.387262D-01  0.236884D-01  0.150378D-01  0.768329D-01
     21  0.117000D-02  0.194964D-01 -0.119339D-01 -0.756254D-02 -0.375267D-01
     22 -0.705547D-02  0.192298D-01 -0.117545D-01 -0.747525D-02 -0.393062D-01
     23  0.417520D-05  0.000000D+00 -0.357264D-05  0.400696D-05 -0.238748D-05
     24  0.165962D-05 -0.287448D-05  0.000000D+00  0.000000D+00  0.105465D-05
     25  0.187953D-05  0.231721D-05 -0.218850D-05  0.210956D-05 -0.444094D-05
     26  0.000000D+00  0.000000D+00  0.210011D-05 -0.182733D-05  0.000000D+00
     27 -0.326927D-05  0.404470D-05 -0.109860D-05  0.000000D+00  0.000000D+00
     28 -0.506162D-05  0.691442D-05  0.000000D+00 -0.445803D-05 -0.170594D-05
     29  0.000000D+00  0.000000D+00 -0.144354D-05  0.280534D-05  0.000000D+00
     30  0.000000D+00  0.263689D-05  0.000000D+00 -0.195385D-05 -0.177810D-05
     31  0.173611D-05 -0.549452D-05  0.681104D-05 -0.442233D-05  0.106009D-05
     32  0.276878D-05 -0.376278D-05  0.347063D-05 -0.120929D-05 -0.133723D-05
     33 -0.277095D-05  0.000000D+00 -0.300857D-05  0.854799D-05  0.344243D-05
     34 -0.513572D-05  0.155963D-05  0.183356D-04 -0.212155D-04  0.517925D-05
     35 -0.436922D-05  0.220558D-05  0.000000D+00 -0.692443D-05  0.000000D+00
     36  0.146392D-05 -0.279592D-05  0.000000D+00 -0.100694D-05  0.650732D-05
     37 -0.931420D-05  0.808073D-05  0.245396D-05 -0.753783D-05 -0.395262D-05
     38 -0.348107D-05  0.307923D-05  0.272375D-05 -0.162034D-05  0.250759D-05
               21            22            23            24            25 
     21  0.538601D-01
     22 -0.163334D-01  0.556396D-01
     23  0.256047D-05 -0.416575D-05  0.151760D-01
     24 -0.286888D-05  0.000000D+00  0.289984D-02  0.988786D-02
     25  0.768911D-05 -0.491710D-05  0.510559D-02 -0.441262D-02  0.889763D-02
     26  0.225977D-05  0.000000D+00 -0.717058D-02  0.257539D-02 -0.620578D-03
     27  0.000000D+00  0.565886D-05 -0.126778D-01 -0.510416D-02 -0.179285D-02
     28  0.146550D-04 -0.138857D-04 -0.549447D-02 -0.287219D-02  0.120968D-02
     29 -0.358276D-05  0.719642D-05 -0.344537D-02  0.159978D-02 -0.526932D-02
     30  0.110592D-04 -0.123481D-04  0.373792D-02  0.383176D-02 -0.226680D-02
     31 -0.304847D-05  0.290702D-05 -0.118687D-01  0.393204D-03 -0.644620D-02
     32  0.103588D-05  0.000000D+00 -0.209971D-02 -0.516764D-02  0.112810D-02
     33  0.000000D+00 -0.102941D-05  0.346053D-02 -0.377935D-02  0.525802D-02
     34  0.383267D-05 -0.736899D-05  0.359484D-02  0.997396D-04  0.110064D-02
     35 -0.172944D-05 -0.345805D-05  0.565820D-02  0.549025D-02 -0.216120D-02
     36  0.109385D-04 -0.155168D-04 -0.216254D-02  0.306020D-02 -0.543017D-02
     37 -0.518818D-05  0.541236D-05  0.548954D-02  0.619360D-03  0.305913D-02
     38  0.747973D-05 -0.664640D-05 -0.233119D-02 -0.181069D-02 -0.209835D-03
               26            27            28            29            30 
     26  0.912539D-02
     27  0.578075D-02  0.154260D-01
     28  0.383197D-02  0.542938D-02  0.711441D-02
     29 -0.224179D-03  0.544690D-02 -0.716873D-03  0.711907D-02
     30 -0.217296D-02 -0.454972D-02  0.968160D-03  0.955303D-03  0.647318D-02
     31  0.581571D-02  0.511681D-02  0.346411D-02  0.145550D-03 -0.150715D-02
     32 -0.193983D-02 -0.910023D-03  0.137738D-02 -0.386922D-02 -0.158182D-02
     33 -0.198186D-02  0.511578D-02  0.137075D-03  0.346787D-02 -0.151084D-02
     34 -0.239446D-02 -0.915708D-03 -0.387144D-02  0.137093D-02 -0.158480D-02
     35 -0.232915D-02 -0.126766D-01 -0.342864D-02 -0.550788D-02  0.374005D-02
     36 -0.207430D-03 -0.179285D-02 -0.526320D-02  0.120287D-02 -0.226748D-02
     37 -0.181105D-02 -0.510296D-02  0.160477D-02 -0.287481D-02  0.383293D-02
     38  0.310668D-03  0.578077D-02 -0.229782D-03  0.383594D-02 -0.217461D-02
               31            32            33            34            35 
     31  0.140434D-01
     32  0.428574D-02  0.672710D-02
     33 -0.106515D-01 -0.489023D-02  0.140472D-01
     34 -0.488273D-02 -0.210144D-02  0.427616D-02  0.672846D-02
     35  0.346363D-02  0.359728D-02 -0.118738D-01 -0.209161D-02  0.151802D-01
     36  0.526299D-02  0.110689D-02 -0.645332D-02  0.112642D-02  0.511164D-02
     37 -0.378008D-02  0.954613D-04  0.395495D-03 -0.517091D-02  0.289690D-02
     38 -0.198072D-02 -0.239492D-02  0.581602D-02 -0.195287D-02 -0.717170D-02
               36            37            38 
     36  0.888996D-02
     37 -0.440609D-02  0.988652D-02
     38 -0.627765D-03  0.258353D-02  0.912746D-02
 Leave Link  716 at Sun Nov 29 12:22:34 2015, MaxMem=    33554432 cpu:         0.0
 (Enter /home/Applications/g09/g09/l103.exe)

 GradGradGradGradGradGradGradGradGradGradGradGradGradGradGradGradGradGrad
 Berny optimization.
 Red2BG is reusing G-inverse.
 Internal  Forces:  Max     0.000176716 RMS     0.000052689
 Search for a local minimum.
 Step number   1 out of a maximum of    2
 All quantities printed in internal units (Hartrees-Bohrs-Radians)
 Second derivative matrix not updated -- analytic derivatives used.
 ITU=  0
     Eigenvalues ---    0.00899   0.01177   0.01844   0.02432   0.04719
     Eigenvalues ---    0.05313   0.06569   0.06794   0.07048   0.07710
     Eigenvalues ---    0.17815   0.24472   0.25298   0.31190   0.31884
     Eigenvalues ---    0.31949   0.32980   0.35172   0.39673   0.47701
     Eigenvalues ---    0.63825
 Angle between quadratic step and forces=  49.84 degrees.
 Linear search not attempted -- first point.
 Iteration  1 RMS(Cart)=  0.00040073 RMS(Int)=  0.00000021
 Iteration  2 RMS(Cart)=  0.00000019 RMS(Int)=  0.00000007
 ITry= 1 IFail=0 DXMaxC= 1.16D-03 DCOld= 1.00D+10 DXMaxT= 3.00D-01 DXLimC= 3.00D+00 Rises=F
 Variable       Old X    -DE/DX   Delta X   Delta X   Delta X     New X
                                 (Linear)    (Quad)   (Total)
    R1        2.56785   0.00007   0.00000   0.00030   0.00030   2.56814
    R2        2.71030  -0.00006   0.00000  -0.00027  -0.00027   2.71003
    R3        2.05271   0.00004   0.00000   0.00008   0.00008   2.05279
    R4        2.59519  -0.00010   0.00000  -0.00069  -0.00069   2.59450
    R5        2.06554   0.00009   0.00000   0.00033   0.00033   2.06587
    R6        2.59393   0.00014   0.00000   0.00057   0.00057   2.59450
    R7        2.56810   0.00005   0.00000   0.00004   0.00004   2.56814
    R8        2.06541   0.00018   0.00000   0.00046   0.00046   2.06587
    R9        2.05253   0.00007   0.00000   0.00026   0.00026   2.05279
    A1        1.85904   0.00000   0.00000  -0.00015  -0.00015   1.85890
    A2        2.27016  -0.00006   0.00000  -0.00091  -0.00091   2.26925
    A3        2.15398   0.00006   0.00000   0.00106   0.00106   2.15504
    A4        1.92009   0.00003   0.00000   0.00024   0.00024   1.92033
    A5        2.34260  -0.00005   0.00000  -0.00075  -0.00075   2.34186
    A6        2.02050   0.00001   0.00000   0.00051   0.00051   2.02100
    A7        1.86638  -0.00001   0.00000  -0.00004  -0.00004   1.86633
    A8        1.92053  -0.00004   0.00000  -0.00020  -0.00020   1.92033
    A9        2.02073   0.00005   0.00000   0.00027   0.00027   2.02100
   A10        2.34193  -0.00002   0.00000  -0.00007  -0.00007   2.34186
   A11        1.85874   0.00002   0.00000   0.00015   0.00015   1.85890
   A12        2.15539  -0.00003   0.00000  -0.00035  -0.00035   2.15504
   A13        2.26905   0.00001   0.00000   0.00020   0.00020   2.26925
    D1       -0.00001   0.00000   0.00000   0.00001   0.00001   0.00000
    D2        3.14150   0.00000   0.00000   0.00010   0.00010  -3.14159
    D3        3.14125   0.00000   0.00000   0.00035   0.00035  -3.14159
    D4       -0.00044   0.00000   0.00000   0.00044   0.00044   0.00000
    D5       -0.00007   0.00001   0.00000   0.00007   0.00007   0.00000
    D6       -3.14113   0.00000   0.00000  -0.00046  -0.00046  -3.14159
    D7       -3.14135   0.00000   0.00000  -0.00024  -0.00024   3.14159
    D8        0.00077  -0.00001   0.00000  -0.00077  -0.00077   0.00000
    D9        0.00008   0.00000   0.00000  -0.00008  -0.00008   0.00000
   D10       -3.14144   0.00000   0.00000  -0.00015  -0.00015   3.14159
   D11       -0.00013   0.00001   0.00000   0.00013   0.00013   0.00000
   D12       -3.14127   0.00000   0.00000  -0.00032  -0.00032  -3.14159
   D13        0.00013  -0.00001   0.00000  -0.00013  -0.00013   0.00000
   D14        3.14114   0.00000   0.00000   0.00045   0.00045   3.14159
   D15        3.14115   0.00000   0.00000   0.00045   0.00045   3.14159
   D16       -0.00103   0.00001   0.00000   0.00103   0.00103   0.00000
         Item               Value     Threshold  Converged?
 Maximum Force            0.000177     0.000450     YES
 RMS     Force            0.000053     0.000300     YES
 Maximum Displacement     0.001163     0.001800     YES
 RMS     Displacement     0.000401     0.001200     YES
 Predicted change in Energy=-2.836238D-07
 Optimization completed.
    -- Stationary point found.
                           ----------------------------
                           !   Optimized Parameters   !
                           ! (Angstroms and Degrees)  !
 --------------------------                            --------------------------
 ! Name  Definition              Value          Derivative Info.                !
 --------------------------------------------------------------------------------
 ! R1    R(1,2)                  1.3588         -DE/DX =    0.0001              !
 ! R2    R(1,5)                  1.4342         -DE/DX =   -0.0001              !
 ! R3    R(1,9)                  1.0862         -DE/DX =    0.0                 !
 ! R4    R(2,3)                  1.3733         -DE/DX =   -0.0001              !
 ! R5    R(2,8)                  1.093          -DE/DX =    0.0001              !
 ! R6    R(3,4)                  1.3726         -DE/DX =    0.0001              !
 ! R7    R(4,5)                  1.359          -DE/DX =    0.0                 !
 ! R8    R(4,7)                  1.093          -DE/DX =    0.0002              !
 ! R9    R(5,6)                  1.0862         -DE/DX =    0.0001              !
 ! A1    A(2,1,5)              106.5154         -DE/DX =    0.0                 !
 ! A2    A(2,1,9)              130.0706         -DE/DX =   -0.0001              !
 ! A3    A(5,1,9)              123.4139         -DE/DX =    0.0001              !
 ! A4    A(1,2,3)              110.0129         -DE/DX =    0.0                 !
 ! A5    A(1,2,8)              134.2212         -DE/DX =    0.0                 !
 ! A6    A(3,2,8)              115.7659         -DE/DX =    0.0                 !
 ! A7    A(2,3,4)              106.9354         -DE/DX =    0.0                 !
 ! A8    A(3,4,5)              110.0381         -DE/DX =    0.0                 !
 ! A9    A(3,4,7)              115.7793         -DE/DX =    0.0001              !
 ! A10   A(5,4,7)              134.1826         -DE/DX =    0.0                 !
 ! A11   A(1,5,4)              106.4981         -DE/DX =    0.0                 !
 ! A12   A(1,5,6)              123.4947         -DE/DX =    0.0                 !
 ! A13   A(4,5,6)              130.0072         -DE/DX =    0.0                 !
 ! D1    D(5,1,2,3)             -0.0004         -DE/DX =    0.0                 !
 ! D2    D(5,1,2,8)           -180.0055         -DE/DX =    0.0                 !
 ! D3    D(9,1,2,3)           -180.0199         -DE/DX =    0.0                 !
 ! D4    D(9,1,2,8)             -0.0249         -DE/DX =    0.0                 !
 ! D5    D(2,1,5,4)             -0.0041         -DE/DX =    0.0                 !
 ! D6    D(2,1,5,6)           -179.9736         -DE/DX =    0.0                 !
 ! D7    D(9,1,5,4)            180.0137         -DE/DX =    0.0                 !
 ! D8    D(9,1,5,6)              0.0442         -DE/DX =    0.0                 !
 ! D9    D(1,2,3,4)              0.0048         -DE/DX =    0.0                 !
 ! D10   D(8,2,3,4)            180.0088         -DE/DX =    0.0                 !
 ! D11   D(2,3,4,5)             -0.0076         -DE/DX =    0.0                 !
 ! D12   D(2,3,4,7)           -179.9814         -DE/DX =    0.0                 !
 ! D13   D(3,4,5,1)              0.0073         -DE/DX =    0.0                 !
 ! D14   D(3,4,5,6)            179.974          -DE/DX =    0.0                 !
 ! D15   D(7,4,5,1)            179.9744         -DE/DX =    0.0                 !
 ! D16   D(7,4,5,6)             -0.0588         -DE/DX =    0.0                 !
 --------------------------------------------------------------------------------
 GradGradGradGradGradGradGradGradGradGradGradGradGradGradGradGradGradGrad

 Leave Link  103 at Sun Nov 29 12:22:34 2015, MaxMem=    33554432 cpu:         0.0
 (Enter /home/Applications/g09/g09/l9999.exe)
 1\1\GINC-DUSTIN-DESKTOP\Freq\RAM1\ZDO\C4H4O1\DUSTIN\29-Nov-2015\0\\#P 
 Geom=AllCheck Guess=TCheck SCRF=Check GenChk RAM1/ZDO Freq\\AM1-Repara
 m Input\\0,1\C,0.9691976713,-0.7152923875,-0.0166208215\C,-0.333102365
 5,-1.1031100488,-0.0079260649\O,-1.1518400134,-0.0005377779,-0.0076700
 012\C,-0.3359996471,1.1033112133,-0.0165590354\C,0.9674747526,0.718923
 4622,-0.0221720555\H,1.8725195393,1.3193890794,-0.0299145106\H,-0.8449
 460644,2.0705478035,-0.0171856909\H,-0.8401186839,-2.0714160235,-0.001
 4469231\H,1.8766088112,-1.3123953205,-0.0190338968\\Version=ES64L-G09R
 evD.01\State=1-A\HF=0.7309424\RMSD=4.265e-10\RMSF=8.644e-05\ZeroPoint=
 0.0648993\Thermal=0.0688508\Dipole=-0.2017783,0.0002226,0.0010646\Dipo
 leDeriv=-0.5744985,0.0814418,-0.0002039,0.3428823,-0.6035737,-0.001621
 9,-0.0012218,-0.0002375,-0.552895,0.2715148,0.0041797,-0.000879,-0.334
 4694,-0.2235541,0.0036573,0.0006795,0.0014785,0.1599492,-0.8850322,-0.
 000354,0.0033725,-0.0026404,0.0821865,-0.0019628,0.0034334,-0.0014607,
 -0.2807041,0.2742783,-0.0056676,-0.0004951,0.3367983,-0.2227951,-0.000
 1324,-0.0020464,0.0016194,0.1615847,-0.5756586,-0.0799242,0.0005556,-0
 .3427174,-0.6088215,0.0020413,0.0015202,0.0005667,-0.5549701,0.4654221
 ,0.0918811,-0.0012697,0.204171,0.305712,-0.0011213,-0.0017521,-0.00052
 95,0.3036282,0.2790968,-0.19262,0.0004886,-0.1952078,0.4825891,0.00010
 4,0.0004715,0.0001141,0.2298617,0.2785053,0.1924025,-0.0010324,0.19479
 58,0.4836978,-0.0020805,-0.0010195,-0.0020378,0.2301713,0.4664277,-0.0
 913647,-0.0005367,-0.2036398,0.3046036,0.0011163,-0.0000687,0.0004846,
 0.303376\Polar=57.0015104,0.0242004,48.6177543,-0.2636728,-0.1602915,8
 .7883437\HyperPolar=46.2563169,1.2451755,-235.7376571,-0.9315043,-0.18
 81749,1.0249327,1.2725739,6.1434593,-0.0100118,-0.10391\PG=C01 [X(C4H4
 O1)]\NImag=0\\0.78818386,-0.08712778,0.56746648,-0.00317367,-0.0012134
 2,0.14168726,-0.39727764,-0.06895919,0.00201242,0.62901629,-0.13224114
 ,-0.12101742,0.00088713,0.20278189,0.60958944,0.00225825,0.00053561,-0
 .08034586,-0.00348958,-0.00293909,0.13717299,-0.10008080,0.01284545,0.
 00059879,-0.15117175,0.07864779,0.00018687,0.49303645,0.05513448,0.003
 83422,-0.00025229,0.04097186,-0.13336039,0.00004441,0.00085845,0.34541
 368,0.00043377,-0.00001813,0.01733648,0.00033673,-0.00016464,-0.062822
 99,-0.00231524,-0.00104113,0.07698102,0.00080028,0.07817185,-0.0002066
 3,0.02580090,-0.01727139,-0.00001809,-0.15138937,-0.04155815,0.0006568
 2,0.63012396,0.02953980,-0.02988445,0.00002666,0.01747764,-0.11075136,
 0.00037868,-0.07933219,-0.13464415,0.00072071,-0.20191798,0.60966125,-
 0.00001565,-0.00023789,0.01829119,-0.00016262,0.00057546,0.01064284,0.
 00080757,0.00050144,-0.06279307,-0.00196711,-0.00066748,0.13716118,-0.
 06591516,-0.03143893,0.00006613,0.00103203,-0.02942333,0.00020841,-0.0
 9996899,-0.05547647,0.00086486,-0.39748563,0.13147895,0.00123168,0.787
 36323,0.03198175,-0.29183868,0.00066467,-0.07803878,-0.03024380,0.0006
 2184,-0.01311710,0.00378952,0.00012250,0.06811216,-0.12053868,-0.00022
 157,0.08798189,0.56823333,-0.00017886,0.00101302,-0.07577448,0.0004015
 7,0.00034608,0.01827055,0.00069990,0.00036749,0.01735665,0.00147157,-0
 .00056887,-0.08039918,-0.00397528,-0.00220000,0.14171804,-0.00036156,-
 0.00371004,0.00004422,0.00215550,-0.00189499,0.00000626,-0.00051050,0.
 00591786,0.00000519,-0.02669849,-0.01243745,0.00022749,-0.21006105,-0.
 12142286,0.00151543,0.23435133,-0.01614853,-0.01987535,0.00018869,0.00
 153611,-0.00378589,0.00001348,0.00300689,0.00370284,-0.00001243,0.0035
 0491,0.00515146,-0.00001959,-0.12480621,-0.10751058,0.00102215,0.13303
 190,0.12191537,0.00009217,0.00011694,0.00463501,-0.00000812,0.00003364
 ,0.00182868,0.00001554,-0.00003232,0.00455741,0.00015997,0.00007100,0.
 00477509,0.00153641,0.00100636,-0.03499088,-0.00178889,-0.00119052,0.0
 1944162,-0.00226227,-0.00074965,0.00003374,-0.00044969,-0.00506004,0.0
 0003834,0.00530314,-0.01308101,0.00003395,-0.08284284,0.10820124,-0.00
 010919,-0.01226533,0.01998075,0.00002472,-0.00028013,-0.00043604,0.000
 00217,0.09207140,-0.00050236,0.00204555,0.00000678,-0.00539740,0.00210
 032,0.00003192,0.00204331,-0.04626441,0.00017390,0.10707692,-0.2173246
 3,0.00006794,0.00500518,-0.00412045,0.00000912,0.00117676,0.00120027,-
 0.00001226,-0.10930963,0.26352314,0.00003241,0.00000836,0.00335364,0.0
 0004127,0.00003036,0.00278793,-0.00002475,0.00026244,0.00241815,-0.000
 09745,0.00005246,-0.03228989,0.00007459,-0.00006971,0.00582169,-0.0000
 0437,-0.00000336,-0.00023964,-0.00001851,-0.00028294,0.01805775,-0.012
 20447,-0.02000408,0.00017621,-0.08239695,-0.10787802,0.00068752,0.0052
 5920,0.01316823,-0.00006666,-0.00046057,0.00506694,-0.00000194,-0.0022
 6881,0.00074698,0.00002860,-0.00002114,-0.00020540,0.00000046,0.000749
 42,-0.00024417,-0.00000242,0.09162429,-0.00503674,-0.00418514,0.000065
 84,-0.10673773,-0.21770791,0.00129445,-0.00194439,-0.04614180,0.000198
 49,0.00539907,0.00212059,-0.00002868,0.00048830,0.00205946,0.00000274,
 -0.00015109,-0.00020740,0.00000130,0.00024772,-0.00095486,0.00000313,0
 .10891641,0.26381890,0.00012025,0.00014930,0.00580920,0.00068175,0.001
 29811,-0.03229593,-0.00000871,0.00011550,0.00240459,-0.00000330,-0.000
 02522,0.00278256,0.00002914,0.00000103,0.00335724,0.00000021,0.0000014
 8,-0.00007594,-0.00000408,0.00000586,0.00016699,-0.00082020,-0.0015380
 1,0.01808977,-0.21088684,0.12097190,0.00044881,-0.02669768,0.01234040,
 0.00012197,-0.00049064,-0.00593277,0.00005064,0.00216138,0.00191925,-0
 .00001025,-0.00043551,0.00377565,0.00001239,0.00142553,0.00051578,-0.0
 0000969,-0.00002228,0.00015101,-0.00000077,-0.00027923,-0.00118068,0.0
 0000493,0.23522511,0.12439175,-0.10654664,-0.00037400,-0.00363372,0.00
 518284,0.00001866,-0.00300786,0.00366760,0.00002073,-0.00151936,-0.003
 78485,0.00003037,0.01620015,-0.01983224,0.00000823,-0.00050930,-0.0005
 9177,0.00000586,0.00020554,-0.00020613,-0.00000074,0.00043433,0.001197
 15,-0.00000805,-0.13256126,0.12091279,0.00043140,-0.00035376,-0.034993
 01,0.00018668,-0.00006728,0.00476196,0.00004002,0.00003468,0.00456190,
 0.00000418,0.00001201,0.00182956,-0.00003600,0.00007486,0.00464006,-0.
 00000554,0.00000009,0.00006884,-0.00000117,-0.00000029,-0.00007656,-0.
 00000156,0.00000077,-0.00023857,-0.00061800,0.00029893,0.01944589\\-0.
 00012198,-0.00013603,-0.00002349,0.00010621,-0.00017424,0.00000383,0.0
 0000796,0.00022024,0.00001124,-0.00006664,0.00001554,-0.00004184,0.000
 07447,0.00010187,0.00004580,-0.00007277,-0.00002031,-0.00001564,0.0000
 5202,-0.00017231,0.00001377,0.00001804,0.00009666,-0.00000348,0.000002
 69,0.00006858,0.00000980\\\@


 SCIENCE IS LONG AND LIFE IS SHORT.

                     DON MOSER IN THE FEBRUARY 1979 SMITHSONIAN
 Job cpu time:       0 days  0 hours  0 minutes  0.3 seconds.
 File lengths (MBytes):  RWF=      5 Int=      0 D2E=      0 Chk=      2 Scr=      1
 Normal termination of Gaussian 09 at Sun Nov 29 12:22:34 2015.
