 Entering Gaussian System, Link 0=g09
 Input=FuranDFT.com
 Output=FuranDFT.log
 Initial command:
 /home/Applications/g09/g09/l1.exe "/home/Applications/g09/scratch/Gau-11472.inp" -scrdir="/home/Applications/g09/scratch/"
 Entering Link 1 = /home/Applications/g09/g09/l1.exe PID=     11474.
  
 Copyright (c) 1988,1990,1992,1993,1995,1998,2003,2009,2013,
            Gaussian, Inc.  All Rights Reserved.
  
 This is part of the Gaussian(R) 09 program.  It is based on
 the Gaussian(R) 03 system (copyright 2003, Gaussian, Inc.),
 the Gaussian(R) 98 system (copyright 1998, Gaussian, Inc.),
 the Gaussian(R) 94 system (copyright 1995, Gaussian, Inc.),
 the Gaussian 92(TM) system (copyright 1992, Gaussian, Inc.),
 the Gaussian 90(TM) system (copyright 1990, Gaussian, Inc.),
 the Gaussian 88(TM) system (copyright 1988, Gaussian, Inc.),
 the Gaussian 86(TM) system (copyright 1986, Carnegie Mellon
 University), and the Gaussian 82(TM) system (copyright 1983,
 Carnegie Mellon University). Gaussian is a federally registered
 trademark of Gaussian, Inc.
  
 This software contains proprietary and confidential information,
 including trade secrets, belonging to Gaussian, Inc.
  
 This software is provided under written license and may be
 used, copied, transmitted, or stored only in accord with that
 written license.
  
 The following legend is applicable only to US Government
 contracts under FAR:
  
                    RESTRICTED RIGHTS LEGEND
  
 Use, reproduction and disclosure by the US Government is
 subject to restrictions as set forth in subparagraphs (a)
 and (c) of the Commercial Computer Software - Restricted
 Rights clause in FAR 52.227-19.
  
 Gaussian, Inc.
 340 Quinnipiac St., Bldg. 40, Wallingford CT 06492
  
  
 ---------------------------------------------------------------
 Warning -- This program may not be used in any manner that
 competes with the business of Gaussian, Inc. or will provide
 assistance to any competitor of Gaussian, Inc.  The licensee
 of this program is prohibited from giving any competitor of
 Gaussian, Inc. access to this program.  By using this program,
 the user acknowledges that Gaussian, Inc. is engaged in the
 business of creating and licensing software in the field of
 computational chemistry and represents and warrants to the
 licensee that it is not a competitor of Gaussian, Inc. and that
 it will not use this program in any manner prohibited above.
 ---------------------------------------------------------------
  

 Cite this work as:
 Gaussian 09, Revision D.01,
 M. J. Frisch, G. W. Trucks, H. B. Schlegel, G. E. Scuseria, 
 M. A. Robb, J. R. Cheeseman, G. Scalmani, V. Barone, B. Mennucci, 
 G. A. Petersson, H. Nakatsuji, M. Caricato, X. Li, H. P. Hratchian, 
 A. F. Izmaylov, J. Bloino, G. Zheng, J. L. Sonnenberg, M. Hada, 
 M. Ehara, K. Toyota, R. Fukuda, J. Hasegawa, M. Ishida, T. Nakajima, 
 Y. Honda, O. Kitao, H. Nakai, T. Vreven, J. A. Montgomery, Jr., 
 J. E. Peralta, F. Ogliaro, M. Bearpark, J. J. Heyd, E. Brothers, 
 K. N. Kudin, V. N. Staroverov, T. Keith, R. Kobayashi, J. Normand, 
 K. Raghavachari, A. Rendell, J. C. Burant, S. S. Iyengar, J. Tomasi, 
 M. Cossi, N. Rega, J. M. Millam, M. Klene, J. E. Knox, J. B. Cross, 
 V. Bakken, C. Adamo, J. Jaramillo, R. Gomperts, R. E. Stratmann, 
 O. Yazyev, A. J. Austin, R. Cammi, C. Pomelli, J. W. Ochterski, 
 R. L. Martin, K. Morokuma, V. G. Zakrzewski, G. A. Voth, 
 P. Salvador, J. J. Dannenberg, S. Dapprich, A. D. Daniels, 
 O. Farkas, J. B. Foresman, J. V. Ortiz, J. Cioslowski, 
 and D. J. Fox, Gaussian, Inc., Wallingford CT, 2013.
 
 ******************************************
 Gaussian 09:  ES64L-G09RevD.01 24-Apr-2013
                23-Nov-2015 
 ******************************************
 ---------------------------------------------------
 #P B3LYP/cc-pVDZ CIS(Singlets,NStates=15) pop(full)
 ---------------------------------------------------
 1/38=1/1;
 2/12=2,17=6,18=5,40=1/2;
 3/5=16,11=9,16=1,25=1,30=1,74=-5/1,2,8,3;
 4//1;
 5/5=2,38=5/2;
 8/6=1,10=1,108=15/1;
 9/41=15,42=1,48=1/14;
 6/7=3/1;
 99/5=1,9=1/99;
 Leave Link    1 at Mon Nov 23 16:19:19 2015, MaxMem=           0 cpu:         0.0
 (Enter /home/Applications/g09/g09/l101.exe)
 --------
 FuranDFT
 --------
 Symbolic Z-matrix:
 Charge =  0 Multiplicity = 1
 6                     0.95548  -0.71596   0. 
 6                    -0.34563  -1.09282   0. 
 8                    -1.15731   0.        0. 
 6                    -0.34563   1.09282   0. 
 6                     0.95548   0.71596   0. 
 1                     1.81044   1.36938   0. 
 1                    -0.84031   2.04688   0. 
 1                    -0.84031  -2.04688   0. 
 1                     1.81044  -1.36938   0. 
 
 NAtoms=      9 NQM=        9 NQMF=       0 NMMI=      0 NMMIF=      0
                NMic=       0 NMicF=      0.
                    Isotopes and Nuclear Properties:
 (Nuclear quadrupole moments (NQMom) in fm**2, nuclear magnetic moments (NMagM)
  in nuclear magnetons)

  Atom         1           2           3           4           5           6           7           8           9
 IAtWgt=          12          12          16          12          12           1           1           1           1
 AtmWgt=  12.0000000  12.0000000  15.9949146  12.0000000  12.0000000   1.0078250   1.0078250   1.0078250   1.0078250
 NucSpn=           0           0           0           0           0           1           1           1           1
 AtZEff=   0.0000000   0.0000000   0.0000000   0.0000000   0.0000000   0.0000000   0.0000000   0.0000000   0.0000000
 NQMom=    0.0000000   0.0000000   0.0000000   0.0000000   0.0000000   0.0000000   0.0000000   0.0000000   0.0000000
 NMagM=    0.0000000   0.0000000   0.0000000   0.0000000   0.0000000   2.7928460   2.7928460   2.7928460   2.7928460
 AtZNuc=   6.0000000   6.0000000   8.0000000   6.0000000   6.0000000   1.0000000   1.0000000   1.0000000   1.0000000
 Leave Link  101 at Mon Nov 23 16:19:19 2015, MaxMem=    33554432 cpu:         0.0
 (Enter /home/Applications/g09/g09/l202.exe)
                          Input orientation:                          
 ---------------------------------------------------------------------
 Center     Atomic      Atomic             Coordinates (Angstroms)
 Number     Number       Type             X           Y           Z
 ---------------------------------------------------------------------
      1          6           0        0.955475   -0.715963    0.000000
      2          6           0       -0.345627   -1.092818    0.000000
      3          8           0       -1.157305    0.000000    0.000000
      4          6           0       -0.345627    1.092818    0.000000
      5          6           0        0.955475    0.715963    0.000000
      6          1           0        1.810438    1.369382    0.000000
      7          1           0       -0.840307    2.046884    0.000000
      8          1           0       -0.840307   -2.046884    0.000000
      9          1           0        1.810438   -1.369382    0.000000
 ---------------------------------------------------------------------
                    Distance matrix (angstroms):
                    1          2          3          4          5
     1  C    0.000000
     2  C    1.354580   0.000000
     3  O    2.230794   1.361276   0.000000
     4  C    2.228128   2.185636   1.361276   0.000000
     5  C    1.431926   2.228128   2.230794   1.354580   0.000000
     6  H    2.253802   3.272773   3.268441   2.173730   1.076066
     7  H    3.295172   3.178433   2.071285   1.074686   2.235214
     8  H    2.235214   1.074686   2.071285   3.178433   3.295172
     9  H    1.076066   2.173730   3.268441   3.272773   2.253802
                    6          7          8          9
     6  H    0.000000
     7  H    2.735957   0.000000
     8  H    4.324040   4.093768   0.000000
     9  H    2.738764   4.324040   2.735957   0.000000
 Stoichiometry    C4H4O
 Framework group  C2V[C2(O),SGV(C4H4)]
 Deg. of freedom     8
 Full point group                 C2V     NOp   4
 Largest Abelian subgroup         C2V     NOp   4
 Largest concise Abelian subgroup C2      NOp   2
                         Standard orientation:                         
 ---------------------------------------------------------------------
 Center     Atomic      Atomic             Coordinates (Angstroms)
 Number     Number       Type             X           Y           Z
 ---------------------------------------------------------------------
      1          6           0        0.000000    0.715963   -0.955475
      2          6           0        0.000000    1.092818    0.345627
      3          8           0        0.000000    0.000000    1.157305
      4          6           0        0.000000   -1.092818    0.345627
      5          6           0        0.000000   -0.715963   -0.955475
      6          1           0        0.000000   -1.369382   -1.810438
      7          1           0        0.000000   -2.046884    0.840307
      8          1           0        0.000000    2.046884    0.840307
      9          1           0        0.000000    1.369382   -1.810438
 ---------------------------------------------------------------------
 Rotational constants (GHZ):      9.5015164      9.3284592      4.7070963
 Leave Link  202 at Mon Nov 23 16:19:19 2015, MaxMem=    33554432 cpu:         0.0
 (Enter /home/Applications/g09/g09/l301.exe)
 Standard basis: CC-pVDZ (5D, 7F)
 Ernie: Thresh=  0.10000D-02 Tol=  0.10000D-05 Strict=F.
 Ernie:  10 primitive shells out of 130 were deleted.
 There are    38 symmetry adapted cartesian basis functions of A1  symmetry.
 There are    11 symmetry adapted cartesian basis functions of A2  symmetry.
 There are    13 symmetry adapted cartesian basis functions of B1  symmetry.
 There are    33 symmetry adapted cartesian basis functions of B2  symmetry.
 There are    35 symmetry adapted basis functions of A1  symmetry.
 There are    11 symmetry adapted basis functions of A2  symmetry.
 There are    13 symmetry adapted basis functions of B1  symmetry.
 There are    31 symmetry adapted basis functions of B2  symmetry.
    90 basis functions,   193 primitive gaussians,    95 cartesian basis functions
    18 alpha electrons       18 beta electrons
       nuclear repulsion energy       161.2261194346 Hartrees.
 IExCor=  402 DFT=T Ex+Corr=B3LYP ExCW=0 ScaHFX=  0.200000
 ScaDFX=  0.800000  0.720000  1.000000  0.810000 ScalE2=  1.000000  1.000000
 IRadAn=      0 IRanWt=     -1 IRanGd=            0 ICorTp=0 IEmpDi=  4
 NAtoms=    9 NActive=    9 NUniq=    5 SFac= 3.24D+00 NAtFMM=   60 NAOKFM=F Big=F
 Integral buffers will be    131072 words long.
 Regular integral format.
 Two-electron integral symmetry is turned on.
 Leave Link  301 at Mon Nov 23 16:19:19 2015, MaxMem=    33554432 cpu:         0.0
 (Enter /home/Applications/g09/g09/l302.exe)
 NPDir=0 NMtPBC=     1 NCelOv=     1 NCel=       1 NClECP=     1 NCelD=      1
         NCelK=      1 NCelE2=     1 NClLst=     1 CellRange=     0.0.
 One-electron integrals computed using PRISM.
 One-electron integral symmetry used in STVInt
 NBasis=    90 RedAO= T EigKep=  8.24D-04  NBF=    35    11    13    31
 NBsUse=    90 1.00D-06 EigRej= -1.00D+00 NBFU=    35    11    13    31
 Precomputing XC quadrature grid using
 IXCGrd= 4 IRadAn=           0 IRanWt=          -1 IRanGd=           0 AccXCQ= 0.00D+00.
 Generated NRdTot=       0 NPtTot=           0 NUsed=           0 NTot=          32
 NSgBfM=    95    95    95    95    95 MxSgAt=     9 MxSgA2=     9.
 Leave Link  302 at Mon Nov 23 16:19:19 2015, MaxMem=    33554432 cpu:         0.1
 (Enter /home/Applications/g09/g09/l308.exe)
 Leave Link  308 at Mon Nov 23 16:19:19 2015, MaxMem=    33554432 cpu:         0.0
 (Enter /home/Applications/g09/g09/l303.exe)
 DipDrv:  MaxL=1.
 Leave Link  303 at Mon Nov 23 16:19:19 2015, MaxMem=    33554432 cpu:         0.0
 (Enter /home/Applications/g09/g09/l401.exe)
 ExpMin= 1.22D-01 ExpMax= 1.17D+04 ExpMxC= 4.01D+02 IAcc=1 IRadAn=         1 AccDes= 0.00D+00
 Harris functional with IExCor=  402 and IRadAn=       1 diagonalized for initial guess.
 HarFok:  IExCor=  402 AccDes= 0.00D+00 IRadAn=         1 IDoV= 1 UseB2=F ITyADJ=14
 ICtDFT=  3500011 ScaDFX=  1.000000  1.000000  1.000000  1.000000
 FoFCou: FMM=F IPFlag=           0 FMFlag=      100000 FMFlg1=           0
         NFxFlg=           0 DoJE=T BraDBF=F KetDBF=T FulRan=T
         wScrn=  0.000000 ICntrl=     500 IOpCl=  0 I1Cent=   200000004 NGrid=           0
         NMat0=    1 NMatS0=      1 NMatT0=    0 NMatD0=    1 NMtDS0=    0 NMtDT0=    0
 Petite list used in FoFCou.
 Harris En= -230.038184133889    
 JPrj=0 DoOrth=F DoCkMO=F.
 Initial guess orbital symmetries:
       Occupied  (A1) (A1) (B2) (B2) (A1) (A1) (A1) (B2) (B2) (A1)
                 (A1) (B2) (B2) (B1) (A1) (A1) (B1) (A2)
       Virtual   (B1) (A2) (A1) (A1) (B2) (B2) (A1) (B2) (A1) (B2)
                 (B2) (A1) (A1) (B2) (B1) (B2) (A2) (A1) (B1) (A1)
                 (A2) (B2) (A1) (B2) (A1) (B1) (B2) (A1) (B1) (B2)
                 (A1) (B2) (B1) (A2) (A1) (A2) (A1) (B1) (B2) (B2)
                 (A1) (B2) (A2) (A1) (B1) (A1) (B2) (B1) (A1) (B2)
                 (A2) (A2) (A1) (B2) (A1) (B1) (B2) (A1) (A2) (B2)
                 (B2) (A1) (A1) (B2) (B2) (A1) (B1) (A2) (A1) (B2)
                 (B2) (A1)
 The electronic state of the initial guess is 1-A1.
 Leave Link  401 at Mon Nov 23 16:19:19 2015, MaxMem=    33554432 cpu:         0.1
 (Enter /home/Applications/g09/g09/l502.exe)
 Closed shell SCF:
 Using DIIS extrapolation, IDIIS=  1040.
 Integral symmetry usage will be decided dynamically.
 Keep R1 ints in memory in symmetry-blocked form, NReq=10650281.
 IVT=       47143 IEndB=       47143 NGot=    33554432 MDV=    31290802
 LenX=    31290802 LenY=    31281336
 Requested convergence on RMS density matrix=1.00D-08 within 128 cycles.
 Requested convergence on MAX density matrix=1.00D-06.
 Requested convergence on             energy=1.00D-06.
 No special actions if energy rises.
 FoFCou: FMM=F IPFlag=           0 FMFlag=           0 FMFlg1=           0
         NFxFlg=           0 DoJE=F BraDBF=F KetDBF=F FulRan=T
         wScrn=  0.000000 ICntrl=     600 IOpCl=  0 I1Cent=           0 NGrid=           0
         NMat0=    1 NMatS0=   4095 NMatT0=    0 NMatD0=    1 NMtDS0=    0 NMtDT0=    0
 Petite list used in FoFCou.
 Integral accuracy reduced to 1.0D-05 until final iterations.

 Cycle   1  Pass 0  IDiag  1:
 E= -229.927592006806    
 DIIS: error= 3.28D-02 at cycle   1 NSaved=   1.
 NSaved= 1 IEnMin= 1 EnMin= -229.927592006806     IErMin= 1 ErrMin= 3.28D-02
 ErrMax= 3.28D-02  0.00D+00 EMaxC= 1.00D-01 BMatC= 9.32D-02 BMatP= 9.32D-02
 IDIUse=3 WtCom= 6.72D-01 WtEn= 3.28D-01
 Coeff-Com:  0.100D+01
 Coeff-En:   0.100D+01
 Coeff:      0.100D+01
 Gap=     0.222 Goal=   None    Shift=    0.000
 GapD=    0.222 DampG=1.000 DampE=0.500 DampFc=0.5000 IDamp=-1.
 Damping current iteration by 5.00D-01
 RMSDP=7.39D-03 MaxDP=1.39D-01              OVMax= 2.07D-01

 Cycle   2  Pass 0  IDiag  1:
 E= -229.970647128253     Delta-E=       -0.043055121447 Rises=F Damp=T
 DIIS: error= 1.19D-02 at cycle   2 NSaved=   2.
 NSaved= 2 IEnMin= 2 EnMin= -229.970647128253     IErMin= 2 ErrMin= 1.19D-02
 ErrMax= 1.19D-02  0.00D+00 EMaxC= 1.00D-01 BMatC= 9.28D-03 BMatP= 9.32D-02
 IDIUse=3 WtCom= 8.81D-01 WtEn= 1.19D-01
 Coeff-Com:  0.121D+00 0.879D+00
 Coeff-En:   0.191D+00 0.809D+00
 Coeff:      0.129D+00 0.871D+00
 Gap=     0.237 Goal=   None    Shift=    0.000
 RMSDP=2.45D-03 MaxDP=3.57D-02 DE=-4.31D-02 OVMax= 1.65D-01

 Cycle   3  Pass 0  IDiag  1:
 E= -230.025943860564     Delta-E=       -0.055296732312 Rises=F Damp=F
 DIIS: error= 1.22D-02 at cycle   3 NSaved=   3.
 NSaved= 3 IEnMin= 3 EnMin= -230.025943860564     IErMin= 2 ErrMin= 1.19D-02
 ErrMax= 1.22D-02  0.00D+00 EMaxC= 1.00D-01 BMatC= 1.09D-02 BMatP= 9.28D-03
 IDIUse=2 WtCom= 0.00D+00 WtEn= 1.00D+00
 Coeff-En:   0.000D+00 0.000D+00 0.100D+01
 Coeff:      0.000D+00 0.000D+00 0.100D+01
 Gap=     0.232 Goal=   None    Shift=    0.000
 RMSDP=2.98D-03 MaxDP=6.24D-02 DE=-5.53D-02 OVMax= 1.27D-01

 Cycle   4  Pass 0  IDiag  1:
 E= -229.993397741193     Delta-E=        0.032546119371 Rises=F Damp=F
 DIIS: error= 2.70D-02 at cycle   4 NSaved=   4.
 NSaved= 4 IEnMin= 3 EnMin= -230.025943860564     IErMin= 2 ErrMin= 1.19D-02
 ErrMax= 2.70D-02  0.00D+00 EMaxC= 1.00D-01 BMatC= 4.55D-02 BMatP= 9.28D-03
 IDIUse=2 WtCom= 0.00D+00 WtEn= 1.00D+00
 Coeff-En:   0.000D+00 0.000D+00 0.756D+00 0.244D+00
 Coeff:      0.000D+00 0.000D+00 0.756D+00 0.244D+00
 Gap=     0.241 Goal=   None    Shift=    0.000
 RMSDP=1.50D-03 MaxDP=3.15D-02 DE= 3.25D-02 OVMax= 6.89D-02

 Cycle   5  Pass 0  IDiag  1:
 E= -230.033818581230     Delta-E=       -0.040420840037 Rises=F Damp=F
 DIIS: error= 6.35D-03 at cycle   5 NSaved=   5.
 NSaved= 5 IEnMin= 5 EnMin= -230.033818581230     IErMin= 5 ErrMin= 6.35D-03
 ErrMax= 6.35D-03  0.00D+00 EMaxC= 1.00D-01 BMatC= 2.67D-03 BMatP= 9.28D-03
 IDIUse=3 WtCom= 9.37D-01 WtEn= 6.35D-02
 Coeff-Com: -0.595D-02 0.246D-01 0.219D+00-0.117D+00 0.879D+00
 Coeff-En:   0.000D+00 0.000D+00 0.242D+00 0.000D+00 0.758D+00
 Coeff:     -0.557D-02 0.230D-01 0.221D+00-0.110D+00 0.871D+00
 Gap=     0.244 Goal=   None    Shift=    0.000
 RMSDP=5.21D-04 MaxDP=1.02D-02 DE=-4.04D-02 OVMax= 2.23D-02

 Cycle   6  Pass 0  IDiag  1:
 E= -230.036364273236     Delta-E=       -0.002545692006 Rises=F Damp=F
 DIIS: error= 3.32D-04 at cycle   6 NSaved=   6.
 NSaved= 6 IEnMin= 6 EnMin= -230.036364273236     IErMin= 6 ErrMin= 3.32D-04
 ErrMax= 3.32D-04  0.00D+00 EMaxC= 1.00D-01 BMatC= 8.38D-06 BMatP= 2.67D-03
 IDIUse=3 WtCom= 9.97D-01 WtEn= 3.32D-03
 Coeff-Com: -0.472D-02 0.103D-01 0.934D-01-0.714D-01 0.478D+00 0.495D+00
 Coeff-En:   0.000D+00 0.000D+00 0.000D+00 0.000D+00 0.000D+00 0.100D+01
 Coeff:     -0.471D-02 0.103D-01 0.931D-01-0.712D-01 0.476D+00 0.496D+00
 Gap=     0.244 Goal=   None    Shift=    0.000
 RMSDP=3.02D-05 MaxDP=6.21D-04 DE=-2.55D-03 OVMax= 1.35D-03

 Cycle   7  Pass 0  IDiag  1:
 E= -230.036373038799     Delta-E=       -0.000008765562 Rises=F Damp=F
 DIIS: error= 2.31D-05 at cycle   7 NSaved=   7.
 NSaved= 7 IEnMin= 7 EnMin= -230.036373038799     IErMin= 7 ErrMin= 2.31D-05
 ErrMax= 2.31D-05  0.00D+00 EMaxC= 1.00D-01 BMatC= 7.02D-08 BMatP= 8.38D-06
 IDIUse=1 WtCom= 1.00D+00 WtEn= 0.00D+00
 Coeff-Com: -0.242D-03-0.250D-03 0.744D-02-0.529D-02 0.397D-01 0.120D+00
 Coeff-Com:  0.839D+00
 Coeff:     -0.242D-03-0.250D-03 0.744D-02-0.529D-02 0.397D-01 0.120D+00
 Coeff:      0.839D+00
 Gap=     0.244 Goal=   None    Shift=    0.000
 RMSDP=2.60D-06 MaxDP=4.05D-05 DE=-8.77D-06 OVMax= 6.48D-05

 Initial convergence to 1.0D-05 achieved.  Increase integral accuracy.
 Cycle   8  Pass 1  IDiag  1:
 E= -230.036429832832     Delta-E=       -0.000056794033 Rises=F Damp=F
 DIIS: error= 1.81D-05 at cycle   1 NSaved=   1.
 NSaved= 1 IEnMin= 1 EnMin= -230.036429832832     IErMin= 1 ErrMin= 1.81D-05
 ErrMax= 1.81D-05  0.00D+00 EMaxC= 1.00D-01 BMatC= 1.19D-08 BMatP= 1.19D-08
 IDIUse=1 WtCom= 1.00D+00 WtEn= 0.00D+00
 Coeff-Com:  0.100D+01
 Coeff:      0.100D+01
 Gap=     0.244 Goal=   None    Shift=    0.000
 RMSDP=2.60D-06 MaxDP=4.05D-05 DE=-5.68D-05 OVMax= 5.69D-05

 Cycle   9  Pass 1  IDiag  1:
 E= -230.036429847147     Delta-E=       -0.000000014315 Rises=F Damp=F
 DIIS: error= 5.89D-06 at cycle   2 NSaved=   2.
 NSaved= 2 IEnMin= 2 EnMin= -230.036429847147     IErMin= 2 ErrMin= 5.89D-06
 ErrMax= 5.89D-06  0.00D+00 EMaxC= 1.00D-01 BMatC= 2.48D-09 BMatP= 1.19D-08
 IDIUse=1 WtCom= 1.00D+00 WtEn= 0.00D+00
 Coeff-Com:  0.207D+00 0.793D+00
 Coeff:      0.207D+00 0.793D+00
 Gap=     0.244 Goal=   None    Shift=    0.000
 RMSDP=1.18D-06 MaxDP=1.93D-05 DE=-1.43D-08 OVMax= 4.85D-05

 Cycle  10  Pass 1  IDiag  1:
 E= -230.036429845009     Delta-E=        0.000000002138 Rises=F Damp=F
 DIIS: error= 8.59D-06 at cycle   3 NSaved=   3.
 NSaved= 3 IEnMin= 2 EnMin= -230.036429847147     IErMin= 2 ErrMin= 5.89D-06
 ErrMax= 8.59D-06  0.00D+00 EMaxC= 1.00D-01 BMatC= 4.67D-09 BMatP= 2.48D-09
 IDIUse=1 WtCom= 1.00D+00 WtEn= 0.00D+00
 Coeff-Com: -0.180D-01 0.587D+00 0.431D+00
 Coeff:     -0.180D-01 0.587D+00 0.431D+00
 Gap=     0.244 Goal=   None    Shift=    0.000
 RMSDP=7.00D-07 MaxDP=1.18D-05 DE= 2.14D-09 OVMax= 3.07D-05

 Cycle  11  Pass 1  IDiag  1:
 E= -230.036429849721     Delta-E=       -0.000000004713 Rises=F Damp=F
 DIIS: error= 8.81D-07 at cycle   4 NSaved=   4.
 NSaved= 4 IEnMin= 4 EnMin= -230.036429849721     IErMin= 4 ErrMin= 8.81D-07
 ErrMax= 8.81D-07  0.00D+00 EMaxC= 1.00D-01 BMatC= 7.79D-11 BMatP= 2.48D-09
 IDIUse=1 WtCom= 1.00D+00 WtEn= 0.00D+00
 Coeff-Com: -0.155D-01 0.312D+00 0.243D+00 0.461D+00
 Coeff:     -0.155D-01 0.312D+00 0.243D+00 0.461D+00
 Gap=     0.244 Goal=   None    Shift=    0.000
 RMSDP=6.94D-08 MaxDP=1.73D-06 DE=-4.71D-09 OVMax= 2.42D-06

 Cycle  12  Pass 1  IDiag  1:
 E= -230.036429849782     Delta-E=       -0.000000000061 Rises=F Damp=F
 DIIS: error= 2.11D-07 at cycle   5 NSaved=   5.
 NSaved= 5 IEnMin= 5 EnMin= -230.036429849782     IErMin= 5 ErrMin= 2.11D-07
 ErrMax= 2.11D-07  0.00D+00 EMaxC= 1.00D-01 BMatC= 2.92D-12 BMatP= 7.79D-11
 IDIUse=1 WtCom= 1.00D+00 WtEn= 0.00D+00
 Coeff-Com: -0.425D-02 0.682D-01 0.578D-01 0.191D+00 0.688D+00
 Coeff:     -0.425D-02 0.682D-01 0.578D-01 0.191D+00 0.688D+00
 Gap=     0.244 Goal=   None    Shift=    0.000
 RMSDP=1.90D-08 MaxDP=4.45D-07 DE=-6.07D-11 OVMax= 8.74D-07

 Cycle  13  Pass 1  IDiag  1:
 E= -230.036429849784     Delta-E=       -0.000000000002 Rises=F Damp=F
 DIIS: error= 7.24D-08 at cycle   6 NSaved=   6.
 NSaved= 6 IEnMin= 6 EnMin= -230.036429849784     IErMin= 6 ErrMin= 7.24D-08
 ErrMax= 7.24D-08  0.00D+00 EMaxC= 1.00D-01 BMatC= 4.67D-13 BMatP= 2.92D-12
 IDIUse=1 WtCom= 1.00D+00 WtEn= 0.00D+00
 Coeff-Com: -0.501D-03 0.112D-02 0.278D-02 0.454D-01 0.351D+00 0.600D+00
 Coeff:     -0.501D-03 0.112D-02 0.278D-02 0.454D-01 0.351D+00 0.600D+00
 Gap=     0.244 Goal=   None    Shift=    0.000
 RMSDP=6.67D-09 MaxDP=8.85D-08 DE=-2.22D-12 OVMax= 1.51D-07

 SCF Done:  E(RB3LYP) =  -230.036429850     A.U. after   13 cycles
            NFock= 13  Conv=0.67D-08     -V/T= 2.0060
 KE= 2.286679077367D+02 PE=-8.587345904489D+02 EE= 2.388041334277D+02
 Leave Link  502 at Mon Nov 23 16:19:21 2015, MaxMem=    33554432 cpu:         2.3
 (Enter /home/Applications/g09/g09/l801.exe)
 DoSCS=F DFT=T ScalE2(SS,OS)=  1.000000  1.000000
 ExpMin= 1.22D-01 ExpMax= 1.17D+04 ExpMxC= 4.01D+02 IAcc=3 IRadAn=         5 AccDes= 0.00D+00
 HarFok:  IExCor=  205 AccDes= 0.00D+00 IRadAn=         5 IDoV=-2 UseB2=F ITyADJ=14
 ICtDFT= 12500011 ScaDFX=  1.000000  1.000000  1.000000  1.000000
 Largest valence mixing into a core orbital is  3.96D-05
 Largest core mixing into a valence orbital is  2.14D-05
 Range of M.O.s used for correlation:     6    90
 NBasis=    90 NAE=    18 NBE=    18 NFC=     5 NFV=     0
 NROrb=     85 NOA=    13 NOB=    13 NVA=    72 NVB=    72

 **** Warning!!: The largest alpha MO coefficient is  0.12254414D+02

 Leave Link  801 at Mon Nov 23 16:19:22 2015, MaxMem=    33554432 cpu:         0.2
 (Enter /home/Applications/g09/g09/l914.exe)
 RHF ground state
 MDV=    33554432 DFT=T DoStab=F Mixed=T DoRPA=F DoScal=F NonHer=F
 Keep R1, R2, and R3 ints in memory in symmetry-blocked form, NReq=13936317.
 FoFCou: FMM=F IPFlag=           0 FMFlag=           0 FMFlg1=           0
         NFxFlg=           0 DoJE=F BraDBF=F KetDBF=F FulRan=T
         wScrn=  0.000000 ICntrl=     600 IOpCl=  0 I1Cent=           0 NGrid=           0
         NMat0=    1 NMatS0=   4095 NMatT0=    0 NMatD0=    1 NMtDS0=    0 NMtDT0=    0
 Petite list used in FoFCou.
 Making orbital integer symmetry assigments:
 Orbital symmetries:
       Occupied  (A1) (B2) (A1) (A1) (B2) (A1) (A1) (B2) (B2) (A1)
                 (A1) (B1) (B2) (B2) (A1) (A1) (B1) (A2)
       Virtual   (B1) (A2) (A1) (B2) (A1) (B2) (A1) (B2) (A1) (B2)
                 (B2) (A1) (B1) (A1) (B2) (A2) (B2) (A1) (B1) (A1)
                 (A2) (B2) (A1) (B2) (A1) (B2) (B1) (A1) (B2) (A1)
                 (B1) (B2) (B1) (A1) (A2) (A2) (A1) (B1) (B2) (B2)
                 (A1) (B2) (A2) (A1) (B1) (A1) (B1) (B2) (B2) (A1)
                 (A2) (A2) (A1) (B2) (B1) (A1) (B2) (A1) (A2) (B2)
                 (B2) (A1) (A1) (B2) (B2) (A1) (B1) (A2) (A1) (B2)
                 (B2) (A1)
    60 initial guesses have been made.
 Convergence on wavefunction:    0.001000000000000
 Davidson Disk Diagonalization:  ConvIn= 1.00D-03 SkipCon=T Conv= 1.00D-03.
 Max sub-space:   240 roots to seek:    60 dimension of matrix:         1872
 Iteration     1 Dimension    60 NMult     0 NNew     60
 CISAX will form    60 AO SS matrices at one time.
 NMat=    60 NSing=    60 JSym2X=-1.
 New state      1 was old state      3
 New state      2 was old state      4
 New state      3 was old state      1
 New state      4 was old state      5
 New state      5 was old state      6
 New state      6 was old state      8
 New state      7 was old state      9
 New state      8 was old state     10
 New state      9 was old state     13
 New state     10 was old state     12
 New state     12 was old state     15
 New state     13 was old state      7
 New state     15 was old state     16
 Excitation Energies [eV] at current iteration:
 Root      1 :     7.129549825871613
 Root      2 :     7.388894949472006
 Root      3 :     7.695326543465998
 Root      4 :     8.168566767649393
 Root      5 :     8.299242555369366
 Root      6 :     8.636585605371232
 Root      7 :     8.743066248570450
 Root      8 :     8.914989049459583
 Root      9 :     9.537532883106627
 Root     10 :     9.573379792718175
 Root     11 :     9.581955971720818
 Root     12 :     9.706337851765623
 Root     13 :     9.786801083247065
 Root     14 :     9.922247607702504
 Root     15 :    10.029323499169190
 Root     16 :    10.270632896829590
 Root     17 :    10.598259444649390
 Root     18 :    10.601980135612680
 Root     19 :    10.962681311887200
 Root     20 :    11.084972937548920
 Root     21 :    11.121277969500530
 Root     22 :    11.346014026325550
 Root     23 :    11.401364727055890
 Root     24 :    11.573326112021400
 Root     25 :    11.962295089689490
 Root     26 :    12.065590767667790
 Root     27 :    12.119546906224390
 Root     28 :    12.511772749366800
 Root     29 :    12.567341003290270
 Root     30 :    12.811785765229470
 Root     31 :    12.824167756767090
 Root     32 :    12.836667205927800
 Root     33 :    12.842988759352070
 Root     34 :    13.157924409242270
 Root     35 :    13.187739925765790
 Root     36 :    13.336313522548100
 Root     37 :    13.366011944223190
 Root     38 :    13.398120491826730
 Root     39 :    13.498787643425020
 Root     40 :    13.658840499126300
 Root     41 :    13.717885658342740
 Root     42 :    13.741525995509440
 Root     43 :    13.879030614478860
 Root     44 :    14.100058428737940
 Root     45 :    14.121749832263720
 Root     46 :    14.181092055880470
 Root     47 :    14.212082033876310
 Root     48 :    14.374691573519870
 Root     49 :    14.402223837164780
 Root     50 :    14.534098711377260
 Root     51 :    14.683038345584010
 Root     52 :    14.686516533489390
 Root     53 :    14.813115332837440
 Root     54 :    15.078594607866490
 Root     55 :    15.292108515593240
 Root     56 :    15.323074998644050
 Root     57 :    15.355389916030060
 Root     58 :    15.516450105020180
 Root     59 :    16.242336530820540
 Root     60 :    17.269454531666860
 Iteration     2 Dimension   120 NMult    60 NNew     60
 CISAX will form    60 AO SS matrices at one time.
 NMat=    60 NSing=    60 JSym2X=-1.
 New state      1 was old state      3
 Root      1 not converged, maximum delta is    0.057417804566250
 New state      2 was old state      1
 Root      2 not converged, maximum delta is    0.044913062809743
 New state      3 was old state      2
 Root      3 not converged, maximum delta is    0.007367831761015
 Root      4 not converged, maximum delta is    0.009540730914997
 Root      5 not converged, maximum delta is    0.013181498601605
 Root      6 not converged, maximum delta is    0.025997656982209
 Root      7 not converged, maximum delta is    0.011242130979133
 Root      8 not converged, maximum delta is    0.025659769921972
 New state      9 was old state     13
 Root      9 not converged, maximum delta is    0.048159935769528
 New state     10 was old state     18
 Root     10 not converged, maximum delta is    0.101344679727801
 New state     11 was old state      9
 Root     11 not converged, maximum delta is    0.016746603123499
 New state     12 was old state     10
 Root     12 not converged, maximum delta is    0.027997048295657
 New state     13 was old state     11
 Root     13 not converged, maximum delta is    0.008355627160037
 New state     14 was old state     12
 Root     14 not converged, maximum delta is    0.026520292478462
 New state     15 was old state     14
 Root     15 not converged, maximum delta is    0.026292933652380
 Excitation Energies [eV] at current iteration:
 Root      1 :     6.909672413426707   Change is   -0.785654130039292
 Root      2 :     6.980202044769789   Change is   -0.149347781101823
 Root      3 :     7.375528961164963   Change is   -0.013365988307042
 Root      4 :     8.156654261750104   Change is   -0.011912505899290
 Root      5 :     8.272571354087477   Change is   -0.026671201281889
 Root      6 :     8.619243049556024   Change is   -0.017342555815209
 Root      7 :     8.735794505183343   Change is   -0.007271743387108
 Root      8 :     8.857662466710169   Change is   -0.057326582749414
 Root      9 :     9.210845781128793   Change is   -0.575955302118272
 Root     10 :     9.289710503336369   Change is   -1.312269632276313
 Root     11 :     9.513841009057101   Change is   -0.023691874049527
 Root     12 :     9.553641484371189   Change is   -0.019738308346987
 Root     13 :     9.575581780246958   Change is   -0.006374191473860
 Root     14 :     9.678598323521742   Change is   -0.027739528243882
 Root     15 :     9.910188115156721   Change is   -0.012059492545782
 Root     16 :     9.997366545879204   Change is   -0.031956953289983
 Root     17 :    10.214789726351690   Change is   -0.055843170477904
 Root     18 :    10.561327552099250   Change is   -0.036931892550142
 Root     19 :    10.933231584923620   Change is   -0.029449726963587
 Root     20 :    10.995453327481430   Change is   -0.089519610067490
 Root     21 :    11.090663023431440   Change is   -0.030614946069093
 Root     22 :    11.288779104564220   Change is   -0.057234921761332
 Root     23 :    11.356531179637500   Change is   -0.044833547418386
 Root     24 :    11.514766555050900   Change is   -0.058559556970501
 Root     25 :    11.811230815277970   Change is   -0.151064274411520
 Root     26 :    11.996538482496290   Change is   -0.123008423728106
 Root     27 :    12.023320634019890   Change is   -0.042270133647898
 Root     28 :    12.368210065568900   Change is   -0.443575699660572
 Root     29 :    12.431207149880920   Change is   -0.080565599485878
 Root     30 :    12.532241941088440   Change is   -0.035099062201835
 Root     31 :    12.765411450154170   Change is   -0.077577309197896
 Root     32 :    12.767703444466130   Change is   -0.068963761461672
 Root     33 :    12.805129550421490   Change is   -0.019038206345602
 Root     34 :    12.940865599200580   Change is   -1.180884233063139
 Root     35 :    13.076941355835400   Change is   -0.080983053406868
 Root     36 :    13.146885697080600   Change is   -0.040854228685192
 Root     37 :    13.218233350270540   Change is   -0.179887141556194
 Root     38 :    13.297855085213920   Change is   -0.038458437334175
 Root     39 :    13.351843943087520   Change is   -0.014168001135664
 Root     40 :    13.407537660598220   Change is   -0.091249982826806
 Root     41 :    13.433793215294690   Change is   -0.307732780214756
 Root     42 :    13.662165871698720   Change is    0.003325372572424
 Root     43 :    13.663047761010210   Change is   -0.054837897332530
 Root     44 :    13.851777289619720   Change is   -0.027253324859139
 Root     45 :    14.085794269136940   Change is   -0.014264159600999
 Root     46 :    14.093953585379700   Change is   -0.118128448496614
 Root     47 :    14.138450791380260   Change is   -0.042641264500213
 Root     48 :    14.175966729995890   Change is   -0.226257107168895
 Root     49 :    14.296808469149420   Change is   -0.237290242227838
 Root     50 :    14.343284020005700   Change is   -0.031407553514168
 Root     51 :    14.504067394611330   Change is   -0.309047938226106
 Root     52 :    14.608505017732120   Change is   -0.074533327851889
 Root     53 :    14.674688361108090   Change is   -0.011828172381302
 Root     54 :    14.730525783846160   Change is   -0.785924321174017
 Root     55 :    14.827829066451160   Change is   -0.527560849578908
 Root     56 :    14.898523198500880   Change is   -0.393585317092357
 Root     57 :    15.043793437215620   Change is   -0.034801170650878
 Root     58 :    15.241200302585660   Change is   -0.081874696058396
 Root     59 :    15.384157290066430   Change is   -0.858179240754119
 Root     60 :    16.071555500416430   Change is   -1.197899031250431
 Iteration     3 Dimension   135 NMult   120 NNew     15
 CISAX will form    15 AO SS matrices at one time.
 NMat=    15 NSing=    15 JSym2X=-1.
 Root      1 not converged, maximum delta is    0.002746949822374
 Root      2 not converged, maximum delta is    0.001776586067355
 Root      3 has converged.
 Root      4 has converged.
 Root      5 has converged.
 Root      6 not converged, maximum delta is    0.001128866104145
 Root      7 has converged.
 Root      8 not converged, maximum delta is    0.001976411753186
 Root      9 not converged, maximum delta is    0.004104862580621
 Root     10 not converged, maximum delta is    0.004205856396112
 Root     11 has converged.
 Root     12 has converged.
 Root     13 has converged.
 Root     14 not converged, maximum delta is    0.001986730978600
 Root     15 has converged.
 Excitation Energies [eV] at current iteration:
 Root      1 :     6.907338242619792   Change is   -0.002334170806914
 Root      2 :     6.978865859790522   Change is   -0.001336184979267
 Root      3 :     7.375504204761866   Change is   -0.000024756403096
 Root      4 :     8.156633332135048   Change is   -0.000020929615056
 Root      5 :     8.272475599470358   Change is   -0.000095754617120
 Root      6 :     8.619143247668635   Change is   -0.000099801887389
 Root      7 :     8.735772849548791   Change is   -0.000021655634550
 Root      8 :     8.857248720356280   Change is   -0.000413746353890
 Root      9 :     9.208881302163006   Change is   -0.001964478965786
 Root     10 :     9.283814121292840   Change is   -0.005896382043529
 Root     11 :     9.513762738208955   Change is   -0.000078270848145
 Root     12 :     9.553525720921234   Change is   -0.000115763449954
 Root     13 :     9.575572240614338   Change is   -0.000009539632620
 Root     14 :     9.678374685555601   Change is   -0.000223637966140
 Root     15 :     9.910161071497901   Change is   -0.000027043658821
 Iteration     4 Dimension   142 NMult   135 NNew      7
 CISAX will form     7 AO SS matrices at one time.
 NMat=     7 NSing=     7 JSym2X=-1.
 Root      1 has converged.
 Root      2 has converged.
 Root      3 has converged.
 Root      4 has converged.
 Root      5 has converged.
 Root      6 has converged.
 Root      7 has converged.
 Root      8 has converged.
 Root      9 has converged.
 Root     10 has converged.
 Root     11 has converged.
 Root     12 has converged.
 Root     13 has converged.
 Root     14 has converged.
 Root     15 has converged.
 Excitation Energies [eV] at current iteration:
 Root      1 :     6.907325810877385   Change is   -0.000012431742407
 Root      2 :     6.978861605114941   Change is   -0.000004254675581
 Root      3 :     7.375504204761862   Change is   -0.000000000000005
 Root      4 :     8.156633324262453   Change is   -0.000000007872594
 Root      5 :     8.272475599470365   Change is    0.000000000000008
 Root      6 :     8.619143090169132   Change is   -0.000000157499504
 Root      7 :     8.735772839662273   Change is   -0.000000009886520
 Root      8 :     8.857248203758253   Change is   -0.000000516598027
 Root      9 :     9.208878100600288   Change is   -0.000003201562719
 Root     10 :     9.283798370091230   Change is   -0.000015751201611
 Root     11 :     9.513762738208950   Change is   -0.000000000000006
 Root     12 :     9.553525625307641   Change is   -0.000000095613594
 Root     13 :     9.575572240614337   Change is   -0.000000000000002
 Root     14 :     9.678374225770035   Change is   -0.000000459785566
 Root     15 :     9.910161071497896   Change is   -0.000000000000006
 Convergence achieved on expansion vectors.
 ***********************************************************************
 Excited states from <AA,BB:AA,BB> singles matrix:
 ***********************************************************************
 
 1PDM for each excited state written to RWF  633
 Ground to excited state transition densities written to RWF  633
 Ground to excited state transition electric dipole moments (Au):
       state          X           Y           Z        Dip. S.      Osc.
         1         0.0000     -1.1585      0.0000      1.3422      0.2271
         2         0.0000      0.0000      0.0118      0.0001      0.0000
         3         0.0000      0.0000      0.0000      0.0000      0.0000
         4         0.2449      0.0000      0.0000      0.0600      0.0120
         5         0.0000      0.0000      0.0000      0.0000      0.0000
         6         0.0821      0.0000      0.0000      0.0067      0.0014
         7         0.0455      0.0000      0.0000      0.0021      0.0004
         8         0.0919      0.0000      0.0000      0.0084      0.0018
         9         0.0000      0.8707      0.0000      0.7582      0.1711
        10         0.0000      0.0000      1.6335      2.6683      0.6069
        11         0.0000      0.0000      0.0000      0.0000      0.0000
        12        -0.1000      0.0000      0.0000      0.0100      0.0023
        13         0.0000      0.0000      0.0000      0.0000      0.0000
        14         0.0727      0.0000      0.0000      0.0053      0.0013
        15         0.0000      0.0000      0.0000      0.0000      0.0000
 Ground to excited state transition velocity dipole moments (Au):
       state          X           Y           Z        Dip. S.      Osc.
         1         0.0000      0.0059      0.0000      0.0000      0.0001
         2         0.0000      0.0000      0.0489      0.0024      0.0062
         3         0.0000      0.0000      0.0000      0.0000      0.0000
         4        -0.1192      0.0000      0.0000      0.0142      0.0316
         5         0.0000      0.0000      0.0000      0.0000      0.0000
         6        -0.0497      0.0000      0.0000      0.0025      0.0052
         7        -0.0131      0.0000      0.0000      0.0002      0.0004
         8        -0.0135      0.0000      0.0000      0.0002      0.0004
         9         0.0000     -0.1135      0.0000      0.0129      0.0254
        10         0.0000      0.0000     -0.0971      0.0094      0.0184
        11         0.0000      0.0000      0.0000      0.0000      0.0000
        12         0.0144      0.0000      0.0000      0.0002      0.0004
        13         0.0000      0.0000      0.0000      0.0000      0.0000
        14        -0.0316      0.0000      0.0000      0.0010      0.0019
        15         0.0000      0.0000      0.0000      0.0000      0.0000
 Ground to excited state transition magnetic dipole moments (Au):
       state          X           Y           Z
         1         0.5630      0.0000      0.0000
         2         0.0000      0.0000      0.0000
         3         0.0000      0.0000     -0.5002
         4         0.0000      0.0067      0.0000
         5         0.0000      0.0000      0.1137
         6         0.0000      0.5252      0.0000
         7         0.0000      0.1109      0.0000
         8         0.0000     -1.4890      0.0000
         9         0.3740      0.0000      0.0000
        10         0.0000      0.0000      0.0000
        11         0.0000      0.0000      0.5420
        12         0.0000     -0.1186      0.0000
        13         0.0000      0.0000     -0.1063
        14         0.0000     -0.0059      0.0000
        15         0.0000      0.0000      0.2999
 Ground to excited state transition velocity quadrupole moments (Au):
       state          XX          YY          ZZ          XY          XZ          YZ
         1         0.0000      0.0000      0.0000      0.0000      0.0000      0.2347
         2         0.0190     -0.0023     -0.0319      0.0000      0.0000      0.0000
         3         0.0000      0.0000      0.0000      0.3630      0.0000      0.0000
         4         0.0000      0.0000      0.0000      0.0000     -0.0353      0.0000
         5         0.0000      0.0000      0.0000      0.2383      0.0000      0.0000
         6         0.0000      0.0000      0.0000      0.0000      0.4256      0.0000
         7         0.0000      0.0000      0.0000      0.0000      0.0276      0.0000
         8         0.0000      0.0000      0.0000      0.0000     -0.0505      0.0000
         9         0.0000      0.0000      0.0000      0.0000      0.0000      0.4448
        10         0.0609     -0.3160      0.3044      0.0000      0.0000      0.0000
        11         0.0000      0.0000      0.0000      0.1441      0.0000      0.0000
        12         0.0000      0.0000      0.0000      0.0000     -0.1803      0.0000
        13         0.0000      0.0000      0.0000      0.1813      0.0000      0.0000
        14         0.0000      0.0000      0.0000      0.0000      0.0082      0.0000
        15         0.0000      0.0000      0.0000      0.1154      0.0000      0.0000
 <0|del|b> * <b|rxdel|0> + <0|del|b> * <b|delr+rdel|0>
 Rotatory Strengths (R) in cgs (10**-40 erg-esu-cm/Gauss)
       state          XX          YY          ZZ    R(velocity)    E-M Angle
         1         0.0000      0.0000      0.0000      0.0000       90.00
         2         0.0000      0.0000      0.0000      0.0000       90.00
         3         0.0000      0.0000      0.0000      0.0000       90.00
         4         0.0000      0.0000      0.0000      0.0000       90.00
         5         0.0000      0.0000      0.0000      0.0000       90.00
         6         0.0000      0.0000      0.0000      0.0000       90.00
         7         0.0000      0.0000      0.0000      0.0000       90.00
         8         0.0000      0.0000      0.0000      0.0000       90.00
         9         0.0000      0.0000      0.0000      0.0000       90.00
        10         0.0000      0.0000      0.0000      0.0000       90.00
        11         0.0000      0.0000      0.0000      0.0000       90.00
        12         0.0000      0.0000      0.0000      0.0000       90.00
        13         0.0000      0.0000      0.0000      0.0000       90.00
        14         0.0000      0.0000      0.0000      0.0000       90.00
        15         0.0000      0.0000      0.0000      0.0000       90.00
 1/2[<0|r|b>*<b|rxdel|0> + (<0|rxdel|b>*<b|r|0>)*]
 Rotatory Strengths (R) in cgs (10**-40 erg-esu-cm/Gauss)
       state          XX          YY          ZZ     R(length)
         1         0.0000      0.0000      0.0000      0.0000
         2         0.0000      0.0000      0.0000      0.0000
         3         0.0000      0.0000      0.0000      0.0000
         4         0.0000      0.0000      0.0000      0.0000
         5         0.0000      0.0000      0.0000      0.0000
         6         0.0000      0.0000      0.0000      0.0000
         7         0.0000      0.0000      0.0000      0.0000
         8         0.0000      0.0000      0.0000      0.0000
         9         0.0000      0.0000      0.0000      0.0000
        10         0.0000      0.0000      0.0000      0.0000
        11         0.0000      0.0000      0.0000      0.0000
        12         0.0000      0.0000      0.0000      0.0000
        13         0.0000      0.0000      0.0000      0.0000
        14         0.0000      0.0000      0.0000      0.0000
        15         0.0000      0.0000      0.0000      0.0000
  1/2[<0|del|b>*<b|r|0> + (<0|r|b>*<b|del|0>)*] (Au)
       state          X           Y           Z        Dip. S.   Osc.(frdel)
         1         0.0000     -0.0068      0.0000      0.0068      0.0046
         2         0.0000      0.0000      0.0006     -0.0006     -0.0004
         3         0.0000      0.0000      0.0000      0.0000      0.0000
         4        -0.0292      0.0000      0.0000      0.0292      0.0195
         5         0.0000      0.0000      0.0000      0.0000      0.0000
         6        -0.0041      0.0000      0.0000      0.0041      0.0027
         7        -0.0006      0.0000      0.0000      0.0006      0.0004
         8        -0.0012      0.0000      0.0000      0.0012      0.0008
         9         0.0000     -0.0988      0.0000      0.0988      0.0659
        10         0.0000      0.0000     -0.1586      0.1586      0.1058
        11         0.0000      0.0000      0.0000      0.0000      0.0000
        12        -0.0014      0.0000      0.0000      0.0014      0.0010
        13         0.0000      0.0000      0.0000      0.0000      0.0000
        14        -0.0023      0.0000      0.0000      0.0023      0.0015
        15         0.0000      0.0000      0.0000      0.0000      0.0000

 Excitation energies and oscillator strengths:
 
 Excited State   1:      Singlet-B2     6.9073 eV  179.50 nm  f=0.2271  <S**2>=0.000
      18 -> 19         0.68500
 This state for optimization and/or second-order correction.
 Total Energy, E(CIS) =  -229.782590286    
 Copying the excited state density for this state as the 1-particle RhoCI density.
 
 Excited State   2:      Singlet-A1     6.9789 eV  177.66 nm  f=0.0000  <S**2>=0.000
      17 -> 19         0.51197
      18 -> 20        -0.48107
 
 Excited State   3:      Singlet-A2     7.3755 eV  168.10 nm  f=0.0000  <S**2>=0.000
      18 -> 21         0.70370
 
 Excited State   4:      Singlet-B1     8.1566 eV  152.00 nm  f=0.0120  <S**2>=0.000
      17 -> 21         0.14422
      18 -> 22         0.69014
 
 Excited State   5:      Singlet-A2     8.2725 eV  149.88 nm  f=0.0000  <S**2>=0.000
      18 -> 23         0.70287
 
 Excited State   6:      Singlet-B1     8.6191 eV  143.85 nm  f=0.0014  <S**2>=0.000
      16 -> 19        -0.11475
      17 -> 21         0.41618
      18 -> 24         0.54489
 
 Excited State   7:      Singlet-B1     8.7358 eV  141.93 nm  f=0.0004  <S**2>=0.000
      17 -> 21         0.54588
      18 -> 22        -0.11509
      18 -> 24        -0.42948
 
 Excited State   8:      Singlet-B1     8.8572 eV  139.98 nm  f=0.0018  <S**2>=0.000
      16 -> 19         0.69064
      18 -> 24         0.11052
 
 Excited State   9:      Singlet-B2     9.2089 eV  134.64 nm  f=0.1711  <S**2>=0.000
      17 -> 20         0.68401
 
 Excited State  10:      Singlet-A1     9.2838 eV  133.55 nm  f=0.6069  <S**2>=0.000
      15 -> 25         0.11590
      17 -> 19         0.44811
      18 -> 20         0.48618
 
 Excited State  11:      Singlet-A2     9.5138 eV  130.32 nm  f=0.0000  <S**2>=0.000
      18 -> 25         0.69498
 
 Excited State  12:      Singlet-B1     9.5535 eV  129.78 nm  f=0.0023  <S**2>=0.000
      17 -> 23         0.69334
 
 Excited State  13:      Singlet-A2     9.5756 eV  129.48 nm  f=0.0000  <S**2>=0.000
      17 -> 22         0.69612
 
 Excited State  14:      Singlet-B1     9.6784 eV  128.10 nm  f=0.0013  <S**2>=0.000
      15 -> 19         0.69641
 
 Excited State  15:      Singlet-A2     9.9102 eV  125.11 nm  f=0.0000  <S**2>=0.000
      14 -> 19         0.47794
      16 -> 20        -0.16873
      17 -> 24         0.47915
 SavETr:  write IOETrn=   770 NScale= 10 NData=  16 NLR=1 NState=   15 LETran=     280.
 Leave Link  914 at Mon Nov 23 16:19:49 2015, MaxMem=    33554432 cpu:        27.6
 (Enter /home/Applications/g09/g09/l601.exe)
 Copying SCF densities to generalized density rwf, IOpCl= 0 IROHF=0.

 **********************************************************************

            Population analysis using the SCF density.

 **********************************************************************

 Orbital symmetries:
       Occupied  (A1) (B2) (A1) (A1) (B2) (A1) (A1) (B2) (B2) (A1)
                 (A1) (B1) (B2) (B2) (A1) (A1) (B1) (A2)
       Virtual   (B1) (A2) (A1) (B2) (A1) (B2) (A1) (B2) (A1) (B2)
                 (B2) (A1) (B1) (A1) (B2) (A2) (B2) (A1) (B1) (A1)
                 (A2) (B2) (A1) (B2) (A1) (B2) (B1) (A1) (B2) (A1)
                 (B1) (B2) (B1) (A1) (A2) (A2) (A1) (B1) (B2) (B2)
                 (A1) (B2) (A2) (A1) (B1) (A1) (B1) (B2) (B2) (A1)
                 (A2) (A2) (A1) (B2) (B1) (A1) (B2) (A1) (A2) (B2)
                 (B2) (A1) (A1) (B2) (B2) (A1) (B1) (A2) (A1) (B2)
                 (B2) (A1)
 The electronic state is 1-A1.
 Alpha  occ. eigenvalues --  -19.20516 -10.23154 -10.23152 -10.18427 -10.18393
 Alpha  occ. eigenvalues --   -1.11100  -0.80001  -0.74572  -0.59840  -0.56923
 Alpha  occ. eigenvalues --   -0.54086  -0.44828  -0.44474  -0.41071  -0.39687
 Alpha  occ. eigenvalues --   -0.37113  -0.27941  -0.23117
 Alpha virt. eigenvalues --    0.01279   0.06979   0.08070   0.10931   0.11066
 Alpha virt. eigenvalues --    0.12372   0.17026   0.19493   0.28404   0.34428
 Alpha virt. eigenvalues --    0.39179   0.39212   0.46313   0.47990   0.48349
 Alpha virt. eigenvalues --    0.51017   0.52133   0.52620   0.54012   0.59060
 Alpha virt. eigenvalues --    0.60870   0.65397   0.67070   0.71766   0.75381
 Alpha virt. eigenvalues --    0.84399   0.84456   0.92819   0.94820   0.96405
 Alpha virt. eigenvalues --    0.96558   1.01716   1.03528   1.04366   1.05212
 Alpha virt. eigenvalues --    1.12400   1.27107   1.28011   1.32322   1.35773
 Alpha virt. eigenvalues --    1.47603   1.48065   1.48673   1.51189   1.56907
 Alpha virt. eigenvalues --    1.59089   1.67876   1.68099   1.71835   1.76270
 Alpha virt. eigenvalues --    1.77017   1.85049   1.86939   1.90163   1.91091
 Alpha virt. eigenvalues --    1.92513   1.98225   2.06735   2.21393   2.23555
 Alpha virt. eigenvalues --    2.34067   2.34292   2.47041   2.60314   2.63506
 Alpha virt. eigenvalues --    2.65945   2.86713   2.90508   3.09374   3.32992
 Alpha virt. eigenvalues --    3.36156   3.44200
     Molecular Orbital Coefficients:
                           1         2         3         4         5
                        (A1)--O   (B2)--O   (A1)--O   (A1)--O   (B2)--O
     Eigenvalues --   -19.20516 -10.23154 -10.23152 -10.18427 -10.18393
   1 1   C  1S          0.00001   0.00494   0.00498   0.70460   0.70455
   2        2S         -0.00010  -0.00069  -0.00070   0.02127   0.02251
   3        3S         -0.00206   0.00439  -0.00113  -0.01163  -0.01835
   4        4PX         0.00000   0.00000   0.00000   0.00000   0.00000
   5        4PY        -0.00014  -0.00044  -0.00046   0.00070  -0.00042
   6        4PZ        -0.00037  -0.00094  -0.00100   0.00002   0.00004
   7        5PX         0.00000   0.00000   0.00000   0.00000   0.00000
   8        5PY         0.00126   0.00287   0.00101   0.00051   0.00506
   9        5PZ        -0.00207   0.00335  -0.00141  -0.00339  -0.00422
  10        6D 0       -0.00023  -0.00139  -0.00134   0.00137   0.00060
  11        6D+1        0.00000   0.00000   0.00000   0.00000   0.00000
  12        6D-1        0.00003   0.00026   0.00003  -0.00069  -0.00185
  13        6D+2       -0.00014   0.00027   0.00019   0.00048  -0.00165
  14        6D-2        0.00000   0.00000   0.00000   0.00000   0.00000
  15 2   C  1S          0.00003   0.70459   0.70441  -0.00511  -0.00494
  16        2S          0.00044   0.02160   0.02066  -0.00150  -0.00082
  17        3S          0.00580  -0.01276  -0.00373   0.00576   0.00450
  18        4PX         0.00000   0.00000   0.00000   0.00000   0.00000
  19        4PY        -0.00036  -0.00033  -0.00054   0.00011   0.00023
  20        4PZ         0.00037   0.00046   0.00077   0.00111   0.00059
  21        5PX         0.00000   0.00000   0.00000   0.00000   0.00000
  22        5PY        -0.00368   0.00338  -0.00304  -0.00237  -0.00170
  23        5PZ        -0.00027   0.00559  -0.00081  -0.00278  -0.00145
  24        6D 0        0.00009   0.00039   0.00019  -0.00085  -0.00067
  25        6D+1        0.00000   0.00000   0.00000   0.00000   0.00000
  26        6D-1        0.00071   0.00102   0.00090  -0.00109  -0.00112
  27        6D+2       -0.00038  -0.00099  -0.00167   0.00015   0.00073
  28        6D-2        0.00000   0.00000   0.00000   0.00000   0.00000
  29 3   O  1S          0.99661   0.00000   0.00019   0.00003   0.00000
  30        2S          0.02389   0.00000   0.00203   0.00013   0.00000
  31        3S         -0.01587   0.00000  -0.00661  -0.00203   0.00000
  32        4PX         0.00000   0.00000   0.00000   0.00000   0.00000
  33        4PY         0.00000   0.00001   0.00000   0.00000  -0.00009
  34        4PZ        -0.00161   0.00000   0.00014   0.00001   0.00000
  35        5PX         0.00000   0.00000   0.00000   0.00000   0.00000
  36        5PY         0.00000  -0.00311   0.00000   0.00000  -0.00045
  37        5PZ         0.00373   0.00000   0.00393   0.00091   0.00000
  38        6D 0       -0.00015   0.00000  -0.00046   0.00012   0.00000
  39        6D+1        0.00000   0.00000   0.00000   0.00000   0.00000
  40        6D-1        0.00000   0.00107   0.00000   0.00000   0.00006
  41        6D+2        0.00010   0.00000   0.00099   0.00004   0.00000
  42        6D-2        0.00000   0.00000   0.00000   0.00000   0.00000
  43 4   C  1S          0.00003  -0.70459   0.70441  -0.00511   0.00494
  44        2S          0.00044  -0.02160   0.02066  -0.00150   0.00082
  45        3S          0.00580   0.01276  -0.00373   0.00576  -0.00450
  46        4PX         0.00000   0.00000   0.00000   0.00000   0.00000
  47        4PY         0.00036  -0.00033   0.00054  -0.00011   0.00023
  48        4PZ         0.00037  -0.00046   0.00077   0.00111  -0.00059
  49        5PX         0.00000   0.00000   0.00000   0.00000   0.00000
  50        5PY         0.00368   0.00338   0.00304   0.00237  -0.00170
  51        5PZ        -0.00027  -0.00559  -0.00081  -0.00278   0.00145
  52        6D 0        0.00009  -0.00039   0.00019  -0.00085   0.00067
  53        6D+1        0.00000   0.00000   0.00000   0.00000   0.00000
  54        6D-1       -0.00071   0.00102  -0.00090   0.00109  -0.00112
  55        6D+2       -0.00038   0.00099  -0.00167   0.00015  -0.00073
  56        6D-2        0.00000   0.00000   0.00000   0.00000   0.00000
  57 5   C  1S          0.00001  -0.00494   0.00498   0.70460  -0.70455
  58        2S         -0.00010   0.00069  -0.00070   0.02127  -0.02251
  59        3S         -0.00206  -0.00439  -0.00113  -0.01163   0.01835
  60        4PX         0.00000   0.00000   0.00000   0.00000   0.00000
  61        4PY         0.00014  -0.00044   0.00046  -0.00070  -0.00042
  62        4PZ        -0.00037   0.00094  -0.00100   0.00002  -0.00004
  63        5PX         0.00000   0.00000   0.00000   0.00000   0.00000
  64        5PY        -0.00126   0.00287  -0.00101  -0.00051   0.00506
  65        5PZ        -0.00207  -0.00335  -0.00141  -0.00339   0.00422
  66        6D 0       -0.00023   0.00139  -0.00134   0.00137  -0.00060
  67        6D+1        0.00000   0.00000   0.00000   0.00000   0.00000
  68        6D-1       -0.00003   0.00026  -0.00003   0.00069  -0.00185
  69        6D+2       -0.00014  -0.00027   0.00019   0.00048   0.00165
  70        6D-2        0.00000   0.00000   0.00000   0.00000   0.00000
  71 6   H  1S         -0.00024  -0.00039   0.00021  -0.00224   0.00301
  72        2S         -0.00082  -0.00016  -0.00039   0.00087   0.00022
  73        3PX         0.00000   0.00000   0.00000   0.00000   0.00000
  74        3PY         0.00005  -0.00057   0.00037  -0.00130   0.00109
  75        3PZ         0.00000  -0.00006   0.00022  -0.00103   0.00189
  76 7   H  1S         -0.00053   0.00276  -0.00219   0.00051  -0.00070
  77        2S          0.00071   0.00043   0.00267   0.00111  -0.00056
  78        3PX         0.00000   0.00000   0.00000   0.00000   0.00000
  79        3PY        -0.00055   0.00176  -0.00182   0.00044  -0.00049
  80        3PZ        -0.00009  -0.00039   0.00069   0.00018   0.00002
  81 8   H  1S         -0.00053  -0.00276  -0.00219   0.00051   0.00070
  82        2S          0.00071  -0.00043   0.00267   0.00111   0.00056
  83        3PX         0.00000   0.00000   0.00000   0.00000   0.00000
  84        3PY         0.00055   0.00176   0.00182  -0.00044  -0.00049
  85        3PZ        -0.00009   0.00039   0.00069   0.00018  -0.00002
  86 9   H  1S         -0.00024   0.00039   0.00021  -0.00224  -0.00301
  87        2S         -0.00082   0.00016  -0.00039   0.00087  -0.00022
  88        3PX         0.00000   0.00000   0.00000   0.00000   0.00000
  89        3PY        -0.00005  -0.00057  -0.00037   0.00130   0.00109
  90        3PZ         0.00000   0.00006   0.00022  -0.00103  -0.00189
                           6         7         8         9        10
                        (A1)--O   (A1)--O   (B2)--O   (B2)--O   (A1)--O
     Eigenvalues --    -1.11100  -0.80001  -0.74572  -0.59840  -0.56923
   1 1   C  1S         -0.02407  -0.13505  -0.06316   0.09712   0.04534
   2        2S          0.04853   0.26285   0.12711  -0.19826  -0.09649
   3        3S          0.03005   0.16051   0.03431  -0.17228  -0.07227
   4        4PX         0.00000   0.00000   0.00000   0.00000   0.00000
   5        4PY        -0.01294  -0.06891   0.06647  -0.12320   0.13750
   6        4PZ         0.03723   0.05956   0.07464  -0.00959   0.13916
   7        5PX         0.00000   0.00000   0.00000   0.00000   0.00000
   8        5PY        -0.00423  -0.02331   0.02216  -0.01489   0.05186
   9        5PZ         0.01355   0.01661   0.00656  -0.02968   0.03373
  10        6D 0        0.00648  -0.00136   0.01483  -0.00445   0.00939
  11        6D+1        0.00000   0.00000   0.00000   0.00000   0.00000
  12        6D-1       -0.00057   0.00071   0.00649  -0.00506   0.00570
  13        6D+2       -0.00089  -0.01280   0.00613  -0.00440   0.00550
  14        6D-2        0.00000   0.00000   0.00000   0.00000   0.00000
  15 2   C  1S         -0.07067  -0.05166  -0.13201  -0.01239  -0.09813
  16        2S          0.13435   0.10703   0.26920   0.02871   0.21025
  17        3S          0.03656   0.05171   0.19751   0.04694   0.15268
  18        4PX         0.00000   0.00000   0.00000   0.00000   0.00000
  19        4PY        -0.10241  -0.01040  -0.02936  -0.05073   0.15388
  20        4PZ         0.04728  -0.14100   0.01083   0.23848  -0.00624
  21        5PX         0.00000   0.00000   0.00000   0.00000   0.00000
  22        5PY         0.00094   0.01637  -0.03954  -0.03959   0.03225
  23        5PZ         0.01177  -0.02636  -0.02780   0.05148  -0.01004
  24        6D 0       -0.00409   0.00645   0.01164  -0.00364   0.00110
  25        6D+1        0.00000   0.00000   0.00000   0.00000   0.00000
  26        6D-1       -0.02031   0.02171  -0.01209  -0.01996   0.00607
  27        6D+2       -0.01584  -0.00156  -0.00409  -0.00647   0.00472
  28        6D-2        0.00000   0.00000   0.00000   0.00000   0.00000
  29 3   O  1S         -0.19090   0.07735   0.00000   0.00000   0.05020
  30        2S          0.40421  -0.17728   0.00000   0.00000  -0.12076
  31        3S          0.38909  -0.17651   0.00000   0.00000  -0.14494
  32        4PX         0.00000   0.00000   0.00000   0.00000   0.00000
  33        4PY         0.00000   0.00000   0.25916   0.30905   0.00000
  34        4PZ        -0.11855  -0.04455   0.00000   0.00000  -0.02458
  35        5PX         0.00000   0.00000   0.00000   0.00000   0.00000
  36        5PY         0.00000   0.00000   0.11307   0.13276   0.00000
  37        5PZ        -0.04358  -0.03270   0.00000   0.00000  -0.02767
  38        6D 0        0.00406   0.00620   0.00000   0.00000  -0.00166
  39        6D+1        0.00000   0.00000   0.00000   0.00000   0.00000
  40        6D-1        0.00000   0.00000  -0.01703  -0.00997   0.00000
  41        6D+2       -0.00847   0.00134   0.00000   0.00000  -0.00515
  42        6D-2        0.00000   0.00000   0.00000   0.00000   0.00000
  43 4   C  1S         -0.07067  -0.05166   0.13201   0.01239  -0.09813
  44        2S          0.13435   0.10703  -0.26920  -0.02871   0.21025
  45        3S          0.03656   0.05171  -0.19751  -0.04694   0.15268
  46        4PX         0.00000   0.00000   0.00000   0.00000   0.00000
  47        4PY         0.10241   0.01040  -0.02936  -0.05073  -0.15388
  48        4PZ         0.04728  -0.14100  -0.01083  -0.23848  -0.00624
  49        5PX         0.00000   0.00000   0.00000   0.00000   0.00000
  50        5PY        -0.00094  -0.01637  -0.03954  -0.03959  -0.03225
  51        5PZ         0.01177  -0.02636   0.02780  -0.05148  -0.01004
  52        6D 0       -0.00409   0.00645  -0.01164   0.00364   0.00110
  53        6D+1        0.00000   0.00000   0.00000   0.00000   0.00000
  54        6D-1        0.02031  -0.02171  -0.01209  -0.01996  -0.00607
  55        6D+2       -0.01584  -0.00156   0.00409   0.00647   0.00472
  56        6D-2        0.00000   0.00000   0.00000   0.00000   0.00000
  57 5   C  1S         -0.02407  -0.13505   0.06316  -0.09712   0.04534
  58        2S          0.04853   0.26285  -0.12711   0.19826  -0.09649
  59        3S          0.03005   0.16051  -0.03431   0.17228  -0.07227
  60        4PX         0.00000   0.00000   0.00000   0.00000   0.00000
  61        4PY         0.01294   0.06891   0.06647  -0.12320  -0.13750
  62        4PZ         0.03723   0.05956  -0.07464   0.00959   0.13916
  63        5PX         0.00000   0.00000   0.00000   0.00000   0.00000
  64        5PY         0.00423   0.02331   0.02216  -0.01489  -0.05186
  65        5PZ         0.01355   0.01661  -0.00656   0.02968   0.03373
  66        6D 0        0.00648  -0.00136  -0.01483   0.00445   0.00939
  67        6D+1        0.00000   0.00000   0.00000   0.00000   0.00000
  68        6D-1        0.00057  -0.00071   0.00649  -0.00506  -0.00570
  69        6D+2       -0.00089  -0.01280  -0.00613   0.00440   0.00550
  70        6D-2        0.00000   0.00000   0.00000   0.00000   0.00000
  71 6   H  1S          0.00488   0.08107  -0.05224   0.16094  -0.07829
  72        2S          0.00280   0.00786  -0.00400   0.04372  -0.02408
  73        3PX         0.00000   0.00000   0.00000   0.00000   0.00000
  74        3PY         0.00021   0.00894  -0.00204   0.00869  -0.00772
  75        3PZ         0.00132   0.00975  -0.00820   0.01499  -0.00340
  76 7   H  1S          0.02301   0.01229  -0.12425  -0.05594   0.21770
  77        2S         -0.00483  -0.00703  -0.03054  -0.02244   0.05522
  78        3PX         0.00000   0.00000   0.00000   0.00000   0.00000
  79        3PY         0.00779  -0.00010  -0.01504  -0.00620   0.01646
  80        3PZ         0.00055  -0.00314   0.00735  -0.00186  -0.01089
  81 8   H  1S          0.02301   0.01229   0.12425   0.05594   0.21770
  82        2S         -0.00483  -0.00703   0.03054   0.02244   0.05522
  83        3PX         0.00000   0.00000   0.00000   0.00000   0.00000
  84        3PY        -0.00779   0.00010  -0.01504  -0.00620  -0.01646
  85        3PZ         0.00055  -0.00314  -0.00735   0.00186  -0.01089
  86 9   H  1S          0.00488   0.08107   0.05224  -0.16094  -0.07829
  87        2S          0.00280   0.00786   0.00400  -0.04372  -0.02408
  88        3PX         0.00000   0.00000   0.00000   0.00000   0.00000
  89        3PY        -0.00021  -0.00894  -0.00204   0.00869   0.00772
  90        3PZ         0.00132   0.00975   0.00820  -0.01499  -0.00340
                          11        12        13        14        15
                        (A1)--O   (B1)--O   (B2)--O   (B2)--O   (A1)--O
     Eigenvalues --    -0.54086  -0.44828  -0.44474  -0.41071  -0.39687
   1 1   C  1S         -0.03557   0.00000  -0.03890   0.00361   0.01757
   2        2S          0.06510   0.00000   0.07992   0.00554  -0.04644
   3        3S          0.06983   0.00000   0.19893  -0.07789  -0.07518
   4        4PX         0.00000   0.12818   0.00000   0.00000   0.00000
   5        4PY         0.07424   0.00000   0.03169  -0.04265   0.36423
   6        4PZ        -0.21303   0.00000  -0.07146   0.29877  -0.04587
   7        5PX         0.00000   0.05324   0.00000   0.00000   0.00000
   8        5PY         0.01511   0.00000  -0.04279   0.01375   0.09522
   9        5PZ        -0.05457   0.00000   0.03739   0.00377   0.00366
  10        6D 0       -0.00597   0.00000   0.00768   0.00712   0.01279
  11        6D+1        0.00000   0.01132   0.00000   0.00000   0.00000
  12        6D-1        0.00931   0.00000  -0.01940   0.02194  -0.00178
  13        6D+2       -0.00261   0.00000   0.00656   0.00687   0.00797
  14        6D-2        0.00000  -0.00506   0.00000   0.00000   0.00000
  15 2   C  1S          0.00423   0.00000   0.03031  -0.03411  -0.00567
  16        2S         -0.01729   0.00000  -0.05212   0.08743   0.01473
  17        3S          0.01524   0.00000  -0.10633   0.15165   0.01056
  18        4PX         0.00000   0.22263   0.00000   0.00000   0.00000
  19        4PY         0.18267   0.00000  -0.28595  -0.15329  -0.10124
  20        4PZ         0.09783   0.00000   0.03501  -0.22448  -0.06926
  21        5PX         0.00000   0.11542   0.00000   0.00000   0.00000
  22        5PY         0.03420   0.00000  -0.03322  -0.05304   0.00365
  23        5PZ         0.03028   0.00000   0.06544  -0.08295  -0.05124
  24        6D 0        0.01680   0.00000   0.01401   0.00161  -0.00417
  25        6D+1        0.00000   0.00769   0.00000   0.00000   0.00000
  26        6D-1       -0.00864   0.00000  -0.03116   0.00476  -0.02233
  27        6D+2        0.01535   0.00000   0.00120   0.00486  -0.00422
  28        6D-2        0.00000  -0.02767   0.00000   0.00000   0.00000
  29 3   O  1S         -0.04178   0.00000   0.00000   0.00000   0.00485
  30        2S          0.09326   0.00000   0.00000   0.00000  -0.00936
  31        3S          0.13342   0.00000   0.00000   0.00000   0.00666
  32        4PX         0.00000   0.47467   0.00000   0.00000   0.00000
  33        4PY         0.00000   0.00000   0.32978  -0.02443   0.00000
  34        4PZ         0.25516   0.00000   0.00000   0.00000  -0.26280
  35        5PX         0.00000   0.29255   0.00000   0.00000   0.00000
  36        5PY         0.00000   0.00000   0.14528  -0.02848   0.00000
  37        5PZ         0.15388   0.00000   0.00000   0.00000  -0.16526
  38        6D 0       -0.01578   0.00000   0.00000   0.00000   0.01067
  39        6D+1        0.00000  -0.02008   0.00000   0.00000   0.00000
  40        6D-1        0.00000   0.00000  -0.01295  -0.00708   0.00000
  41        6D+2       -0.00289   0.00000   0.00000   0.00000   0.00300
  42        6D-2        0.00000   0.00000   0.00000   0.00000   0.00000
  43 4   C  1S          0.00423   0.00000  -0.03031   0.03411  -0.00567
  44        2S         -0.01729   0.00000   0.05212  -0.08743   0.01473
  45        3S          0.01524   0.00000   0.10633  -0.15165   0.01056
  46        4PX         0.00000   0.22263   0.00000   0.00000   0.00000
  47        4PY        -0.18267   0.00000  -0.28595  -0.15329   0.10124
  48        4PZ         0.09783   0.00000  -0.03501   0.22448  -0.06926
  49        5PX         0.00000   0.11542   0.00000   0.00000   0.00000
  50        5PY        -0.03420   0.00000  -0.03322  -0.05304  -0.00365
  51        5PZ         0.03028   0.00000  -0.06544   0.08295  -0.05124
  52        6D 0        0.01680   0.00000  -0.01401  -0.00161  -0.00417
  53        6D+1        0.00000   0.00769   0.00000   0.00000   0.00000
  54        6D-1        0.00864   0.00000  -0.03116   0.00476   0.02233
  55        6D+2        0.01535   0.00000  -0.00120  -0.00486  -0.00422
  56        6D-2        0.00000   0.02767   0.00000   0.00000   0.00000
  57 5   C  1S         -0.03557   0.00000   0.03890  -0.00361   0.01757
  58        2S          0.06510   0.00000  -0.07992  -0.00554  -0.04644
  59        3S          0.06983   0.00000  -0.19893   0.07789  -0.07518
  60        4PX         0.00000   0.12818   0.00000   0.00000   0.00000
  61        4PY        -0.07424   0.00000   0.03169  -0.04265  -0.36423
  62        4PZ        -0.21303   0.00000   0.07146  -0.29877  -0.04587
  63        5PX         0.00000   0.05324   0.00000   0.00000   0.00000
  64        5PY        -0.01511   0.00000  -0.04279   0.01375  -0.09522
  65        5PZ        -0.05457   0.00000  -0.03739  -0.00377   0.00366
  66        6D 0       -0.00597   0.00000  -0.00768  -0.00712   0.01279
  67        6D+1        0.00000   0.01132   0.00000   0.00000   0.00000
  68        6D-1       -0.00931   0.00000  -0.01940   0.02194   0.00178
  69        6D+2       -0.00261   0.00000  -0.00656  -0.00687   0.00797
  70        6D-2        0.00000   0.00506   0.00000   0.00000   0.00000
  71 6   H  1S          0.18564   0.00000  -0.12920   0.24053   0.20430
  72        2S          0.05459   0.00000  -0.07659   0.14253   0.11176
  73        3PX         0.00000   0.00436   0.00000   0.00000   0.00000
  74        3PY         0.00941   0.00000  -0.00314   0.00996  -0.00106
  75        3PZ         0.01054   0.00000  -0.00490   0.00273   0.01191
  76 7   H  1S          0.12998   0.00000   0.24897   0.14084  -0.10894
  77        2S          0.04362   0.00000   0.12557   0.06719  -0.06716
  78        3PX         0.00000   0.00807   0.00000   0.00000   0.00000
  79        3PY         0.00896   0.00000   0.00826   0.00554  -0.00206
  80        3PZ        -0.00677   0.00000  -0.00782   0.00129   0.00342
  81 8   H  1S          0.12998   0.00000  -0.24897  -0.14084  -0.10894
  82        2S          0.04362   0.00000  -0.12557  -0.06719  -0.06716
  83        3PX         0.00000   0.00807   0.00000   0.00000   0.00000
  84        3PY        -0.00896   0.00000   0.00826   0.00554   0.00206
  85        3PZ        -0.00677   0.00000   0.00782  -0.00129   0.00342
  86 9   H  1S          0.18564   0.00000   0.12920  -0.24053   0.20430
  87        2S          0.05459   0.00000   0.07659  -0.14253   0.11176
  88        3PX         0.00000   0.00436   0.00000   0.00000   0.00000
  89        3PY        -0.00941   0.00000  -0.00314   0.00996   0.00106
  90        3PZ         0.01054   0.00000   0.00490  -0.00273   0.01191
                          16        17        18        19        20
                        (A1)--O   (B1)--O   (A2)--O   (B1)--V   (A2)--V
     Eigenvalues --    -0.37113  -0.27941  -0.23117   0.01279   0.06979
   1 1   C  1S         -0.01607   0.00000   0.00000   0.00000   0.00000
   2        2S          0.02951   0.00000   0.00000   0.00000   0.00000
   3        3S          0.09621   0.00000   0.00000   0.00000   0.00000
   4        4PX         0.00000  -0.34215   0.22945  -0.20026   0.39219
   5        4PY         0.13964   0.00000   0.00000   0.00000   0.00000
   6        4PZ         0.19471   0.00000   0.00000   0.00000   0.00000
   7        5PX         0.00000  -0.22656   0.16214  -0.27838   0.67616
   8        5PY         0.08637   0.00000   0.00000   0.00000   0.00000
   9        5PZ         0.08646   0.00000   0.00000   0.00000   0.00000
  10        6D 0        0.00444   0.00000   0.00000   0.00000   0.00000
  11        6D+1        0.00000  -0.00721   0.01807   0.02593  -0.01145
  12        6D-1       -0.00225   0.00000   0.00000   0.00000   0.00000
  13        6D+2        0.00116   0.00000   0.00000   0.00000   0.00000
  14        6D-2        0.00000   0.01476   0.01756   0.02113   0.01883
  15 2   C  1S          0.01317   0.00000   0.00000   0.00000   0.00000
  16        2S         -0.03571   0.00000   0.00000   0.00000   0.00000
  17        3S         -0.04688   0.00000   0.00000   0.00000   0.00000
  18        4PX         0.00000  -0.08876   0.38347   0.37374  -0.25377
  19        4PY         0.01803   0.00000   0.00000   0.00000   0.00000
  20        4PZ        -0.24798   0.00000   0.00000   0.00000   0.00000
  21        5PX         0.00000  -0.02828   0.27724   0.46149  -0.43111
  22        5PY        -0.01611   0.00000   0.00000   0.00000   0.00000
  23        5PZ        -0.01077   0.00000   0.00000   0.00000   0.00000
  24        6D 0        0.02060   0.00000   0.00000   0.00000   0.00000
  25        6D+1        0.00000   0.02927  -0.00605   0.00134  -0.03487
  26        6D-1       -0.00021   0.00000   0.00000   0.00000   0.00000
  27        6D+2        0.01609   0.00000   0.00000   0.00000   0.00000
  28        6D-2        0.00000  -0.00637  -0.00467   0.01704  -0.00067
  29 3   O  1S         -0.05304   0.00000   0.00000   0.00000   0.00000
  30        2S          0.11452   0.00000   0.00000   0.00000   0.00000
  31        3S          0.19221   0.00000   0.00000   0.00000   0.00000
  32        4PX         0.00000   0.36867   0.00000  -0.33590   0.00000
  33        4PY         0.00000   0.00000   0.00000   0.00000   0.00000
  34        4PZ         0.45398   0.00000   0.00000   0.00000   0.00000
  35        5PX         0.00000   0.27265   0.00000  -0.36031   0.00000
  36        5PY         0.00000   0.00000   0.00000   0.00000   0.00000
  37        5PZ         0.29979   0.00000   0.00000   0.00000   0.00000
  38        6D 0       -0.00733   0.00000   0.00000   0.00000   0.00000
  39        6D+1        0.00000  -0.00580   0.00000  -0.00340   0.00000
  40        6D-1        0.00000   0.00000   0.00000   0.00000   0.00000
  41        6D+2        0.00695   0.00000   0.00000   0.00000   0.00000
  42        6D-2        0.00000   0.00000   0.01740   0.00000  -0.01781
  43 4   C  1S          0.01317   0.00000   0.00000   0.00000   0.00000
  44        2S         -0.03571   0.00000   0.00000   0.00000   0.00000
  45        3S         -0.04688   0.00000   0.00000   0.00000   0.00000
  46        4PX         0.00000  -0.08876  -0.38347   0.37374   0.25377
  47        4PY        -0.01803   0.00000   0.00000   0.00000   0.00000
  48        4PZ        -0.24798   0.00000   0.00000   0.00000   0.00000
  49        5PX         0.00000  -0.02828  -0.27724   0.46149   0.43111
  50        5PY         0.01611   0.00000   0.00000   0.00000   0.00000
  51        5PZ        -0.01077   0.00000   0.00000   0.00000   0.00000
  52        6D 0        0.02060   0.00000   0.00000   0.00000   0.00000
  53        6D+1        0.00000   0.02927   0.00605   0.00134   0.03487
  54        6D-1        0.00021   0.00000   0.00000   0.00000   0.00000
  55        6D+2        0.01609   0.00000   0.00000   0.00000   0.00000
  56        6D-2        0.00000   0.00637  -0.00467  -0.01704  -0.00067
  57 5   C  1S         -0.01607   0.00000   0.00000   0.00000   0.00000
  58        2S          0.02951   0.00000   0.00000   0.00000   0.00000
  59        3S          0.09621   0.00000   0.00000   0.00000   0.00000
  60        4PX         0.00000  -0.34215  -0.22945  -0.20026  -0.39219
  61        4PY        -0.13964   0.00000   0.00000   0.00000   0.00000
  62        4PZ         0.19471   0.00000   0.00000   0.00000   0.00000
  63        5PX         0.00000  -0.22656  -0.16214  -0.27838  -0.67616
  64        5PY        -0.08637   0.00000   0.00000   0.00000   0.00000
  65        5PZ         0.08646   0.00000   0.00000   0.00000   0.00000
  66        6D 0        0.00444   0.00000   0.00000   0.00000   0.00000
  67        6D+1        0.00000  -0.00721  -0.01807   0.02593   0.01145
  68        6D-1        0.00225   0.00000   0.00000   0.00000   0.00000
  69        6D+2        0.00116   0.00000   0.00000   0.00000   0.00000
  70        6D-2        0.00000  -0.01476   0.01756  -0.02113   0.01883
  71 6   H  1S         -0.04470   0.00000   0.00000   0.00000   0.00000
  72        2S         -0.02815   0.00000   0.00000   0.00000   0.00000
  73        3PX         0.00000  -0.01340  -0.00925  -0.01204  -0.02504
  74        3PY        -0.00583   0.00000   0.00000   0.00000   0.00000
  75        3PZ         0.00242   0.00000   0.00000   0.00000   0.00000
  76 7   H  1S         -0.12700   0.00000   0.00000   0.00000   0.00000
  77        2S         -0.05023   0.00000   0.00000   0.00000   0.00000
  78        3PX         0.00000  -0.00423  -0.01515   0.02284   0.01730
  79        3PY        -0.00692   0.00000   0.00000   0.00000   0.00000
  80        3PZ        -0.00630   0.00000   0.00000   0.00000   0.00000
  81 8   H  1S         -0.12700   0.00000   0.00000   0.00000   0.00000
  82        2S         -0.05023   0.00000   0.00000   0.00000   0.00000
  83        3PX         0.00000  -0.00423   0.01515   0.02284  -0.01730
  84        3PY         0.00692   0.00000   0.00000   0.00000   0.00000
  85        3PZ        -0.00630   0.00000   0.00000   0.00000   0.00000
  86 9   H  1S         -0.04470   0.00000   0.00000   0.00000   0.00000
  87        2S         -0.02815   0.00000   0.00000   0.00000   0.00000
  88        3PX         0.00000  -0.01340   0.00925  -0.01204   0.02504
  89        3PY         0.00583   0.00000   0.00000   0.00000   0.00000
  90        3PZ         0.00242   0.00000   0.00000   0.00000   0.00000
                          21        22        23        24        25
                        (A1)--V   (B2)--V   (A1)--V   (B2)--V   (A1)--V
     Eigenvalues --     0.08070   0.10931   0.11066   0.12372   0.17026
   1 1   C  1S          0.03814  -0.01017  -0.03762  -0.07274   0.02064
   2        2S         -0.05254  -0.00855   0.07866   0.17479   0.00103
   3        3S         -0.70587   0.68799   0.52902   0.25542  -0.91596
   4        4PX         0.00000   0.00000   0.00000   0.00000   0.00000
   5        4PY        -0.08373   0.04572   0.07865   0.04301  -0.12492
   6        4PZ         0.14829  -0.09806  -0.08149  -0.11846  -0.01731
   7        5PX         0.00000   0.00000   0.00000   0.00000   0.00000
   8        5PY        -0.21296  -0.05954   0.39956   0.68445  -0.43445
   9        5PZ         0.35025  -0.18626  -0.39175  -1.12243  -0.07310
  10        6D 0        0.00466  -0.00166  -0.00865  -0.00241  -0.01987
  11        6D+1        0.00000   0.00000   0.00000   0.00000   0.00000
  12        6D-1       -0.01545  -0.00329   0.00134  -0.00601   0.03060
  13        6D+2        0.00125  -0.00937  -0.00647   0.01765  -0.00899
  14        6D-2        0.00000   0.00000   0.00000   0.00000   0.00000
  15 2   C  1S          0.04250  -0.04549   0.06651   0.02584   0.01929
  16        2S         -0.06656   0.08994  -0.12204  -0.08457  -0.05019
  17        3S         -0.72227   0.81110  -0.79160   0.31895   0.20145
  18        4PX         0.00000   0.00000   0.00000   0.00000   0.00000
  19        4PY        -0.13537   0.19808  -0.04145  -0.03917   0.21511
  20        4PZ        -0.04923   0.09381  -0.10352   0.00352  -0.18229
  21        5PX         0.00000   0.00000   0.00000   0.00000   0.00000
  22        5PY        -0.29330   0.81278  -0.44941  -0.67707   0.59249
  23        5PZ        -0.12679   0.39765  -0.40489  -0.18685  -0.78042
  24        6D 0       -0.00939  -0.00436  -0.00457   0.01799  -0.00690
  25        6D+1        0.00000   0.00000   0.00000   0.00000   0.00000
  26        6D-1        0.00988   0.00174  -0.01335   0.00757  -0.00266
  27        6D+2       -0.00605   0.00008  -0.01325  -0.00897  -0.02232
  28        6D-2        0.00000   0.00000   0.00000   0.00000   0.00000
  29 3   O  1S          0.00811   0.00000  -0.04010   0.00000  -0.10839
  30        2S         -0.02148   0.00000   0.09688   0.00000   0.17521
  31        3S         -0.06126   0.00000   0.25820   0.00000   1.26434
  32        4PX         0.00000   0.00000   0.00000   0.00000   0.00000
  33        4PY         0.00000  -0.03801   0.00000   0.01032   0.00000
[...]
  66        6D 0        0.00000   0.00000   0.00000   0.00000   0.00000
  67        6D+1        0.00000   0.00000   0.00000   0.00000   0.00000
  68        6D-1        0.00000   0.00000   0.00000   0.00000   0.00000
  69        6D+2        0.00000   0.00000   0.00000   0.00000   0.00000
  70        6D-2        0.00000   0.00000   0.00000   0.00000   0.00000
  71 6   H  1S          0.05031   0.08877   0.00000   0.00488   0.00485
  72        2S          0.01296   0.02401   0.00000   0.00199   0.00168
  73        3PX         0.00000   0.00000   0.00282   0.00000   0.00000
  74        3PY        -0.00001   0.00408   0.00000   0.00043   0.00023
  75        3PZ         0.00431   0.00090   0.00000   0.00037   0.00009
  76 7   H  1S         -0.00053  -0.00113   0.00000   0.00061  -0.00815
  77        2S         -0.00283  -0.00313   0.00000  -0.00115  -0.00749
  78        3PX         0.00000   0.00000   0.00041   0.00000   0.00000
  79        3PY         0.00002  -0.00002   0.00000   0.00004  -0.00019
  80        3PZ         0.00006   0.00011   0.00000   0.00031   0.00008
  81 8   H  1S          0.00001   0.00000   0.00000   0.00101   0.00000
  82        2S          0.00059   0.00000   0.00000   0.00309   0.00002
  83        3PX         0.00000   0.00000  -0.00001   0.00000   0.00000
  84        3PY         0.00000   0.00000   0.00000   0.00002   0.00000
  85        3PZ         0.00000   0.00000   0.00000  -0.00001   0.00001
  86 9   H  1S         -0.00109  -0.00020   0.00000  -0.00760   0.00414
  87        2S         -0.00447  -0.00180   0.00000  -0.00962   0.00303
  88        3PX         0.00000   0.00000   0.00018   0.00000   0.00000
  89        3PY         0.00018   0.00001   0.00000   0.00029   0.00024
  90        3PZ        -0.00003   0.00001   0.00000  -0.00015  -0.00003
                          66        67        68        69        70
  66        6D 0        0.00141
  67        6D+1        0.00000   0.00101
  68        6D-1        0.00000   0.00000   0.00212
  69        6D+2        0.00000   0.00000   0.00000   0.00083
  70        6D-2        0.00000   0.00000   0.00000   0.00000   0.00110
  71 6   H  1S          0.00046   0.00000   0.00377   0.00004   0.00000
  72        2S          0.00004   0.00000   0.00053  -0.00001   0.00000
  73        3PX         0.00000  -0.00023   0.00000   0.00000  -0.00003
  74        3PY        -0.00011   0.00000  -0.00001  -0.00006   0.00000
  75        3PZ        -0.00009   0.00000  -0.00001  -0.00002   0.00000
  76 7   H  1S         -0.00008   0.00000   0.00040   0.00007   0.00000
  77        2S         -0.00015   0.00000   0.00028   0.00008   0.00000
  78        3PX         0.00000   0.00001   0.00000   0.00000   0.00000
  79        3PY         0.00001   0.00000   0.00002   0.00000   0.00000
  80        3PZ         0.00000   0.00000   0.00003   0.00000   0.00000
  81 8   H  1S          0.00000   0.00000   0.00000   0.00000   0.00000
  82        2S          0.00000   0.00000   0.00000  -0.00002   0.00000
  83        3PX         0.00000   0.00000   0.00000   0.00000   0.00000
  84        3PY         0.00000   0.00000   0.00000   0.00000   0.00000
  85        3PZ         0.00000   0.00000   0.00000   0.00000   0.00000
  86 9   H  1S          0.00001   0.00000   0.00041   0.00004   0.00000
  87        2S         -0.00004   0.00000   0.00047  -0.00009   0.00000
  88        3PX         0.00000   0.00000   0.00000   0.00000   0.00001
  89        3PY         0.00001   0.00000   0.00002   0.00002   0.00000
  90        3PZ         0.00000   0.00000   0.00000   0.00001   0.00000
                          71        72        73        74        75
  71 6   H  1S          0.38824
  72        2S          0.12079   0.09005
  73        3PX         0.00000   0.00000   0.00057
  74        3PY         0.00000   0.00000   0.00000   0.00091
  75        3PZ         0.00000   0.00000   0.00000   0.00000   0.00139
  76 7   H  1S         -0.00003  -0.00076   0.00000   0.00000   0.00000
  77        2S         -0.00105  -0.00235   0.00000  -0.00001  -0.00011
  78        3PX         0.00000   0.00000   0.00000   0.00000   0.00000
  79        3PY         0.00000   0.00000   0.00000   0.00000   0.00000
  80        3PZ         0.00000  -0.00010   0.00000   0.00000   0.00000
  81 8   H  1S          0.00000  -0.00001   0.00000   0.00000   0.00000
  82        2S         -0.00001  -0.00014   0.00000   0.00000   0.00000
  83        3PX         0.00000   0.00000   0.00000   0.00000   0.00000
  84        3PY         0.00000   0.00000   0.00000   0.00000   0.00000
  85        3PZ         0.00000   0.00000   0.00000   0.00000   0.00000
  86 9   H  1S         -0.00004  -0.00147   0.00000   0.00000   0.00000
  87        2S         -0.00147  -0.00437   0.00000  -0.00011   0.00000
  88        3PX         0.00000   0.00000   0.00000   0.00000   0.00000
  89        3PY         0.00000  -0.00011   0.00000   0.00000   0.00000
  90        3PZ         0.00000   0.00000   0.00000   0.00000   0.00000
                          76        77        78        79        80
  76 7   H  1S          0.38673
  77        2S          0.10542   0.06757
  78        3PX         0.00000   0.00000   0.00063
  79        3PY         0.00000   0.00000   0.00000   0.00167
  80        3PZ         0.00000   0.00000   0.00000   0.00000   0.00069
  81 8   H  1S          0.00000  -0.00006   0.00000   0.00000   0.00000
  82        2S         -0.00006  -0.00050   0.00000   0.00000   0.00000
  83        3PX         0.00000   0.00000   0.00000   0.00000   0.00000
  84        3PY         0.00000   0.00000   0.00000   0.00000   0.00000
  85        3PZ         0.00000   0.00000   0.00000   0.00000   0.00000
  86 9   H  1S          0.00000  -0.00001   0.00000   0.00000   0.00000
  87        2S         -0.00001  -0.00014   0.00000   0.00000   0.00000
  88        3PX         0.00000   0.00000   0.00000   0.00000   0.00000
  89        3PY         0.00000   0.00000   0.00000   0.00000   0.00000
  90        3PZ         0.00000   0.00000   0.00000   0.00000   0.00000
                          81        82        83        84        85
  81 8   H  1S          0.38673
  82        2S          0.10542   0.06757
  83        3PX         0.00000   0.00000   0.00063
  84        3PY         0.00000   0.00000   0.00000   0.00167
  85        3PZ         0.00000   0.00000   0.00000   0.00000   0.00069
  86 9   H  1S         -0.00003  -0.00105   0.00000   0.00000   0.00000
  87        2S         -0.00076  -0.00235   0.00000   0.00000  -0.00010
  88        3PX         0.00000   0.00000   0.00000   0.00000   0.00000
  89        3PY         0.00000  -0.00001   0.00000   0.00000   0.00000
  90        3PZ         0.00000  -0.00011   0.00000   0.00000   0.00000
                          86        87        88        89        90
  86 9   H  1S          0.38824
  87        2S          0.12079   0.09005
  88        3PX         0.00000   0.00000   0.00057
  89        3PY         0.00000   0.00000   0.00000   0.00091
  90        3PZ         0.00000   0.00000   0.00000   0.00000   0.00139
     Gross orbital populations:
                           1
   1 1   C  1S          1.99794
   2        2S          0.67929
   3        3S          0.45247
   4        4PX         0.61837
   5        4PY         0.73729
   6        4PZ         0.76196
   7        5PX         0.42938
   8        5PY         0.16441
   9        5PZ         0.10480
  10        6D 0        0.01387
  11        6D+1        0.00897
  12        6D-1        0.02093
  13        6D+2        0.00775
  14        6D-2        0.01063
  15 2   C  1S          1.99764
  16        2S          0.69052
  17        3S          0.41617
  18        4PX         0.65224
  19        4PY         0.67278
  20        4PZ         0.73484
  21        5PX         0.41432
  22        5PY         0.06429
  23        5PZ         0.11970
  24        6D 0        0.02107
  25        6D+1        0.01832
  26        6D-1        0.04444
  27        6D+2        0.01341
  28        6D-2        0.01210
  29 3   O  1S          1.99856
  30        2S          0.86196
  31        3S          0.87420
  32        4PX         1.00697
  33        4PY         0.83161
  34        4PZ         1.02522
  35        5PX         0.62795
  36        5PY         0.34734
  37        5PZ         0.56915
  38        6D 0        0.00332
  39        6D+1        0.00268
  40        6D-1        0.00825
  41        6D+2        0.00245
  42        6D-2        0.00419
  43 4   C  1S          1.99764
  44        2S          0.69052
  45        3S          0.41617
  46        4PX         0.65224
  47        4PY         0.67278
  48        4PZ         0.73484
  49        5PX         0.41432
  50        5PY         0.06429
  51        5PZ         0.11970
  52        6D 0        0.02107
  53        6D+1        0.01832
  54        6D-1        0.04444
  55        6D+2        0.01341
  56        6D-2        0.01210
  57 5   C  1S          1.99794
  58        2S          0.67929
  59        3S          0.45247
  60        4PX         0.61837
  61        4PY         0.73729
  62        4PZ         0.76196
  63        5PX         0.42938
  64        5PY         0.16441
  65        5PZ         0.10480
  66        6D 0        0.01387
  67        6D+1        0.00897
  68        6D-1        0.02093
  69        6D+2        0.00775
  70        6D-2        0.01063
  71 6   H  1S          0.75930
  72        2S          0.23989
  73        3PX         0.00713
  74        3PY         0.00963
  75        3PZ         0.01360
  76 7   H  1S          0.75864
  77        2S          0.21971
  78        3PX         0.00764
  79        3PY         0.01598
  80        3PZ         0.00668
  81 8   H  1S          0.75864
  82        2S          0.21971
  83        3PX         0.00764
  84        3PY         0.01598
  85        3PZ         0.00668
  86 9   H  1S          0.75930
  87        2S          0.23989
  88        3PX         0.00713
  89        3PY         0.00963
  90        3PZ         0.01360
          Condensed to atoms (all electrons):
               1          2          3          4          5          6
     1  C    4.788737   0.529680  -0.061495  -0.020167   0.456424  -0.051658
     2  C    0.529680   4.778565   0.397824  -0.182892  -0.020167   0.012661
     3  O   -0.061495   0.397824   7.529133   0.397824  -0.061495   0.004061
     4  C   -0.020167  -0.182892   0.397824   4.778565   0.529680  -0.054036
     5  C    0.456424  -0.020167  -0.061495   0.529680   4.788737   0.407971
     6  H   -0.051658   0.012661   0.004061  -0.054036   0.407971   0.722730
     7  H    0.008296   0.001964  -0.023042   0.408240  -0.049733  -0.004419
     8  H   -0.049733   0.408240  -0.023042   0.001964   0.008296  -0.000168
     9  H    0.407971  -0.054036   0.004061   0.012661  -0.051658  -0.007593
               7          8          9
     1  C    0.008296  -0.049733   0.407971
     2  C    0.001964   0.408240  -0.054036
     3  O   -0.023042  -0.023042   0.004061
     4  C    0.408240   0.001964   0.012661
     5  C   -0.049733   0.008296  -0.051658
     6  H   -0.004419  -0.000168  -0.007593
     7  H    0.668127  -0.000623  -0.000168
     8  H   -0.000623   0.668127  -0.004419
     9  H   -0.000168  -0.004419   0.722730
 Mulliken charges:
               1
     1  C   -0.008055
     2  C    0.128161
     3  O   -0.163830
     4  C    0.128161
     5  C   -0.008055
     6  H   -0.029548
     7  H   -0.008642
     8  H   -0.008642
     9  H   -0.029548
 Sum of Mulliken charges =   0.00000
 Mulliken charges with hydrogens summed into heavy atoms:
               1
     1  C   -0.037603
     2  C    0.119519
     3  O   -0.163830
     4  C    0.119519
     5  C   -0.037603
 Electronic spatial extent (au):  <R**2>=            289.3864
 Charge=              0.0000 electrons
 Dipole moment (field-independent basis, Debye):
    X=              0.0000    Y=              0.0000    Z=             -0.5149  Tot=              0.5149
 Quadrupole moment (field-independent basis, Debye-Ang):
   XX=            -31.2906   YY=            -24.2119   ZZ=            -27.8483
   XY=              0.0000   XZ=              0.0000   YZ=              0.0000
 Traceless Quadrupole moment (field-independent basis, Debye-Ang):
   XX=             -3.5070   YY=              3.5717   ZZ=             -0.0646
   XY=              0.0000   XZ=              0.0000   YZ=              0.0000
 Octapole moment (field-independent basis, Debye-Ang**2):
  XXX=              0.0000  YYY=              0.0000  ZZZ=             -0.3478  XYY=              0.0000
  XXY=              0.0000  XXZ=              3.2180  XZZ=              0.0000  YZZ=              0.0000
  YYZ=              4.2360  XYZ=              0.0000
 Hexadecapole moment (field-independent basis, Debye-Ang**3):
 XXXX=            -32.2044 YYYY=           -164.5655 ZZZZ=           -162.4798 XXXY=              0.0000
 XXXZ=              0.0000 YYYX=              0.0000 YYYZ=              0.0000 ZZZX=              0.0000
 ZZZY=              0.0000 XXYY=            -39.7635 XXZZ=            -34.8544 YYZZ=            -48.8029
 XXYZ=              0.0000 YYXZ=              0.0000 ZZXY=              0.0000
 N-N= 1.612261194346D+02 E-N=-8.587345991856D+02  KE= 2.286679077367D+02
 Symmetry A1   KE= 1.433965967290D+02
 Symmetry A2   KE= 2.425575228439D+00
 Symmetry B1   KE= 6.320975893744D+00
 Symmetry B2   KE= 7.652475988557D+01
 Orbital energies and kinetic energies (alpha):
                                 1                 2
   1         (A1)--O         -19.205162         29.122537
   2         (B2)--O         -10.231537         15.963250
   3         (A1)--O         -10.231524         15.960579
   4         (A1)--O         -10.184274         15.963878
   5         (B2)--O         -10.183928         15.959154
   6         (A1)--O          -1.111000          2.512435
   7         (A1)--O          -0.800010          1.779992
   8         (B2)--O          -0.745717          1.782042
   9         (B2)--O          -0.598404          1.664537
  10         (A1)--O          -0.569231          1.453740
  11         (A1)--O          -0.540855          1.285184
  12         (B1)--O          -0.448277          1.638200
  13         (B2)--O          -0.444741          1.548771
  14         (B2)--O          -0.410711          1.344626
  15         (A1)--O          -0.396870          1.496126
  16         (A1)--O          -0.371129          2.123827
  17         (B1)--O          -0.279408          1.522288
  18         (A2)--O          -0.231170          1.212788
  19         (B1)--V           0.012795          1.733458
  20         (A2)--V           0.069791          1.414471
  21         (A1)--V           0.080697          0.739219
  22         (B2)--V           0.109311          0.714536
  23         (A1)--V           0.110662          0.990856
  24         (B2)--V           0.123721          0.812879
  25         (A1)--V           0.170264          1.659928
  26         (B2)--V           0.194928          1.822581
  27         (A1)--V           0.284039          1.300409
  28         (B2)--V           0.344282          1.153737
  29         (B2)--V           0.391789          2.363469
  30         (A1)--V           0.392122          1.420416
  31         (B1)--V           0.463132          1.761057
  32         (A1)--V           0.479895          1.995138
  33         (B2)--V           0.483493          2.038111
  34         (A2)--V           0.510169          1.767206
  35         (B2)--V           0.521333          2.170035
  36         (A1)--V           0.526199          2.593839
  37         (B1)--V           0.540121          1.909189
  38         (A1)--V           0.590603          1.730817
  39         (A2)--V           0.608696          2.065007
  40         (B2)--V           0.653971          2.213133
  41         (A1)--V           0.670701          2.541947
  42         (B2)--V           0.717661          2.601359
  43         (A1)--V           0.753810          1.882152
  44         (B2)--V           0.843989          2.061877
  45         (B1)--V           0.844562          1.884193
  46         (A1)--V           0.928189          2.019262
  47         (B2)--V           0.948199          2.267101
  48         (A1)--V           0.964048          2.070037
  49         (B1)--V           0.965580          2.535084
  50         (B2)--V           1.017159          2.226015
  51         (B1)--V           1.035285          2.653678
  52         (A1)--V           1.043664          2.567140
  53         (A2)--V           1.052117          1.939170
  54         (A2)--V           1.123998          1.981761
  55         (A1)--V           1.271068          2.568869
  56         (B1)--V           1.280107          2.184948
  57         (B2)--V           1.323217          2.834142
  58         (B2)--V           1.357730          2.206001
  59         (A1)--V           1.476028          2.520683
  60         (B2)--V           1.480649          2.404051
  61         (A2)--V           1.486733          2.235611
  62         (A1)--V           1.511887          2.460411
  63         (B1)--V           1.569074          2.424465
  64         (A1)--V           1.590891          2.828071
  65         (B1)--V           1.678763          2.536787
  66         (B2)--V           1.680993          3.402345
  67         (B2)--V           1.718351          2.834389
  68         (A1)--V           1.762699          3.519386
  69         (A2)--V           1.770174          2.603213
  70         (A2)--V           1.850494          2.739441
  71         (A1)--V           1.869389          3.204997
  72         (B2)--V           1.901627          3.120099
  73         (B1)--V           1.910908          2.725015
  74         (A1)--V           1.925134          3.367633
  75         (B2)--V           1.982246          3.598569
  76         (A1)--V           2.067347          4.091948
  77         (A2)--V           2.213931          3.091717
  78         (B2)--V           2.235547          3.488612
  79         (B2)--V           2.340674          3.818766
  80         (A1)--V           2.342924          3.988478
  81         (A1)--V           2.470410          4.583069
  82         (B2)--V           2.603136          4.456076
  83         (B2)--V           2.635059          4.460672
  84         (A1)--V           2.659454          4.274061
  85         (B1)--V           2.867129          4.485596
  86         (A2)--V           2.905076          4.546984
  87         (A1)--V           3.093738          5.202337
  88         (B2)--V           3.329921          5.124352
  89         (B2)--V           3.361565          5.441782
  90         (A1)--V           3.442002          5.205621
 Total kinetic energy from orbitals= 2.286679077367D+02
 Leave Link  601 at Mon Nov 23 16:19:49 2015, MaxMem=    33554432 cpu:         0.0
 (Enter /home/Applications/g09/g09/l9999.exe)
 1\1\GINC-DUSTIN-DESKTOP\SP\RB3LYP-FC\CC-pVDZ\C4H4O1\DUSTIN\23-Nov-2015
 \0\\#P B3LYP/cc-pVDZ CIS(Singlets,NStates=15) pop(full)\\FuranDFT\\0,1
 \C,0,0.955475,-0.715963,0.\C,0,-0.345627,-1.092818,0.\O,0,-1.157305,0.
 ,0.\C,0,-0.345627,1.092818,0.\C,0,0.955475,0.715963,0.\H,0,1.810438,1.
 369382,0.\H,0,-0.840307,2.046884,0.\H,0,-0.840307,-2.046884,0.\H,0,1.8
 10438,-1.369382,0.\\Version=ES64L-G09RevD.01\State=1-A1\HF=-230.036429
 8\RMSD=6.670e-09\PG=C02V [C2(O1),SGV(C4H4)]\\@


 ... I FELL INTO A REVERIE ... THE ATOMS WERE GAMBOLING BEFORE MY EYES
 ... I SAW HOW TWO SMALL ONES UNITED TO FORM A PAIR;
 HOW THE LARGER ONES SEIZED TWO OF THE SMALLER ONES;
 HOW STILL LARGER ONES KEPT HOLD OF THREE OR FOUR
 SMALLER ONES ... I SAW HOW THE LARGER ONES FORMED A CHAIN ...
 THIS WAS THE ORIGIN OF THE STRUCTURE THEORY.

                                   -- C.F.KEKULE VON STRADONITZ
 Job cpu time:       0 days  0 hours  0 minutes 30.5 seconds.
 File lengths (MBytes):  RWF=     26 Int=      0 D2E=      0 Chk=      5 Scr=      1
 Normal termination of Gaussian 09 at Mon Nov 23 16:19:49 2015.
