 Entering Gaussian System, Link 0=g09
 Input=FuranAM1Best2.com
 Output=FuranAM1Best2.log
 Initial command:
 /home/Applications/g09/g09/l1.exe "/home/Applications/g09/scratch/Gau-20944.inp" -scrdir="/home/Applications/g09/scratch/"
 Entering Link 1 = /home/Applications/g09/g09/l1.exe PID=     20946.
  
 Copyright (c) 1988,1990,1992,1993,1995,1998,2003,2009,2013,
            Gaussian, Inc.  All Rights Reserved.
  
 This is part of the Gaussian(R) 09 program.  It is based on
 the Gaussian(R) 03 system (copyright 2003, Gaussian, Inc.),
 the Gaussian(R) 98 system (copyright 1998, Gaussian, Inc.),
 the Gaussian(R) 94 system (copyright 1995, Gaussian, Inc.),
 the Gaussian 92(TM) system (copyright 1992, Gaussian, Inc.),
 the Gaussian 90(TM) system (copyright 1990, Gaussian, Inc.),
 the Gaussian 88(TM) system (copyright 1988, Gaussian, Inc.),
 the Gaussian 86(TM) system (copyright 1986, Carnegie Mellon
 University), and the Gaussian 82(TM) system (copyright 1983,
 Carnegie Mellon University). Gaussian is a federally registered
 trademark of Gaussian, Inc.
  
 This software contains proprietary and confidential information,
 including trade secrets, belonging to Gaussian, Inc.
  
 This software is provided under written license and may be
 used, copied, transmitted, or stored only in accord with that
 written license.
  
 The following legend is applicable only to US Government
 contracts under FAR:
  
                    RESTRICTED RIGHTS LEGEND
  
 Use, reproduction and disclosure by the US Government is
 subject to restrictions as set forth in subparagraphs (a)
 and (c) of the Commercial Computer Software - Restricted
 Rights clause in FAR 52.227-19.
  
 Gaussian, Inc.
 340 Quinnipiac St., Bldg. 40, Wallingford CT 06492
  
  
 ---------------------------------------------------------------
 Warning -- This program may not be used in any manner that
 competes with the business of Gaussian, Inc. or will provide
 assistance to any competitor of Gaussian, Inc.  The licensee
 of this program is prohibited from giving any competitor of
 Gaussian, Inc. access to this program.  By using this program,
 the user acknowledges that Gaussian, Inc. is engaged in the
 business of creating and licensing software in the field of
 computational chemistry and represents and warrants to the
 licensee that it is not a competitor of Gaussian, Inc. and that
 it will not use this program in any manner prohibited above.
 ---------------------------------------------------------------
  

 Cite this work as:
 Gaussian 09, Revision D.01,
 M. J. Frisch, G. W. Trucks, H. B. Schlegel, G. E. Scuseria, 
 M. A. Robb, J. R. Cheeseman, G. Scalmani, V. Barone, B. Mennucci, 
 G. A. Petersson, H. Nakatsuji, M. Caricato, X. Li, H. P. Hratchian, 
 A. F. Izmaylov, J. Bloino, G. Zheng, J. L. Sonnenberg, M. Hada, 
 M. Ehara, K. Toyota, R. Fukuda, J. Hasegawa, M. Ishida, T. Nakajima, 
 Y. Honda, O. Kitao, H. Nakai, T. Vreven, J. A. Montgomery, Jr., 
 J. E. Peralta, F. Ogliaro, M. Bearpark, J. J. Heyd, E. Brothers, 
 K. N. Kudin, V. N. Staroverov, T. Keith, R. Kobayashi, J. Normand, 
 K. Raghavachari, A. Rendell, J. C. Burant, S. S. Iyengar, J. Tomasi, 
 M. Cossi, N. Rega, J. M. Millam, M. Klene, J. E. Knox, J. B. Cross, 
 V. Bakken, C. Adamo, J. Jaramillo, R. Gomperts, R. E. Stratmann, 
 O. Yazyev, A. J. Austin, R. Cammi, C. Pomelli, J. W. Ochterski, 
 R. L. Martin, K. Morokuma, V. G. Zakrzewski, G. A. Voth, 
 P. Salvador, J. J. Dannenberg, S. Dapprich, A. D. Daniels, 
 O. Farkas, J. B. Foresman, J. V. Ortiz, J. Cioslowski, 
 and D. J. Fox, Gaussian, Inc., Wallingford CT, 2013.
 
 ******************************************
 Gaussian 09:  ES64L-G09RevD.01 24-Apr-2013
                29-Nov-2015 
 ******************************************
 ----------------------------
 #P AM1(Input,print) Opt Freq
 ----------------------------
 1/14=-1,18=20,19=15,26=1,38=1/1,3;
 2/9=110,12=2,17=6,18=5,40=1/2;
 3/5=2,16=1,25=1,41=700000,71=1,135=100,136=1/1,2,3;
 4/35=1/1;
 5/5=2,35=1,38=5/2;
 6/7=2,8=2,9=2,10=2,28=1/1;
 7//1,2,3,16;
 1/14=-1,18=20,19=15,26=1/3(2);
 2/9=110/2;
 99//99;
 2/9=110/2;
 3/5=2,16=1,25=1,41=700000,71=1,135=20,136=1/1,2,3;
 4/5=5,16=3,35=1/1;
 5/5=2,35=1,38=5/2;
 7//1,2,3,16;
 1/14=-1,18=20,19=15,26=1/3(-5);
 2/9=110/2;
 6/7=2,8=2,9=2,10=2,19=2,28=1/1;
 99/9=1/99;
 Leave Link    1 at Sun Nov 29 12:22:27 2015, MaxMem=           0 cpu:         0.0
 (Enter /home/Applications/g09/g09/l101.exe)
 -----------------
 AM1-Reparam Input
 -----------------
 Symbolic Z-matrix:
 Charge =  0 Multiplicity = 1
 6                     0.99506  -0.6726    0.0081 
 6                    -0.30067  -1.12452   0.04669 
 8                    -1.12613  -0.04024   0.0413 
 6                    -0.33335   1.09273   0.0431 
 6                     0.9354    0.66689  -0.04689 
 1                     1.77513   1.32375  -0.04462 
 1                    -0.81327   2.07327  -0.04441 
 1                    -0.85348  -2.08482  -0.00702 
 1                     1.78399  -1.33377   0.04262 
 
 NAtoms=      9 NQM=        9 NQMF=       0 NMMI=      0 NMMIF=      0
                NMic=       0 NMicF=      0.
                    Isotopes and Nuclear Properties:
 (Nuclear quadrupole moments (NQMom) in fm**2, nuclear magnetic moments (NMagM)
  in nuclear magnetons)

  Atom         1           2           3           4           5           6           7           8           9
 IAtWgt=          12          12          16          12          12           1           1           1           1
 AtmWgt=  12.0000000  12.0000000  15.9949146  12.0000000  12.0000000   1.0078250   1.0078250   1.0078250   1.0078250
 NucSpn=           0           0           0           0           0           1           1           1           1
 AtZEff=   0.0000000   0.0000000   0.0000000   0.0000000   0.0000000   0.0000000   0.0000000   0.0000000   0.0000000
 NQMom=    0.0000000   0.0000000   0.0000000   0.0000000   0.0000000   0.0000000   0.0000000   0.0000000   0.0000000
 NMagM=    0.0000000   0.0000000   0.0000000   0.0000000   0.0000000   2.7928460   2.7928460   2.7928460   2.7928460
 AtZNuc=   6.0000000   6.0000000   8.0000000   6.0000000   6.0000000   1.0000000   1.0000000   1.0000000   1.0000000
 Leave Link  101 at Sun Nov 29 12:22:27 2015, MaxMem=    33554432 cpu:         0.0
 (Enter /home/Applications/g09/g09/l103.exe)

 GradGradGradGradGradGradGradGradGradGradGradGradGradGradGradGradGradGrad
 Berny optimization.
 Initialization pass.
                           ----------------------------
                           !    Initial Parameters    !
                           ! (Angstroms and Degrees)  !
 --------------------------                            --------------------------
 ! Name  Definition              Value          Derivative Info.                !
 --------------------------------------------------------------------------------
 ! R1    R(1,2)                  1.3728         estimate D2E/DX2                !
 ! R2    R(1,5)                  1.3419         estimate D2E/DX2                !
 ! R3    R(1,9)                  1.0299         estimate D2E/DX2                !
 ! R4    R(2,3)                  1.3627         estimate D2E/DX2                !
 ! R5    R(2,8)                  1.1094         estimate D2E/DX2                !
 ! R6    R(3,4)                  1.3828         estimate D2E/DX2                !
 ! R7    R(4,5)                  1.3413         estimate D2E/DX2                !
 ! R8    R(4,7)                  1.0952         estimate D2E/DX2                !
 ! R9    R(5,6)                  1.0661         estimate D2E/DX2                !
 ! A1    A(2,1,5)              106.7248         estimate D2E/DX2                !
 ! A2    A(2,1,9)              120.7124         estimate D2E/DX2                !
 ! A3    A(5,1,9)              132.5483         estimate D2E/DX2                !
 ! A4    A(1,2,3)              108.0403         estimate D2E/DX2                !
 ! A5    A(1,2,8)              138.9322         estimate D2E/DX2                !
 ! A6    A(3,2,8)              112.7503         estimate D2E/DX2                !
 ! A7    A(2,3,4)              107.7356         estimate D2E/DX2                !
 ! A8    A(3,4,5)              106.3849         estimate D2E/DX2                !
 ! A9    A(3,4,7)              118.8307         estimate D2E/DX2                !
 ! A10   A(5,4,7)              133.8981         estimate D2E/DX2                !
 ! A11   A(1,5,4)              110.867          estimate D2E/DX2                !
 ! A12   A(1,5,6)              125.4426         estimate D2E/DX2                !
 ! A13   A(4,5,6)              123.3178         estimate D2E/DX2                !
 ! D1    D(5,1,2,3)             -1.2056         estimate D2E/DX2                !
 ! D2    D(5,1,2,8)            171.9462         estimate D2E/DX2                !
 ! D3    D(9,1,2,3)            177.5702         estimate D2E/DX2                !
 ! D4    D(9,1,2,8)             -9.2779         estimate D2E/DX2                !
 ! D5    D(2,1,5,4)              4.0429         estimate D2E/DX2                !
 ! D6    D(2,1,5,6)            177.2002         estimate D2E/DX2                !
 ! D7    D(9,1,5,4)           -174.5285         estimate D2E/DX2                !
 ! D8    D(9,1,5,6)             -1.3711         estimate D2E/DX2                !
 ! D9    D(1,2,3,4)             -1.9191         estimate D2E/DX2                !
 ! D10   D(8,2,3,4)           -177.0463         estimate D2E/DX2                !
 ! D11   D(2,3,4,5)              4.2944         estimate D2E/DX2                !
 ! D12   D(2,3,4,7)            174.9871         estimate D2E/DX2                !
 ! D13   D(3,4,5,1)             -5.2017         estimate D2E/DX2                !
 ! D14   D(3,4,5,6)           -178.5313         estimate D2E/DX2                !
 ! D15   D(7,4,5,1)           -173.8621         estimate D2E/DX2                !
 ! D16   D(7,4,5,6)             12.8083         estimate D2E/DX2                !
 --------------------------------------------------------------------------------
 Trust Radius=3.00D-01 FncErr=1.00D-07 GrdErr=1.00D-07
 Number of steps in this run=     48 maximum allowed number of steps=    100.
 GradGradGradGradGradGradGradGradGradGradGradGradGradGradGradGradGradGrad

 Leave Link  103 at Sun Nov 29 12:22:27 2015, MaxMem=    33554432 cpu:         0.0
 (Enter /home/Applications/g09/g09/l202.exe)
                          Input orientation:                          
 ---------------------------------------------------------------------
 Center     Atomic      Atomic             Coordinates (Angstroms)
 Number     Number       Type             X           Y           Z
 ---------------------------------------------------------------------
      1          6           0        0.995058   -0.672604    0.008103
      2          6           0       -0.300674   -1.124520    0.046691
      3          8           0       -1.126132   -0.040243    0.041296
      4          6           0       -0.333348    1.092730    0.043102
      5          6           0        0.935396    0.666890   -0.046893
      6          1           0        1.775126    1.323749   -0.044624
      7          1           0       -0.813268    2.073265   -0.044414
      8          1           0       -0.853482   -2.084820   -0.007020
      9          1           0        1.783994   -1.333774    0.042622
 ---------------------------------------------------------------------
                    Distance matrix (angstroms):
                    1          2          3          4          5
     1  C    0.000000
     2  C    1.372821   0.000000
     3  O    2.213691   1.362742   0.000000
     4  C    2.209591   2.217494   1.382801   0.000000
     5  C    1.341949   2.178480   2.181218   1.341324   0.000000
     6  H    2.143994   3.211122   3.207048   2.122906   1.066122
     7  H    3.288251   3.239889   2.138258   1.095185   2.244042
     8  H    2.326302   1.109350   2.063242   3.220229   3.282314
     9  H    1.029931   2.095148   3.184660   3.220413   2.175037
                    6          7          8          9
     6  H    0.000000
     7  H    2.694728   0.000000
     8  H    4.304572   4.158448   0.000000
     9  H    2.658970   4.285004   2.742775   0.000000
 Stoichiometry    C4H4O
 Framework group  C1[X(C4H4O)]
 Deg. of freedom    21
 Full point group                 C1      NOp   1
 Largest Abelian subgroup         C1      NOp   1
 Largest concise Abelian subgroup C1      NOp   1
                         Standard orientation:                         
 ---------------------------------------------------------------------
 Center     Atomic      Atomic             Coordinates (Angstroms)
 Number     Number       Type             X           Y           Z
 ---------------------------------------------------------------------
      1          6           0       -0.648467    0.982245   -0.006303
      2          6           0       -1.111668   -0.310072   -0.007349
      3          8           0       -0.034342   -1.144536    0.002833
      4          6           0        1.105061   -0.361879   -0.033865
      5          6           0        0.691127    0.912304    0.031448
      6          1           0        1.354865    1.746009   -0.000212
      7          1           0        2.082701   -0.848049    0.051523
      8          1           0       -2.075688   -0.853083    0.073045
      9          1           0       -1.303460    1.775830   -0.050612
 ---------------------------------------------------------------------
 Rotational constants (GHZ):      9.6108452      9.5442998      4.7920638
 Leave Link  202 at Sun Nov 29 12:22:27 2015, MaxMem=    33554432 cpu:         0.0
 (Enter /home/Applications/g09/g09/l301.exe)

 Semi-emprical parameters in input format:
 Method=8 CoreType=1 PeptideFC=0.0105570000 RIJScale=0.4899110000
 ****
 H       
 PQN=1 NValence=1 F0ss=0.4577290000 ZetaOverlap=1.0659780000 U=-0.3880320000
 Beta=-0.2381360000 CoreKO=1.1144350000 KON=0,0,0,1.0186160000 KON=1,0,1,1.0557690000
 KON=0,1,1,1.0725930000 KON=2,1,1,1.1590830000 EISol=-0.4188110042 EHeat=0.0830298228
 Alpha=1.5252600000
 GCore=0.0099350000,1.3986240000,2.1461900000
 GCore=0.0003630000,1.5415670000,2.7171030000
 GCore=-0.0012530000,0.5088300000,4.2039300000
 ****
 C       
 PQN=2,2 NValence=4 F0ss=0.4263360000 F0sp=0.4580860000 F0pp=0.3261620000 F2pp=0.2036090000
 G1sp=0.2073130000
 ZetaOverlap=2.1016200000,1.8587190000
 U=-1.9018080000,-1.4557970000
 Beta=-0.4792560000,-0.2700630000 DDN=0,1,0.8034860000 DDN=1,1,0.7591540000
 CoreKO=1.1325510000 KON=0,0,0,1.1996250000 KON=1,0,1,0.8437060000 KON=0,1,1,1.0478550000
 KON=2,1,1,0.8168110000 EISol=-4.4398989268 EHeat=0.2723305520 Alpha=1.4381970000
 DipHyp=1.6068795495
 GCore=0.0008260000,1.4798740000,2.8384620000
 GCore=0.0031480000,1.6675340000,3.8116200000
 GCore=-0.0011560000,1.5029710000,3.9059920000
 GCore=-0.0000920000,1.1754400000,4.8520980000
 ****
 O       
 PQN=2,2 NValence=6 F0ss=0.5413910000 F0sp=0.5145480000 F0pp=0.5091470000 F2pp=0.2175940000
 G1sp=0.4302620000
 ZetaOverlap=3.3296350000,2.5240390000
 U=-3.3343200000,-2.9854240000
 Beta=-0.9082740000,-1.1340310000 DDN=0,1,0.4988900000 DDN=1,1,0.5206270000
 CoreKO=0.9688900000 KON=0,0,0,0.8976510000 KON=1,0,1,0.5186760000 KON=0,1,1,0.8274210000
 KON=2,1,1,0.5315430000 EISol=-11.6164441184 EHeat=0.0949133088 Alpha=2.3722000000
 DipHyp=0.9977225968
 GCore=0.0212480000,1.1747580000,1.6499540000
 GCore=0.0064050000,2.1096700000,2.7148630000
 ****
 
 Standard basis: VSTO-6G (5D, 7F)
 Ernie: Thresh=  0.10000D-02 Tol=  0.10000D-05 Strict=F.
  NNHCO=     0 NNPyr=     0 NCTC=     0               EPep=         0.000000000
    EC=        68.404667411  ECS=         1.723982212   EG=         0.435271420
   EHC=         0.000000000  EAt=       -31.051283842  AtH=         1.516354808
 EPDDG=         0.000000000  ECC=        70.563921043 EAtT=        32.567638650
 There are    24 symmetry adapted cartesian basis functions of A   symmetry.
 There are    24 symmetry adapted basis functions of A   symmetry.
    24 basis functions,   144 primitive gaussians,    24 cartesian basis functions
    13 alpha electrons       13 beta electrons
       nuclear repulsion energy       103.1315596931 Hartrees.
 IExCor=    0 DFT=F Ex=HF Corr=None ExCW=0 ScaHFX=  1.000000
 ScaDFX=  1.000000  1.000000  1.000000  1.000000 ScalE2=  1.000000  1.000000
 IRadAn=      0 IRanWt=     -1 IRanGd=            0 ICorTp=0 IEmpDi=  4
 Integral buffers will be    131072 words long.
 Regular integral format.
 Two-electron integral symmetry is turned off.
 Leave Link  301 at Sun Nov 29 12:22:27 2015, MaxMem=    33554432 cpu:         0.0
 (Enter /home/Applications/g09/g09/l302.exe)
 Do NDO integrals.
 NPDir=0 NMtPBC=     1 NCelOv=     1 NCel=       1 NClECP=     1 NCelD=      1
         NCelK=      1 NCelE2=     1 NClLst=     1 CellRange=     0.0.
 One-electron integrals computed using PRISM.
 NBasis=    24 RedAO= F EigKep=  0.00D+00  NBF=    24
 NBsUse=    24 1.00D-04 EigRej=  0.00D+00 NBFU=    24
 Leave Link  302 at Sun Nov 29 12:22:27 2015, MaxMem=    33554432 cpu:         0.0
 (Enter /home/Applications/g09/g09/l303.exe)
 DipDrv:  MaxL=1.
 Leave Link  303 at Sun Nov 29 12:22:27 2015, MaxMem=    33554432 cpu:         0.0
 (Enter /home/Applications/g09/g09/l401.exe)
 Simple Huckel Guess.
 JPrj=0 DoOrth=F DoCkMO=F.
 Leave Link  401 at Sun Nov 29 12:22:27 2015, MaxMem=    33554432 cpu:         0.0
 (Enter /home/Applications/g09/g09/l502.exe)
 Closed shell SCF:
 Using DIIS extrapolation, IDIIS=  1040.
 Overlap will be assumed to be unity.
 Two-electron integral symmetry not used.
 Keep J ints in memory in canonical form, NReq=888082.
 IVT=       79475 IEndB=       79475 NGot=    33554432 MDV=    33473473
 LenX=    33473473 LenY=    33472456
 Requested convergence on RMS density matrix=1.00D-08 within 128 cycles.
 Requested convergence on MAX density matrix=1.00D-06.
 Requested convergence on             energy=1.00D-06.
 No special actions if energy rises.
 FoFCou: FMM=F IPFlag=           0 FMFlag=           0 FMFlg1=           0
         NFxFlg=           0 DoJE=F BraDBF=F KetDBF=F FulRan=T
         wScrn=  0.000000 ICntrl=     600 IOpCl=  2 I1Cent=           0 NGrid=           0
         NMat0=    1 NMatS0=     54 NMatT0=    0 NMatD0=    1 NMtDS0=    0 NMtDT0=    0
 Symmetry not used in FoFCou.

 Cycle   1  Pass 1  IDiag  1:
 E=  1.00981788545153    
 DIIS: error= 4.71D-02 at cycle   1 NSaved=   1.
 NSaved= 1 IEnMin= 1 EnMin=  1.00981788545153     IErMin= 1 ErrMin= 4.71D-02
 ErrMax= 4.71D-02  0.00D+00 EMaxC= 1.00D-01 BMatC= 7.25D-02 BMatP= 7.25D-02
 IDIUse=3 WtCom= 5.29D-01 WtEn= 4.71D-01
 Coeff-Com:  0.100D+01
 Coeff-En:   0.100D+01
 Coeff:      0.100D+01
 GapD=    2.000 DampG=2.000 DampE=0.500 DampFc=1.0000 IDamp=-1.
 RMSDP=1.85D-02 MaxDP=1.68D-01              OVMax= 0.00D+00

 Cycle   2  Pass 1  IDiag  1:
 E= 0.784781683233078     Delta-E=       -0.225036202218 Rises=F Damp=F
 DIIS: error= 1.87D-02 at cycle   2 NSaved=   2.
 NSaved= 2 IEnMin= 2 EnMin= 0.784781683233078     IErMin= 2 ErrMin= 1.87D-02
 ErrMax= 1.87D-02  0.00D+00 EMaxC= 1.00D-01 BMatC= 9.13D-03 BMatP= 7.25D-02
 IDIUse=3 WtCom= 8.13D-01 WtEn= 1.87D-01
 Coeff-Com: -0.458D+00 0.146D+01
 Coeff-En:   0.000D+00 0.100D+01
 Coeff:     -0.372D+00 0.137D+01
 RMSDP=9.35D-03 MaxDP=5.75D-02 DE=-2.25D-01 OVMax= 0.00D+00

 Cycle   3  Pass 1  IDiag  3:
 E= 0.749461868375491     Delta-E=       -0.035319814858 Rises=F Damp=F
 DIIS: error= 2.79D-03 at cycle   3 NSaved=   3.
 NSaved= 3 IEnMin= 3 EnMin= 0.749461868375491     IErMin= 3 ErrMin= 2.79D-03
 ErrMax= 2.79D-03  0.00D+00 EMaxC= 1.00D-01 BMatC= 5.41D-04 BMatP= 9.13D-03
 IDIUse=3 WtCom= 9.72D-01 WtEn= 2.79D-02
 Coeff-Com:  0.253D+00-0.935D+00 0.168D+01
 Coeff-En:   0.000D+00 0.000D+00 0.100D+01
 Coeff:      0.246D+00-0.909D+00 0.166D+01
 Gap=     0.352 Goal=   None    Shift=    0.000
 RMSDP=3.23D-03 MaxDP=1.99D-02 DE=-3.53D-02 OVMax= 1.62D-02

 Cycle   4  Pass 1  IDiag  3:
 E= 0.746412705474683     Delta-E=       -0.003049162901 Rises=F Damp=F
 DIIS: error= 9.24D-04 at cycle   4 NSaved=   4.
 NSaved= 4 IEnMin= 4 EnMin= 0.746412705474683     IErMin= 4 ErrMin= 9.24D-04
 ErrMax= 9.24D-04  0.00D+00 EMaxC= 1.00D-01 BMatC= 4.38D-05 BMatP= 5.41D-04
 IDIUse=3 WtCom= 9.91D-01 WtEn= 9.24D-03
 Coeff-Com: -0.108D-01 0.339D-01-0.231D+00 0.121D+01
 Coeff-En:   0.000D+00 0.000D+00 0.000D+00 0.100D+01
 Coeff:     -0.107D-01 0.336D-01-0.229D+00 0.121D+01
 Gap=     0.354 Goal=   None    Shift=    0.000
 RMSDP=9.93D-04 MaxDP=6.92D-03 DE=-3.05D-03 OVMax= 1.11D-02

 Cycle   5  Pass 1  IDiag  3:
 E= 0.746099772834867     Delta-E=       -0.000312932640 Rises=F Damp=F
 DIIS: error= 5.73D-04 at cycle   5 NSaved=   5.
 NSaved= 5 IEnMin= 5 EnMin= 0.746099772834867     IErMin= 5 ErrMin= 5.73D-04
 ErrMax= 5.73D-04  0.00D+00 EMaxC= 1.00D-01 BMatC= 1.46D-05 BMatP= 4.38D-05
 IDIUse=3 WtCom= 9.94D-01 WtEn= 5.73D-03
 Coeff-Com: -0.304D-01 0.124D+00-0.130D+00-0.866D+00 0.190D+01
 Coeff-En:   0.000D+00 0.000D+00 0.000D+00 0.000D+00 0.100D+01
 Coeff:     -0.302D-01 0.123D+00-0.130D+00-0.861D+00 0.190D+01
 Gap=     0.355 Goal=   None    Shift=    0.000
 RMSDP=9.05D-04 MaxDP=6.29D-03 DE=-3.13D-04 OVMax= 1.09D-02

 Cycle   6  Pass 1  IDiag  3:
 E= 0.745949437490495     Delta-E=       -0.000150335344 Rises=F Damp=F
 DIIS: error= 2.29D-04 at cycle   6 NSaved=   6.
 NSaved= 6 IEnMin= 6 EnMin= 0.745949437490495     IErMin= 6 ErrMin= 2.29D-04
 ErrMax= 2.29D-04  0.00D+00 EMaxC= 1.00D-01 BMatC= 2.85D-06 BMatP= 1.46D-05
 IDIUse=3 WtCom= 9.98D-01 WtEn= 2.29D-03
 Coeff-Com:  0.163D-01-0.665D-01 0.710D-01 0.559D+00-0.158D+01 0.200D+01
 Coeff-En:   0.000D+00 0.000D+00 0.000D+00 0.000D+00 0.000D+00 0.100D+01
 Coeff:      0.163D-01-0.663D-01 0.709D-01 0.557D+00-0.157D+01 0.199D+01
 Gap=     0.355 Goal=   None    Shift=    0.000
 RMSDP=4.94D-04 MaxDP=3.42D-03 DE=-1.50D-04 OVMax= 6.01D-03

 Cycle   7  Pass 1  IDiag  3:
 E= 0.745917333699964     Delta-E=       -0.000032103791 Rises=F Damp=F
 DIIS: error= 8.49D-05 at cycle   7 NSaved=   7.
 NSaved= 7 IEnMin= 7 EnMin= 0.745917333699964     IErMin= 7 ErrMin= 8.49D-05
 ErrMax= 8.49D-05  0.00D+00 EMaxC= 1.00D-01 BMatC= 2.90D-07 BMatP= 2.85D-06
 IDIUse=1 WtCom= 1.00D+00 WtEn= 0.00D+00
 Coeff-Com: -0.245D-02 0.942D-02-0.790D-02-0.176D+00 0.586D+00-0.118D+01
 Coeff-Com:  0.177D+01
 Coeff:     -0.245D-02 0.942D-02-0.790D-02-0.176D+00 0.586D+00-0.118D+01
 Coeff:      0.177D+01
 Gap=     0.355 Goal=   None    Shift=    0.000
 RMSDP=1.68D-04 MaxDP=1.32D-03 DE=-3.21D-05 OVMax= 2.08D-03

 Cycle   8  Pass 1  IDiag  3:
 E= 0.745914425573020     Delta-E=       -0.000002908127 Rises=F Damp=F
 DIIS: error= 1.34D-05 at cycle   8 NSaved=   8.
 NSaved= 8 IEnMin= 8 EnMin= 0.745914425573020     IErMin= 8 ErrMin= 1.34D-05
 ErrMax= 1.34D-05  0.00D+00 EMaxC= 1.00D-01 BMatC= 1.04D-08 BMatP= 2.90D-07
 IDIUse=1 WtCom= 1.00D+00 WtEn= 0.00D+00
 Coeff-Com:  0.343D-03-0.124D-02-0.201D-02 0.777D-01-0.234D+00 0.469D+00
 Coeff-Com: -0.822D+00 0.151D+01
 Coeff:      0.343D-03-0.124D-02-0.201D-02 0.777D-01-0.234D+00 0.469D+00
 Coeff:     -0.822D+00 0.151D+01
 Gap=     0.355 Goal=   None    Shift=    0.000
 RMSDP=1.89D-05 MaxDP=1.71D-04 DE=-2.91D-06 OVMax= 1.56D-04

 Cycle   9  Pass 1  IDiag  3:
 E= 0.745914363686595     Delta-E=       -0.000000061886 Rises=F Damp=F
 DIIS: error= 4.25D-06 at cycle   9 NSaved=   9.
 NSaved= 9 IEnMin= 9 EnMin= 0.745914363686595     IErMin= 9 ErrMin= 4.25D-06
 ErrMax= 4.25D-06  0.00D+00 EMaxC= 1.00D-01 BMatC= 5.82D-10 BMatP= 1.04D-08
 IDIUse=1 WtCom= 1.00D+00 WtEn= 0.00D+00
 Coeff-Com: -0.281D-04 0.455D-04 0.195D-02-0.385D-01 0.115D+00-0.234D+00
 Coeff-Com:  0.422D+00-0.856D+00 0.159D+01
 Coeff:     -0.281D-04 0.455D-04 0.195D-02-0.385D-01 0.115D+00-0.234D+00
 Coeff:      0.422D+00-0.856D+00 0.159D+01
 Gap=     0.355 Goal=   None    Shift=    0.000
 RMSDP=4.17D-06 MaxDP=3.64D-05 DE=-6.19D-08 OVMax= 3.81D-05

 Cycle  10  Pass 1  IDiag  3:
 E= 0.745914358871033     Delta-E=       -0.000000004816 Rises=F Damp=F
 DIIS: error= 2.69D-06 at cycle  10 NSaved=  10.
 NSaved=10 IEnMin=10 EnMin= 0.745914358871033     IErMin=10 ErrMin= 2.69D-06
 ErrMax= 2.69D-06  0.00D+00 EMaxC= 1.00D-01 BMatC= 2.10D-10 BMatP= 5.82D-10
 IDIUse=1 WtCom= 1.00D+00 WtEn= 0.00D+00
 Coeff-Com: -0.374D-05 0.790D-04-0.225D-02 0.400D-01-0.118D+00 0.241D+00
 Coeff-Com: -0.436D+00 0.895D+00-0.190D+01 0.228D+01
 Coeff:     -0.374D-05 0.790D-04-0.225D-02 0.400D-01-0.118D+00 0.241D+00
 Coeff:     -0.436D+00 0.895D+00-0.190D+01 0.228D+01
 Gap=     0.355 Goal=   None    Shift=    0.000
 RMSDP=4.02D-06 MaxDP=3.58D-05 DE=-4.82D-09 OVMax= 4.21D-05

 Cycle  11  Pass 1  IDiag  3:
 E= 0.745914355672753     Delta-E=       -0.000000003198 Rises=F Damp=F
 DIIS: error= 2.13D-06 at cycle  11 NSaved=  11.
 NSaved=11 IEnMin=11 EnMin= 0.745914355672753     IErMin=11 ErrMin= 2.13D-06
 ErrMax= 2.13D-06  0.00D+00 EMaxC= 1.00D-01 BMatC= 1.20D-10 BMatP= 2.10D-10
 IDIUse=1 WtCom= 1.00D+00 WtEn= 0.00D+00
 Coeff-Com: -0.214D-05-0.113D-03 0.417D-02-0.747D-01 0.220D+00-0.447D+00
 Coeff-Com:  0.805D+00-0.166D+01 0.365D+01-0.574D+01 0.425D+01
 Coeff:     -0.214D-05-0.113D-03 0.417D-02-0.747D-01 0.220D+00-0.447D+00
 Coeff:      0.805D+00-0.166D+01 0.365D+01-0.574D+01 0.425D+01
 Gap=     0.355 Goal=   None    Shift=    0.000
 RMSDP=8.01D-06 MaxDP=7.58D-05 DE=-3.20D-09 OVMax= 8.13D-05

 Cycle  12  Pass 1  IDiag  3:
 E= 0.745914351924313     Delta-E=       -0.000000003748 Rises=F Damp=F
 DIIS: error= 8.16D-07 at cycle  12 NSaved=  12.
 NSaved=12 IEnMin=12 EnMin= 0.745914351924313     IErMin=12 ErrMin= 8.16D-07
 ErrMax= 8.16D-07  0.00D+00 EMaxC= 1.00D-01 BMatC= 2.21D-11 BMatP= 1.20D-10
 IDIUse=1 WtCom= 1.00D+00 WtEn= 0.00D+00
 Coeff-Com: -0.597D-05 0.106D-03-0.273D-02 0.482D-01-0.142D+00 0.289D+00
 Coeff-Com: -0.521D+00 0.108D+01-0.238D+01 0.392D+01-0.345D+01 0.216D+01
 Coeff:     -0.597D-05 0.106D-03-0.273D-02 0.482D-01-0.142D+00 0.289D+00
 Coeff:     -0.521D+00 0.108D+01-0.238D+01 0.392D+01-0.345D+01 0.216D+01
 Gap=     0.355 Goal=   None    Shift=    0.000
 RMSDP=3.83D-06 MaxDP=3.58D-05 DE=-3.75D-09 OVMax= 3.75D-05

 Cycle  13  Pass 1  IDiag  3:
 E= 0.745914351333212     Delta-E=       -0.000000000591 Rises=F Damp=F
 DIIS: error= 2.16D-07 at cycle  13 NSaved=  13.
 NSaved=13 IEnMin=13 EnMin= 0.745914351333212     IErMin=13 ErrMin= 2.16D-07
 ErrMax= 2.16D-07  0.00D+00 EMaxC= 1.00D-01 BMatC= 2.00D-12 BMatP= 2.21D-11
 IDIUse=1 WtCom= 1.00D+00 WtEn= 0.00D+00
 Coeff-Com:  0.350D-06-0.254D-04 0.732D-03-0.130D-01 0.384D-01-0.780D-01
 Coeff-Com:  0.141D+00-0.291D+00 0.648D+00-0.108D+01 0.101D+01-0.934D+00
 Coeff-Com:  0.155D+01
 Coeff:      0.350D-06-0.254D-04 0.732D-03-0.130D-01 0.384D-01-0.780D-01
 Coeff:      0.141D+00-0.291D+00 0.648D+00-0.108D+01 0.101D+01-0.934D+00
 Coeff:      0.155D+01
 Gap=     0.355 Goal=   None    Shift=    0.000
 RMSDP=6.12D-07 MaxDP=5.59D-06 DE=-5.91D-10 OVMax= 5.70D-06

 Cycle  14  Pass 1  IDiag  3:
 E= 0.745914351309651     Delta-E=       -0.000000000024 Rises=F Damp=F
 DIIS: error= 6.83D-08 at cycle  14 NSaved=  14.
 NSaved=14 IEnMin=14 EnMin= 0.745914351309651     IErMin=14 ErrMin= 6.83D-08
 ErrMax= 6.83D-08  0.00D+00 EMaxC= 1.00D-01 BMatC= 1.72D-13 BMatP= 2.00D-12
 IDIUse=1 WtCom= 1.00D+00 WtEn= 0.00D+00
 Coeff-Com:  0.502D-06 0.461D-05-0.181D-03 0.330D-02-0.978D-02 0.198D-01
 Coeff-Com: -0.357D-01 0.739D-01-0.166D+00 0.274D+00-0.269D+00 0.294D+00
 Coeff-Com: -0.706D+00 0.152D+01
 Coeff:      0.502D-06 0.461D-05-0.181D-03 0.330D-02-0.978D-02 0.198D-01
 Coeff:     -0.357D-01 0.739D-01-0.166D+00 0.274D+00-0.269D+00 0.294D+00
 Coeff:     -0.706D+00 0.152D+01
 Gap=     0.355 Goal=   None    Shift=    0.000
 RMSDP=1.19D-07 MaxDP=1.04D-06 DE=-2.36D-11 OVMax= 9.17D-07

 Cycle  15  Pass 1  IDiag  3:
 E= 0.745914351308429     Delta-E=       -0.000000000001 Rises=F Damp=F
 DIIS: error= 1.83D-08 at cycle  15 NSaved=  15.
 NSaved=15 IEnMin=15 EnMin= 0.745914351308429     IErMin=15 ErrMin= 1.83D-08
 ErrMax= 1.83D-08  0.00D+00 EMaxC= 1.00D-01 BMatC= 1.03D-14 BMatP= 1.72D-13
 IDIUse=1 WtCom= 1.00D+00 WtEn= 0.00D+00
 Coeff-Com:  0.423D-07-0.124D-05 0.235D-04-0.418D-03 0.124D-02-0.249D-02
 Coeff-Com:  0.446D-02-0.945D-02 0.226D-01-0.396D-01 0.498D-01-0.845D-01
 Coeff-Com:  0.258D+00-0.757D+00 0.156D+01
 Coeff:      0.423D-07-0.124D-05 0.235D-04-0.418D-03 0.124D-02-0.249D-02
 Coeff:      0.446D-02-0.945D-02 0.226D-01-0.396D-01 0.498D-01-0.845D-01
 Coeff:      0.258D+00-0.757D+00 0.156D+01
 Gap=     0.355 Goal=   None    Shift=    0.000
 RMSDP=2.22D-08 MaxDP=1.75D-07 DE=-1.22D-12 OVMax= 2.15D-07

 Cycle  16  Pass 1  IDiag  3:
 E= 0.745914351308244     Delta-E=        0.000000000000 Rises=F Damp=F
 DIIS: error= 4.26D-09 at cycle  16 NSaved=  16.
 NSaved=16 IEnMin=16 EnMin= 0.745914351308244     IErMin=16 ErrMin= 4.26D-09
 ErrMax= 4.26D-09  0.00D+00 EMaxC= 1.00D-01 BMatC= 5.03D-16 BMatP= 1.03D-14
 IDIUse=1 WtCom= 1.00D+00 WtEn= 0.00D+00
 Large coefficients: NSaved= 16 BigCof=    0.00 CofMax=   10.00 Det=-4.76D-16
 Inversion failed.  Reducing to 15 matrices.
 Coeff-Com:  0.325D-06-0.526D-05 0.956D-04-0.287D-03 0.562D-03-0.100D-02
 Coeff-Com:  0.217D-02-0.552D-02 0.992D-02-0.152D-01 0.325D-01-0.107D+00
 Coeff-Com:  0.325D+00-0.802D+00 0.156D+01
 Coeff:      0.325D-06-0.526D-05 0.956D-04-0.287D-03 0.562D-03-0.100D-02
 Coeff:      0.217D-02-0.552D-02 0.992D-02-0.152D-01 0.325D-01-0.107D+00
 Coeff:      0.325D+00-0.802D+00 0.156D+01
 Gap=     0.355 Goal=   None    Shift=    0.000
 RMSDP=4.87D-09 MaxDP=4.02D-08 DE=-1.85D-13 OVMax= 4.93D-08

 Cycle  17  Pass 2  IDiag  1:
 SCF Done:  E(RAM1) =  0.745914351308     A.U. after   17 cycles
            NFock= 16  Conv=0.49D-08     -V/T= 1.0496
 KE=-1.505303342133D+01 PE=-1.725275244725D+02 EE= 8.519491255200D+01
 Leave Link  502 at Sun Nov 29 12:22:27 2015, MaxMem=    33554432 cpu:         0.0
 (Enter /home/Applications/g09/g09/l601.exe)
 Copying SCF densities to generalized density rwf, IOpCl= 0 IROHF=0.

 **********************************************************************

            Population analysis using the SCF density.

 **********************************************************************

 Orbital symmetries:
       Occupied  (A) (A) (A) (A) (A) (A) (A) (A) (A) (A) (A) (A)
                 (A)
       Virtual   (A) (A) (A) (A) (A) (A) (A) (A) (A) (A) (A)
 The electronic state is 1-A.
 Alpha  occ. eigenvalues --   -1.19711  -0.94088  -0.91568  -0.74589  -0.70874
 Alpha  occ. eigenvalues --   -0.66096  -0.61089  -0.53266  -0.51729  -0.51471
 Alpha  occ. eigenvalues --   -0.48172  -0.42207  -0.34677
 Alpha virt. eigenvalues --    0.00822   0.02791   0.11467   0.14487   0.15316
 Alpha virt. eigenvalues --    0.16190   0.19637   0.20780   0.22662   0.23729
 Alpha virt. eigenvalues --    0.25496
          Condensed to atoms (all electrons):
               1          2          3          4          5          6
     1  C    4.580989   0.000000   0.000000   0.000000   0.000000   0.000000
     2  C    0.000000   3.784553   0.000000   0.000000   0.000000   0.000000
     3  O    0.000000   0.000000   6.421823   0.000000   0.000000   0.000000
     4  C    0.000000   0.000000   0.000000   3.829762   0.000000   0.000000
     5  C    0.000000   0.000000   0.000000   0.000000   4.545457   0.000000
     6  H    0.000000   0.000000   0.000000   0.000000   0.000000   0.694885
     7  H    0.000000   0.000000   0.000000   0.000000   0.000000   0.000000
     8  H    0.000000   0.000000   0.000000   0.000000   0.000000   0.000000
     9  H    0.000000   0.000000   0.000000   0.000000   0.000000   0.000000
               7          8          9
     1  C    0.000000   0.000000   0.000000
     2  C    0.000000   0.000000   0.000000
     3  O    0.000000   0.000000   0.000000
     4  C    0.000000   0.000000   0.000000
     5  C    0.000000   0.000000   0.000000
     6  H    0.000000   0.000000   0.000000
     7  H    0.720704   0.000000   0.000000
     8  H    0.000000   0.719328   0.000000
     9  H    0.000000   0.000000   0.702499
 Mulliken charges:
               1
     1  C   -0.580989
     2  C    0.215447
     3  O   -0.421823
     4  C    0.170238
     5  C   -0.545457
     6  H    0.305115
     7  H    0.279296
     8  H    0.280672
     9  H    0.297501
 Sum of Mulliken charges =   0.00000
 Mulliken charges with hydrogens summed into heavy atoms:
               1
     1  C   -0.283488
     2  C    0.496119
     3  O   -0.421823
     4  C    0.449533
     5  C   -0.240342
 Charge=              0.0000 electrons
 Dipole moment (field-independent basis, Debye):
    X=             -0.0671    Y=             -0.7336    Z=             -0.0096  Tot=              0.7367
 N-N= 1.031315596931D+02 E-N=-1.725275244564D+02  KE=-1.505303342133D+01
 Leave Link  601 at Sun Nov 29 12:22:27 2015, MaxMem=    33554432 cpu:         0.0
 (Enter /home/Applications/g09/g09/l701.exe)
 Compute integral first derivatives.
 ... and contract with generalized density number  0.
 Leave Link  701 at Sun Nov 29 12:22:27 2015, MaxMem=    33554432 cpu:         0.0
 (Enter /home/Applications/g09/g09/l702.exe)
 L702 exits ... SP integral derivatives will be done elsewhere.
 Leave Link  702 at Sun Nov 29 12:22:27 2015, MaxMem=    33554432 cpu:         0.0
 (Enter /home/Applications/g09/g09/l703.exe)
 Compute integral first derivatives, UseDBF=F ICtDFT=           0.
 Integral derivatives from FoFJK, PRISM(SPDF).
 Calling FoFJK, ICntrl=      2127 FMM=F ISym2X=0 I1Cent= 0 IOpClX= 0 NMat=1 NMatS=1 NMatT=0.
 FoFJK:  IHMeth= 8 ICntrl=    2127 DoSepK=F KAlg= 0 I1Cent=   0 FoldK=F
 IRaf=         0 NMat=   1 IRICut=       1 DoRegI=T DoRafI=F ISym2E= 0.
 FoFCou: FMM=F IPFlag=           0 FMFlag=      100000 FMFlg1=         800
         NFxFlg=           0 DoJE=F BraDBF=F KetDBF=F FulRan=T
         wScrn=  0.000000 ICntrl=    2127 IOpCl=  0 I1Cent=           0 NGrid=           0
         NMat0=    1 NMatS0=      1 NMatT0=    0 NMatD0=    1 NMtDS0=    0 NMtDT0=    0
 Symmetry not used in FoFCou.
 Leave Link  703 at Sun Nov 29 12:22:27 2015, MaxMem=    33554432 cpu:         0.0
 (Enter /home/Applications/g09/g09/l716.exe)
 Dipole        =-2.63858290D-02-2.88611424D-01-3.77233169D-03
 ***** Axes restored to original set *****
 -------------------------------------------------------------------
 Center     Atomic                   Forces (Hartrees/Bohr)
 Number     Number              X              Y              Z
 -------------------------------------------------------------------
      1        6          -0.032004303   -0.069212407   -0.000019855
      2        6          -0.012356269    0.002753062   -0.005544327
      3        8          -0.015934245    0.008715368    0.006772071
      4        6          -0.028455603   -0.006969728   -0.015559127
      5        6           0.027225165    0.075590279    0.010267616
      6        1           0.016646535    0.008314452   -0.002826922
      7        1          -0.001658937   -0.004179189    0.004256907
      8        1           0.008982437    0.004546264    0.003107071
      9        1           0.037555221   -0.019558101   -0.000453432
 -------------------------------------------------------------------
 Cartesian Forces:  Max     0.075590279 RMS     0.024599722
 Leave Link  716 at Sun Nov 29 12:22:27 2015, MaxMem=    33554432 cpu:         0.0
 (Enter /home/Applications/g09/g09/l103.exe)

 GradGradGradGradGradGradGradGradGradGradGradGradGradGradGradGradGradGrad
 Berny optimization.
 FormGI is forming the generalized inverse of G from B-inverse, IUseBI=4.
 Internal  Forces:  Max     0.074326184 RMS     0.016589461
 Search for a local minimum.
 Step number   1 out of a maximum of   48
 All quantities printed in internal units (Hartrees-Bohrs-Radians)
 RMS Force = .16589D-01 SwitMx=.10000D-02 MixMth= 1
 Mixed Optimization -- RFO/linear search
 Second derivative matrix not updated -- first step.
 ITU=  0
     Eigenvalues ---    0.02242   0.02418   0.02678   0.02708   0.02751
     Eigenvalues ---    0.02879   0.15703   0.15874   0.15913   0.15994
     Eigenvalues ---    0.21987   0.22870   0.32669   0.34220   0.37725
     Eigenvalues ---    0.42791   0.44047   0.46587   0.50211   0.54921
     Eigenvalues ---    0.55665
 RFO step:  Lambda=-2.41959347D-02 EMin= 2.24157551D-02
 Linear search not attempted -- first point.
 Iteration  1 RMS(Cart)=  0.04629250 RMS(Int)=  0.00200806
 Iteration  2 RMS(Cart)=  0.00179293 RMS(Int)=  0.00116616
 Iteration  3 RMS(Cart)=  0.00000245 RMS(Int)=  0.00116616
 Iteration  4 RMS(Cart)=  0.00000000 RMS(Int)=  0.00116616
 ITry= 1 IFail=0 DXMaxC= 1.09D-01 DCOld= 1.00D+10 DXMaxT= 3.00D-01 DXLimC= 3.00D+00 Rises=F
 Variable       Old X    -DE/DX   Delta X   Delta X   Delta X     New X
                                 (Linear)    (Quad)   (Total)
    R1        2.59426   0.00757   0.00000   0.01474   0.01443   2.60869
    R2        2.53592   0.07433   0.00000   0.13318   0.13342   2.66934
    R3        1.94629   0.04131   0.00000   0.09137   0.09137   2.03766
    R4        2.57521   0.01103   0.00000   0.01223   0.01180   2.58701
    R5        2.09637  -0.00856   0.00000  -0.02440  -0.02440   2.07197
    R6        2.61311   0.00195   0.00000  -0.00182  -0.00179   2.61132
    R7        2.53474   0.03127   0.00000   0.05715   0.05760   2.59234
    R8        2.06960  -0.00335   0.00000  -0.00916  -0.00916   2.06044
    R9        2.01468   0.01823   0.00000   0.04541   0.04541   2.06009
    A1        1.86270  -0.00739   0.00000  -0.01033  -0.01090   1.85180
    A2        2.10683   0.01262   0.00000   0.05343   0.05349   2.16031
    A3        2.31340  -0.00527   0.00000  -0.04375  -0.04365   2.26976
    A4        1.88566   0.01274   0.00000   0.04011   0.03889   1.92455
    A5        2.42482  -0.01166   0.00000  -0.04779  -0.04760   2.37722
    A6        1.96786  -0.00088   0.00000   0.01121   0.01156   1.97943
    A7        1.88034   0.00435   0.00000  -0.01640  -0.01754   1.86281
    A8        1.85677   0.01222   0.00000   0.05502   0.05294   1.90971
    A9        2.07399  -0.00954   0.00000  -0.03997  -0.04220   2.03178
   A10        2.33696  -0.00162   0.00000   0.00449   0.00255   2.33951
   A11        1.93499  -0.02145   0.00000  -0.05868  -0.05917   1.87582
   A12        2.18939   0.00707   0.00000   0.01229   0.01135   2.20073
   A13        2.15230   0.01474   0.00000   0.05410   0.05325   2.20555
    D1       -0.02104   0.00051   0.00000   0.01694   0.01848  -0.00256
    D2        3.00103   0.00353   0.00000   0.06331   0.06303   3.06406
    D3        3.09918  -0.00114   0.00000  -0.01088  -0.01028   3.08890
    D4       -0.16193   0.00188   0.00000   0.03548   0.03427  -0.12767
    D5        0.07056  -0.00441   0.00000  -0.07778  -0.07598  -0.00541
    D6        3.09273  -0.00024   0.00000  -0.00410  -0.00412   3.08860
    D7       -3.04610  -0.00279   0.00000  -0.04710  -0.04647  -3.09257
    D8       -0.02393   0.00138   0.00000   0.02657   0.02538   0.00145
    D9       -0.03349   0.00230   0.00000   0.04422   0.04294   0.00945
   D10       -3.09004   0.00126   0.00000   0.01638   0.01442  -3.07562
   D11        0.07495  -0.00351   0.00000  -0.08587  -0.08784  -0.01289
   D12        3.05410   0.00204   0.00000   0.01698   0.01374   3.06784
   D13       -0.09079   0.00536   0.00000   0.10207   0.10219   0.01141
   D14       -3.11596   0.00184   0.00000   0.03341   0.03352  -3.08244
   D15       -3.03447  -0.00068   0.00000  -0.01850  -0.01986  -3.05433
   D16        0.22355  -0.00420   0.00000  -0.08717  -0.08854   0.13501
         Item               Value     Threshold  Converged?
 Maximum Force            0.074326     0.000450     NO 
 RMS     Force            0.016589     0.000300     NO 
 Maximum Displacement     0.109278     0.001800     NO 
 RMS     Displacement     0.046105     0.001200     NO 
 Predicted change in Energy=-1.325048D-02
 Lowest energy point so far.  Saving SCF results.
 GradGradGradGradGradGradGradGradGradGradGradGradGradGradGradGradGradGrad

 Leave Link  103 at Sun Nov 29 12:22:27 2015, MaxMem=    33554432 cpu:         0.0
 (Enter /home/Applications/g09/g09/l202.exe)
                          Input orientation:                          
 ---------------------------------------------------------------------
 Center     Atomic      Atomic             Coordinates (Angstroms)
 Number     Number       Type             X           Y           Z
 ---------------------------------------------------------------------
      1          6           0        0.991532   -0.708196   -0.007476
      2          6           0       -0.326474   -1.115669    0.042437
      3          8           0       -1.158548   -0.028722    0.060488
      4          6           0       -0.350961    1.091383    0.008679
      5          6           0        0.964603    0.704002   -0.024156
      6          1           0        1.832954    1.363028   -0.015219
      7          1           0       -0.859717    2.053513   -0.057002
      8          1           0       -0.860591   -2.072784    0.013719
      9          1           0        1.829872   -1.385881    0.017393
 ---------------------------------------------------------------------
                    Distance matrix (angstroms):
                    1          2          3          4          5
     1  C    0.000000
     2  C    1.380459   0.000000
     3  O    2.255914   1.368987   0.000000
     4  C    2.245224   2.207445   1.381852   0.000000
     5  C    1.412553   2.232155   2.247625   1.371806   0.000000
     6  H    2.235625   3.287916   3.300270   2.200873   1.090150
     7  H    3.325148   3.215268   2.106847   1.090340   2.269451
     8  H    2.300632   1.096438   2.066194   3.204950   3.323147
     9  H    1.078281   2.173355   3.282437   3.300445   2.262305
                    6          7          8          9
     6  H    0.000000
     7  H    2.780106   0.000000
     8  H    4.365870   4.126903   0.000000
     9  H    2.749103   4.366790   2.776768   0.000000
 Stoichiometry    C4H4O
 Framework group  C1[X(C4H4O)]
 Deg. of freedom    21
 Full point group                 C1      NOp   1
 RotChk:  IX=0 Diff= 4.47D-03
 Largest Abelian subgroup         C1      NOp   1
 Largest concise Abelian subgroup C1      NOp   1
                         Standard orientation:                         
 ---------------------------------------------------------------------
 Center     Atomic      Atomic             Coordinates (Angstroms)
 Number     Number       Type             X           Y           Z
 ---------------------------------------------------------------------
      1          6           0       -0.684701    0.989982    0.008442
      2          6           0       -1.107255   -0.324176   -0.001707
      3          8           0       -0.029861   -1.168672   -0.014884
      4          6           0        1.099656   -0.372743   -0.000543
      5          6           0        0.727208    0.947525    0.004556
      6          1           0        1.395459    1.807866   -0.036437
      7          1           0        2.057068   -0.890514    0.063608
      8          1           0       -2.069592   -0.846541    0.055019
      9          1           0       -1.353496    1.835029   -0.027600
 ---------------------------------------------------------------------
 Rotational constants (GHZ):      9.4266927      9.1091985      4.6337203
 Leave Link  202 at Sun Nov 29 12:22:27 2015, MaxMem=    33554432 cpu:         0.0
 (Enter /home/Applications/g09/g09/l301.exe)

 Semi-emprical parameters in input format:
 Method=8 CoreType=1 PeptideFC=0.0105570000 RIJScale=0.4899110000
 ****
 H       
 PQN=1 NValence=1 F0ss=0.4577290000 ZetaOverlap=1.0659780000 U=-0.3880320000
 Beta=-0.2381360000 CoreKO=1.1144350000 KON=0,0,0,1.0186160000 KON=1,0,1,1.0557690000
 KON=0,1,1,1.0725930000 KON=2,1,1,1.1590830000 EISol=-0.4188110042 EHeat=0.0830298228
 Alpha=1.5252600000
 GCore=0.0099350000,1.3986240000,2.1461900000
 GCore=0.0003630000,1.5415670000,2.7171030000
 GCore=-0.0012530000,0.5088300000,4.2039300000
 ****
 C       
 PQN=2,2 NValence=4 F0ss=0.4263360000 F0sp=0.4580860000 F0pp=0.3261620000 F2pp=0.2036090000
 G1sp=0.2073130000
 ZetaOverlap=2.1016200000,1.8587190000
 U=-1.9018080000,-1.4557970000
 Beta=-0.4792560000,-0.2700630000 DDN=0,1,0.8034860000 DDN=1,1,0.7591540000
 CoreKO=1.1325510000 KON=0,0,0,1.1996250000 KON=1,0,1,0.8437060000 KON=0,1,1,1.0478550000
 KON=2,1,1,0.8168110000 EISol=-4.4398989268 EHeat=0.2723305520 Alpha=1.4381970000
 DipHyp=1.6068795495
 GCore=0.0008260000,1.4798740000,2.8384620000
 GCore=0.0031480000,1.6675340000,3.8116200000
 GCore=-0.0011560000,1.5029710000,3.9059920000
 GCore=-0.0000920000,1.1754400000,4.8520980000
 ****
 O       
 PQN=2,2 NValence=6 F0ss=0.5413910000 F0sp=0.5145480000 F0pp=0.5091470000 F2pp=0.2175940000
 G1sp=0.4302620000
 ZetaOverlap=3.3296350000,2.5240390000
 U=-3.3343200000,-2.9854240000
 Beta=-0.9082740000,-1.1340310000 DDN=0,1,0.4988900000 DDN=1,1,0.5206270000
 CoreKO=0.9688900000 KON=0,0,0,0.8976510000 KON=1,0,1,0.5186760000 KON=0,1,1,0.8274210000
 KON=2,1,1,0.5315430000 EISol=-11.6164441184 EHeat=0.0949133088 Alpha=2.3722000000
 DipHyp=0.9977225968
 GCore=0.0212480000,1.1747580000,1.6499540000
 GCore=0.0064050000,2.1096700000,2.7148630000
 ****
 
 Standard basis: VSTO-6G (5D, 7F)
 Ernie: Thresh=  0.10000D-02 Tol=  0.10000D-05 Strict=F.
  NNHCO=     0 NNPyr=     0 NCTC=     0               EPep=         0.000000000
    EC=        67.673210168  ECS=         1.607190617   EG=         0.427412100
   EHC=         0.000000000  EAt=       -31.051283842  AtH=         1.516354808
 EPDDG=         0.000000000  ECC=        69.707812885 EAtT=        32.567638650
 There are    24 symmetry adapted cartesian basis functions of A   symmetry.
 There are    24 symmetry adapted basis functions of A   symmetry.
    24 basis functions,   144 primitive gaussians,    24 cartesian basis functions
    13 alpha electrons       13 beta electrons
       nuclear repulsion energy       102.2754515351 Hartrees.
 IExCor=    0 DFT=F Ex=HF Corr=None ExCW=0 ScaHFX=  1.000000
 ScaDFX=  1.000000  1.000000  1.000000  1.000000 ScalE2=  1.000000  1.000000
 IRadAn=      0 IRanWt=     -1 IRanGd=            0 ICorTp=0 IEmpDi=  4
 Integral buffers will be    131072 words long.
 Regular integral format.
 Two-electron integral symmetry is turned off.
 Leave Link  301 at Sun Nov 29 12:22:27 2015, MaxMem=    33554432 cpu:         0.0
 (Enter /home/Applications/g09/g09/l302.exe)
 Do NDO integrals.
 NPDir=0 NMtPBC=     1 NCelOv=     1 NCel=       1 NClECP=     1 NCelD=      1
         NCelK=      1 NCelE2=     1 NClLst=     1 CellRange=     0.0.
 One-electron integrals computed using PRISM.
 NBasis=    24 RedAO= F EigKep=  0.00D+00  NBF=    24
 NBsUse=    24 1.00D-04 EigRej=  0.00D+00 NBFU=    24
 Leave Link  302 at Sun Nov 29 12:22:27 2015, MaxMem=    33554432 cpu:         0.0
 (Enter /home/Applications/g09/g09/l303.exe)
 DipDrv:  MaxL=1.
 Leave Link  303 at Sun Nov 29 12:22:27 2015, MaxMem=    33554432 cpu:         0.0
 (Enter /home/Applications/g09/g09/l401.exe)
 Initial guess from the checkpoint file:  "/home/Applications/g09/scratch/Gau-20946.chk"
 B after Tr=     0.000000    0.000000    0.000000
         Rot=    1.000000    0.000034   -0.000123   -0.000819 Ang=   0.10 deg.
 Guess basis will be translated and rotated to current coordinates.
 JPrj=0 DoOrth=T DoCkMO=T.
 Leave Link  401 at Sun Nov 29 12:22:27 2015, MaxMem=    33554432 cpu:         0.0
 (Enter /home/Applications/g09/g09/l502.exe)
 Closed shell SCF:
 Using DIIS extrapolation, IDIIS=  1040.
 Overlap will be assumed to be unity.
 Two-electron integral symmetry not used.
 Keep J ints in memory in canonical form, NReq=888082.
 IVT=       79475 IEndB=       79475 NGot=    33554432 MDV=    33473473
 LenX=    33473473 LenY=    33472456
 Requested convergence on RMS density matrix=1.00D-08 within 128 cycles.
 Requested convergence on MAX density matrix=1.00D-06.
 Requested convergence on             energy=1.00D-06.
 No special actions if energy rises.
 FoFCou: FMM=F IPFlag=           0 FMFlag=           0 FMFlg1=           0
         NFxFlg=           0 DoJE=F BraDBF=F KetDBF=F FulRan=T
         wScrn=  0.000000 ICntrl=     600 IOpCl=  2 I1Cent=           0 NGrid=           0
         NMat0=    1 NMatS0=     54 NMatT0=    0 NMatD0=    1 NMtDS0=    0 NMtDT0=    0
 Symmetry not used in FoFCou.

 Cycle   1  Pass 1  IDiag  1:
 E= 0.738012115480018    
 DIIS: error= 5.01D-03 at cycle   1 NSaved=   1.
 NSaved= 1 IEnMin= 1 EnMin= 0.738012115480018     IErMin= 1 ErrMin= 5.01D-03
 ErrMax= 5.01D-03  0.00D+00 EMaxC= 1.00D-01 BMatC= 1.10D-03 BMatP= 1.10D-03
 IDIUse=3 WtCom= 9.50D-01 WtEn= 5.01D-02
 Coeff-Com:  0.100D+01
 Coeff-En:   0.100D+01
 Coeff:      0.100D+01
 GapD=    2.000 DampG=2.000 DampE=1.000 DampFc=2.0000 IDamp=-1.
 RMSDP=2.50D-03 MaxDP=1.10D-02              OVMax= 0.00D+00

 Cycle   2  Pass 1  IDiag  3:
 E= 0.734194565644458     Delta-E=       -0.003817549836 Rises=F Damp=F
 DIIS: error= 1.97D-03 at cycle   2 NSaved=   2.
 NSaved= 2 IEnMin= 2 EnMin= 0.734194565644458     IErMin= 2 ErrMin= 1.97D-03
 ErrMax= 1.97D-03  0.00D+00 EMaxC= 1.00D-01 BMatC= 1.77D-04 BMatP= 1.10D-03
 IDIUse=3 WtCom= 9.80D-01 WtEn= 1.97D-02
 Coeff-Com: -0.572D+00 0.157D+01
 Coeff-En:   0.000D+00 0.100D+01
 Coeff:     -0.561D+00 0.156D+01
 Gap=     0.355 Goal=   None    Shift=    0.000
 RMSDP=1.80D-03 MaxDP=9.10D-03 DE=-3.82D-03 OVMax= 9.00D-03

 Cycle   3  Pass 1  IDiag  3:
 E= 0.733266975529048     Delta-E=       -0.000927590115 Rises=F Damp=F
 DIIS: error= 4.52D-04 at cycle   3 NSaved=   3.
 NSaved= 3 IEnMin= 3 EnMin= 0.733266975529048     IErMin= 3 ErrMin= 4.52D-04
 ErrMax= 4.52D-04  0.00D+00 EMaxC= 1.00D-01 BMatC= 8.96D-06 BMatP= 1.77D-04
 IDIUse=3 WtCom= 9.95D-01 WtEn= 4.52D-03
 Coeff-Com:  0.305D+00-0.954D+00 0.165D+01
 Coeff-En:   0.000D+00 0.000D+00 0.100D+01
 Coeff:      0.303D+00-0.950D+00 0.165D+01
 Gap=     0.356 Goal=   None    Shift=    0.000
 RMSDP=5.80D-04 MaxDP=3.17D-03 DE=-9.28D-04 OVMax= 4.41D-03

 Cycle   4  Pass 1  IDiag  3:
 E= 0.733198450208192     Delta-E=       -0.000068525321 Rises=F Damp=F
 DIIS: error= 9.37D-05 at cycle   4 NSaved=   4.
 NSaved= 4 IEnMin= 4 EnMin= 0.733198450208192     IErMin= 4 ErrMin= 9.37D-05
 ErrMax= 9.37D-05  0.00D+00 EMaxC= 1.00D-01 BMatC= 5.96D-07 BMatP= 8.96D-06
 IDIUse=1 WtCom= 1.00D+00 WtEn= 0.00D+00
 Coeff-Com: -0.659D-01 0.219D+00-0.566D+00 0.141D+01
 Coeff:     -0.659D-01 0.219D+00-0.566D+00 0.141D+01
 Gap=     0.356 Goal=   None    Shift=    0.000
 RMSDP=1.52D-04 MaxDP=7.48D-04 DE=-6.85D-05 OVMax= 1.44D-03

 Cycle   5  Pass 1  IDiag  3:
 E= 0.733193660088176     Delta-E=       -0.000004790120 Rises=F Damp=F
 DIIS: error= 4.88D-05 at cycle   5 NSaved=   5.
 NSaved= 5 IEnMin= 5 EnMin= 0.733193660088176     IErMin= 5 ErrMin= 4.88D-05
 ErrMax= 4.88D-05  0.00D+00 EMaxC= 1.00D-01 BMatC= 8.85D-08 BMatP= 5.96D-07
 IDIUse=1 WtCom= 1.00D+00 WtEn= 0.00D+00
 Coeff-Com: -0.688D-02 0.136D-01 0.758D-01-0.678D+00 0.160D+01
 Coeff:     -0.688D-02 0.136D-01 0.758D-01-0.678D+00 0.160D+01
 Gap=     0.356 Goal=   None    Shift=    0.000
 RMSDP=6.09D-05 MaxDP=4.34D-04 DE=-4.79D-06 OVMax= 5.51D-04

 Cycle   6  Pass 1  IDiag  3:
 E= 0.733192893167754     Delta-E=       -0.000000766920 Rises=F Damp=F
 DIIS: error= 3.24D-05 at cycle   6 NSaved=   6.
 NSaved= 6 IEnMin= 6 EnMin= 0.733192893167754     IErMin= 6 ErrMin= 3.24D-05
 ErrMax= 3.24D-05  0.00D+00 EMaxC= 1.00D-01 BMatC= 2.19D-08 BMatP= 8.85D-08
 IDIUse=1 WtCom= 1.00D+00 WtEn= 0.00D+00
 Coeff-Com:  0.320D-02-0.421D-02-0.743D-01 0.621D+00-0.169D+01 0.215D+01
 Coeff:      0.320D-02-0.421D-02-0.743D-01 0.621D+00-0.169D+01 0.215D+01
 Gap=     0.356 Goal=   None    Shift=    0.000
 RMSDP=3.76D-05 MaxDP=4.08D-04 DE=-7.67D-07 OVMax= 3.14D-04

 Cycle   7  Pass 1  IDiag  3:
 E= 0.733192613358270     Delta-E=       -0.000000279809 Rises=F Damp=F
 DIIS: error= 2.01D-05 at cycle   7 NSaved=   7.
 NSaved= 7 IEnMin= 7 EnMin= 0.733192613358270     IErMin= 7 ErrMin= 2.01D-05
 ErrMax= 2.01D-05  0.00D+00 EMaxC= 1.00D-01 BMatC= 9.20D-09 BMatP= 2.19D-08
 IDIUse=1 WtCom= 1.00D+00 WtEn= 0.00D+00
 Coeff-Com: -0.783D-02 0.172D-01 0.713D-01-0.760D+00 0.222D+01-0.351D+01
 Coeff-Com:  0.296D+01
 Coeff:     -0.783D-02 0.172D-01 0.713D-01-0.760D+00 0.222D+01-0.351D+01
 Coeff:      0.296D+01
 Gap=     0.356 Goal=   None    Shift=    0.000
 RMSDP=4.30D-05 MaxDP=4.67D-04 DE=-2.80D-07 OVMax= 4.09D-04

 Cycle   8  Pass 1  IDiag  3:
 E= 0.733192411776486     Delta-E=       -0.000000201582 Rises=F Damp=F
 DIIS: error= 1.24D-05 at cycle   8 NSaved=   8.
 NSaved= 8 IEnMin= 8 EnMin= 0.733192411776486     IErMin= 8 ErrMin= 1.24D-05
 ErrMax= 1.24D-05  0.00D+00 EMaxC= 1.00D-01 BMatC= 3.55D-09 BMatP= 9.20D-09
 IDIUse=1 WtCom= 1.00D+00 WtEn= 0.00D+00
 Coeff-Com:  0.135D-01-0.334D-01-0.623D-01 0.886D+00-0.269D+01 0.450D+01
 Coeff-Com: -0.463D+01 0.301D+01
 Coeff:      0.135D-01-0.334D-01-0.623D-01 0.886D+00-0.269D+01 0.450D+01
 Coeff:     -0.463D+01 0.301D+01
 Gap=     0.356 Goal=   None    Shift=    0.000
 RMSDP=3.83D-05 MaxDP=3.73D-04 DE=-2.02D-07 OVMax= 3.86D-04

 Cycle   9  Pass 1  IDiag  3:
 E= 0.733192312883276     Delta-E=       -0.000000098893 Rises=F Damp=F
 DIIS: error= 7.42D-06 at cycle   9 NSaved=   9.
 NSaved= 9 IEnMin= 9 EnMin= 0.733192312883276     IErMin= 9 ErrMin= 7.42D-06
 ErrMax= 7.42D-06  0.00D+00 EMaxC= 1.00D-01 BMatC= 1.05D-09 BMatP= 3.55D-09
 IDIUse=1 WtCom= 1.00D+00 WtEn= 0.00D+00
 Coeff-Com: -0.111D-01 0.267D-01 0.650D-01-0.829D+00 0.250D+01-0.417D+01
 Coeff-Com:  0.444D+01-0.356D+01 0.255D+01
 Coeff:     -0.111D-01 0.267D-01 0.650D-01-0.829D+00 0.250D+01-0.417D+01
 Coeff:      0.444D+01-0.356D+01 0.255D+01
 Gap=     0.356 Goal=   None    Shift=    0.000
 RMSDP=2.19D-05 MaxDP=2.24D-04 DE=-9.89D-08 OVMax= 2.21D-04

 Cycle  10  Pass 1  IDiag  3:
 E= 0.733192286210283     Delta-E=       -0.000000026673 Rises=F Damp=F
 DIIS: error= 2.55D-06 at cycle  10 NSaved=  10.
 NSaved=10 IEnMin=10 EnMin= 0.733192286210283     IErMin=10 ErrMin= 2.55D-06
 ErrMax= 2.55D-06  0.00D+00 EMaxC= 1.00D-01 BMatC= 2.15D-10 BMatP= 1.05D-09
 IDIUse=1 WtCom= 1.00D+00 WtEn= 0.00D+00
 Coeff-Com:  0.592D-02-0.150D-01-0.228D-01 0.360D+00-0.111D+01 0.190D+01
 Coeff-Com: -0.209D+01 0.185D+01-0.190D+01 0.202D+01
 Coeff:      0.592D-02-0.150D-01-0.228D-01 0.360D+00-0.111D+01 0.190D+01
 Coeff:     -0.209D+01 0.185D+01-0.190D+01 0.202D+01
 Gap=     0.356 Goal=   None    Shift=    0.000
 RMSDP=8.76D-06 MaxDP=9.30D-05 DE=-2.67D-08 OVMax= 8.16D-05

 Cycle  11  Pass 1  IDiag  3:
 E= 0.733192281892485     Delta-E=       -0.000000004318 Rises=F Damp=F
 DIIS: error= 1.04D-06 at cycle  11 NSaved=  11.
 NSaved=11 IEnMin=11 EnMin= 0.733192281892485     IErMin=11 ErrMin= 1.04D-06
 ErrMax= 1.04D-06  0.00D+00 EMaxC= 1.00D-01 BMatC= 2.40D-11 BMatP= 2.15D-10
 IDIUse=1 WtCom= 1.00D+00 WtEn= 0.00D+00
 Coeff-Com: -0.216D-02 0.565D-02 0.581D-02-0.114D+00 0.360D+00-0.625D+00
 Coeff-Com:  0.700D+00-0.646D+00 0.760D+00-0.120D+01 0.176D+01
 Coeff:     -0.216D-02 0.565D-02 0.581D-02-0.114D+00 0.360D+00-0.625D+00
 Coeff:      0.700D+00-0.646D+00 0.760D+00-0.120D+01 0.176D+01
 Gap=     0.356 Goal=   None    Shift=    0.000
 RMSDP=2.47D-06 MaxDP=2.64D-05 DE=-4.32D-09 OVMax= 2.12D-05

 Cycle  12  Pass 1  IDiag  3:
 E= 0.733192281514917     Delta-E=       -0.000000000378 Rises=F Damp=F
 DIIS: error= 2.27D-07 at cycle  12 NSaved=  12.
 NSaved=12 IEnMin=12 EnMin= 0.733192281514917     IErMin=12 ErrMin= 2.27D-07
 ErrMax= 2.27D-07  0.00D+00 EMaxC= 1.00D-01 BMatC= 1.44D-12 BMatP= 2.40D-11
 IDIUse=1 WtCom= 1.00D+00 WtEn= 0.00D+00
 Coeff-Com:  0.808D-03-0.220D-02-0.104D-02 0.348D-01-0.113D+00 0.201D+00
 Coeff-Com: -0.230D+00 0.222D+00-0.282D+00 0.498D+00-0.921D+00 0.159D+01
 Coeff:      0.808D-03-0.220D-02-0.104D-02 0.348D-01-0.113D+00 0.201D+00
 Coeff:     -0.230D+00 0.222D+00-0.282D+00 0.498D+00-0.921D+00 0.159D+01
 Gap=     0.356 Goal=   None    Shift=    0.000
 RMSDP=3.61D-07 MaxDP=2.92D-06 DE=-3.78D-10 OVMax= 3.96D-06

 Cycle  13  Pass 1  IDiag  3:
 E= 0.733192281500195     Delta-E=       -0.000000000015 Rises=F Damp=F
 DIIS: error= 4.55D-08 at cycle  13 NSaved=  13.
 NSaved=13 IEnMin=13 EnMin= 0.733192281500195     IErMin=13 ErrMin= 4.55D-08
 ErrMax= 4.55D-08  0.00D+00 EMaxC= 1.00D-01 BMatC= 8.73D-14 BMatP= 1.44D-12
 IDIUse=1 WtCom= 1.00D+00 WtEn= 0.00D+00
 Coeff-Com: -0.126D-03 0.380D-03-0.375D-03-0.168D-02 0.752D-02-0.157D-01
 Coeff-Com:  0.211D-01-0.275D-01 0.499D-01-0.116D+00 0.253D+00-0.647D+00
 Coeff-Com:  0.148D+01
 Coeff:     -0.126D-03 0.380D-03-0.375D-03-0.168D-02 0.752D-02-0.157D-01
 Coeff:      0.211D-01-0.275D-01 0.499D-01-0.116D+00 0.253D+00-0.647D+00
 Coeff:      0.148D+01
 Gap=     0.356 Goal=   None    Shift=    0.000
 RMSDP=8.54D-08 MaxDP=7.19D-07 DE=-1.47D-11 OVMax= 8.32D-07

 Cycle  14  Pass 1  IDiag  3:
 E= 0.733192281499512     Delta-E=       -0.000000000001 Rises=F Damp=F
 DIIS: error= 8.31D-09 at cycle  14 NSaved=  14.
 NSaved=14 IEnMin=14 EnMin= 0.733192281499512     IErMin=14 ErrMin= 8.31D-09
 ErrMax= 8.31D-09  0.00D+00 EMaxC= 1.00D-01 BMatC= 4.85D-15 BMatP= 8.73D-14
 IDIUse=1 WtCom= 1.00D+00 WtEn= 0.00D+00
 Coeff-Com:  0.183D-04-0.704D-04 0.282D-03-0.135D-02 0.324D-02-0.443D-02
 Coeff-Com:  0.340D-02 0.648D-03-0.932D-02 0.320D-01-0.793D-01 0.234D+00
 Coeff-Com: -0.722D+00 0.154D+01
 Coeff:      0.183D-04-0.704D-04 0.282D-03-0.135D-02 0.324D-02-0.443D-02
 Coeff:      0.340D-02 0.648D-03-0.932D-02 0.320D-01-0.793D-01 0.234D+00
 Coeff:     -0.722D+00 0.154D+01
 Gap=     0.356 Goal=   None    Shift=    0.000
 RMSDP=1.49D-08 MaxDP=8.02D-08 DE=-6.82D-13 OVMax= 1.01D-07

 Cycle  15  Pass 1  IDiag  3:
 E= 0.733192281499314     Delta-E=        0.000000000000 Rises=F Damp=F
 DIIS: error= 1.40D-09 at cycle  15 NSaved=  15.
 NSaved=15 IEnMin=15 EnMin= 0.733192281499314     IErMin=15 ErrMin= 1.40D-09
 ErrMax= 1.40D-09  0.00D+00 EMaxC= 1.00D-01 BMatC= 1.58D-16 BMatP= 4.85D-15
 IDIUse=1 WtCom= 1.00D+00 WtEn= 0.00D+00
 Coeff-Com: -0.246D-05 0.158D-04-0.132D-03 0.844D-03-0.224D-02 0.338D-02
 Coeff-Com: -0.314D-02 0.133D-02 0.202D-02-0.105D-01 0.282D-01-0.883D-01
 Coeff-Com:  0.293D+00-0.737D+00 0.151D+01
 Coeff:     -0.246D-05 0.158D-04-0.132D-03 0.844D-03-0.224D-02 0.338D-02
 Coeff:     -0.314D-02 0.133D-02 0.202D-02-0.105D-01 0.282D-01-0.883D-01
 Coeff:      0.293D+00-0.737D+00 0.151D+01
 Gap=     0.356 Goal=   None    Shift=    0.000
 RMSDP=2.47D-09 MaxDP=1.32D-08 DE=-1.99D-13 OVMax= 1.27D-08

 Cycle  16  Pass 2  IDiag  1:
 SCF Done:  E(RAM1) =  0.733192281499     A.U. after   16 cycles
            NFock= 15  Conv=0.25D-08     -V/T= 1.0490
 KE=-1.495839483011D+01 PE=-1.710780581024D+02 EE= 8.449419367889D+01
 Leave Link  502 at Sun Nov 29 12:22:27 2015, MaxMem=    33554432 cpu:         0.0
 (Enter /home/Applications/g09/g09/l701.exe)
 Compute integral first derivatives.
 ... and contract with generalized density number  0.
 Leave Link  701 at Sun Nov 29 12:22:27 2015, MaxMem=    33554432 cpu:         0.0
 (Enter /home/Applications/g09/g09/l702.exe)
 L702 exits ... SP integral derivatives will be done elsewhere.
 Leave Link  702 at Sun Nov 29 12:22:27 2015, MaxMem=    33554432 cpu:         0.0
 (Enter /home/Applications/g09/g09/l703.exe)
 Compute integral first derivatives, UseDBF=F ICtDFT=           0.
 Integral derivatives from FoFJK, PRISM(SPDF).
 Calling FoFJK, ICntrl=      2127 FMM=F ISym2X=0 I1Cent= 0 IOpClX= 0 NMat=1 NMatS=1 NMatT=0.
 FoFJK:  IHMeth= 8 ICntrl=    2127 DoSepK=F KAlg= 0 I1Cent=   0 FoldK=F
 IRaf=         0 NMat=   1 IRICut=       1 DoRegI=T DoRafI=F ISym2E= 0.
 FoFCou: FMM=F IPFlag=           0 FMFlag=      100000 FMFlg1=         800
         NFxFlg=           0 DoJE=F BraDBF=F KetDBF=F FulRan=T
         wScrn=  0.000000 ICntrl=    2127 IOpCl=  0 I1Cent=           0 NGrid=           0
         NMat0=    1 NMatS0=      1 NMatT0=    0 NMatD0=    1 NMtDS0=    0 NMtDT0=    0
 Symmetry not used in FoFCou.
 Leave Link  703 at Sun Nov 29 12:22:27 2015, MaxMem=    33554432 cpu:         0.0
 (Enter /home/Applications/g09/g09/l716.exe)
 Dipole        =-2.07902308D-02-2.38119258D-01 1.02318366D-02
 ***** Axes restored to original set *****
 -------------------------------------------------------------------
 Center     Atomic                   Forces (Hartrees/Bohr)
 Number     Number              X              Y              Z
 -------------------------------------------------------------------
      1        6          -0.025152243   -0.017087322    0.004624064
      2        6           0.006440634    0.006386900   -0.003566790
      3        8           0.007592463    0.006836306   -0.001828572
      4        6           0.005163053   -0.011389831   -0.002581422
      5        6          -0.005979406    0.016952617    0.002701878
      6        1           0.000505903   -0.003163205   -0.001747325
      7        1          -0.000586459    0.000255124    0.002203944
      8        1           0.004130817   -0.000829473    0.001973098
      9        1           0.007885238    0.002038884   -0.001778874
 -------------------------------------------------------------------
 Cartesian Forces:  Max     0.025152243 RMS     0.008055209
 Leave Link  716 at Sun Nov 29 12:22:27 2015, MaxMem=    33554432 cpu:         0.0
 (Enter /home/Applications/g09/g09/l103.exe)

 GradGradGradGradGradGradGradGradGradGradGradGradGradGradGradGradGradGrad
 Berny optimization.
 Using GEDIIS/GDIIS optimizer.
 FormGI is forming the generalized inverse of G from B-inverse, IUseBI=4.
 Internal  Forces:  Max     0.015236189 RMS     0.004154631
 Search for a local minimum.
 Step number   2 out of a maximum of   48
 All quantities printed in internal units (Hartrees-Bohrs-Radians)
 RMS Force = .41546D-02 SwitMx=.10000D-02 MixMth= 1
 Mixed Optimization -- RFO/linear search
 Update second derivatives using D2CorX and points    1    2
 DE= -1.27D-02 DEPred=-1.33D-02 R= 9.60D-01
 TightC=F SS=  1.41D+00  RLast= 3.11D-01 DXNew= 5.0454D-01 9.3272D-01
 Trust test= 9.60D-01 RLast= 3.11D-01 DXMaxT set to 5.05D-01
 ITU=  1  0
 Use linear search instead of GDIIS.
     Eigenvalues ---    0.02264   0.02400   0.02647   0.02677   0.02855
     Eigenvalues ---    0.02912   0.14453   0.15956   0.15971   0.15996
     Eigenvalues ---    0.21746   0.23505   0.32578   0.34232   0.37947
     Eigenvalues ---    0.40101   0.44103   0.45388   0.50768   0.53178
     Eigenvalues ---    0.63685
 RFO step:  Lambda=-2.50464678D-03 EMin= 2.26369907D-02
 Quartic linear search produced a step of  0.10114.
 Iteration  1 RMS(Cart)=  0.01808463 RMS(Int)=  0.00065047
 Iteration  2 RMS(Cart)=  0.00056004 RMS(Int)=  0.00036286
 Iteration  3 RMS(Cart)=  0.00000022 RMS(Int)=  0.00036286
 ITry= 1 IFail=0 DXMaxC= 4.42D-02 DCOld= 1.00D+10 DXMaxT= 5.05D-01 DXLimC= 3.00D+00 Rises=F
 Variable       Old X    -DE/DX   Delta X   Delta X   Delta X     New X
                                 (Linear)    (Quad)   (Total)
    R1        2.60869  -0.01524   0.00146  -0.03298  -0.03157   2.57712
    R2        2.66934   0.00809   0.01349   0.01577   0.02929   2.69863
    R3        2.03766   0.00481   0.00924   0.01193   0.02117   2.05883
    R4        2.58701  -0.00087   0.00119  -0.00253  -0.00140   2.58561
    R5        2.07197  -0.00134  -0.00247  -0.00438  -0.00685   2.06512
    R6        2.61132  -0.00709  -0.00018  -0.01651  -0.01668   2.59464
    R7        2.59234  -0.01026   0.00583  -0.01963  -0.01373   2.57861
    R8        2.06044   0.00037  -0.00093   0.00120   0.00028   2.06072
    R9        2.06009  -0.00152   0.00459  -0.00458   0.00001   2.06009
    A1        1.85180   0.00133  -0.00110   0.00900   0.00782   1.85962
    A2        2.16031   0.00609   0.00541   0.04167   0.04696   2.20728
    A3        2.26976  -0.00738  -0.00441  -0.04923  -0.05381   2.21595
    A4        1.92455  -0.00152   0.00393  -0.00804  -0.00436   1.92019
    A5        2.37722  -0.00324  -0.00481  -0.02213  -0.02716   2.35006
    A6        1.97943   0.00480   0.00117   0.03212   0.03310   2.01253
    A7        1.86281   0.00239  -0.00177   0.00753   0.00576   1.86857
    A8        1.90971   0.00053   0.00535   0.00248   0.00756   1.91727
    A9        2.03178  -0.00082  -0.00427  -0.00448  -0.00921   2.02257
   A10        2.33951   0.00034   0.00026   0.00348   0.00330   2.34281
   A11        1.87582  -0.00272  -0.00598  -0.01075  -0.01673   1.85909
   A12        2.20073  -0.00158   0.00115  -0.01427  -0.01335   2.18738
   A13        2.20555   0.00432   0.00539   0.02561   0.03079   2.23633
    D1       -0.00256  -0.00008   0.00187  -0.00227  -0.00039  -0.00295
    D2        3.06406   0.00100   0.00637   0.03613   0.04170   3.10576
    D3        3.08890   0.00039  -0.00104   0.02331   0.02326   3.11216
    D4       -0.12767   0.00147   0.00347   0.06171   0.06535  -0.06231
    D5       -0.00541   0.00031  -0.00768   0.01116   0.00359  -0.00183
    D6        3.08860   0.00084  -0.00042   0.02476   0.02382   3.11242
    D7       -3.09257  -0.00075  -0.00470  -0.02040  -0.02419  -3.11676
    D8        0.00145  -0.00023   0.00257  -0.00679  -0.00396  -0.00252
    D9        0.00945  -0.00017   0.00434  -0.00735  -0.00288   0.00656
   D10       -3.07562  -0.00067   0.00146  -0.03418  -0.03353  -3.10915
   D11       -0.01289   0.00035  -0.00888   0.01444   0.00513  -0.00776
   D12        3.06784   0.00093   0.00139   0.03517   0.03597   3.10382
   D13        0.01141  -0.00044   0.01034  -0.01606  -0.00547   0.00593
   D14       -3.08244  -0.00076   0.00339  -0.02832  -0.02486  -3.10730
   D15       -3.05433  -0.00111  -0.00201  -0.04149  -0.04364  -3.09797
   D16        0.13501  -0.00143  -0.00895  -0.05374  -0.06302   0.07199
         Item               Value     Threshold  Converged?
 Maximum Force            0.015236     0.000450     NO 
 RMS     Force            0.004155     0.000300     NO 
 Maximum Displacement     0.044194     0.001800     NO 
 RMS     Displacement     0.018141     0.001200     NO 
 Predicted change in Energy=-1.335351D-03
 Lowest energy point so far.  Saving SCF results.
 GradGradGradGradGradGradGradGradGradGradGradGradGradGradGradGradGradGrad

 Leave Link  103 at Sun Nov 29 12:22:27 2015, MaxMem=    33554432 cpu:         0.0
 (Enter /home/Applications/g09/g09/l202.exe)
                          Input orientation:                          
 ---------------------------------------------------------------------
 Center     Atomic      Atomic             Coordinates (Angstroms)
 Number     Number       Type             X           Y           Z
 ---------------------------------------------------------------------
      1          6           0        0.968145   -0.717974    0.000685
      2          6           0       -0.336667   -1.113238    0.033188
      3          8           0       -1.157655   -0.018687    0.038464
      4          6           0       -0.349903    1.090929   -0.000047
      5          6           0        0.960222    0.709918   -0.019311
      6          1           0        1.846087    1.345275   -0.020611
      7          1           0       -0.863166    2.052322   -0.038041
      8          1           0       -0.846651   -2.079748    0.029499
      9          1           0        1.842258   -1.368125    0.015036
 ---------------------------------------------------------------------
                    Distance matrix (angstroms):
                    1          2          3          4          5
     1  C    0.000000
     2  C    1.363754   0.000000
     3  O    2.238182   1.368245   0.000000
     4  C    2.238165   2.204458   1.373024   0.000000
     5  C    1.428054   2.237985   2.240448   1.364539   0.000000
     6  H    2.242371   3.288099   3.299447   2.210765   1.090154
     7  H    3.321106   3.209837   2.093240   1.090486   2.264320
     8  H    2.269085   1.092812   2.084414   3.209490   3.324066
     9  H    1.089484   2.193857   3.289531   3.294350   2.257749
                    6          7          8          9
     6  H    0.000000
     7  H    2.800049   0.000000
     8  H    4.357078   4.132656   0.000000
     9  H    2.713637   4.361376   2.781519   0.000000
 Stoichiometry    C4H4O
 Framework group  C1[X(C4H4O)]
 Deg. of freedom    21
 Full point group                 C1      NOp   1
 RotChk:  IX=0 Diff= 1.22D-02
 Largest Abelian subgroup         C1      NOp   1
 Largest concise Abelian subgroup C1      NOp   1
                         Standard orientation:                         
 ---------------------------------------------------------------------
 Center     Atomic      Atomic             Coordinates (Angstroms)
 Number     Number       Type             X           Y           Z
 ---------------------------------------------------------------------
      1          6           0       -0.697725    0.970521    0.004236
      2          6           0       -1.106113   -0.330642   -0.000193
      3          8           0       -0.019807   -1.162490   -0.008070
      4          6           0        1.098072   -0.365322    0.000009
      5          6           0        0.730161    0.948680    0.002822
      6          1           0        1.374051    1.828054   -0.020469
      7          1           0        2.054894   -0.887448    0.032186
      8          1           0       -2.077370   -0.830818    0.026715
      9          1           0       -1.339486    1.850716   -0.015111
 ---------------------------------------------------------------------
 Rotational constants (GHZ):      9.4089307      9.2066665      4.6536517
 Leave Link  202 at Sun Nov 29 12:22:27 2015, MaxMem=    33554432 cpu:         0.0
 (Enter /home/Applications/g09/g09/l301.exe)

 Semi-emprical parameters in input format:
 Method=8 CoreType=1 PeptideFC=0.0105570000 RIJScale=0.4899110000
 ****
 H       
 PQN=1 NValence=1 F0ss=0.4577290000 ZetaOverlap=1.0659780000 U=-0.3880320000
 Beta=-0.2381360000 CoreKO=1.1144350000 KON=0,0,0,1.0186160000 KON=1,0,1,1.0557690000
 KON=0,1,1,1.0725930000 KON=2,1,1,1.1590830000 EISol=-0.4188110042 EHeat=0.0830298228
 Alpha=1.5252600000
 GCore=0.0099350000,1.3986240000,2.1461900000
 GCore=0.0003630000,1.5415670000,2.7171030000
 GCore=-0.0012530000,0.5088300000,4.2039300000
 ****
 C       
 PQN=2,2 NValence=4 F0ss=0.4263360000 F0sp=0.4580860000 F0pp=0.3261620000 F2pp=0.2036090000
 G1sp=0.2073130000
 ZetaOverlap=2.1016200000,1.8587190000
 U=-1.9018080000,-1.4557970000
 Beta=-0.4792560000,-0.2700630000 DDN=0,1,0.8034860000 DDN=1,1,0.7591540000
 CoreKO=1.1325510000 KON=0,0,0,1.1996250000 KON=1,0,1,0.8437060000 KON=0,1,1,1.0478550000
 KON=2,1,1,0.8168110000 EISol=-4.4398989268 EHeat=0.2723305520 Alpha=1.4381970000
 DipHyp=1.6068795495
 GCore=0.0008260000,1.4798740000,2.8384620000
 GCore=0.0031480000,1.6675340000,3.8116200000
 GCore=-0.0011560000,1.5029710000,3.9059920000
 GCore=-0.0000920000,1.1754400000,4.8520980000
 ****
 O       
 PQN=2,2 NValence=6 F0ss=0.5413910000 F0sp=0.5145480000 F0pp=0.5091470000 F2pp=0.2175940000
 G1sp=0.4302620000
 ZetaOverlap=3.3296350000,2.5240390000
 U=-3.3343200000,-2.9854240000
 Beta=-0.9082740000,-1.1340310000 DDN=0,1,0.4988900000 DDN=1,1,0.5206270000
 CoreKO=0.9688900000 KON=0,0,0,0.8976510000 KON=1,0,1,0.5186760000 KON=0,1,1,0.8274210000
 KON=2,1,1,0.5315430000 EISol=-11.6164441184 EHeat=0.0949133088 Alpha=2.3722000000
 DipHyp=0.9977225968
 GCore=0.0212480000,1.1747580000,1.6499540000
 GCore=0.0064050000,2.1096700000,2.7148630000
 ****
 
 Standard basis: VSTO-6G (5D, 7F)
 Ernie: Thresh=  0.10000D-02 Tol=  0.10000D-05 Strict=F.
  NNHCO=     0 NNPyr=     0 NCTC=     0               EPep=         0.000000000
    EC=        67.765275667  ECS=         1.618321535   EG=         0.431116515
   EHC=         0.000000000  EAt=       -31.051283842  AtH=         1.516354808
 EPDDG=         0.000000000  ECC=        69.814713716 EAtT=        32.567638650
 There are    24 symmetry adapted cartesian basis functions of A   symmetry.
 There are    24 symmetry adapted basis functions of A   symmetry.
    24 basis functions,   144 primitive gaussians,    24 cartesian basis functions
    13 alpha electrons       13 beta electrons
       nuclear repulsion energy       102.3823523668 Hartrees.
 IExCor=    0 DFT=F Ex=HF Corr=None ExCW=0 ScaHFX=  1.000000
 ScaDFX=  1.000000  1.000000  1.000000  1.000000 ScalE2=  1.000000  1.000000
 IRadAn=      0 IRanWt=     -1 IRanGd=            0 ICorTp=0 IEmpDi=  4
 Integral buffers will be    131072 words long.
 Regular integral format.
 Two-electron integral symmetry is turned off.
 Leave Link  301 at Sun Nov 29 12:22:27 2015, MaxMem=    33554432 cpu:         0.0
 (Enter /home/Applications/g09/g09/l302.exe)
 Do NDO integrals.
 NPDir=0 NMtPBC=     1 NCelOv=     1 NCel=       1 NClECP=     1 NCelD=      1
         NCelK=      1 NCelE2=     1 NClLst=     1 CellRange=     0.0.
 One-electron integrals computed using PRISM.
 NBasis=    24 RedAO= F EigKep=  0.00D+00  NBF=    24
 NBsUse=    24 1.00D-04 EigRej=  0.00D+00 NBFU=    24
 Leave Link  302 at Sun Nov 29 12:22:27 2015, MaxMem=    33554432 cpu:         0.0
 (Enter /home/Applications/g09/g09/l303.exe)
 DipDrv:  MaxL=1.
 Leave Link  303 at Sun Nov 29 12:22:27 2015, MaxMem=    33554432 cpu:         0.0
 (Enter /home/Applications/g09/g09/l401.exe)
 Initial guess from the checkpoint file:  "/home/Applications/g09/scratch/Gau-20946.chk"
 B after Tr=     0.000000    0.000000    0.000000
         Rot=    0.999997   -0.000043    0.000045   -0.002430 Ang=  -0.28 deg.
 Guess basis will be translated and rotated to current coordinates.
 JPrj=0 DoOrth=T DoCkMO=T.
 Leave Link  401 at Sun Nov 29 12:22:27 2015, MaxMem=    33554432 cpu:         0.0
 (Enter /home/Applications/g09/g09/l502.exe)
 Closed shell SCF:
 Using DIIS extrapolation, IDIIS=  1040.
 Overlap will be assumed to be unity.
 Two-electron integral symmetry not used.
 Keep J ints in memory in canonical form, NReq=888082.
 IVT=       79475 IEndB=       79475 NGot=    33554432 MDV=    33473473
 LenX=    33473473 LenY=    33472456
 Requested convergence on RMS density matrix=1.00D-08 within 128 cycles.
 Requested convergence on MAX density matrix=1.00D-06.
 Requested convergence on             energy=1.00D-06.
 No special actions if energy rises.
 FoFCou: FMM=F IPFlag=           0 FMFlag=           0 FMFlg1=           0
         NFxFlg=           0 DoJE=F BraDBF=F KetDBF=F FulRan=T
         wScrn=  0.000000 ICntrl=     600 IOpCl=  2 I1Cent=           0 NGrid=           0
         NMat0=    1 NMatS0=     54 NMatT0=    0 NMatD0=    1 NMtDS0=    0 NMtDT0=    0
 Symmetry not used in FoFCou.

 Cycle   1  Pass 1  IDiag  1:
 E= 0.732094467534751    
 DIIS: error= 1.89D-03 at cycle   1 NSaved=   1.
 NSaved= 1 IEnMin= 1 EnMin= 0.732094467534751     IErMin= 1 ErrMin= 1.89D-03
 ErrMax= 1.89D-03  0.00D+00 EMaxC= 1.00D-01 BMatC= 1.49D-04 BMatP= 1.49D-04
 IDIUse=3 WtCom= 9.81D-01 WtEn= 1.89D-02
 Coeff-Com:  0.100D+01
 Coeff-En:   0.100D+01
 Coeff:      0.100D+01
 GapD=    2.000 DampG=2.000 DampE=1.000 DampFc=2.0000 IDamp=-1.
 RMSDP=9.75D-04 MaxDP=3.74D-03              OVMax= 0.00D+00

 Cycle   2  Pass 1  IDiag  3:
 E= 0.731558435508077     Delta-E=       -0.000536032027 Rises=F Damp=F
 DIIS: error= 6.49D-04 at cycle   2 NSaved=   2.
 NSaved= 2 IEnMin= 2 EnMin= 0.731558435508077     IErMin= 2 ErrMin= 6.49D-04
 ErrMax= 6.49D-04  0.00D+00 EMaxC= 1.00D-01 BMatC= 2.19D-05 BMatP= 1.49D-04
 IDIUse=3 WtCom= 9.94D-01 WtEn= 6.49D-03
 Coeff-Com: -0.542D+00 0.154D+01
 Coeff-En:   0.000D+00 0.100D+01
 Coeff:     -0.538D+00 0.154D+01
 Gap=     0.361 Goal=   None    Shift=    0.000
 RMSDP=6.48D-04 MaxDP=3.13D-03 DE=-5.36D-04 OVMax= 3.78D-03

 Cycle   3  Pass 1  IDiag  3:
 E= 0.731444857398287     Delta-E=       -0.000113578110 Rises=F Damp=F
 DIIS: error= 1.85D-04 at cycle   3 NSaved=   3.
 NSaved= 3 IEnMin= 3 EnMin= 0.731444857398287     IErMin= 3 ErrMin= 1.85D-04
 ErrMax= 1.85D-04  0.00D+00 EMaxC= 1.00D-01 BMatC= 8.39D-07 BMatP= 2.19D-05
 IDIUse=3 WtCom= 9.98D-01 WtEn= 1.85D-03
 Coeff-Com:  0.221D+00-0.704D+00 0.148D+01
 Coeff-En:   0.000D+00 0.000D+00 0.100D+01
 Coeff:      0.221D+00-0.702D+00 0.148D+01
 Gap=     0.362 Goal=   None    Shift=    0.000
 RMSDP=1.76D-04 MaxDP=1.35D-03 DE=-1.14D-04 OVMax= 1.63D-03

 Cycle   4  Pass 1  IDiag  3:
 E= 0.731437891154528     Delta-E=       -0.000006966244 Rises=F Damp=F
 DIIS: error= 7.50D-05 at cycle   4 NSaved=   4.
 NSaved= 4 IEnMin= 4 EnMin= 0.731437891154528     IErMin= 4 ErrMin= 7.50D-05
 ErrMax= 7.50D-05  0.00D+00 EMaxC= 1.00D-01 BMatC= 1.17D-07 BMatP= 8.39D-07
 IDIUse=1 WtCom= 1.00D+00 WtEn= 0.00D+00
 Coeff-Com: -0.636D-02 0.423D-01-0.429D+00 0.139D+01
 Coeff:     -0.636D-02 0.423D-01-0.429D+00 0.139D+01
 Gap=     0.362 Goal=   None    Shift=    0.000
 RMSDP=7.80D-05 MaxDP=6.53D-04 DE=-6.97D-06 OVMax= 8.47D-04

 Cycle   5  Pass 1  IDiag  3:
 E= 0.731436661650662     Delta-E=       -0.000001229504 Rises=F Damp=F
 DIIS: error= 4.06D-05 at cycle   5 NSaved=   5.
 NSaved= 5 IEnMin= 5 EnMin= 0.731436661650662     IErMin= 5 ErrMin= 4.06D-05
 ErrMax= 4.06D-05  0.00D+00 EMaxC= 1.00D-01 BMatC= 3.57D-08 BMatP= 1.17D-07
 IDIUse=1 WtCom= 1.00D+00 WtEn= 0.00D+00
 Coeff-Com:  0.337D-02-0.247D-01 0.345D+00-0.145D+01 0.212D+01
 Coeff:      0.337D-02-0.247D-01 0.345D+00-0.145D+01 0.212D+01
 Gap=     0.362 Goal=   None    Shift=    0.000
 RMSDP=5.49D-05 MaxDP=5.88D-04 DE=-1.23D-06 OVMax= 5.94D-04

 Cycle   6  Pass 1  IDiag  3:
 E= 0.731436178848597     Delta-E=       -0.000000482802 Rises=F Damp=F
 DIIS: error= 2.54D-05 at cycle   6 NSaved=   6.
 NSaved= 6 IEnMin= 6 EnMin= 0.731436178848597     IErMin= 6 ErrMin= 2.54D-05
 ErrMax= 2.54D-05  0.00D+00 EMaxC= 1.00D-01 BMatC= 1.35D-08 BMatP= 3.57D-08
 IDIUse=1 WtCom= 1.00D+00 WtEn= 0.00D+00
 Coeff-Com:  0.185D-01-0.404D-01-0.270D+00 0.166D+01-0.312D+01 0.276D+01
 Coeff:      0.185D-01-0.404D-01-0.270D+00 0.166D+01-0.312D+01 0.276D+01
 Gap=     0.362 Goal=   None    Shift=    0.000
 RMSDP=4.55D-05 MaxDP=5.03D-04 DE=-4.83D-07 OVMax= 3.80D-04

 Cycle   7  Pass 1  IDiag  3:
 E= 0.731435933373660     Delta-E=       -0.000000245475 Rises=F Damp=F
 DIIS: error= 1.34D-05 at cycle   7 NSaved=   7.
 NSaved= 7 IEnMin= 7 EnMin= 0.731435933373660     IErMin= 7 ErrMin= 1.34D-05
 ErrMax= 1.34D-05  0.00D+00 EMaxC= 1.00D-01 BMatC= 4.76D-09 BMatP= 1.35D-08
 IDIUse=1 WtCom= 1.00D+00 WtEn= 0.00D+00
 Coeff-Com: -0.258D-01 0.602D-01 0.301D+00-0.199D+01 0.393D+01-0.412D+01
 Coeff-Com:  0.283D+01
 Coeff:     -0.258D-01 0.602D-01 0.301D+00-0.199D+01 0.393D+01-0.412D+01
 Coeff:      0.283D+01
 Gap=     0.362 Goal=   None    Shift=    0.000
 RMSDP=3.50D-05 MaxDP=3.67D-04 DE=-2.45D-07 OVMax= 3.39D-04

 Cycle   8  Pass 1  IDiag  3:
 E= 0.731435820374443     Delta-E=       -0.000000112999 Rises=F Damp=F
 DIIS: error= 9.50D-06 at cycle   8 NSaved=   8.
 NSaved= 8 IEnMin= 8 EnMin= 0.731435820374443     IErMin= 8 ErrMin= 9.50D-06
 ErrMax= 9.50D-06  0.00D+00 EMaxC= 1.00D-01 BMatC= 1.81D-09 BMatP= 4.76D-09
 IDIUse=1 WtCom= 1.00D+00 WtEn= 0.00D+00
 Coeff-Com:  0.322D-01-0.709D-01-0.474D+00 0.296D+01-0.579D+01 0.608D+01
 Coeff-Com: -0.476D+01 0.301D+01
 Coeff:      0.322D-01-0.709D-01-0.474D+00 0.296D+01-0.579D+01 0.608D+01
 Coeff:     -0.476D+01 0.301D+01
 Gap=     0.362 Goal=   None    Shift=    0.000
 RMSDP=2.56D-05 MaxDP=2.48D-04 DE=-1.13D-07 OVMax= 2.56D-04

 Cycle   9  Pass 1  IDiag  3:
 E= 0.731435773298287     Delta-E=       -0.000000047076 Rises=F Damp=F
 DIIS: error= 5.05D-06 at cycle   9 NSaved=   9.
 NSaved= 9 IEnMin= 9 EnMin= 0.731435773298287     IErMin= 9 ErrMin= 5.05D-06
 ErrMax= 5.05D-06  0.00D+00 EMaxC= 1.00D-01 BMatC= 5.14D-10 BMatP= 1.81D-09
 IDIUse=1 WtCom= 1.00D+00 WtEn= 0.00D+00
 Coeff-Com: -0.277D-01 0.631D-01 0.353D+00-0.228D+01 0.449D+01-0.474D+01
 Coeff-Com:  0.387D+01-0.327D+01 0.255D+01
 Coeff:     -0.277D-01 0.631D-01 0.353D+00-0.228D+01 0.449D+01-0.474D+01
 Coeff:      0.387D+01-0.327D+01 0.255D+01
 Gap=     0.362 Goal=   None    Shift=    0.000
 RMSDP=1.75D-05 MaxDP=1.82D-04 DE=-4.71D-08 OVMax= 1.77D-04

 Cycle  10  Pass 1  IDiag  3:
 E= 0.731435760322242     Delta-E=       -0.000000012976 Rises=F Damp=F
 DIIS: error= 1.06D-06 at cycle  10 NSaved=  10.
 NSaved=10 IEnMin=10 EnMin= 0.731435760322242     IErMin=10 ErrMin= 1.06D-06
 ErrMax= 1.06D-06  0.00D+00 EMaxC= 1.00D-01 BMatC= 4.06D-11 BMatP= 5.14D-10
 IDIUse=1 WtCom= 1.00D+00 WtEn= 0.00D+00
 Coeff-Com:  0.883D-02-0.202D-01-0.111D+00 0.724D+00-0.142D+01 0.150D+01
[...]
     38  0.191545D-05 -0.502499D-05  0.000000D+00  0.336048D-05 -0.386420D-05
               16            17            18            19            20 
     16  0.127649D+00
     17 -0.696814D-01  0.100839D+00
     18  0.370463D-01 -0.575202D-01  0.741085D-01
     19  0.326351D-01 -0.433184D-01 -0.165882D-01  0.599066D-01
     20  0.585100D-02 -0.387025D-01  0.236611D-01  0.150414D-01  0.768490D-01
     21  0.118693D-02  0.194866D-01 -0.119210D-01 -0.756565D-02 -0.375358D-01
     22 -0.703793D-02  0.192159D-01 -0.117401D-01 -0.747575D-02 -0.393133D-01
     23  0.100606D-04 -0.487240D-05  0.108554D-05  0.375258D-05  0.278024D-05
     24  0.190288D-04 -0.798710D-05  0.471943D-05  0.226011D-05 -0.410077D-05
     25 -0.395323D-05  0.289995D-05 -0.303651D-05  0.121642D-05  0.121181D-04
     26  0.501503D-05  0.000000D+00  0.000000D+00  0.000000D+00  0.523711D-05
     27  0.501685D-05 -0.106648D-05  0.000000D+00  0.195011D-05  0.265487D-05
     28 -0.275356D-05  0.000000D+00  0.130452D-05  0.000000D+00  0.143734D-05
     29  0.895383D-05  0.000000D+00  0.000000D+00  0.100566D-05  0.240202D-05
     30  0.118343D-05  0.000000D+00  0.114748D-05 -0.124106D-05  0.118449D-05
     31  0.542585D-05 -0.756305D-05  0.551130D-05  0.000000D+00  0.476531D-05
     32  0.101735D-04 -0.315323D-05  0.169066D-05  0.000000D+00  0.600550D-05
     33 -0.448259D-05  0.000000D+00 -0.251999D-05  0.491738D-05 -0.173319D-05
     34 -0.628269D-05  0.000000D+00  0.950679D-05 -0.110333D-04 -0.170672D-05
     35 -0.655238D-05  0.000000D+00  0.132250D-05 -0.391751D-05  0.000000D+00
     36  0.000000D+00  0.000000D+00  0.000000D+00 -0.177089D-05  0.000000D+00
     37 -0.809367D-05  0.304372D-05  0.000000D+00 -0.218400D-05 -0.127002D-05
     38 -0.121347D-05  0.261067D-05  0.000000D+00  0.000000D+00 -0.187120D-05
               21            22            23            24            25 
     21  0.538663D-01
     22 -0.163305D-01  0.556438D-01
     23  0.000000D+00  0.000000D+00  0.151902D-01
     24  0.404527D-05  0.000000D+00  0.290351D-02  0.988438D-02
     25 -0.742731D-05 -0.401130D-05  0.511411D-02 -0.440502D-02  0.889579D-02
     26 -0.250640D-05 -0.317099D-05 -0.717256D-02  0.257585D-02 -0.623340D-03
     27 -0.166675D-05 -0.325095D-05 -0.126818D-01 -0.510836D-02 -0.179546D-02
     28 -0.545870D-05  0.440254D-05 -0.550038D-02 -0.287296D-02  0.120593D-02
     29  0.000000D+00 -0.343157D-05 -0.343654D-02  0.159755D-02 -0.526527D-02
     30 -0.415689D-05  0.422192D-05  0.374493D-02  0.383296D-02 -0.226388D-02
     31 -0.119547D-05 -0.394339D-05 -0.118820D-01  0.391878D-03 -0.645492D-02
     32 -0.219281D-05 -0.329282D-05 -0.207926D-02 -0.517770D-02  0.113979D-02
     33  0.000000D+00  0.131606D-05  0.346986D-02 -0.378009D-02  0.526367D-02
     34 -0.261035D-05  0.364863D-05  0.360198D-02  0.103124D-03  0.110184D-02
     35  0.125535D-05  0.120441D-05  0.565894D-02  0.549437D-02 -0.216203D-02
     36 -0.626679D-05  0.644900D-05 -0.216009D-02  0.306051D-02 -0.542988D-02
     37  0.407483D-05 -0.128644D-05  0.549318D-02  0.622476D-03  0.305942D-02
     38 -0.344731D-05  0.395816D-05 -0.232585D-02 -0.181139D-02 -0.208428D-03
               26            27            28            29            30 
     26  0.912508D-02
     27  0.577802D-02  0.154279D-01
     28  0.383335D-02  0.543315D-02  0.711679D-02
     29 -0.231186D-03  0.543911D-02 -0.720249D-03  0.711714D-02
     30 -0.217585D-02 -0.455566D-02  0.963387D-03  0.957777D-03  0.647683D-02
     31  0.581899D-02  0.511806D-02  0.346811D-02  0.138424D-03 -0.151153D-02
     32 -0.195865D-02 -0.924339D-03  0.137185D-02 -0.387795D-02 -0.158176D-02
     33 -0.198627D-02  0.511511D-02  0.135735D-03  0.346918D-02 -0.151019D-02
     34 -0.239701D-02 -0.922693D-03 -0.387515D-02  0.137131D-02 -0.158114D-02
     35 -0.232660D-02 -0.126813D-01 -0.343169D-02 -0.550511D-02  0.374447D-02
     36 -0.209292D-03 -0.179916D-02 -0.526479D-02  0.120107D-02 -0.226456D-02
     37 -0.181128D-02 -0.510620D-02  0.160039D-02 -0.287311D-02  0.383348D-02
     38  0.306028D-03  0.577590D-02 -0.232719D-03  0.383307D-02 -0.217555D-02
               31            32            33            34            35 
     31  0.140582D-01
     32  0.426562D-02  0.673772D-02
     33 -0.106627D-01 -0.487847D-02  0.140549D-01
     34 -0.488552D-02 -0.209400D-02  0.427325D-02  0.673168D-02
     35  0.346725D-02  0.359855D-02 -0.118782D-01 -0.208480D-02  0.151882D-01
     36  0.526369D-02  0.109850D-02 -0.645673D-02  0.112977D-02  0.511748D-02
     37 -0.378088D-02  0.105146D-03  0.393879D-03 -0.516915D-02  0.290141D-02
     38 -0.198445D-02 -0.239490D-02  0.581532D-02 -0.195458D-02 -0.716933D-02
               36            37            38 
     36  0.889079D-02
     37 -0.440058D-02  0.988082D-02
     38 -0.627272D-03  0.257882D-02  0.912089D-02
 Leave Link  716 at Sun Nov 29 12:22:28 2015, MaxMem=    33554432 cpu:         0.0
 (Enter /home/Applications/g09/g09/l103.exe)

 GradGradGradGradGradGradGradGradGradGradGradGradGradGradGradGradGradGrad
 Berny optimization.
 Red2BG is reusing G-inverse.
 Internal  Forces:  Max     0.000172003 RMS     0.000047465
 Search for a local minimum.
 Step number   1 out of a maximum of    2
 All quantities printed in internal units (Hartrees-Bohrs-Radians)
 Second derivative matrix not updated -- analytic derivatives used.
 ITU=  0
     Eigenvalues ---    0.00899   0.01178   0.01844   0.02432   0.04722
     Eigenvalues ---    0.05315   0.06569   0.06793   0.07047   0.07706
     Eigenvalues ---    0.17809   0.24474   0.25299   0.31184   0.31888
     Eigenvalues ---    0.31954   0.32954   0.35153   0.39715   0.47665
     Eigenvalues ---    0.63799
 Angle between quadratic step and forces=  59.97 degrees.
 Linear search not attempted -- first point.
 Iteration  1 RMS(Cart)=  0.00045461 RMS(Int)=  0.00000040
 Iteration  2 RMS(Cart)=  0.00000028 RMS(Int)=  0.00000023
 ITry= 1 IFail=0 DXMaxC= 1.22D-03 DCOld= 1.00D+10 DXMaxT= 3.00D-01 DXLimC= 3.00D+00 Rises=F
 Variable       Old X    -DE/DX   Delta X   Delta X   Delta X     New X
                                 (Linear)    (Quad)   (Total)
    R1        2.56840  -0.00006   0.00000  -0.00026  -0.00026   2.56814
    R2        2.70958   0.00017   0.00000   0.00045   0.00045   2.71003
    R3        2.05232   0.00015   0.00000   0.00046   0.00046   2.05279
    R4        2.59420   0.00003   0.00000   0.00030   0.00030   2.59450
    R5        2.06575   0.00003   0.00000   0.00012   0.00012   2.06587
    R6        2.59437   0.00004   0.00000   0.00012   0.00012   2.59450
    R7        2.56823   0.00000   0.00000  -0.00008  -0.00008   2.56814
    R8        2.06588  -0.00001   0.00000  -0.00001  -0.00001   2.06587
    R9        2.05265   0.00005   0.00000   0.00014   0.00014   2.05279
    A1        1.85876   0.00002   0.00000   0.00013   0.00013   1.85890
    A2        2.26973  -0.00005   0.00000  -0.00048  -0.00048   2.26925
    A3        2.15469   0.00003   0.00000   0.00034   0.00034   2.15504
    A4        1.92046  -0.00001   0.00000  -0.00013  -0.00013   1.92033
    A5        2.34070   0.00008   0.00000   0.00116   0.00116   2.34186
    A6        2.02203  -0.00007   0.00000  -0.00103  -0.00103   2.02100
    A7        1.86623   0.00004   0.00000   0.00010   0.00010   1.86633
    A8        1.92035  -0.00002   0.00000  -0.00002  -0.00002   1.92033
    A9        2.02144  -0.00002   0.00000  -0.00043  -0.00043   2.02100
   A10        2.34140   0.00004   0.00000   0.00046   0.00046   2.34186
   A11        1.85897  -0.00003   0.00000  -0.00008  -0.00008   1.85890
   A12        2.15524   0.00001   0.00000  -0.00020  -0.00020   2.15504
   A13        2.26897   0.00002   0.00000   0.00028   0.00028   2.26925
    D1       -0.00026   0.00002   0.00000   0.00026   0.00026   0.00000
    D2       -3.14076   0.00000   0.00000  -0.00083  -0.00083  -3.14159
    D3       -3.14040  -0.00001   0.00000  -0.00119  -0.00119  -3.14159
    D4        0.00228  -0.00003   0.00000  -0.00228  -0.00228   0.00000
    D5        0.00015  -0.00001   0.00000  -0.00015  -0.00015   0.00000
    D6        3.14153  -0.00001   0.00000   0.00006   0.00006  -3.14159
    D7        3.14041   0.00001   0.00000   0.00118   0.00118   3.14159
    D8       -0.00140   0.00002   0.00000   0.00140   0.00140   0.00000
    D9        0.00027  -0.00002   0.00000  -0.00027  -0.00027   0.00000
   D10        3.14099   0.00000   0.00000   0.00060   0.00060   3.14159
   D11       -0.00017   0.00001   0.00000   0.00017   0.00017   0.00000
   D12       -3.14154   0.00000   0.00000  -0.00005  -0.00005   3.14159
   D13        0.00001   0.00000   0.00000  -0.00001  -0.00001   0.00000
   D14       -3.14135   0.00000   0.00000  -0.00025  -0.00025  -3.14159
   D15        3.14133   0.00001   0.00000   0.00027   0.00027   3.14159
   D16       -0.00003   0.00000   0.00000   0.00003   0.00003   0.00000
         Item               Value     Threshold  Converged?
 Maximum Force            0.000172     0.000450     YES
 RMS     Force            0.000047     0.000300     YES
 Maximum Displacement     0.001220     0.001800     YES
 RMS     Displacement     0.000455     0.001200     YES
 Predicted change in Energy=-2.860917D-07
 Optimization completed.
    -- Stationary point found.
                           ----------------------------
                           !   Optimized Parameters   !
                           ! (Angstroms and Degrees)  !
 --------------------------                            --------------------------
 ! Name  Definition              Value          Derivative Info.                !
 --------------------------------------------------------------------------------
 ! R1    R(1,2)                  1.3591         -DE/DX =   -0.0001              !
 ! R2    R(1,5)                  1.4338         -DE/DX =    0.0002              !
 ! R3    R(1,9)                  1.086          -DE/DX =    0.0001              !
 ! R4    R(2,3)                  1.3728         -DE/DX =    0.0                 !
 ! R5    R(2,8)                  1.0931         -DE/DX =    0.0                 !
 ! R6    R(3,4)                  1.3729         -DE/DX =    0.0                 !
 ! R7    R(4,5)                  1.359          -DE/DX =    0.0                 !
 ! R8    R(4,7)                  1.0932         -DE/DX =    0.0                 !
 ! R9    R(5,6)                  1.0862         -DE/DX =    0.0001              !
 ! A1    A(2,1,5)              106.4993         -DE/DX =    0.0                 !
 ! A2    A(2,1,9)              130.0458         -DE/DX =    0.0                 !
 ! A3    A(5,1,9)              123.4549         -DE/DX =    0.0                 !
 ! A4    A(1,2,3)              110.0341         -DE/DX =    0.0                 !
 ! A5    A(1,2,8)              134.112          -DE/DX =    0.0001              !
 ! A6    A(3,2,8)              115.8539         -DE/DX =   -0.0001              !
 ! A7    A(2,3,4)              106.9273         -DE/DX =    0.0                 !
 ! A8    A(3,4,5)              110.0279         -DE/DX =    0.0                 !
 ! A9    A(3,4,7)              115.8198         -DE/DX =    0.0                 !
 ! A10   A(5,4,7)              134.1523         -DE/DX =    0.0                 !
 ! A11   A(1,5,4)              106.5114         -DE/DX =    0.0                 !
 ! A12   A(1,5,6)              123.486          -DE/DX =    0.0                 !
 ! A13   A(4,5,6)              130.0026         -DE/DX =    0.0                 !
 ! D1    D(5,1,2,3)             -0.0149         -DE/DX =    0.0                 !
 ! D2    D(5,1,2,8)           -179.9525         -DE/DX =    0.0                 !
 ! D3    D(9,1,2,3)           -179.9318         -DE/DX =    0.0                 !
 ! D4    D(9,1,2,8)              0.1307         -DE/DX =    0.0                 !
 ! D5    D(2,1,5,4)              0.0087         -DE/DX =    0.0                 !
 ! D6    D(2,1,5,6)           -180.0037         -DE/DX =    0.0                 !
 ! D7    D(9,1,5,4)            179.9325         -DE/DX =    0.0                 !
 ! D8    D(9,1,5,6)             -0.08           -DE/DX =    0.0                 !
 ! D9    D(1,2,3,4)              0.0153         -DE/DX =    0.0                 !
 ! D10   D(8,2,3,4)            179.9655         -DE/DX =    0.0                 !
 ! D11   D(2,3,4,5)             -0.0095         -DE/DX =    0.0                 !
 ! D12   D(2,3,4,7)            180.0031         -DE/DX =    0.0                 !
 ! D13   D(3,4,5,1)              0.0005         -DE/DX =    0.0                 !
 ! D14   D(3,4,5,6)           -179.9859         -DE/DX =    0.0                 !
 ! D15   D(7,4,5,1)            179.9847         -DE/DX =    0.0                 !
 ! D16   D(7,4,5,6)             -0.0018         -DE/DX =    0.0                 !
 --------------------------------------------------------------------------------
 GradGradGradGradGradGradGradGradGradGradGradGradGradGradGradGradGradGrad

 Leave Link  103 at Sun Nov 29 12:22:28 2015, MaxMem=    33554432 cpu:         0.0
 (Enter /home/Applications/g09/g09/l9999.exe)
 1\1\GINC-DUSTIN-DESKTOP\Freq\RAM1\ZDO\C4H4O1\DUSTIN\29-Nov-2015\0\\#P 
 Geom=AllCheck Guess=TCheck SCRF=Check GenChk RAM1/ZDO Freq\\AM1-Repara
 m Input\\0,1\C,0.9572229005,-0.7260449959,0.0099609091\C,-0.344836174,
 -1.1154838497,0.025437865\O,-1.1650942051,-0.0147453384,0.0148083045\C
 ,-0.3508145992,1.0903460158,-0.0082662638\C,0.9532259968,0.7076261776,
 -0.0120734571\H,1.8574555676,1.3092784949,-0.0278604419\H,-0.860669167
 6,2.0573242857,-0.0191472556\H,-0.8487818594,-2.0853478152,0.044684991
 \H,1.8649615405,-1.322279975,0.0113183488\\Version=ES64L-G09RevD.01\St
 ate=1-A\HF=0.7309424\RMSD=9.478e-10\RMSF=7.682e-05\ZeroPoint=0.064898\
 Thermal=0.0688489\Dipole=-0.2015228,-0.0001441,0.001188\DipoleDeriv=-0
 .5757456,0.0804296,-0.0007525,0.3437996,-0.6052532,-0.0016188,-0.00495
 03,0.0004071,-0.5538305,0.2736105,0.0081843,-0.0008697,-0.3342395,-0.2
 260421,0.0080449,0.0040678,0.005634,0.1602759,-0.8844337,-0.0027927,0.
 0046258,-0.00214,0.0847015,-0.0046472,0.0047291,-0.0054973,-0.2801822,
 0.2709379,-0.00461,-0.0012448,0.336549,-0.2242371,0.0028277,-0.0060328
 ,0.0059685,0.1600896,-0.5728986,-0.0807223,0.0014773,-0.3437633,-0.606
 7412,0.0031797,0.0054978,0.0013099,-0.5536149,0.4648998,0.0920425,-0.0
 026329,0.204386,0.3058478,-0.0015555,-0.0043235,-0.0007119,0.3034853,0
 .2796599,-0.1928606,0.0025465,-0.1955234,0.4826572,-0.0023414,0.002611
 6,-0.0024124,0.2301556,0.277317,0.1914834,-0.0032692,0.1943828,0.48481
 28,-0.005374,-0.0033636,-0.0053919,0.2301953,0.4667183,-0.0911772,0.00
 01194,-0.2034679,0.3043003,0.001484,0.0017435,0.0007073,0.3034308\Pola
 r=56.9943104,0.014639,48.6488975,-0.352291,-0.6026007,8.7998747\HyperP
 olar=46.902738,1.2247295,-236.1707234,-1.6834498,-0.2695572,3.5618787,
 1.6792238,6.0760307,-0.0359765,-0.1432394\PG=C01 [X(C4H4O1)]\NImag=0\\
 0.78780951,-0.08736122,0.56796233,-0.00364680,-0.00576400,0.14175082,-
 0.39628327,-0.06898763,0.00337926,0.62773219,-0.13239516,-0.12127836,0
 .00161297,0.20169329,0.61085648,0.00436434,0.00114168,-0.08045803,-0.0
 0680039,-0.00887603,0.13737746,-0.10022741,0.01264995,0.00068241,-0.15
 176004,0.07913571,-0.00053376,0.49331184,0.05502640,0.00400658,-0.0002
 2685,0.04132883,-0.13384913,0.00080337,0.00027812,0.34534070,0.0000316
 8,0.00011729,0.01734926,0.00003943,0.00049562,-0.06279957,-0.00312979,
 -0.00412971,0.07706400,0.00066109,0.07825920,-0.00106012,0.02577034,-0
 .01702367,0.00012443,-0.15102464,-0.04135262,0.00130692,0.63018419,0.0
 2956324,-0.02975645,0.00053201,0.01778708,-0.11075690,0.00171316,-0.07
 913444,-0.13433889,0.00169534,-0.20190218,0.60844555,-0.00032331,0.000
 15416,0.01829115,-0.00039467,0.00198845,0.01061633,0.00188127,0.001401
 94,-0.06282834,-0.00058367,-0.00569498,0.13726669,-0.06591060,-0.03113
 572,0.00040176,0.00126879,-0.02939284,0.00058338,-0.09986180,-0.055550
 25,0.00172511,-0.39756554,0.13103892,0.00034557,0.78672705,0.03239945,
 -0.29242923,0.00309087,-0.07809497,-0.03028431,0.00131507,-0.01319055,
 0.00360993,0.00030722,0.06766286,-0.12021768,0.00010937,0.08820837,0.5
 6896823,-0.00057626,0.00355994,-0.07578415,0.00133202,0.00095562,0.018
 27279,0.00107546,0.00063279,0.01733595,0.00131387,-0.00036585,-0.08038
 594,-0.00612160,-0.00718353,0.14179687,-0.00033450,-0.00368189,0.00009
 433,0.00216013,-0.00188916,0.00002500,-0.00052777,0.00591236,-0.000052
 88,-0.02667726,-0.01247706,0.00042313,-0.20963866,-0.12149674,0.003131
 08,0.23389490,-0.01612494,-0.01990975,0.00049650,0.00155259,-0.0037918
 3,0.00007444,0.00299444,0.00372115,-0.00000974,0.00347251,0.00513244,-
 0.00003120,-0.12488611,-0.10779243,0.00202366,0.13311541,0.12223574,0.
 00028470,0.00040540,0.00463109,-0.00002670,0.00009952,0.00183143,-0.00
 000730,-0.00003028,0.00455780,0.00017828,0.00008603,0.00476593,0.00318
 207,0.00199721,-0.03504233,-0.00360218,-0.00254372,0.01950259,-0.00226
 391,-0.00075965,0.00005475,-0.00042308,-0.00507300,0.00010162,0.005305
 98,-0.01298500,0.00017709,-0.08301249,0.10814264,-0.00126595,-0.012302
 19,0.01997458,-0.00017078,-0.00028154,-0.00043837,0.00000705,0.0922526
 7,-0.00050103,0.00205557,0.00002118,-0.00541495,0.00209827,0.00005315,
 0.00213871,-0.04612990,0.00072509,0.10700038,-0.21687314,0.00200509,0.
 00501056,-0.00410885,0.00011461,0.00117532,0.00120274,-0.00003065,-0.1
 0931944,0.26291657,0.00004922,0.00002478,0.00335191,0.00010795,0.00004
 805,0.00278404,-0.00005556,0.00084085,0.00238419,-0.00124492,0.0019935
 3,-0.03234531,0.00005578,0.00000416,0.00581272,-0.00001742,-0.00001877
 ,-0.00023811,0.00110832,-0.00290846,0.01815800,-0.01216862,-0.02001784
 ,0.00044522,-0.08173434,-0.10735905,0.00207624,0.00524675,0.01328151,-
 0.00022713,-0.00048548,0.00505526,-0.00005187,-0.00227016,0.00073327,0
 .00003047,-0.00002047,-0.00020432,0.00000261,0.00074836,-0.00024118,-0
 .00000054,0.09096225,-0.00505485,-0.00424668,0.00019495,-0.10620904,-0
 .21817493,0.00375708,-0.00185535,-0.04603145,0.00076515,0.00540018,0.0
 0215770,-0.00003015,0.00047848,0.00206011,0.00001888,-0.00015037,-0.00
 020737,0.00000309,0.00025139,-0.00095669,0.00001512,0.10832406,0.26419
 974,0.00019967,0.00029945,0.00581268,0.00207278,0.00378350,-0.03238673
 ,0.00000492,0.00064210,0.00238196,-0.00005387,-0.00002720,0.00278831,0
 .00003391,0.00001597,0.00335075,0.00000208,0.00000366,-0.00007622,-0.0
 0000837,0.00001889,0.00016830,-0.00226944,-0.00471153,0.01819901,-0.21
 128751,0.12103655,-0.00035082,-0.02671930,0.01230439,0.00005907,-0.000
 47615,-0.00593708,0.00012964,0.00215993,0.00192366,-0.00003055,-0.0004
 5265,0.00380194,-0.00001421,0.00142498,0.00051813,-0.00001850,-0.00002
 259,0.00015163,-0.00000284,-0.00027677,-0.00118403,0.00001830,0.235650
 19,0.12443901,-0.10640561,0.00004245,-0.00365364,0.00518599,0.00001799
 ,-0.00301696,0.00366796,0.00003382,-0.00151771,-0.00378679,0.00009726,
 0.01623763,-0.01980765,0.00024385,-0.00050711,-0.00059185,0.00001340,0
 .00020566,-0.00020569,0.00000075,0.00042944,0.00119845,-0.00002484,-0.
 13261594,0.12074399,-0.00038332,0.00006146,-0.03494484,0.00029028,-0.0
 0010750,0.00476250,0.00008192,0.00006445,0.00455612,0.00001988,0.00006
 908,0.00183097,-0.00020604,0.00034355,0.00464214,-0.00000307,0.0000052
 7,0.00006773,-0.00000370,0.00000097,-0.00007619,-0.00000575,-0.0000127
 0,-0.00023801,0.00020981,-0.00042456,0.01939996\\0.00018952,0.00001572
 ,0.00010670,-0.00018070,0.00007364,-0.00008351,0.00003242,0.00001458,0
 .00002003,-0.00003326,-0.00006115,-0.00001699,0.00004004,-0.00014723,-
 0.00002222,-0.00004688,-0.00002304,0.00000705,0.00002315,0.00002200,0.
 00000585,0.00007837,-0.00000935,0.00002510,-0.00010266,0.00011482,-0.0
 0004202\\\@


 I am not a vegetarian because I love animals;
 I am a vegetarian because I hate plants.
                               -- A. Whitney Brown
 Job cpu time:       0 days  0 hours  0 minutes  0.3 seconds.
 File lengths (MBytes):  RWF=      5 Int=      0 D2E=      0 Chk=      2 Scr=      1
 Normal termination of Gaussian 09 at Sun Nov 29 12:22:28 2015.
