 Entering Gaussian System, Link 0=g09
 Input=FuranAM1Best7.com
 Output=FuranAM1Best7.log
 Initial command:
 /home/Applications/g09/g09/l1.exe "/home/Applications/g09/scratch/Gau-20960.inp" -scrdir="/home/Applications/g09/scratch/"
 Entering Link 1 = /home/Applications/g09/g09/l1.exe PID=     20963.
  
 Copyright (c) 1988,1990,1992,1993,1995,1998,2003,2009,2013,
            Gaussian, Inc.  All Rights Reserved.
  
 This is part of the Gaussian(R) 09 program.  It is based on
 the Gaussian(R) 03 system (copyright 2003, Gaussian, Inc.),
 the Gaussian(R) 98 system (copyright 1998, Gaussian, Inc.),
 the Gaussian(R) 94 system (copyright 1995, Gaussian, Inc.),
 the Gaussian 92(TM) system (copyright 1992, Gaussian, Inc.),
 the Gaussian 90(TM) system (copyright 1990, Gaussian, Inc.),
 the Gaussian 88(TM) system (copyright 1988, Gaussian, Inc.),
 the Gaussian 86(TM) system (copyright 1986, Carnegie Mellon
 University), and the Gaussian 82(TM) system (copyright 1983,
 Carnegie Mellon University). Gaussian is a federally registered
 trademark of Gaussian, Inc.
  
 This software contains proprietary and confidential information,
 including trade secrets, belonging to Gaussian, Inc.
  
 This software is provided under written license and may be
 used, copied, transmitted, or stored only in accord with that
 written license.
  
 The following legend is applicable only to US Government
 contracts under FAR:
  
                    RESTRICTED RIGHTS LEGEND
  
 Use, reproduction and disclosure by the US Government is
 subject to restrictions as set forth in subparagraphs (a)
 and (c) of the Commercial Computer Software - Restricted
 Rights clause in FAR 52.227-19.
  
 Gaussian, Inc.
 340 Quinnipiac St., Bldg. 40, Wallingford CT 06492
  
  
 ---------------------------------------------------------------
 Warning -- This program may not be used in any manner that
 competes with the business of Gaussian, Inc. or will provide
 assistance to any competitor of Gaussian, Inc.  The licensee
 of this program is prohibited from giving any competitor of
 Gaussian, Inc. access to this program.  By using this program,
 the user acknowledges that Gaussian, Inc. is engaged in the
 business of creating and licensing software in the field of
 computational chemistry and represents and warrants to the
 licensee that it is not a competitor of Gaussian, Inc. and that
 it will not use this program in any manner prohibited above.
 ---------------------------------------------------------------
  

 Cite this work as:
 Gaussian 09, Revision D.01,
 M. J. Frisch, G. W. Trucks, H. B. Schlegel, G. E. Scuseria, 
 M. A. Robb, J. R. Cheeseman, G. Scalmani, V. Barone, B. Mennucci, 
 G. A. Petersson, H. Nakatsuji, M. Caricato, X. Li, H. P. Hratchian, 
 A. F. Izmaylov, J. Bloino, G. Zheng, J. L. Sonnenberg, M. Hada, 
 M. Ehara, K. Toyota, R. Fukuda, J. Hasegawa, M. Ishida, T. Nakajima, 
 Y. Honda, O. Kitao, H. Nakai, T. Vreven, J. A. Montgomery, Jr., 
 J. E. Peralta, F. Ogliaro, M. Bearpark, J. J. Heyd, E. Brothers, 
 K. N. Kudin, V. N. Staroverov, T. Keith, R. Kobayashi, J. Normand, 
 K. Raghavachari, A. Rendell, J. C. Burant, S. S. Iyengar, J. Tomasi, 
 M. Cossi, N. Rega, J. M. Millam, M. Klene, J. E. Knox, J. B. Cross, 
 V. Bakken, C. Adamo, J. Jaramillo, R. Gomperts, R. E. Stratmann, 
 O. Yazyev, A. J. Austin, R. Cammi, C. Pomelli, J. W. Ochterski, 
 R. L. Martin, K. Morokuma, V. G. Zakrzewski, G. A. Voth, 
 P. Salvador, J. J. Dannenberg, S. Dapprich, A. D. Daniels, 
 O. Farkas, J. B. Foresman, J. V. Ortiz, J. Cioslowski, 
 and D. J. Fox, Gaussian, Inc., Wallingford CT, 2013.
 
 ******************************************
 Gaussian 09:  ES64L-G09RevD.01 24-Apr-2013
                29-Nov-2015 
 ******************************************
 ----------------------------
 #P AM1(Input,print) Opt Freq
 ----------------------------
 1/14=-1,18=20,19=15,26=1,38=1/1,3;
 2/9=110,12=2,17=6,18=5,40=1/2;
 3/5=2,16=1,25=1,41=700000,71=1,135=100,136=1/1,2,3;
 4/35=1/1;
 5/5=2,35=1,38=5/2;
 6/7=2,8=2,9=2,10=2,28=1/1;
 7//1,2,3,16;
 1/14=-1,18=20,19=15,26=1/3(2);
 2/9=110/2;
 99//99;
 2/9=110/2;
 3/5=2,16=1,25=1,41=700000,71=1,135=20,136=1/1,2,3;
 4/5=5,16=3,35=1/1;
 5/5=2,35=1,38=5/2;
 7//1,2,3,16;
 1/14=-1,18=20,19=15,26=1/3(-5);
 2/9=110/2;
 6/7=2,8=2,9=2,10=2,19=2,28=1/1;
 99/9=1/99;
 Leave Link    1 at Sun Nov 29 12:22:34 2015, MaxMem=           0 cpu:         0.0
 (Enter /home/Applications/g09/g09/l101.exe)
 -----------------
 AM1-Reparam Input
 -----------------
 Symbolic Z-matrix:
 Charge =  0 Multiplicity = 1
 6                     0.99548  -0.6874    0.03085 
 6                    -0.31576  -1.04649   0.00149 
 8                    -1.18571  -0.04954   0.03777 
 6                    -0.32332   1.05518  -0.0066 
 6                     0.92945   0.72726  -0.04336 
 1                     1.76351   1.32871  -0.00269 
 1                    -0.79155   2.05869   0.03052 
 1                    -0.87963  -2.02113   0.01245 
 1                     1.84731  -1.32721  -0.03542 
 
 NAtoms=      9 NQM=        9 NQMF=       0 NMMI=      0 NMMIF=      0
                NMic=       0 NMicF=      0.
                    Isotopes and Nuclear Properties:
 (Nuclear quadrupole moments (NQMom) in fm**2, nuclear magnetic moments (NMagM)
  in nuclear magnetons)

  Atom         1           2           3           4           5           6           7           8           9
 IAtWgt=          12          12          16          12          12           1           1           1           1
 AtmWgt=  12.0000000  12.0000000  15.9949146  12.0000000  12.0000000   1.0078250   1.0078250   1.0078250   1.0078250
 NucSpn=           0           0           0           0           0           1           1           1           1
 AtZEff=   0.0000000   0.0000000   0.0000000   0.0000000   0.0000000   0.0000000   0.0000000   0.0000000   0.0000000
 NQMom=    0.0000000   0.0000000   0.0000000   0.0000000   0.0000000   0.0000000   0.0000000   0.0000000   0.0000000
 NMagM=    0.0000000   0.0000000   0.0000000   0.0000000   0.0000000   2.7928460   2.7928460   2.7928460   2.7928460
 AtZNuc=   6.0000000   6.0000000   8.0000000   6.0000000   6.0000000   1.0000000   1.0000000   1.0000000   1.0000000
 Leave Link  101 at Sun Nov 29 12:22:34 2015, MaxMem=    33554432 cpu:         0.0
 (Enter /home/Applications/g09/g09/l103.exe)

 GradGradGradGradGradGradGradGradGradGradGradGradGradGradGradGradGradGrad
 Berny optimization.
 Initialization pass.
                           ----------------------------
                           !    Initial Parameters    !
                           ! (Angstroms and Degrees)  !
 --------------------------                            --------------------------
 ! Name  Definition              Value          Derivative Info.                !
 --------------------------------------------------------------------------------
 ! R1    R(1,2)                  1.3598         estimate D2E/DX2                !
 ! R2    R(1,5)                  1.4181         estimate D2E/DX2                !
 ! R3    R(1,9)                  1.0674         estimate D2E/DX2                !
 ! R4    R(2,3)                  1.3236         estimate D2E/DX2                !
 ! R5    R(2,8)                  1.1261         estimate D2E/DX2                !
 ! R6    R(3,4)                  1.4022         estimate D2E/DX2                !
 ! R7    R(4,5)                  1.2955         estimate D2E/DX2                !
 ! R8    R(4,7)                  1.108          estimate D2E/DX2                !
 ! R9    R(5,6)                  1.0291         estimate D2E/DX2                !
 ! A1    A(2,1,5)              102.5559         estimate D2E/DX2                !
 ! A2    A(2,1,9)              127.5813         estimate D2E/DX2                !
 ! A3    A(5,1,9)              129.1866         estimate D2E/DX2                !
 ! A4    A(1,2,3)              115.7386         estimate D2E/DX2                !
 ! A5    A(1,2,8)              135.3332         estimate D2E/DX2                !
 ! A6    A(3,2,8)              108.8158         estimate D2E/DX2                !
 ! A7    A(2,3,4)              100.8541         estimate D2E/DX2                !
 ! A8    A(3,4,5)              113.3424         estimate D2E/DX2                !
 ! A9    A(3,4,7)              116.9104         estimate D2E/DX2                !
 ! A10   A(5,4,7)              129.7067         estimate D2E/DX2                !
 ! A11   A(1,5,4)              107.2202         estimate D2E/DX2                !
 ! A12   A(1,5,6)              122.9016         estimate D2E/DX2                !
 ! A13   A(4,5,6)              129.3967         estimate D2E/DX2                !
 ! D1    D(5,1,2,3)             -5.6907         estimate D2E/DX2                !
 ! D2    D(5,1,2,8)            178.6958         estimate D2E/DX2                !
 ! D3    D(9,1,2,3)           -176.8917         estimate D2E/DX2                !
 ! D4    D(9,1,2,8)              7.4948         estimate D2E/DX2                !
 ! D5    D(2,1,5,4)              4.5739         estimate D2E/DX2                !
 ! D6    D(2,1,5,6)            177.2896         estimate D2E/DX2                !
 ! D7    D(9,1,5,4)            175.5758         estimate D2E/DX2                !
 ! D8    D(9,1,5,6)            -11.7085         estimate D2E/DX2                !
 ! D9    D(1,2,3,4)              4.2801         estimate D2E/DX2                !
 ! D10   D(8,2,3,4)           -178.9762         estimate D2E/DX2                !
 ! D11   D(2,3,4,5)             -0.9592         estimate D2E/DX2                !
 ! D12   D(2,3,4,7)           -178.8724         estimate D2E/DX2                !
 ! D13   D(3,4,5,1)             -2.3729         estimate D2E/DX2                !
 ! D14   D(3,4,5,6)           -174.4548         estimate D2E/DX2                !
 ! D15   D(7,4,5,1)            175.2081         estimate D2E/DX2                !
 ! D16   D(7,4,5,6)              3.1262         estimate D2E/DX2                !
 --------------------------------------------------------------------------------
 Trust Radius=3.00D-01 FncErr=1.00D-07 GrdErr=1.00D-07
 Number of steps in this run=     48 maximum allowed number of steps=    100.
 GradGradGradGradGradGradGradGradGradGradGradGradGradGradGradGradGradGrad

 Leave Link  103 at Sun Nov 29 12:22:34 2015, MaxMem=    33554432 cpu:         0.0
 (Enter /home/Applications/g09/g09/l202.exe)
                          Input orientation:                          
 ---------------------------------------------------------------------
 Center     Atomic      Atomic             Coordinates (Angstroms)
 Number     Number       Type             X           Y           Z
 ---------------------------------------------------------------------
      1          6           0        0.995484   -0.687397    0.030845
      2          6           0       -0.315757   -1.046490    0.001489
      3          8           0       -1.185709   -0.049544    0.037772
      4          6           0       -0.323318    1.055177   -0.006598
      5          6           0        0.929449    0.727258   -0.043360
      6          1           0        1.763507    1.328706   -0.002685
      7          1           0       -0.791546    2.058685    0.030520
      8          1           0       -0.879631   -2.021133    0.012448
      9          1           0        1.847314   -1.327212   -0.035415
 ---------------------------------------------------------------------
                    Distance matrix (angstroms):
                    1          2          3          4          5
     1  C    0.000000
     2  C    1.359839   0.000000
     3  O    2.272555   1.323644   0.000000
     4  C    2.185682   2.101696   1.402175   0.000000
     5  C    1.418138   2.167656   2.254750   1.295495   0.000000
     6  H    2.157697   3.156725   3.255624   2.104679   1.029100
     7  H    3.276346   3.141549   2.144772   1.107991   2.177149
     8  H    2.301140   1.126056   1.995367   3.126265   3.290826
     9  H    1.067412   2.181523   3.291963   3.223081   2.250197
                    6          7          8          9
     6  H    0.000000
     7  H    2.657493   0.000000
     8  H    4.267063   4.080809   0.000000
     9  H    2.657441   4.293277   2.814258   0.000000
 Stoichiometry    C4H4O
 Framework group  C1[X(C4H4O)]
 Deg. of freedom    21
 Full point group                 C1      NOp   1
 Largest Abelian subgroup         C1      NOp   1
 Largest concise Abelian subgroup C1      NOp   1
                         Standard orientation:                         
 ---------------------------------------------------------------------
 Center     Atomic      Atomic             Coordinates (Angstroms)
 Number     Number       Type             X           Y           Z
 ---------------------------------------------------------------------
      1          6           0       -0.481534    1.104178    0.034741
      2          6           0        0.821779    0.719949   -0.019164
      3          8           0        1.037964   -0.585537    0.012518
      4          6           0       -0.277148   -1.071517   -0.007470
      5          6           0       -1.170694   -0.133702   -0.027120
      6          1           0       -2.195466   -0.206580    0.032699
      7          1           0       -0.406008   -2.171295    0.031590
      8          1           0        1.814016    1.252317   -0.026533
      9          1           0       -0.870674    2.096402   -0.023824
 ---------------------------------------------------------------------
 Rotational constants (GHZ):     10.0227586      9.1366120      4.7826287
 Leave Link  202 at Sun Nov 29 12:22:34 2015, MaxMem=    33554432 cpu:         0.0
 (Enter /home/Applications/g09/g09/l301.exe)

 Semi-emprical parameters in input format:
 Method=8 CoreType=1 PeptideFC=0.0105570000 RIJScale=0.4899110000
 ****
 H       
 PQN=1 NValence=1 F0ss=0.4577290000 ZetaOverlap=1.0659780000 U=-0.3880320000
 Beta=-0.2381360000 CoreKO=1.1144350000 KON=0,0,0,1.0186160000 KON=1,0,1,1.0557690000
 KON=0,1,1,1.0725930000 KON=2,1,1,1.1590830000 EISol=-0.4188110042 EHeat=0.0830298228
 Alpha=1.5252600000
 GCore=0.0099350000,1.3986240000,2.1461900000
 GCore=0.0003630000,1.5415670000,2.7171030000
 GCore=-0.0012530000,0.5088300000,4.2039300000
 ****
 C       
 PQN=2,2 NValence=4 F0ss=0.4263360000 F0sp=0.4580860000 F0pp=0.3261620000 F2pp=0.2036090000
 G1sp=0.2073130000
 ZetaOverlap=2.1016200000,1.8587190000
 U=-1.9018080000,-1.4557970000
 Beta=-0.4792560000,-0.2700630000 DDN=0,1,0.8034860000 DDN=1,1,0.7591540000
 CoreKO=1.1325510000 KON=0,0,0,1.1996250000 KON=1,0,1,0.8437060000 KON=0,1,1,1.0478550000
 KON=2,1,1,0.8168110000 EISol=-4.4398989268 EHeat=0.2723305520 Alpha=1.4381970000
 DipHyp=1.6068795495
 GCore=0.0008260000,1.4798740000,2.8384620000
 GCore=0.0031480000,1.6675340000,3.8116200000
 GCore=-0.0011560000,1.5029710000,3.9059920000
 GCore=-0.0000920000,1.1754400000,4.8520980000
 ****
 O       
 PQN=2,2 NValence=6 F0ss=0.5413910000 F0sp=0.5145480000 F0pp=0.5091470000 F2pp=0.2175940000
 G1sp=0.4302620000
 ZetaOverlap=3.3296350000,2.5240390000
 U=-3.3343200000,-2.9854240000
 Beta=-0.9082740000,-1.1340310000 DDN=0,1,0.4988900000 DDN=1,1,0.5206270000
 CoreKO=0.9688900000 KON=0,0,0,0.8976510000 KON=1,0,1,0.5186760000 KON=0,1,1,0.8274210000
 KON=2,1,1,0.5315430000 EISol=-11.6164441184 EHeat=0.0949133088 Alpha=2.3722000000
 DipHyp=0.9977225968
 GCore=0.0212480000,1.1747580000,1.6499540000
 GCore=0.0064050000,2.1096700000,2.7148630000
 ****
 
 Standard basis: VSTO-6G (5D, 7F)
 Ernie: Thresh=  0.10000D-02 Tol=  0.10000D-05 Strict=F.
  NNHCO=     0 NNPyr=     0 NCTC=     0               EPep=         0.000000000
    EC=        68.378109651  ECS=         1.727259184   EG=         0.443583195
   EHC=         0.000000000  EAt=       -31.051283842  AtH=         1.516354808
 EPDDG=         0.000000000  ECC=        70.548952030 EAtT=        32.567638650
 There are    24 symmetry adapted cartesian basis functions of A   symmetry.
 There are    24 symmetry adapted basis functions of A   symmetry.
    24 basis functions,   144 primitive gaussians,    24 cartesian basis functions
    13 alpha electrons       13 beta electrons
       nuclear repulsion energy       103.1165906809 Hartrees.
 IExCor=    0 DFT=F Ex=HF Corr=None ExCW=0 ScaHFX=  1.000000
 ScaDFX=  1.000000  1.000000  1.000000  1.000000 ScalE2=  1.000000  1.000000
 IRadAn=      0 IRanWt=     -1 IRanGd=            0 ICorTp=0 IEmpDi=  4
 Integral buffers will be    131072 words long.
 Regular integral format.
 Two-electron integral symmetry is turned off.
 Leave Link  301 at Sun Nov 29 12:22:34 2015, MaxMem=    33554432 cpu:         0.0
 (Enter /home/Applications/g09/g09/l302.exe)
 Do NDO integrals.
 NPDir=0 NMtPBC=     1 NCelOv=     1 NCel=       1 NClECP=     1 NCelD=      1
         NCelK=      1 NCelE2=     1 NClLst=     1 CellRange=     0.0.
 One-electron integrals computed using PRISM.
 NBasis=    24 RedAO= F EigKep=  0.00D+00  NBF=    24
 NBsUse=    24 1.00D-04 EigRej=  0.00D+00 NBFU=    24
 Leave Link  302 at Sun Nov 29 12:22:34 2015, MaxMem=    33554432 cpu:         0.0
 (Enter /home/Applications/g09/g09/l303.exe)
 DipDrv:  MaxL=1.
 Leave Link  303 at Sun Nov 29 12:22:34 2015, MaxMem=    33554432 cpu:         0.0
 (Enter /home/Applications/g09/g09/l401.exe)
 Simple Huckel Guess.
 JPrj=0 DoOrth=F DoCkMO=F.
 Leave Link  401 at Sun Nov 29 12:22:34 2015, MaxMem=    33554432 cpu:         0.0
 (Enter /home/Applications/g09/g09/l502.exe)
 Closed shell SCF:
 Using DIIS extrapolation, IDIIS=  1040.
 Overlap will be assumed to be unity.
 Two-electron integral symmetry not used.
 Keep J ints in memory in canonical form, NReq=888082.
 IVT=       79475 IEndB=       79475 NGot=    33554432 MDV=    33473473
 LenX=    33473473 LenY=    33472456
 Requested convergence on RMS density matrix=1.00D-08 within 128 cycles.
 Requested convergence on MAX density matrix=1.00D-06.
 Requested convergence on             energy=1.00D-06.
 No special actions if energy rises.
 FoFCou: FMM=F IPFlag=           0 FMFlag=           0 FMFlg1=           0
         NFxFlg=           0 DoJE=F BraDBF=F KetDBF=F FulRan=T
         wScrn=  0.000000 ICntrl=     600 IOpCl=  2 I1Cent=           0 NGrid=           0
         NMat0=    1 NMatS0=     54 NMatT0=    0 NMatD0=    1 NMtDS0=    0 NMtDT0=    0
 Symmetry not used in FoFCou.

 Cycle   1  Pass 1  IDiag  1:
 E=  1.02475772373674    
 DIIS: error= 6.35D-02 at cycle   1 NSaved=   1.
 NSaved= 1 IEnMin= 1 EnMin=  1.02475772373674     IErMin= 1 ErrMin= 6.35D-02
 ErrMax= 6.35D-02  0.00D+00 EMaxC= 1.00D-01 BMatC= 7.67D-02 BMatP= 7.67D-02
 IDIUse=3 WtCom= 3.65D-01 WtEn= 6.35D-01
 Coeff-Com:  0.100D+01
 Coeff-En:   0.100D+01
 Coeff:      0.100D+01
 GapD=    2.000 DampG=2.000 DampE=0.500 DampFc=1.0000 IDamp=-1.
 RMSDP=1.91D-02 MaxDP=1.71D-01              OVMax= 0.00D+00

 Cycle   2  Pass 1  IDiag  1:
 E= 0.786141412168689     Delta-E=       -0.238616311568 Rises=F Damp=F
 DIIS: error= 1.85D-02 at cycle   2 NSaved=   2.
 NSaved= 2 IEnMin= 2 EnMin= 0.786141412168689     IErMin= 2 ErrMin= 1.85D-02
 ErrMax= 1.85D-02  0.00D+00 EMaxC= 1.00D-01 BMatC= 9.36D-03 BMatP= 7.67D-02
 IDIUse=3 WtCom= 8.15D-01 WtEn= 1.85D-01
 Coeff-Com: -0.452D+00 0.145D+01
 Coeff-En:   0.000D+00 0.100D+01
 Coeff:     -0.368D+00 0.137D+01
 RMSDP=9.34D-03 MaxDP=5.02D-02 DE=-2.39D-01 OVMax= 0.00D+00

 Cycle   3  Pass 1  IDiag  3:
 E= 0.750813430327085     Delta-E=       -0.035327981842 Rises=F Damp=F
 DIIS: error= 3.44D-03 at cycle   3 NSaved=   3.
 NSaved= 3 IEnMin= 3 EnMin= 0.750813430327085     IErMin= 3 ErrMin= 3.44D-03
 ErrMax= 3.44D-03  0.00D+00 EMaxC= 1.00D-01 BMatC= 4.95D-04 BMatP= 9.36D-03
 IDIUse=3 WtCom= 9.66D-01 WtEn= 3.44D-02
 Coeff-Com:  0.247D+00-0.906D+00 0.166D+01
 Coeff-En:   0.000D+00 0.000D+00 0.100D+01
 Coeff:      0.238D+00-0.875D+00 0.164D+01
 Gap=     0.369 Goal=   None    Shift=    0.000
 RMSDP=3.00D-03 MaxDP=1.43D-02 DE=-3.53D-02 OVMax= 1.52D-02

 Cycle   4  Pass 1  IDiag  3:
 E= 0.748103854597829     Delta-E=       -0.002709575729 Rises=F Damp=F
 DIIS: error= 1.14D-03 at cycle   4 NSaved=   4.
 NSaved= 4 IEnMin= 4 EnMin= 0.748103854597829     IErMin= 4 ErrMin= 1.14D-03
 ErrMax= 1.14D-03  0.00D+00 EMaxC= 1.00D-01 BMatC= 4.13D-05 BMatP= 4.95D-04
 IDIUse=3 WtCom= 9.89D-01 WtEn= 1.14D-02
 Coeff-Com: -0.145D-01 0.386D-01-0.223D+00 0.120D+01
 Coeff-En:   0.000D+00 0.000D+00 0.000D+00 0.100D+01
 Coeff:     -0.144D-01 0.382D-01-0.221D+00 0.120D+01
 Gap=     0.371 Goal=   None    Shift=    0.000
 RMSDP=9.30D-04 MaxDP=7.08D-03 DE=-2.71D-03 OVMax= 1.01D-02

 Cycle   5  Pass 1  IDiag  3:
 E= 0.747819329346370     Delta-E=       -0.000284525251 Rises=F Damp=F
 DIIS: error= 6.57D-04 at cycle   5 NSaved=   5.
 NSaved= 5 IEnMin= 5 EnMin= 0.747819329346370     IErMin= 5 ErrMin= 6.57D-04
 ErrMax= 6.57D-04  0.00D+00 EMaxC= 1.00D-01 BMatC= 1.42D-05 BMatP= 4.13D-05
 IDIUse=3 WtCom= 9.93D-01 WtEn= 6.57D-03
 Coeff-Com: -0.298D-01 0.124D+00-0.155D+00-0.743D+00 0.180D+01
 Coeff-En:   0.000D+00 0.000D+00 0.000D+00 0.000D+00 0.100D+01
 Coeff:     -0.296D-01 0.123D+00-0.154D+00-0.738D+00 0.180D+01
 Gap=     0.371 Goal=   None    Shift=    0.000
 RMSDP=8.25D-04 MaxDP=6.51D-03 DE=-2.85D-04 OVMax= 9.64D-03

 Cycle   6  Pass 1  IDiag  3:
 E= 0.747676872821629     Delta-E=       -0.000142456525 Rises=F Damp=F
 DIIS: error= 3.18D-04 at cycle   6 NSaved=   6.
 NSaved= 6 IEnMin= 6 EnMin= 0.747676872821629     IErMin= 6 ErrMin= 3.18D-04
 ErrMax= 3.18D-04  0.00D+00 EMaxC= 1.00D-01 BMatC= 3.58D-06 BMatP= 1.42D-05
 IDIUse=3 WtCom= 9.97D-01 WtEn= 3.18D-03
 Coeff-Com:  0.159D-01-0.667D-01 0.893D-01 0.482D+00-0.163D+01 0.211D+01
 Coeff-En:   0.000D+00 0.000D+00 0.000D+00 0.000D+00 0.000D+00 0.100D+01
 Coeff:      0.158D-01-0.665D-01 0.890D-01 0.480D+00-0.162D+01 0.210D+01
 Gap=     0.371 Goal=   None    Shift=    0.000
 RMSDP=5.74D-04 MaxDP=4.94D-03 DE=-1.42D-04 OVMax= 6.67D-03

 Cycle   7  Pass 1  IDiag  3:
 E= 0.747633372660772     Delta-E=       -0.000043500161 Rises=F Damp=F
 DIIS: error= 1.56D-04 at cycle   7 NSaved=   7.
 NSaved= 7 IEnMin= 7 EnMin= 0.747633372660772     IErMin= 7 ErrMin= 1.56D-04
 ErrMax= 1.56D-04  0.00D+00 EMaxC= 1.00D-01 BMatC= 4.79D-07 BMatP= 3.58D-06
 IDIUse=3 WtCom= 9.98D-01 WtEn= 1.56D-03
 Coeff-Com: -0.167D-02 0.603D-02-0.930D-02-0.122D+00 0.565D+00-0.123D+01
 Coeff-Com:  0.179D+01
 Coeff-En:   0.000D+00 0.000D+00 0.000D+00 0.000D+00 0.000D+00 0.000D+00
 Coeff-En:   0.100D+01
 Coeff:     -0.167D-02 0.603D-02-0.929D-02-0.122D+00 0.564D+00-0.123D+01
 Coeff:      0.179D+01
 Gap=     0.371 Goal=   None    Shift=    0.000
 RMSDP=2.23D-04 MaxDP=2.31D-03 DE=-4.35D-05 OVMax= 2.38D-03

 Cycle   8  Pass 1  IDiag  3:
 E= 0.747627761527852     Delta-E=       -0.000005611133 Rises=F Damp=F
 DIIS: error= 5.64D-05 at cycle   8 NSaved=   8.
 NSaved= 8 IEnMin= 8 EnMin= 0.747627761527852     IErMin= 8 ErrMin= 5.64D-05
 ErrMax= 5.64D-05  0.00D+00 EMaxC= 1.00D-01 BMatC= 7.66D-08 BMatP= 4.79D-07
 IDIUse=1 WtCom= 1.00D+00 WtEn= 0.00D+00
 Coeff-Com: -0.483D-04 0.504D-03-0.220D-02 0.676D-01-0.274D+00 0.624D+00
 Coeff-Com: -0.111D+01 0.170D+01
 Coeff:     -0.483D-04 0.504D-03-0.220D-02 0.676D-01-0.274D+00 0.624D+00
 Coeff:     -0.111D+01 0.170D+01
 Gap=     0.371 Goal=   None    Shift=    0.000
 RMSDP=6.16D-05 MaxDP=6.52D-04 DE=-5.61D-06 OVMax= 6.40D-04

 Cycle   9  Pass 1  IDiag  3:
 E= 0.747626880470492     Delta-E=       -0.000000881057 Rises=F Damp=F
 DIIS: error= 4.41D-05 at cycle   9 NSaved=   9.
 NSaved= 9 IEnMin= 9 EnMin= 0.747626880470492     IErMin= 9 ErrMin= 4.41D-05
 ErrMax= 4.41D-05  0.00D+00 EMaxC= 1.00D-01 BMatC= 4.29D-08 BMatP= 7.66D-08
 IDIUse=1 WtCom= 1.00D+00 WtEn= 0.00D+00
 Coeff-Com:  0.572D-04-0.102D-02 0.580D-02-0.166D+00 0.655D+00-0.148D+01
 Coeff-Com:  0.267D+01-0.468D+01 0.399D+01
 Coeff:      0.572D-04-0.102D-02 0.580D-02-0.166D+00 0.655D+00-0.148D+01
 Coeff:      0.267D+01-0.468D+01 0.399D+01
 Gap=     0.371 Goal=   None    Shift=    0.000
 RMSDP=1.04D-04 MaxDP=9.69D-04 DE=-8.81D-07 OVMax= 1.10D-03

 Cycle  10  Pass 1  IDiag  3:
 E= 0.747625795849146     Delta-E=       -0.000001084621 Rises=F Damp=F
 DIIS: error= 2.75D-05 at cycle  10 NSaved=  10.
 NSaved=10 IEnMin=10 EnMin= 0.747625795849146     IErMin=10 ErrMin= 2.75D-05
 ErrMax= 2.75D-05  0.00D+00 EMaxC= 1.00D-01 BMatC= 1.55D-08 BMatP= 4.29D-08
 IDIUse=1 WtCom= 1.00D+00 WtEn= 0.00D+00
 Coeff-Com: -0.329D-03 0.201D-02-0.723D-02 0.152D+00-0.594D+00 0.134D+01
 Coeff-Com: -0.245D+01 0.444D+01-0.493D+01 0.304D+01
 Coeff:     -0.329D-03 0.201D-02-0.723D-02 0.152D+00-0.594D+00 0.134D+01
 Coeff:     -0.245D+01 0.444D+01-0.493D+01 0.304D+01
 Gap=     0.371 Goal=   None    Shift=    0.000
 RMSDP=1.24D-04 MaxDP=1.20D-03 DE=-1.08D-06 OVMax= 1.27D-03

 Cycle  11  Pass 1  IDiag  3:
 E= 0.747625259097745     Delta-E=       -0.000000536751 Rises=F Damp=F
 DIIS: error= 4.41D-06 at cycle  11 NSaved=  11.
 NSaved=11 IEnMin=11 EnMin= 0.747625259097745     IErMin=11 ErrMin= 4.41D-06
 ErrMax= 4.41D-06  0.00D+00 EMaxC= 1.00D-01 BMatC= 8.87D-10 BMatP= 1.55D-08
 IDIUse=1 WtCom= 1.00D+00 WtEn= 0.00D+00
 Coeff-Com:  0.243D-04-0.336D-03 0.225D-02-0.594D-01 0.229D+00-0.507D+00
 Coeff-Com:  0.915D+00-0.165D+01 0.191D+01-0.139D+01 0.154D+01
 Coeff:      0.243D-04-0.336D-03 0.225D-02-0.594D-01 0.229D+00-0.507D+00
 Coeff:      0.915D+00-0.165D+01 0.191D+01-0.139D+01 0.154D+01
 Gap=     0.371 Goal=   None    Shift=    0.000
 RMSDP=1.41D-05 MaxDP=1.39D-04 DE=-5.37D-07 OVMax= 1.26D-04

 Cycle  12  Pass 1  IDiag  3:
 E= 0.747625248201530     Delta-E=       -0.000000010896 Rises=F Damp=F
 DIIS: error= 1.72D-06 at cycle  12 NSaved=  12.
 NSaved=12 IEnMin=12 EnMin= 0.747625248201530     IErMin=12 ErrMin= 1.72D-06
 ErrMax= 1.72D-06  0.00D+00 EMaxC= 1.00D-01 BMatC= 1.02D-10 BMatP= 8.87D-10
 IDIUse=1 WtCom= 1.00D+00 WtEn= 0.00D+00
 Coeff-Com: -0.592D-05 0.127D-03-0.870D-03 0.244D-01-0.949D-01 0.211D+00
 Coeff-Com: -0.379D+00 0.679D+00-0.792D+00 0.586D+00-0.854D+00 0.162D+01
 Coeff:     -0.592D-05 0.127D-03-0.870D-03 0.244D-01-0.949D-01 0.211D+00
 Coeff:     -0.379D+00 0.679D+00-0.792D+00 0.586D+00-0.854D+00 0.162D+01
 Gap=     0.371 Goal=   None    Shift=    0.000
 RMSDP=3.13D-06 MaxDP=2.76D-05 DE=-1.09D-08 OVMax= 2.51D-05

 Cycle  13  Pass 1  IDiag  3:
 E= 0.747625247344047     Delta-E=       -0.000000000857 Rises=F Damp=F
 DIIS: error= 5.40D-07 at cycle  13 NSaved=  13.
 NSaved=13 IEnMin=13 EnMin= 0.747625247344047     IErMin=13 ErrMin= 5.40D-07
 ErrMax= 5.40D-07  0.00D+00 EMaxC= 1.00D-01 BMatC= 6.02D-12 BMatP= 1.02D-10
 IDIUse=1 WtCom= 1.00D+00 WtEn= 0.00D+00
 Coeff-Com:  0.113D-04-0.986D-04 0.534D-03-0.136D-01 0.526D-01-0.116D+00
 Coeff-Com:  0.209D+00-0.375D+00 0.440D+00-0.326D+00 0.477D+00-0.104D+01
 Coeff-Com:  0.169D+01
 Coeff:      0.113D-04-0.986D-04 0.534D-03-0.136D-01 0.526D-01-0.116D+00
 Coeff:      0.209D+00-0.375D+00 0.440D+00-0.326D+00 0.477D+00-0.104D+01
 Coeff:      0.169D+01
 Gap=     0.371 Goal=   None    Shift=    0.000
 RMSDP=5.75D-07 MaxDP=4.96D-06 DE=-8.57D-10 OVMax= 6.29D-06

 Cycle  14  Pass 1  IDiag  3:
 E= 0.747625247291424     Delta-E=       -0.000000000053 Rises=F Damp=F
 DIIS: error= 1.32D-07 at cycle  14 NSaved=  14.
 NSaved=14 IEnMin=14 EnMin= 0.747625247291424     IErMin=14 ErrMin= 1.32D-07
 ErrMax= 1.32D-07  0.00D+00 EMaxC= 1.00D-01 BMatC= 3.23D-13 BMatP= 6.02D-12
 IDIUse=1 WtCom= 1.00D+00 WtEn= 0.00D+00
 Coeff-Com: -0.398D-05 0.373D-04-0.206D-03 0.538D-02-0.208D-01 0.460D-01
 Coeff-Com: -0.826D-01 0.148D+00-0.174D+00 0.130D+00-0.194D+00 0.437D+00
 Coeff-Com: -0.856D+00 0.156D+01
 Coeff:     -0.398D-05 0.373D-04-0.206D-03 0.538D-02-0.208D-01 0.460D-01
 Coeff:     -0.826D-01 0.148D+00-0.174D+00 0.130D+00-0.194D+00 0.437D+00
 Coeff:     -0.856D+00 0.156D+01
 Gap=     0.371 Goal=   None    Shift=    0.000
 RMSDP=1.35D-07 MaxDP=1.25D-06 DE=-5.26D-11 OVMax= 1.46D-06

 Cycle  15  Pass 1  IDiag  3:
 E= 0.747625247288596     Delta-E=       -0.000000000003 Rises=F Damp=F
 DIIS: error= 2.55D-08 at cycle  15 NSaved=  15.
 NSaved=15 IEnMin=15 EnMin= 0.747625247288596     IErMin=15 ErrMin= 2.55D-08
 ErrMax= 2.55D-08  0.00D+00 EMaxC= 1.00D-01 BMatC= 1.79D-14 BMatP= 3.23D-13
 IDIUse=1 WtCom= 1.00D+00 WtEn= 0.00D+00
 Coeff-Com:  0.973D-06-0.874D-05 0.471D-04-0.124D-02 0.480D-02-0.106D-01
 Coeff-Com:  0.189D-01-0.339D-01 0.404D-01-0.309D-01 0.476D-01-0.110D+00
 Coeff-Com:  0.231D+00-0.603D+00 0.145D+01
 Coeff:      0.973D-06-0.874D-05 0.471D-04-0.124D-02 0.480D-02-0.106D-01
 Coeff:      0.189D-01-0.339D-01 0.404D-01-0.309D-01 0.476D-01-0.110D+00
 Coeff:      0.231D+00-0.603D+00 0.145D+01
 Gap=     0.371 Goal=   None    Shift=    0.000
 RMSDP=2.98D-08 MaxDP=2.62D-07 DE=-2.83D-12 OVMax= 3.37D-07

 Cycle  16  Pass 1  IDiag  3:
 E= 0.747625247288397     Delta-E=        0.000000000000 Rises=F Damp=F
 DIIS: error= 4.07D-09 at cycle  16 NSaved=  16.
 NSaved=16 IEnMin=16 EnMin= 0.747625247288397     IErMin=16 ErrMin= 4.07D-09
 ErrMax= 4.07D-09  0.00D+00 EMaxC= 1.00D-01 BMatC= 9.94D-16 BMatP= 1.79D-14
 IDIUse=1 WtCom= 1.00D+00 WtEn= 0.00D+00
 Large coefficients: NSaved= 16 BigCof=    0.00 CofMax=   10.00 Det=-1.56D-15
 Inversion failed.  Reducing to 15 matrices.
 Coeff-Com:  0.244D-06-0.198D-05 0.736D-04-0.283D-03 0.606D-03-0.105D-02
 Coeff-Com:  0.184D-02-0.234D-02 0.200D-02-0.342D-02 0.875D-02-0.216D-01
 Coeff-Com:  0.106D+00-0.511D+00 0.142D+01
 Coeff:      0.244D-06-0.198D-05 0.736D-04-0.283D-03 0.606D-03-0.105D-02
 Coeff:      0.184D-02-0.234D-02 0.200D-02-0.342D-02 0.875D-02-0.216D-01
 Coeff:      0.106D+00-0.511D+00 0.142D+01
 Gap=     0.371 Goal=   None    Shift=    0.000
 RMSDP=5.61D-09 MaxDP=3.50D-08 DE=-1.99D-13 OVMax= 5.14D-08

 Cycle  17  Pass 2  IDiag  1:
 SCF Done:  E(RAM1) =  0.747625247288     A.U. after   17 cycles
            NFock= 16  Conv=0.56D-08     -V/T= 1.0497
 KE=-1.505551663068D+01 PE=-1.723692793080D+02 EE= 8.505583050512D+01
 Leave Link  502 at Sun Nov 29 12:22:34 2015, MaxMem=    33554432 cpu:         0.0
 (Enter /home/Applications/g09/g09/l601.exe)
 Copying SCF densities to generalized density rwf, IOpCl= 0 IROHF=0.

 **********************************************************************

            Population analysis using the SCF density.

 **********************************************************************

 Orbital symmetries:
       Occupied  (A) (A) (A) (A) (A) (A) (A) (A) (A) (A) (A) (A)
                 (A)
       Virtual   (A) (A) (A) (A) (A) (A) (A) (A) (A) (A) (A)
 The electronic state is 1-A.
 Alpha  occ. eigenvalues --   -1.21791  -0.95529  -0.90727  -0.75849  -0.70073
 Alpha  occ. eigenvalues --   -0.66284  -0.62211  -0.53988  -0.51961  -0.49888
 Alpha  occ. eigenvalues --   -0.49198  -0.42147  -0.36012
 Alpha virt. eigenvalues --    0.01115   0.02295   0.11910   0.13528   0.14828
 Alpha virt. eigenvalues --    0.16673   0.18942   0.20981   0.21477   0.23286
 Alpha virt. eigenvalues --    0.24695
          Condensed to atoms (all electrons):
               1          2          3          4          5          6
     1  C    4.647058   0.000000   0.000000   0.000000   0.000000   0.000000
     2  C    0.000000   3.743515   0.000000   0.000000   0.000000   0.000000
     3  O    0.000000   0.000000   6.404663   0.000000   0.000000   0.000000
     4  C    0.000000   0.000000   0.000000   3.876247   0.000000   0.000000
     5  C    0.000000   0.000000   0.000000   0.000000   4.491263   0.000000
     6  H    0.000000   0.000000   0.000000   0.000000   0.000000   0.700640
     7  H    0.000000   0.000000   0.000000   0.000000   0.000000   0.000000
     8  H    0.000000   0.000000   0.000000   0.000000   0.000000   0.000000
     9  H    0.000000   0.000000   0.000000   0.000000   0.000000   0.000000
               7          8          9
     1  C    0.000000   0.000000   0.000000
     2  C    0.000000   0.000000   0.000000
     3  O    0.000000   0.000000   0.000000
     4  C    0.000000   0.000000   0.000000
     5  C    0.000000   0.000000   0.000000
     6  H    0.000000   0.000000   0.000000
     7  H    0.721307   0.000000   0.000000
     8  H    0.000000   0.726019   0.000000
     9  H    0.000000   0.000000   0.689288
 Mulliken charges:
               1
     1  C   -0.647058
     2  C    0.256485
     3  O   -0.404663
     4  C    0.123753
     5  C   -0.491263
     6  H    0.299360
     7  H    0.278693
     8  H    0.273981
     9  H    0.310712
 Sum of Mulliken charges =   0.00000
 Mulliken charges with hydrogens summed into heavy atoms:
               1
     1  C   -0.336346
     2  C    0.530466
     3  O   -0.404663
     4  C    0.402446
     5  C   -0.191903
 Charge=              0.0000 electrons
 Dipole moment (field-independent basis, Debye):
    X=              0.6268    Y=             -0.2546    Z=             -0.0757  Tot=              0.6807
 N-N= 1.031165906809D+02 E-N=-1.723692793062D+02  KE=-1.505551663068D+01
 Leave Link  601 at Sun Nov 29 12:22:34 2015, MaxMem=    33554432 cpu:         0.0
 (Enter /home/Applications/g09/g09/l701.exe)
 Compute integral first derivatives.
 ... and contract with generalized density number  0.
 Leave Link  701 at Sun Nov 29 12:22:35 2015, MaxMem=    33554432 cpu:         0.0
 (Enter /home/Applications/g09/g09/l702.exe)
 L702 exits ... SP integral derivatives will be done elsewhere.
 Leave Link  702 at Sun Nov 29 12:22:35 2015, MaxMem=    33554432 cpu:         0.0
 (Enter /home/Applications/g09/g09/l703.exe)
 Compute integral first derivatives, UseDBF=F ICtDFT=           0.
 Integral derivatives from FoFJK, PRISM(SPDF).
 Calling FoFJK, ICntrl=      2127 FMM=F ISym2X=0 I1Cent= 0 IOpClX= 0 NMat=1 NMatS=1 NMatT=0.
 FoFJK:  IHMeth= 8 ICntrl=    2127 DoSepK=F KAlg= 0 I1Cent=   0 FoldK=F
 IRaf=         0 NMat=   1 IRICut=       1 DoRegI=T DoRafI=F ISym2E= 0.
 FoFCou: FMM=F IPFlag=           0 FMFlag=      100000 FMFlg1=         800
         NFxFlg=           0 DoJE=F BraDBF=F KetDBF=F FulRan=T
         wScrn=  0.000000 ICntrl=    2127 IOpCl=  0 I1Cent=           0 NGrid=           0
         NMat0=    1 NMatS0=      1 NMatT0=    0 NMatD0=    1 NMtDS0=    0 NMtDT0=    0
 Symmetry not used in FoFCou.
 Leave Link  703 at Sun Nov 29 12:22:35 2015, MaxMem=    33554432 cpu:         0.0
 (Enter /home/Applications/g09/g09/l716.exe)
 Dipole        = 2.46586369D-01-1.00186730D-01-2.97922610D-02
 ***** Axes restored to original set *****
 -------------------------------------------------------------------
 Center     Atomic                   Forces (Hartrees/Bohr)
 Number     Number              X              Y              Z
 -------------------------------------------------------------------
      1        6          -0.017898746   -0.008037221   -0.016922126
      2        6          -0.014221134   -0.064870299    0.011688292
      3        8           0.017227009    0.038501327   -0.005773198
      4        6          -0.084296087    0.047249296    0.002485583
      5        6           0.039547965   -0.028005243    0.010259731
      6        1           0.035813874    0.024561319   -0.002161654
      7        1          -0.001629141   -0.008867371   -0.001519063
      8        1           0.014174951    0.002977273   -0.000927790
      9        1           0.011281309   -0.003509080    0.002870224
 -------------------------------------------------------------------
 Cartesian Forces:  Max     0.084296087 RMS     0.027995712
 Leave Link  716 at Sun Nov 29 12:22:35 2015, MaxMem=    33554432 cpu:         0.0
 (Enter /home/Applications/g09/g09/l103.exe)

 GradGradGradGradGradGradGradGradGradGradGradGradGradGradGradGradGradGrad
 Berny optimization.
 FormGI is forming the generalized inverse of G from B-inverse, IUseBI=4.
 Internal  Forces:  Max     0.070471535 RMS     0.017958024
 Search for a local minimum.
 Step number   1 out of a maximum of   48
 All quantities printed in internal units (Hartrees-Bohrs-Radians)
 RMS Force = .17958D-01 SwitMx=.10000D-02 MixMth= 1
 Mixed Optimization -- RFO/linear search
 Second derivative matrix not updated -- first step.
 ITU=  0
     Eigenvalues ---    0.02195   0.02313   0.02612   0.02644   0.02793
     Eigenvalues ---    0.03086   0.15631   0.15821   0.15974   0.15990
     Eigenvalues ---    0.21992   0.22818   0.30957   0.32814   0.37559
     Eigenvalues ---    0.40219   0.42917   0.43074   0.49511   0.57459
     Eigenvalues ---    0.65812
 RFO step:  Lambda=-2.92759343D-02 EMin= 2.19459803D-02
 Linear search not attempted -- first point.
 Iteration  1 RMS(Cart)=  0.05524368 RMS(Int)=  0.00257995
 Iteration  2 RMS(Cart)=  0.00190107 RMS(Int)=  0.00173864
 Iteration  3 RMS(Cart)=  0.00000565 RMS(Int)=  0.00173863
 Iteration  4 RMS(Cart)=  0.00000002 RMS(Int)=  0.00173863
 ITry= 1 IFail=0 DXMaxC= 1.48D-01 DCOld= 1.00D+10 DXMaxT= 3.00D-01 DXLimC= 3.00D+00 Rises=F
 Variable       Old X    -DE/DX   Delta X   Delta X   Delta X     New X
                                 (Linear)    (Quad)   (Total)
    R1        2.56972   0.00744   0.00000   0.00882   0.00883   2.57856
    R2        2.67989   0.02570   0.00000   0.05685   0.05648   2.73637
    R3        2.01712   0.01093   0.00000   0.02699   0.02699   2.04411
    R4        2.50133   0.03755   0.00000   0.05590   0.05624   2.55757
    R5        2.12794  -0.00968   0.00000  -0.02858  -0.02858   2.09936
    R6        2.64973  -0.00637   0.00000  -0.01009  -0.00988   2.63985
    R7        2.44813   0.07047   0.00000   0.10229   0.10211   2.55024
    R8        2.09380  -0.00739   0.00000  -0.02069  -0.02069   2.07311
    R9        1.94472   0.04330   0.00000   0.09444   0.09444   2.03916
    A1        1.78994   0.01483   0.00000   0.05678   0.05441   1.84435
    A2        2.22671  -0.00340   0.00000  -0.00115  -0.00179   2.22493
    A3        2.25473  -0.01065   0.00000  -0.04142  -0.04266   2.21207
    A4        2.02002  -0.01869   0.00000  -0.08536  -0.08630   1.93372
    A5        2.36201  -0.00196   0.00000  -0.01562  -0.01614   2.34587
    A6        1.89919   0.02087   0.00000   0.10491   0.10440   2.00359
    A7        1.76024   0.03013   0.00000   0.11028   0.11016   1.87040
    A8        1.97820  -0.02179   0.00000  -0.07050  -0.07103   1.90717
    A9        2.04047   0.00543   0.00000   0.00642   0.00674   2.04721
   A10        2.26381   0.01635   0.00000   0.06414   0.06445   2.32826
   A11        1.87135  -0.00387   0.00000  -0.00023  -0.00228   1.86906
   A12        2.14504   0.00135   0.00000  -0.00017  -0.00069   2.14435
   A13        2.25840   0.00302   0.00000   0.01002   0.00990   2.26830
    D1       -0.09932   0.00636   0.00000   0.10939   0.10696   0.00764
    D2        3.11883   0.00139   0.00000   0.02906   0.03068  -3.13368
    D3       -3.08734   0.00203   0.00000   0.02073   0.01551  -3.07183
    D4        0.13081  -0.00294   0.00000  -0.05961  -0.06078   0.07003
    D5        0.07983  -0.00440   0.00000  -0.08833  -0.09160  -0.01177
    D6        3.09429  -0.00048   0.00000  -0.01521  -0.01758   3.07671
    D7        3.06438   0.00099   0.00000   0.00758   0.00393   3.06831
    D8       -0.20435   0.00491   0.00000   0.08070   0.07795  -0.12640
    D9        0.07470  -0.00413   0.00000  -0.07610  -0.07549  -0.00079
   D10       -3.12372  -0.00096   0.00000  -0.01945  -0.01887   3.14059
   D11       -0.01674   0.00012   0.00000   0.00752   0.00970  -0.00704
   D12       -3.12191   0.00013   0.00000   0.00431   0.00409  -3.11782
   D13       -0.04142   0.00351   0.00000   0.05522   0.05299   0.01157
   D14       -3.04481  -0.00053   0.00000  -0.02318  -0.02699  -3.07180
   D15        3.05796   0.00305   0.00000   0.05682   0.05752   3.11548
   D16        0.05456  -0.00099   0.00000  -0.02158  -0.02246   0.03210
         Item               Value     Threshold  Converged?
 Maximum Force            0.070472     0.000450     NO 
 RMS     Force            0.017958     0.000300     NO 
 Maximum Displacement     0.148459     0.001800     NO 
 RMS     Displacement     0.054664     0.001200     NO 
 Predicted change in Energy=-1.634883D-02
 Lowest energy point so far.  Saving SCF results.
 GradGradGradGradGradGradGradGradGradGradGradGradGradGradGradGradGradGrad

 Leave Link  103 at Sun Nov 29 12:22:35 2015, MaxMem=    33554432 cpu:         0.0
 (Enter /home/Applications/g09/g09/l202.exe)
                          Input orientation:                          
 ---------------------------------------------------------------------
 Center     Atomic      Atomic             Coordinates (Angstroms)
 Number     Number       Type             X           Y           Z
 ---------------------------------------------------------------------
      1          6           0        0.968449   -0.708292   -0.003436
      2          6           0       -0.339256   -1.097150    0.020960
      3          8           0       -1.160535   -0.021419    0.017899
      4          6           0       -0.350004    1.116033   -0.008652
      5          6           0        0.945934    0.739531   -0.012617
      6          1           0        1.842068    1.339328    0.027244
      7          1           0       -0.851444    2.091621    0.008371
      8          1           0       -0.857972   -2.079314    0.042385
      9          1           0        1.842553   -1.342286   -0.067138
 ---------------------------------------------------------------------
                    Distance matrix (angstroms):
                    1          2          3          4          5
     1  C    0.000000
     2  C    1.364513   0.000000
     3  O    2.237146   1.353405   0.000000
     4  C    2.250890   2.213407   1.396948   0.000000
     5  C    1.448027   2.241927   2.239908   1.349527   0.000000
     6  H    2.226410   3.270266   3.296566   2.203708   1.079075
     7  H    3.339411   3.229669   2.135549   1.097044   2.249257
     8  H    2.284210   1.110933   2.080162   3.235874   3.347087
     9  H    1.081695   2.197304   3.281838   3.294549   2.267346
                    6          7          8          9
     6  H    0.000000
     7  H    2.796660   0.000000
     8  H    4.356324   4.171080   0.000000
     9  H    2.683274   4.365208   2.801436   0.000000
 Stoichiometry    C4H4O
 Framework group  C1[X(C4H4O)]
 Deg. of freedom    21
 Full point group                 C1      NOp   1
 RotChk:  IX=2 Diff= 1.26D+00
 Largest Abelian subgroup         C1      NOp   1
 Largest concise Abelian subgroup C1      NOp   1
                         Standard orientation:                         
 ---------------------------------------------------------------------
 Center     Atomic      Atomic             Coordinates (Angstroms)
 Number     Number       Type             X           Y           Z
 ---------------------------------------------------------------------
      1          6           0        0.621077    1.028161    0.001258
      2          6           0        1.127510   -0.238879    0.006942
      3          8           0        0.131006   -1.154646   -0.000620
      4          6           0       -1.075654   -0.450847   -0.010649
      5          6           0       -0.818714    0.873954   -0.000256
      6          1           0       -1.497316    1.711170    0.054253
      7          1           0       -2.001414   -1.039249    0.005375
      8          1           0        2.152933   -0.666183    0.016397
      9          1           0        1.172436    1.957097   -0.054841
 ---------------------------------------------------------------------
 Rotational constants (GHZ):      9.3336012      9.2053777      4.6352009
 Leave Link  202 at Sun Nov 29 12:22:35 2015, MaxMem=    33554432 cpu:         0.0
 (Enter /home/Applications/g09/g09/l301.exe)

 Semi-emprical parameters in input format:
 Method=8 CoreType=1 PeptideFC=0.0105570000 RIJScale=0.4899110000
 ****
 H       
 PQN=1 NValence=1 F0ss=0.4577290000 ZetaOverlap=1.0659780000 U=-0.3880320000
 Beta=-0.2381360000 CoreKO=1.1144350000 KON=0,0,0,1.0186160000 KON=1,0,1,1.0557690000
 KON=0,1,1,1.0725930000 KON=2,1,1,1.1590830000 EISol=-0.4188110042 EHeat=0.0830298228
 Alpha=1.5252600000
 GCore=0.0099350000,1.3986240000,2.1461900000
 GCore=0.0003630000,1.5415670000,2.7171030000
 GCore=-0.0012530000,0.5088300000,4.2039300000
 ****
 C       
 PQN=2,2 NValence=4 F0ss=0.4263360000 F0sp=0.4580860000 F0pp=0.3261620000 F2pp=0.2036090000
 G1sp=0.2073130000
 ZetaOverlap=2.1016200000,1.8587190000
 U=-1.9018080000,-1.4557970000
 Beta=-0.4792560000,-0.2700630000 DDN=0,1,0.8034860000 DDN=1,1,0.7591540000
 CoreKO=1.1325510000 KON=0,0,0,1.1996250000 KON=1,0,1,0.8437060000 KON=0,1,1,1.0478550000
 KON=2,1,1,0.8168110000 EISol=-4.4398989268 EHeat=0.2723305520 Alpha=1.4381970000
 DipHyp=1.6068795495
 GCore=0.0008260000,1.4798740000,2.8384620000
 GCore=0.0031480000,1.6675340000,3.8116200000
 GCore=-0.0011560000,1.5029710000,3.9059920000
 GCore=-0.0000920000,1.1754400000,4.8520980000
 ****
 O       
 PQN=2,2 NValence=6 F0ss=0.5413910000 F0sp=0.5145480000 F0pp=0.5091470000 F2pp=0.2175940000
 G1sp=0.4302620000
 ZetaOverlap=3.3296350000,2.5240390000
 U=-3.3343200000,-2.9854240000
 Beta=-0.9082740000,-1.1340310000 DDN=0,1,0.4988900000 DDN=1,1,0.5206270000
 CoreKO=0.9688900000 KON=0,0,0,0.8976510000 KON=1,0,1,0.5186760000 KON=0,1,1,0.8274210000
 KON=2,1,1,0.5315430000 EISol=-11.6164441184 EHeat=0.0949133088 Alpha=2.3722000000
 DipHyp=0.9977225968
 GCore=0.0212480000,1.1747580000,1.6499540000
 GCore=0.0064050000,2.1096700000,2.7148630000
 ****
 
 Standard basis: VSTO-6G (5D, 7F)
 Ernie: Thresh=  0.10000D-02 Tol=  0.10000D-05 Strict=F.
  NNHCO=     0 NNPyr=     0 NCTC=     0               EPep=         0.000000000
    EC=        67.672974990  ECS=         1.609421533   EG=         0.427329980
   EHC=         0.000000000  EAt=       -31.051283842  AtH=         1.516354808
 EPDDG=         0.000000000  ECC=        69.709726503 EAtT=        32.567638650
 There are    24 symmetry adapted cartesian basis functions of A   symmetry.
 There are    24 symmetry adapted basis functions of A   symmetry.
    24 basis functions,   144 primitive gaussians,    24 cartesian basis functions
    13 alpha electrons       13 beta electrons
       nuclear repulsion energy       102.2773651531 Hartrees.
 IExCor=    0 DFT=F Ex=HF Corr=None ExCW=0 ScaHFX=  1.000000
 ScaDFX=  1.000000  1.000000  1.000000  1.000000 ScalE2=  1.000000  1.000000
 IRadAn=      0 IRanWt=     -1 IRanGd=            0 ICorTp=0 IEmpDi=  4
 Integral buffers will be    131072 words long.
 Regular integral format.
 Two-electron integral symmetry is turned off.
 Leave Link  301 at Sun Nov 29 12:22:35 2015, MaxMem=    33554432 cpu:         0.0
 (Enter /home/Applications/g09/g09/l302.exe)
 Do NDO integrals.
 NPDir=0 NMtPBC=     1 NCelOv=     1 NCel=       1 NClECP=     1 NCelD=      1
         NCelK=      1 NCelE2=     1 NClLst=     1 CellRange=     0.0.
 One-electron integrals computed using PRISM.
 NBasis=    24 RedAO= F EigKep=  0.00D+00  NBF=    24
 NBsUse=    24 1.00D-04 EigRej=  0.00D+00 NBFU=    24
 Leave Link  302 at Sun Nov 29 12:22:35 2015, MaxMem=    33554432 cpu:         0.0
 (Enter /home/Applications/g09/g09/l303.exe)
 DipDrv:  MaxL=1.
 Leave Link  303 at Sun Nov 29 12:22:35 2015, MaxMem=    33554432 cpu:         0.0
 (Enter /home/Applications/g09/g09/l401.exe)
 Initial guess from the checkpoint file:  "/home/Applications/g09/scratch/Gau-20963.chk"
 B after Tr=     0.000000    0.000000    0.000000
         Rot=    0.893273    0.000069   -0.000007    0.449515 Ang=  53.43 deg.
 Guess basis will be translated and rotated to current coordinates.
 JPrj=0 DoOrth=T DoCkMO=T.
 Leave Link  401 at Sun Nov 29 12:22:35 2015, MaxMem=    33554432 cpu:         0.0
 (Enter /home/Applications/g09/g09/l502.exe)
 Closed shell SCF:
 Using DIIS extrapolation, IDIIS=  1040.
 Overlap will be assumed to be unity.
 Two-electron integral symmetry not used.
 Keep J ints in memory in canonical form, NReq=888082.
 IVT=       79475 IEndB=       79475 NGot=    33554432 MDV=    33473473
 LenX=    33473473 LenY=    33472456
 Requested convergence on RMS density matrix=1.00D-08 within 128 cycles.
 Requested convergence on MAX density matrix=1.00D-06.
 Requested convergence on             energy=1.00D-06.
 No special actions if energy rises.
 FoFCou: FMM=F IPFlag=           0 FMFlag=           0 FMFlg1=           0
         NFxFlg=           0 DoJE=F BraDBF=F KetDBF=F FulRan=T
         wScrn=  0.000000 ICntrl=     600 IOpCl=  2 I1Cent=           0 NGrid=           0
         NMat0=    1 NMatS0=     54 NMatT0=    0 NMatD0=    1 NMtDS0=    0 NMtDT0=    0
 Symmetry not used in FoFCou.

 Cycle   1  Pass 1  IDiag  1:
 E= 0.738863165508732    
 DIIS: error= 4.37D-03 at cycle   1 NSaved=   1.
 NSaved= 1 IEnMin= 1 EnMin= 0.738863165508732     IErMin= 1 ErrMin= 4.37D-03
 ErrMax= 4.37D-03  0.00D+00 EMaxC= 1.00D-01 BMatC= 1.60D-03 BMatP= 1.60D-03
 IDIUse=3 WtCom= 9.56D-01 WtEn= 4.37D-02
 Coeff-Com:  0.100D+01
 Coeff-En:   0.100D+01
 Coeff:      0.100D+01
 GapD=    2.000 DampG=2.000 DampE=1.000 DampFc=2.0000 IDamp=-1.
 RMSDP=2.91D-03 MaxDP=1.12D-02              OVMax= 0.00D+00

 Cycle   2  Pass 1  IDiag  3:
 E= 0.733547318273551     Delta-E=       -0.005315847235 Rises=F Damp=F
 DIIS: error= 1.83D-03 at cycle   2 NSaved=   2.
 NSaved= 2 IEnMin= 2 EnMin= 0.733547318273551     IErMin= 2 ErrMin= 1.83D-03
 ErrMax= 1.83D-03  0.00D+00 EMaxC= 1.00D-01 BMatC= 2.39D-04 BMatP= 1.60D-03
 IDIUse=3 WtCom= 9.82D-01 WtEn= 1.83D-02
 Coeff-Com: -0.547D+00 0.155D+01
 Coeff-En:   0.000D+00 0.100D+01
 Coeff:     -0.537D+00 0.154D+01
 Gap=     0.366 Goal=   None    Shift=    0.000
 RMSDP=1.95D-03 MaxDP=8.30D-03 DE=-5.32D-03 OVMax= 7.93D-03

 Cycle   3  Pass 1  IDiag  3:
 E= 0.732400087901340     Delta-E=       -0.001147230372 Rises=F Damp=F
 DIIS: error= 4.38D-04 at cycle   3 NSaved=   3.
 NSaved= 3 IEnMin= 3 EnMin= 0.732400087901340     IErMin= 3 ErrMin= 4.38D-04
 ErrMax= 4.38D-04  0.00D+00 EMaxC= 1.00D-01 BMatC= 9.76D-06 BMatP= 2.39D-04
 IDIUse=3 WtCom= 9.96D-01 WtEn= 4.38D-03
 Coeff-Com:  0.321D+00-0.100D+01 0.168D+01
 Coeff-En:   0.000D+00 0.000D+00 0.100D+01
 Coeff:      0.320D+00-0.997D+00 0.168D+01
 Gap=     0.366 Goal=   None    Shift=    0.000
 RMSDP=5.67D-04 MaxDP=2.96D-03 DE=-1.15D-03 OVMax= 3.15D-03

 Cycle   4  Pass 1  IDiag  3:
 E= 0.732332406560502     Delta-E=       -0.000067681341 Rises=F Damp=F
 DIIS: error= 1.57D-04 at cycle   4 NSaved=   4.
 NSaved= 4 IEnMin= 4 EnMin= 0.732332406560502     IErMin= 4 ErrMin= 1.57D-04
 ErrMax= 1.57D-04  0.00D+00 EMaxC= 1.00D-01 BMatC= 5.84D-07 BMatP= 9.76D-06
 IDIUse=3 WtCom= 9.98D-01 WtEn= 1.57D-03
 Coeff-Com: -0.120D+00 0.380D+00-0.749D+00 0.149D+01
 Coeff-En:   0.000D+00 0.000D+00 0.000D+00 0.100D+01
 Coeff:     -0.120D+00 0.380D+00-0.748D+00 0.149D+01
 Gap=     0.366 Goal=   None    Shift=    0.000
 RMSDP=1.41D-04 MaxDP=1.30D-03 DE=-6.77D-05 OVMax= 1.13D-03

 Cycle   5  Pass 1  IDiag  3:
 E= 0.732327331054506     Delta-E=       -0.000005075506 Rises=F Damp=F
 DIIS: error= 1.02D-04 at cycle   5 NSaved=   5.
 NSaved= 5 IEnMin= 5 EnMin= 0.732327331054506     IErMin= 5 ErrMin= 1.02D-04
 ErrMax= 1.02D-04  0.00D+00 EMaxC= 1.00D-01 BMatC= 2.03D-07 BMatP= 5.84D-07
 IDIUse=3 WtCom= 9.99D-01 WtEn= 1.02D-03
 Coeff-Com:  0.190D-01-0.608D-01 0.151D+00-0.702D+00 0.159D+01
 Coeff-En:   0.000D+00 0.000D+00 0.000D+00 0.000D+00 0.100D+01
 Coeff:      0.190D-01-0.607D-01 0.151D+00-0.701D+00 0.159D+01
 Gap=     0.366 Goal=   None    Shift=    0.000
 RMSDP=9.19D-05 MaxDP=9.92D-04 DE=-5.08D-06 OVMax= 8.59D-04

 Cycle   6  Pass 1  IDiag  3:
 E= 0.732325101678171     Delta-E=       -0.000002229376 Rises=F Damp=F
 DIIS: error= 7.43D-05 at cycle   6 NSaved=   6.
 NSaved= 6 IEnMin= 6 EnMin= 0.732325101678171     IErMin= 6 ErrMin= 7.43D-05
 ErrMax= 7.43D-05  0.00D+00 EMaxC= 1.00D-01 BMatC= 1.14D-07 BMatP= 2.03D-07
 IDIUse=1 WtCom= 1.00D+00 WtEn= 0.00D+00
 Coeff-Com:  0.137D-01-0.412D-01 0.233D-01 0.666D+00-0.280D+01 0.314D+01
 Coeff:      0.137D-01-0.412D-01 0.233D-01 0.666D+00-0.280D+01 0.314D+01
 Gap=     0.366 Goal=   None    Shift=    0.000
 RMSDP=1.48D-04 MaxDP=1.60D-03 DE=-2.23D-06 OVMax= 1.43D-03

 Cycle   7  Pass 1  IDiag  3:
 E= 0.732322631895329     Delta-E=       -0.000002469783 Rises=F Damp=F
 DIIS: error= 4.11D-05 at cycle   7 NSaved=   7.
 NSaved= 7 IEnMin= 7 EnMin= 0.732322631895329     IErMin= 7 ErrMin= 4.11D-05
 ErrMax= 4.11D-05  0.00D+00 EMaxC= 1.00D-01 BMatC= 4.17D-08 BMatP= 1.14D-07
 IDIUse=1 WtCom= 1.00D+00 WtEn= 0.00D+00
 Coeff-Com: -0.185D-01 0.573D-01-0.522D-01-0.738D+00 0.356D+01-0.491D+01
 Coeff-Com:  0.310D+01
 Coeff:     -0.185D-01 0.573D-01-0.522D-01-0.738D+00 0.356D+01-0.491D+01
 Coeff:      0.310D+01
 Gap=     0.366 Goal=   None    Shift=    0.000
 RMSDP=1.46D-04 MaxDP=1.49D-03 DE=-2.47D-06 OVMax= 1.45D-03

 Cycle   8  Pass 1  IDiag  3:
 E= 0.732321397648050     Delta-E=       -0.000001234247 Rises=F Damp=F
 DIIS: error= 2.21D-05 at cycle   8 NSaved=   8.
 NSaved= 8 IEnMin= 8 EnMin= 0.732321397648050     IErMin= 8 ErrMin= 2.21D-05
 ErrMax= 2.21D-05  0.00D+00 EMaxC= 1.00D-01 BMatC= 9.96D-09 BMatP= 4.17D-08
 IDIUse=1 WtCom= 1.00D+00 WtEn= 0.00D+00
 Coeff-Com:  0.318D-01-0.992D-01 0.133D+00 0.573D+00-0.332D+01 0.488D+01
 Coeff-Com: -0.359D+01 0.240D+01
 Coeff:      0.318D-01-0.992D-01 0.133D+00 0.573D+00-0.332D+01 0.488D+01
 Coeff:     -0.359D+01 0.240D+01
 Gap=     0.366 Goal=   None    Shift=    0.000
 RMSDP=5.43D-05 MaxDP=5.43D-04 DE=-1.23D-06 OVMax= 5.25D-04

 Cycle   9  Pass 1  IDiag  3:
 E= 0.732321187554220     Delta-E=       -0.000000210094 Rises=F Damp=F
 DIIS: error= 1.04D-05 at cycle   9 NSaved=   9.
 NSaved= 9 IEnMin= 9 EnMin= 0.732321187554220     IErMin= 9 ErrMin= 1.04D-05
 ErrMax= 1.04D-05  0.00D+00 EMaxC= 1.00D-01 BMatC= 2.46D-09 BMatP= 9.96D-09
 IDIUse=1 WtCom= 1.00D+00 WtEn= 0.00D+00
 Coeff-Com: -0.183D-01 0.570D-01-0.685D-01-0.477D+00 0.251D+01-0.363D+01
 Coeff-Com:  0.271D+01-0.236D+01 0.228D+01
 Coeff:     -0.183D-01 0.570D-01-0.685D-01-0.477D+00 0.251D+01-0.363D+01
 Coeff:      0.271D+01-0.236D+01 0.228D+01
 Gap=     0.366 Goal=   None    Shift=    0.000
 RMSDP=3.04D-05 MaxDP=3.25D-04 DE=-2.10D-07 OVMax= 2.88D-04

 Cycle  10  Pass 1  IDiag  3:
 E= 0.732321138736438     Delta-E=       -0.000000048818 Rises=F Damp=F
 DIIS: error= 2.52D-06 at cycle  10 NSaved=  10.
 NSaved=10 IEnMin=10 EnMin= 0.732321138736438     IErMin=10 ErrMin= 2.52D-06
 ErrMax= 2.52D-06  0.00D+00 EMaxC= 1.00D-01 BMatC= 2.48D-10 BMatP= 2.46D-09
 IDIUse=1 WtCom= 1.00D+00 WtEn= 0.00D+00
 Coeff-Com:  0.112D-01-0.347D-01 0.437D-01 0.254D+00-0.138D+01 0.201D+01
 Coeff-Com: -0.149D+01 0.132D+01-0.158D+01 0.185D+01
 Coeff:      0.112D-01-0.347D-01 0.437D-01 0.254D+00-0.138D+01 0.201D+01
 Coeff:     -0.149D+01 0.132D+01-0.158D+01 0.185D+01
 Gap=     0.366 Goal=   None    Shift=    0.000
 RMSDP=7.16D-06 MaxDP=7.79D-05 DE=-4.88D-08 OVMax= 5.90D-05

 Cycle  11  Pass 1  IDiag  3:
 E= 0.732321135432784     Delta-E=       -0.000000003304 Rises=F Damp=F
 DIIS: error= 4.37D-07 at cycle  11 NSaved=  11.
 NSaved=11 IEnMin=11 EnMin= 0.732321135432784     IErMin=11 ErrMin= 4.37D-07
 ErrMax= 4.37D-07  0.00D+00 EMaxC= 1.00D-01 BMatC= 1.02D-11 BMatP= 2.48D-10
 IDIUse=1 WtCom= 1.00D+00 WtEn= 0.00D+00
 Coeff-Com: -0.282D-02 0.875D-02-0.108D-01-0.667D-01 0.358D+00-0.519D+00
 Coeff-Com:  0.379D+00-0.326D+00 0.417D+00-0.649D+00 0.141D+01
 Coeff:     -0.282D-02 0.875D-02-0.108D-01-0.667D-01 0.358D+00-0.519D+00
 Coeff:      0.379D+00-0.326D+00 0.417D+00-0.649D+00 0.141D+01
 Gap=     0.366 Goal=   None    Shift=    0.000
 RMSDP=7.69D-07 MaxDP=7.32D-06 DE=-3.30D-09 OVMax= 6.59D-06

 Cycle  12  Pass 1  IDiag  3:
 E= 0.732321135351597     Delta-E=       -0.000000000081 Rises=F Damp=F
 DIIS: error= 1.03D-07 at cycle  12 NSaved=  12.
 NSaved=12 IEnMin=12 EnMin= 0.732321135351597     IErMin=12 ErrMin= 1.03D-07
 ErrMax= 1.03D-07  0.00D+00 EMaxC= 1.00D-01 BMatC= 7.42D-13 BMatP= 1.02D-11
 IDIUse=1 WtCom= 1.00D+00 WtEn= 0.00D+00
 Coeff-Com:  0.208D-03-0.637D-03 0.659D-03 0.642D-02-0.317D-01 0.447D-01
 Coeff-Com: -0.302D-01 0.222D-01-0.390D-01 0.106D+00-0.530D+00 0.145D+01
 Coeff:      0.208D-03-0.637D-03 0.659D-03 0.642D-02-0.317D-01 0.447D-01
 Coeff:     -0.302D-01 0.222D-01-0.390D-01 0.106D+00-0.530D+00 0.145D+01
 Gap=     0.366 Goal=   None    Shift=    0.000
 RMSDP=2.16D-07 MaxDP=2.14D-06 DE=-8.12D-11 OVMax= 1.87D-06

 Cycle  13  Pass 1  IDiag  3:
 E= 0.732321135345373     Delta-E=       -0.000000000006 Rises=F Damp=F
 DIIS: error= 2.46D-08 at cycle  13 NSaved=  13.
 NSaved=13 IEnMin=13 EnMin= 0.732321135345373     IErMin=13 ErrMin= 2.46D-08
 ErrMax= 2.46D-08  0.00D+00 EMaxC= 1.00D-01 BMatC= 4.53D-14 BMatP= 7.42D-13
 IDIUse=1 WtCom= 1.00D+00 WtEn= 0.00D+00
 Coeff-Com: -0.192D-04 0.555D-04-0.184D-04-0.924D-03 0.394D-02-0.513D-02
 Coeff-Com:  0.241D-02 0.204D-03 0.527D-02-0.311D-01 0.225D+00-0.802D+00
 Coeff-Com:  0.160D+01
 Coeff:     -0.192D-04 0.555D-04-0.184D-04-0.924D-03 0.394D-02-0.513D-02
 Coeff:      0.241D-02 0.204D-03 0.527D-02-0.311D-01 0.225D+00-0.802D+00
 Coeff:      0.160D+01
 Gap=     0.366 Goal=   None    Shift=    0.000
 RMSDP=4.29D-08 MaxDP=2.65D-07 DE=-6.22D-12 OVMax= 3.56D-07

 Cycle  14  Pass 1  IDiag  3:
 E= 0.732321135345245     Delta-E=        0.000000000000 Rises=F Damp=F
 DIIS: error= 7.44D-09 at cycle  14 NSaved=  14.
 NSaved=14 IEnMin=14 EnMin= 0.732321135345245     IErMin=14 ErrMin= 7.44D-09
 ErrMax= 7.44D-09  0.00D+00 EMaxC= 1.00D-01 BMatC= 2.11D-15 BMatP= 4.53D-14
 IDIUse=1 WtCom= 1.00D+00 WtEn= 0.00D+00
 Coeff-Com:  0.230D-05-0.535D-05-0.167D-04 0.280D-03-0.102D-02 0.120D-02
 Coeff-Com: -0.264D-03-0.887D-03-0.120D-02 0.115D-01-0.937D-01 0.351D+00
 Coeff-Com: -0.838D+00 0.157D+01
 Coeff:      0.230D-05-0.535D-05-0.167D-04 0.280D-03-0.102D-02 0.120D-02
 Coeff:     -0.264D-03-0.887D-03-0.120D-02 0.115D-01-0.937D-01 0.351D+00
 Coeff:     -0.838D+00 0.157D+01
 Gap=     0.366 Goal=   None    Shift=    0.000
 RMSDP=1.13D-08 MaxDP=8.63D-08 DE=-1.28D-13 OVMax= 9.78D-08

 Cycle  15  Pass 1  IDiag  3:
 E= 0.732321135344989     Delta-E=        0.000000000000 Rises=F Damp=F
 DIIS: error= 2.17D-09 at cycle  15 NSaved=  15.
 NSaved=15 IEnMin=15 EnMin= 0.732321135344989     IErMin=15 ErrMin= 2.17D-09
 ErrMax= 2.17D-09  0.00D+00 EMaxC= 1.00D-01 BMatC= 1.21D-16 BMatP= 2.11D-15
 IDIUse=1 WtCom= 1.00D+00 WtEn= 0.00D+00
 Coeff-Com:  0.344D-06-0.202D-05 0.148D-04-0.111D-03 0.342D-03-0.348D-03
 Coeff-Com: -0.714D-04 0.655D-03 0.393D-03-0.567D-02 0.484D-01-0.184D+00
 Coeff-Com:  0.455D+00-0.101D+01 0.169D+01
 Coeff:      0.344D-06-0.202D-05 0.148D-04-0.111D-03 0.342D-03-0.348D-03
 Coeff:     -0.714D-04 0.655D-03 0.393D-03-0.567D-02 0.484D-01-0.184D+00
 Coeff:      0.455D+00-0.101D+01 0.169D+01
 Gap=     0.366 Goal=   None    Shift=    0.000
 RMSDP=2.63D-09 MaxDP=2.07D-08 DE=-2.56D-13 OVMax= 2.59D-08

 Cycle  16  Pass 2  IDiag  1:
 SCF Done:  E(RAM1) =  0.732321135345     A.U. after   16 cycles
            NFock= 15  Conv=0.26D-08     -V/T= 1.0490
 KE=-1.495787016485D+01 PE=-1.710861866949D+02 EE= 8.449901284198D+01
 Leave Link  502 at Sun Nov 29 12:22:35 2015, MaxMem=    33554432 cpu:         0.0
 (Enter /home/Applications/g09/g09/l701.exe)
 Compute integral first derivatives.
 ... and contract with generalized density number  0.
 Leave Link  701 at Sun Nov 29 12:22:35 2015, MaxMem=    33554432 cpu:         0.0
 (Enter /home/Applications/g09/g09/l702.exe)
 L702 exits ... SP integral derivatives will be done elsewhere.
 Leave Link  702 at Sun Nov 29 12:22:35 2015, MaxMem=    33554432 cpu:         0.0
 (Enter /home/Applications/g09/g09/l703.exe)
 Compute integral first derivatives, UseDBF=F ICtDFT=           0.
 Integral derivatives from FoFJK, PRISM(SPDF).
 Calling FoFJK, ICntrl=      2127 FMM=F ISym2X=0 I1Cent= 0 IOpClX= 0 NMat=1 NMatS=1 NMatT=0.
 FoFJK:  IHMeth= 8 ICntrl=    2127 DoSepK=F KAlg= 0 I1Cent=   0 FoldK=F
 IRaf=         0 NMat=   1 IRICut=       1 DoRegI=T DoRafI=F ISym2E= 0.
 FoFCou: FMM=F IPFlag=           0 FMFlag=      100000 FMFlg1=         800
         NFxFlg=           0 DoJE=F BraDBF=F KetDBF=F FulRan=T
         wScrn=  0.000000 ICntrl=    2127 IOpCl=  0 I1Cent=           0 NGrid=           0
         NMat0=    1 NMatS0=      1 NMatT0=    0 NMatD0=    1 NMtDS0=    0 NMtDT0=    0
 Symmetry not used in FoFCou.
 Leave Link  703 at Sun Nov 29 12:22:35 2015, MaxMem=    33554432 cpu:         0.0
 (Enter /home/Applications/g09/g09/l716.exe)
 Dipole        = 5.53294447D-02-2.36883560D-01 6.89340274D-03
 ***** Axes restored to original set *****
 -------------------------------------------------------------------
 Center     Atomic                   Forces (Hartrees/Bohr)
 Number     Number              X              Y              Z
 -------------------------------------------------------------------
      1        6          -0.010234199    0.006899197   -0.003036432
      2        6           0.002418596   -0.010987129   -0.000013207
      3        8          -0.001635566    0.016297971   -0.000637720
      4        6          -0.008457931   -0.004626711    0.002513563
      5        6           0.005318256   -0.013836412    0.002168276
      6        1           0.004398575    0.002429818   -0.001793950
      7        1          -0.000932336   -0.004924204   -0.000842899
      8        1           0.005473431    0.006676030   -0.000276632
      9        1           0.003651174    0.002071440    0.001919002
 -------------------------------------------------------------------
 Cartesian Forces:  Max     0.016297971 RMS     0.006178604
 Leave Link  716 at Sun Nov 29 12:22:35 2015, MaxMem=    33554432 cpu:         0.0
 (Enter /home/Applications/g09/g09/l103.exe)

 GradGradGradGradGradGradGradGradGradGradGradGradGradGradGradGradGradGrad
 Berny optimization.
 Using GEDIIS/GDIIS optimizer.
 FormGI is forming the generalized inverse of G from B-inverse, IUseBI=4.
 Internal  Forces:  Max     0.010568123 RMS     0.003736393
 Search for a local minimum.
 Step number   2 out of a maximum of   48
 All quantities printed in internal units (Hartrees-Bohrs-Radians)
 RMS Force = .37364D-02 SwitMx=.10000D-02 MixMth= 1
 Mixed Optimization -- RFO/linear search
 Update second derivatives using D2CorX and points    1    2
 DE= -1.53D-02 DEPred=-1.63D-02 R= 9.36D-01
 TightC=F SS=  1.41D+00  RLast= 3.43D-01 DXNew= 5.0454D-01 1.0277D+00
 Trust test= 9.36D-01 RLast= 3.43D-01 DXMaxT set to 5.05D-01
 ITU=  1  0
 Use linear search instead of GDIIS.
     Eigenvalues ---    0.02170   0.02320   0.02638   0.02662   0.02840
     Eigenvalues ---    0.03117   0.15290   0.15959   0.15981   0.16111
     Eigenvalues ---    0.21742   0.24434   0.30459   0.32659   0.37419
     Eigenvalues ---    0.40858   0.41008   0.46377   0.49899   0.56814
     Eigenvalues ---    0.63533
 RFO step:  Lambda=-1.82635183D-03 EMin= 2.17045287D-02
 Quartic linear search produced a step of  0.06944.
 Iteration  1 RMS(Cart)=  0.01847169 RMS(Int)=  0.00047784
 Iteration  2 RMS(Cart)=  0.00029983 RMS(Int)=  0.00034038
 Iteration  3 RMS(Cart)=  0.00000012 RMS(Int)=  0.00034038
 ITry= 1 IFail=0 DXMaxC= 4.13D-02 DCOld= 1.00D+10 DXMaxT= 5.05D-01 DXLimC= 3.00D+00 Rises=F
 Variable       Old X    -DE/DX   Delta X   Delta X   Delta X     New X
                                 (Linear)    (Quad)   (Total)
    R1        2.57856  -0.00354   0.00061  -0.00741  -0.00681   2.57175
    R2        2.73637  -0.01057   0.00392  -0.02779  -0.02385   2.71253
    R3        2.04411   0.00162   0.00187   0.00427   0.00615   2.05026
    R4        2.55757   0.00748   0.00391   0.01290   0.01678   2.57434
    R5        2.09936  -0.00846  -0.00198  -0.02868  -0.03067   2.06869
    R6        2.63985  -0.01028  -0.00069  -0.02339  -0.02408   2.61577
    R7        2.55024   0.00637   0.00709   0.00869   0.01580   2.56604
    R8        2.07311  -0.00397  -0.00144  -0.01259  -0.01402   2.05909
    R9        2.03916   0.00494   0.00656   0.01115   0.01770   2.05686
    A1        1.84435   0.00232   0.00378   0.00819   0.01177   1.85612
    A2        2.22493   0.00270  -0.00012   0.02187   0.02150   2.24643
    A3        2.21207  -0.00497  -0.00296  -0.02861  -0.03189   2.18018
    A4        1.93372  -0.00048  -0.00599  -0.00093  -0.00697   1.92676
    A5        2.34587  -0.00157  -0.00112  -0.01051  -0.01169   2.33419
    A6        2.00359   0.00205   0.00725   0.01143   0.01862   2.02221
    A7        1.87040  -0.00293   0.00765  -0.01155  -0.00390   1.86650
    A8        1.90717   0.00227  -0.00493   0.01231   0.00723   1.91440
    A9        2.04721  -0.00431   0.00047  -0.02621  -0.02597   2.02124
   A10        2.32826   0.00207   0.00448   0.01505   0.01929   2.34755
   A11        1.86906  -0.00117  -0.00016  -0.00782  -0.00808   1.86098
   A12        2.14435   0.00019  -0.00005   0.00170   0.00141   2.14576
   A13        2.26830   0.00101   0.00069   0.00729   0.00777   2.27607
    D1        0.00764   0.00001   0.00743  -0.00880  -0.00169   0.00595
    D2       -3.13368   0.00007   0.00213   0.00474   0.00714  -3.12654
    D3       -3.07183  -0.00045   0.00108  -0.03203  -0.03201  -3.10385
    D4        0.07003  -0.00039  -0.00422  -0.01850  -0.02319   0.04685
    D5       -0.01177   0.00020  -0.00636   0.01453   0.00798  -0.00379
    D6        3.07671   0.00081  -0.00122   0.03579   0.03460   3.11131
    D7        3.06831   0.00101   0.00027   0.03988   0.03925   3.10755
    D8       -0.12640   0.00162   0.00541   0.06115   0.06587  -0.06053
    D9       -0.00079  -0.00016  -0.00524   0.00011  -0.00501  -0.00579
   D10        3.14059  -0.00021  -0.00131  -0.01055  -0.01210   3.12849
   D11       -0.00704   0.00031   0.00067   0.00954   0.01030   0.00326
   D12       -3.11782  -0.00062   0.00028  -0.02319  -0.02231  -3.14013
   D13        0.01157  -0.00028   0.00368  -0.01474  -0.01124   0.00033
   D14       -3.07180  -0.00091  -0.00187  -0.03776  -0.04026  -3.11206
   D15        3.11548   0.00069   0.00399   0.02426   0.02872  -3.13899
   D16        0.03210   0.00006  -0.00156   0.00124  -0.00030   0.03180
         Item               Value     Threshold  Converged?
 Maximum Force            0.010568     0.000450     NO 
 RMS     Force            0.003736     0.000300     NO 
 Maximum Displacement     0.041348     0.001800     NO 
 RMS     Displacement     0.018545     0.001200     NO 
 Predicted change in Energy=-9.796711D-04
 Lowest energy point so far.  Saving SCF results.
 GradGradGradGradGradGradGradGradGradGradGradGradGradGradGradGradGradGrad

 Leave Link  103 at Sun Nov 29 12:22:35 2015, MaxMem=    33554432 cpu:         0.0
 (Enter /home/Applications/g09/g09/l202.exe)
                          Input orientation:                          
 ---------------------------------------------------------------------
 Center     Atomic      Atomic             Coordinates (Angstroms)
 Number     Number       Type             X           Y           Z
 ---------------------------------------------------------------------
      1          6           0        0.956731   -0.706560   -0.007088
      2          6           0       -0.347455   -1.094837    0.013283
      3          8           0       -1.166792   -0.006497    0.017669
      4          6           0       -0.351605    1.112154    0.007079
      5          6           0        0.950970    0.728836   -0.007870
      6          1           0        1.861920    1.324406    0.005363
      7          1           0       -0.864955    2.073268    0.010470
      8          1           0       -0.846968   -2.068725    0.033496
      9          1           0        1.847946   -1.323994   -0.047385
 ---------------------------------------------------------------------
                    Distance matrix (angstroms):
                    1          2          3          4          5
     1  C    0.000000
     2  C    1.360910   0.000000
     3  O    2.236080   1.362284   0.000000
     4  C    2.240461   2.207004   1.384204   0.000000
     5  C    1.435408   2.238781   2.241937   1.357888   0.000000
     6  H    2.223588   3.276299   3.308255   2.223679   1.088443
     7  H    3.323596   3.210094   2.101565   1.089623   2.259517
     8  H    2.260635   1.094705   2.086942   3.219328   3.325754
     9  H    1.084948   2.208163   3.290696   3.282653   2.240589
                    6          7          8          9
     6  H    0.000000
     7  H    2.827838   0.000000
     8  H    4.341912   4.142096   0.000000
     9  H    2.648962   4.347938   2.797093   0.000000
 Stoichiometry    C4H4O
 Framework group  C1[X(C4H4O)]
 Deg. of freedom    21
 Full point group                 C1      NOp   1
 RotChk:  IX=2 Diff= 4.15D-02
 Largest Abelian subgroup         C1      NOp   1
 Largest concise Abelian subgroup C1      NOp   1
                         Standard orientation:                         
 ---------------------------------------------------------------------
 Center     Atomic      Atomic             Coordinates (Angstroms)
 Number     Number       Type             X           Y           Z
 ---------------------------------------------------------------------
      1          6           0        0.650794    1.001589   -0.000101
      2          6           0        1.119479   -0.276065    0.003183
      3          8           0        0.084223   -1.161522   -0.002233
      4          6           0       -1.082987   -0.417450   -0.001532
      5          6           0       -0.781464    0.906536    0.000046
      6          1           0       -1.432527    1.778419    0.025438
      7          1           0       -2.010299   -0.989608   -0.004087
      8          1           0        2.122583   -0.714231    0.016275
      9          1           0        1.211530    1.929938   -0.029336
 ---------------------------------------------------------------------
 Rotational constants (GHZ):      9.4039622      9.2003391      4.6506902
 Leave Link  202 at Sun Nov 29 12:22:35 2015, MaxMem=    33554432 cpu:         0.0
 (Enter /home/Applications/g09/g09/l301.exe)

 Semi-emprical parameters in input format:
 Method=8 CoreType=1 PeptideFC=0.0105570000 RIJScale=0.4899110000
 ****
 H       
 PQN=1 NValence=1 F0ss=0.4577290000 ZetaOverlap=1.0659780000 U=-0.3880320000
 Beta=-0.2381360000 CoreKO=1.1144350000 KON=0,0,0,1.0186160000 KON=1,0,1,1.0557690000
 KON=0,1,1,1.0725930000 KON=2,1,1,1.1590830000 EISol=-0.4188110042 EHeat=0.0830298228
 Alpha=1.5252600000
 GCore=0.0099350000,1.3986240000,2.1461900000
 GCore=0.0003630000,1.5415670000,2.7171030000
 GCore=-0.0012530000,0.5088300000,4.2039300000
 ****
 C       
 PQN=2,2 NValence=4 F0ss=0.4263360000 F0sp=0.4580860000 F0pp=0.3261620000 F2pp=0.2036090000
 G1sp=0.2073130000
 ZetaOverlap=2.1016200000,1.8587190000
 U=-1.9018080000,-1.4557970000
 Beta=-0.4792560000,-0.2700630000 DDN=0,1,0.8034860000 DDN=1,1,0.7591540000
 CoreKO=1.1325510000 KON=0,0,0,1.1996250000 KON=1,0,1,0.8437060000 KON=0,1,1,1.0478550000
 KON=2,1,1,0.8168110000 EISol=-4.4398989268 EHeat=0.2723305520 Alpha=1.4381970000
 DipHyp=1.6068795495
 GCore=0.0008260000,1.4798740000,2.8384620000
 GCore=0.0031480000,1.6675340000,3.8116200000
 GCore=-0.0011560000,1.5029710000,3.9059920000
 GCore=-0.0000920000,1.1754400000,4.8520980000
 ****
 O       
 PQN=2,2 NValence=6 F0ss=0.5413910000 F0sp=0.5145480000 F0pp=0.5091470000 F2pp=0.2175940000
 G1sp=0.4302620000
 ZetaOverlap=3.3296350000,2.5240390000
 U=-3.3343200000,-2.9854240000
 Beta=-0.9082740000,-1.1340310000 DDN=0,1,0.4988900000 DDN=1,1,0.5206270000
 CoreKO=0.9688900000 KON=0,0,0,0.8976510000 KON=1,0,1,0.5186760000 KON=0,1,1,0.8274210000
 KON=2,1,1,0.5315430000 EISol=-11.6164441184 EHeat=0.0949133088 Alpha=2.3722000000
 DipHyp=0.9977225968
 GCore=0.0212480000,1.1747580000,1.6499540000
 GCore=0.0064050000,2.1096700000,2.7148630000
 ****
 
 Standard basis: VSTO-6G (5D, 7F)
 Ernie: Thresh=  0.10000D-02 Tol=  0.10000D-05 Strict=F.
  NNHCO=     0 NNPyr=     0 NCTC=     0               EPep=         0.000000000
    EC=        67.752579343  ECS=         1.619857880   EG=         0.429309820
   EHC=         0.000000000  EAt=       -31.051283842  AtH=         1.516354808
 EPDDG=         0.000000000  ECC=        69.801747042 EAtT=        32.567638650
 There are    24 symmetry adapted cartesian basis functions of A   symmetry.
 There are    24 symmetry adapted basis functions of A   symmetry.
    24 basis functions,   144 primitive gaussians,    24 cartesian basis functions
    13 alpha electrons       13 beta electrons
       nuclear repulsion energy       102.3693856928 Hartrees.
 IExCor=    0 DFT=F Ex=HF Corr=None ExCW=0 ScaHFX=  1.000000
 ScaDFX=  1.000000  1.000000  1.000000  1.000000 ScalE2=  1.000000  1.000000
 IRadAn=      0 IRanWt=     -1 IRanGd=            0 ICorTp=0 IEmpDi=  4
 Integral buffers will be    131072 words long.
 Regular integral format.
 Two-electron integral symmetry is turned off.
 Leave Link  301 at Sun Nov 29 12:22:35 2015, MaxMem=    33554432 cpu:         0.0
 (Enter /home/Applications/g09/g09/l302.exe)
 Do NDO integrals.
 NPDir=0 NMtPBC=     1 NCelOv=     1 NCel=       1 NClECP=     1 NCelD=      1
         NCelK=      1 NCelE2=     1 NClLst=     1 CellRange=     0.0.
 One-electron integrals computed using PRISM.
 NBasis=    24 RedAO= F EigKep=  0.00D+00  NBF=    24
 NBsUse=    24 1.00D-04 EigRej=  0.00D+00 NBFU=    24
 Leave Link  302 at Sun Nov 29 12:22:35 2015, MaxMem=    33554432 cpu:         0.0
 (Enter /home/Applications/g09/g09/l303.exe)
 DipDrv:  MaxL=1.
 Leave Link  303 at Sun Nov 29 12:22:35 2015, MaxMem=    33554432 cpu:         0.0
 (Enter /home/Applications/g09/g09/l401.exe)
 Initial guess from the checkpoint file:  "/home/Applications/g09/scratch/Gau-20963.chk"
 B after Tr=     0.000000    0.000000    0.000000
         Rot=    0.999864    0.000022   -0.000032    0.016465 Ang=   1.89 deg.
 Guess basis will be translated and rotated to current coordinates.
 JPrj=0 DoOrth=T DoCkMO=T.
 Leave Link  401 at Sun Nov 29 12:22:35 2015, MaxMem=    33554432 cpu:         0.0
 (Enter /home/Applications/g09/g09/l502.exe)
 Closed shell SCF:
 Using DIIS extrapolation, IDIIS=  1040.
 Overlap will be assumed to be unity.
 Two-electron integral symmetry not used.
 Keep J ints in memory in canonical form, NReq=888082.
 IVT=       79475 IEndB=       79475 NGot=    33554432 MDV=    33473473
 LenX=    33473473 LenY=    33472456
 Requested convergence on RMS density matrix=1.00D-08 within 128 cycles.
 Requested convergence on MAX density matrix=1.00D-06.
 Requested convergence on             energy=1.00D-06.
 No special actions if energy rises.
 FoFCou: FMM=F IPFlag=           0 FMFlag=           0 FMFlg1=           0
         NFxFlg=           0 DoJE=F BraDBF=F KetDBF=F FulRan=T
         wScrn=  0.000000 ICntrl=     600 IOpCl=  2 I1Cent=           0 NGrid=           0
         NMat0=    1 NMatS0=     54 NMatT0=    0 NMatD0=    1 NMtDS0=    0 NMtDT0=    0
 Symmetry not used in FoFCou.

 Cycle   1  Pass 1  IDiag  1:
 E= 0.731606555240759    
 DIIS: error= 1.19D-03 at cycle   1 NSaved=   1.
 NSaved= 1 IEnMin= 1 EnMin= 0.731606555240759     IErMin= 1 ErrMin= 1.19D-03
 ErrMax= 1.19D-03  0.00D+00 EMaxC= 1.00D-01 BMatC= 1.04D-04 BMatP= 1.04D-04
 IDIUse=3 WtCom= 9.88D-01 WtEn= 1.19D-02
 Coeff-Com:  0.100D+01
 Coeff-En:   0.100D+01
 Coeff:      0.100D+01
 GapD=    2.000 DampG=2.000 DampE=1.000 DampFc=2.0000 IDamp=-1.
 RMSDP=8.04D-04 MaxDP=3.34D-03              OVMax= 0.00D+00

 Cycle   2  Pass 1  IDiag  3:
 E= 0.731239629792924     Delta-E=       -0.000366925448 Rises=F Damp=F
 DIIS: error= 5.36D-04 at cycle   2 NSaved=   2.
 NSaved= 2 IEnMin= 2 EnMin= 0.731239629792924     IErMin= 2 ErrMin= 5.36D-04
 ErrMax= 5.36D-04  0.00D+00 EMaxC= 1.00D-01 BMatC= 1.52D-05 BMatP= 1.04D-04
 IDIUse=3 WtCom= 9.95D-01 WtEn= 5.36D-03
 Coeff-Com: -0.522D+00 0.152D+01
 Coeff-En:   0.000D+00 0.100D+01
 Coeff:     -0.519D+00 0.152D+01
 Gap=     0.364 Goal=   None    Shift=    0.000
 RMSDP=5.47D-04 MaxDP=2.53D-03 DE=-3.67D-04 OVMax= 3.19D-03

 Cycle   3  Pass 1  IDiag  3:
 E= 0.731157640994582     Delta-E=       -0.000081988798 Rises=F Damp=F
 DIIS: error= 1.31D-04 at cycle   3 NSaved=   3.
 NSaved= 3 IEnMin= 3 EnMin= 0.731157640994582     IErMin= 3 ErrMin= 1.31D-04
 ErrMax= 1.31D-04  0.00D+00 EMaxC= 1.00D-01 BMatC= 8.49D-07 BMatP= 1.52D-05
 IDIUse=3 WtCom= 9.99D-01 WtEn= 1.31D-03
 Coeff-Com:  0.313D+00-0.100D+01 0.169D+01
 Coeff-En:   0.000D+00 0.000D+00 0.100D+01
 Coeff:      0.312D+00-0.100D+01 0.169D+01
 Gap=     0.364 Goal=   None    Shift=    0.000
 RMSDP=1.97D-04 MaxDP=1.61D-03 DE=-8.20D-05 OVMax= 1.70D-03

 Cycle   4  Pass 1  IDiag  3:
 E= 0.731149883248719     Delta-E=       -0.000007757746 Rises=F Damp=F
 DIIS: error= 9.49D-05 at cycle   4 NSaved=   4.
 NSaved= 4 IEnMin= 4 EnMin= 0.731149883248719     IErMin= 4 ErrMin= 9.49D-05
 ErrMax= 9.49D-05  0.00D+00 EMaxC= 1.00D-01 BMatC= 1.78D-07 BMatP= 8.49D-07
 IDIUse=1 WtCom= 1.00D+00 WtEn= 0.00D+00
 Coeff-Com: -0.234D+00 0.771D+00-0.146D+01 0.192D+01
 Coeff:     -0.234D+00 0.771D+00-0.146D+01 0.192D+01
 Gap=     0.364 Goal=   None    Shift=    0.000
 RMSDP=1.04D-04 MaxDP=1.13D-03 DE=-7.76D-06 OVMax= 1.06D-03

 Cycle   5  Pass 1  IDiag  3:
 E= 0.731147537228949     Delta-E=       -0.000002346020 Rises=F Damp=F
 DIIS: error= 6.46D-05 at cycle   5 NSaved=   5.
 NSaved= 5 IEnMin= 5 EnMin= 0.731147537228949     IErMin= 5 ErrMin= 6.46D-05
 ErrMax= 6.46D-05  0.00D+00 EMaxC= 1.00D-01 BMatC= 1.02D-07 BMatP= 1.78D-07
 IDIUse=1 WtCom= 1.00D+00 WtEn= 0.00D+00
 Coeff-Com:  0.457D+00-0.150D+01 0.288D+01-0.456D+01 0.372D+01
 Coeff:      0.457D+00-0.150D+01 0.288D+01-0.456D+01 0.372D+01
 Gap=     0.364 Goal=   None    Shift=    0.000
 RMSDP=1.63D-04 MaxDP=1.65D-03 DE=-2.35D-06 OVMax= 1.60D-03

 Cycle   6  Pass 1  IDiag  3:
 E= 0.731145049227962     Delta-E=       -0.000002488001 Rises=F Damp=F
 DIIS: error= 3.64D-05 at cycle   6 NSaved=   6.
 NSaved= 6 IEnMin= 6 EnMin= 0.731145049227962     IErMin= 6 ErrMin= 3.64D-05
 ErrMax= 3.64D-05  0.00D+00 EMaxC= 1.00D-01 BMatC= 3.37D-08 BMatP= 1.02D-07
 IDIUse=1 WtCom= 1.00D+00 WtEn= 0.00D+00
 Coeff-Com: -0.243D+00 0.798D+00-0.158D+01 0.288D+01-0.324D+01 0.238D+01
 Coeff:     -0.243D+00 0.798D+00-0.158D+01 0.288D+01-0.324D+01 0.238D+01
 Gap=     0.364 Goal=   None    Shift=    0.000
 RMSDP=1.22D-04 MaxDP=1.17D-03 DE=-2.49D-06 OVMax= 1.21D-03

 Cycle   7  Pass 1  IDiag  3:
 E= 0.731144096839245     Delta-E=       -0.000000952389 Rises=F Damp=F
 DIIS: error= 2.05D-05 at cycle   7 NSaved=   7.
 NSaved= 7 IEnMin= 7 EnMin= 0.731144096839245     IErMin= 7 ErrMin= 2.05D-05
 ErrMax= 2.05D-05  0.00D+00 EMaxC= 1.00D-01 BMatC= 8.44D-09 BMatP= 3.37D-08
 IDIUse=1 WtCom= 1.00D+00 WtEn= 0.00D+00
 Coeff-Com:  0.164D+00-0.538D+00 0.106D+01-0.192D+01 0.225D+01-0.224D+01
 Coeff-Com:  0.223D+01
 Coeff:      0.164D+00-0.538D+00 0.106D+01-0.192D+01 0.225D+01-0.224D+01
 Coeff:      0.223D+01
 Gap=     0.364 Goal=   None    Shift=    0.000
 RMSDP=6.26D-05 MaxDP=6.07D-04 DE=-9.52D-07 OVMax= 6.20D-04

 Cycle   8  Pass 1  IDiag  3:
 E= 0.731143886457943     Delta-E=       -0.000000210381 Rises=F Damp=F
 DIIS: error= 9.58D-06 at cycle   8 NSaved=   8.
 NSaved= 8 IEnMin= 8 EnMin= 0.731143886457943     IErMin= 8 ErrMin= 9.58D-06
 ErrMax= 9.58D-06  0.00D+00 EMaxC= 1.00D-01 BMatC= 1.91D-09 BMatP= 8.44D-09
 IDIUse=1 WtCom= 1.00D+00 WtEn= 0.00D+00
 Coeff-Com: -0.150D-01 0.491D-01-0.106D+00 0.298D+00-0.555D+00 0.103D+01
 Coeff-Com: -0.175D+01 0.206D+01
 Coeff:     -0.150D-01 0.491D-01-0.106D+00 0.298D+00-0.555D+00 0.103D+01
 Coeff:     -0.175D+01 0.206D+01
 Gap=     0.364 Goal=   None    Shift=    0.000
 RMSDP=2.06D-05 MaxDP=2.32D-04 DE=-2.10D-07 OVMax= 1.83D-04

 Cycle   9  Pass 1  IDiag  3:
 E= 0.731143855128508     Delta-E=       -0.000000031329 Rises=F Damp=F
 DIIS: error= 3.39D-06 at cycle   9 NSaved=   9.
 NSaved= 9 IEnMin= 9 EnMin= 0.731143855128508     IErMin= 9 ErrMin= 3.39D-06
 ErrMax= 3.39D-06  0.00D+00 EMaxC= 1.00D-01 BMatC= 3.37D-10 BMatP= 1.91D-09
 IDIUse=1 WtCom= 1.00D+00 WtEn= 0.00D+00
 Coeff-Com:  0.197D-01-0.645D-01 0.130D+00-0.291D+00 0.443D+00-0.720D+00
 Coeff-Com:  0.123D+01-0.182D+01 0.207D+01
 Coeff:      0.197D-01-0.645D-01 0.130D+00-0.291D+00 0.443D+00-0.720D+00
 Coeff:      0.123D+01-0.182D+01 0.207D+01
 Gap=     0.364 Goal=   None    Shift=    0.000
 RMSDP=8.48D-06 MaxDP=9.66D-05 DE=-3.13D-08 OVMax= 7.42D-05

 Cycle  10  Pass 1  IDiag  3:
 E= 0.731143850597164     Delta-E=       -0.000000004531 Rises=F Damp=F
 DIIS: error= 7.76D-07 at cycle  10 NSaved=  10.
[...]
     38 -0.229865D-05  0.371365D-05 -0.345467D-05  0.000000D+00  0.359214D-05
               16            17            18            19            20 
     16  0.127632D+00
     17 -0.696867D-01  0.100849D+00
     18  0.370634D-01 -0.575640D-01  0.741880D-01
     19  0.326233D-01 -0.432851D-01 -0.166240D-01  0.599092D-01
     20  0.585441D-02 -0.386992D-01  0.236772D-01  0.150220D-01  0.768616D-01
     21  0.118499D-02  0.194831D-01 -0.119287D-01 -0.755442D-02 -0.375385D-01
     22 -0.703940D-02  0.192161D-01 -0.117485D-01 -0.746753D-02 -0.393231D-01
     23  0.279481D-04 -0.120717D-04  0.147887D-04 -0.253406D-05  0.200570D-04
     24  0.870464D-05 -0.318440D-05  0.224804D-05  0.624598D-05  0.873357D-05
     25  0.253593D-04 -0.160065D-04  0.109406D-04  0.000000D+00  0.964424D-05
     26  0.611584D-05 -0.711918D-05 -0.160010D-05  0.815521D-05 -0.167918D-05
     27  0.125541D-04 -0.121166D-04  0.342040D-05  0.000000D+00  0.175138D-05
     28  0.337454D-05 -0.983365D-05 -0.433834D-05  0.868673D-05  0.000000D+00
     29  0.192082D-04 -0.119682D-04  0.884057D-05  0.000000D+00  0.729142D-05
     30  0.100286D-04 -0.968523D-05  0.108184D-05  0.850294D-05  0.636513D-05
     31  0.245705D-05 -0.658268D-05 -0.771710D-05  0.221916D-04 -0.197444D-05
     32  0.168292D-04 -0.138403D-04  0.237335D-05  0.152656D-04  0.742168D-05
     33 -0.112914D-05 -0.937363D-05  0.116327D-04 -0.156266D-04  0.162098D-05
     34 -0.229799D-05 -0.852463D-05 -0.435463D-04  0.553998D-04 -0.261455D-05
     35 -0.141434D-04  0.744567D-05 -0.576411D-05  0.117014D-04 -0.374989D-05
     36 -0.710023D-05  0.637658D-05  0.181820D-05  0.217551D-05 -0.631756D-05
     37  0.759852D-05 -0.146231D-04 -0.121470D-04  0.191608D-04  0.626300D-05
     38  0.146417D-04 -0.156922D-04 -0.456473D-05  0.963490D-05  0.369533D-05
               21            22            23            24            25 
     21  0.538664D-01
     22 -0.163279D-01  0.556510D-01
     23 -0.111603D-04 -0.586234D-05  0.151910D-01
     24 -0.249993D-05 -0.528931D-05  0.290416D-02  0.988833D-02
     25 -0.934079D-05  0.000000D+00  0.511145D-02 -0.440885D-02  0.889910D-02
     26  0.000000D+00  0.153775D-05 -0.717543D-02  0.257532D-02 -0.621195D-03
     27  0.270502D-05 -0.867824D-05 -0.126826D-01 -0.510877D-02 -0.179333D-02
     28 -0.141295D-04  0.140175D-04 -0.549680D-02 -0.287251D-02  0.120983D-02
     29  0.330288D-05 -0.131969D-04 -0.344194D-02  0.159553D-02 -0.526570D-02
     30 -0.135316D-04  0.949883D-05  0.374382D-02  0.383179D-02 -0.226254D-02
     31  0.373952D-05 -0.246417D-05 -0.118839D-01  0.390335D-03 -0.645255D-02
     32 -0.341975D-05 -0.303227D-05 -0.207385D-02 -0.518596D-02  0.114865D-02
     33 -0.117263D-05 -0.255010D-05  0.346998D-02 -0.377955D-02  0.526272D-02
     34 -0.202641D-05  0.339247D-05  0.360350D-02  0.954832D-04  0.110955D-02
     35  0.000000D+00  0.759558D-05  0.565873D-02  0.549343D-02 -0.216226D-02
     36 -0.336179D-05  0.821490D-05 -0.216035D-02  0.306008D-02 -0.543010D-02
     37 -0.120887D-05 -0.222143D-05  0.549084D-02  0.621347D-03  0.305953D-02
     38 -0.463047D-05 -0.160210D-05 -0.232824D-02 -0.181201D-02 -0.208306D-03
               26            27            28            29            30 
     26  0.912955D-02
     27  0.578046D-02  0.154267D-01
     28  0.383412D-02  0.542894D-02  0.711780D-02
     29 -0.228224D-03  0.544382D-02 -0.719459D-03  0.711580D-02
     30 -0.217457D-02 -0.455392D-02  0.969392D-03  0.952515D-03  0.647583D-02
     31  0.582173D-02  0.512269D-02  0.346717D-02  0.143387D-03 -0.151213D-02
     32 -0.196346D-02 -0.924365D-03  0.137189D-02 -0.387863D-02 -0.158237D-02
     33 -0.198680D-02  0.511164D-02  0.134508D-03  0.346812D-02 -0.150902D-02
     34 -0.239847D-02 -0.912165D-03 -0.386869D-02  0.137421D-02 -0.158232D-02
     35 -0.232756D-02 -0.126765D-01 -0.342789D-02 -0.550650D-02  0.374213D-02
     36 -0.209673D-03 -0.179762D-02 -0.526558D-02  0.119998D-02 -0.226798D-02
     37 -0.180996D-02 -0.510277D-02  0.160536D-02 -0.287383D-02  0.383430D-02
     38  0.307926D-03  0.577613D-02 -0.232325D-03  0.383265D-02 -0.217580D-02
               31            32            33            34            35 
     31  0.140565D-01
     32  0.425646D-02  0.674123D-02
     33 -0.106578D-01 -0.486963D-02  0.140488D-01
     34 -0.489819D-02 -0.209732D-02  0.429298D-02  0.672248D-02
     35  0.346044D-02  0.359242D-02 -0.118702D-01 -0.210308D-02  0.151779D-01
     36  0.526187D-02  0.109378D-02 -0.645436D-02  0.111402D-02  0.511415D-02
     37 -0.378109D-02  0.106809D-03  0.395797D-03 -0.515759D-02  0.289776D-02
     38 -0.197966D-02 -0.239183D-02  0.581159D-02 -0.194048D-02 -0.716600D-02
               36            37            38 
     36  0.888775D-02
     37 -0.440160D-02  0.988008D-02
     38 -0.627990D-03  0.258073D-02  0.911874D-02
 Leave Link  716 at Sun Nov 29 12:22:36 2015, MaxMem=    33554432 cpu:         0.0
 (Enter /home/Applications/g09/g09/l103.exe)

 GradGradGradGradGradGradGradGradGradGradGradGradGradGradGradGradGradGrad
 Berny optimization.
 Red2BG is reusing G-inverse.
 Internal  Forces:  Max     0.000159238 RMS     0.000058488
 Search for a local minimum.
 Step number   1 out of a maximum of    2
 All quantities printed in internal units (Hartrees-Bohrs-Radians)
 Second derivative matrix not updated -- analytic derivatives used.
 ITU=  0
     Eigenvalues ---    0.00899   0.01178   0.01844   0.02432   0.04721
     Eigenvalues ---    0.05314   0.06569   0.06793   0.07047   0.07707
     Eigenvalues ---    0.17812   0.24475   0.25290   0.31173   0.31880
     Eigenvalues ---    0.31951   0.32938   0.35155   0.39680   0.47691
     Eigenvalues ---    0.63821
 Angle between quadratic step and forces=  50.52 degrees.
 Linear search not attempted -- first point.
 Iteration  1 RMS(Cart)=  0.00055122 RMS(Int)=  0.00000062
 Iteration  2 RMS(Cart)=  0.00000053 RMS(Int)=  0.00000029
 ITry= 1 IFail=0 DXMaxC= 1.37D-03 DCOld= 1.00D+10 DXMaxT= 3.00D-01 DXLimC= 3.00D+00 Rises=F
 Variable       Old X    -DE/DX   Delta X   Delta X   Delta X     New X
                                 (Linear)    (Quad)   (Total)
    R1        2.56827  -0.00002   0.00000  -0.00013  -0.00013   2.56814
    R2        2.71017  -0.00002   0.00000  -0.00014  -0.00014   2.71003
    R3        2.05271   0.00001   0.00000   0.00008   0.00008   2.05279
    R4        2.59397   0.00006   0.00000   0.00053   0.00053   2.59450
    R5        2.06595  -0.00003   0.00000  -0.00008  -0.00008   2.06587
    R6        2.59473   0.00003   0.00000  -0.00023  -0.00023   2.59450
    R7        2.56783   0.00014   0.00000   0.00032   0.00032   2.56814
    R8        2.06636  -0.00014   0.00000  -0.00049  -0.00049   2.06587
    R9        2.05231   0.00016   0.00000   0.00047   0.00047   2.05279
    A1        1.85874   0.00003   0.00000   0.00016   0.00016   1.85890
    A2        2.27031  -0.00009   0.00000  -0.00106  -0.00106   2.26925
    A3        2.15414   0.00005   0.00000   0.00090   0.00090   2.15504
    A4        1.92048   0.00001   0.00000  -0.00016  -0.00016   1.92033
    A5        2.34019   0.00011   0.00000   0.00167   0.00167   2.34186
    A6        2.02252  -0.00012   0.00000  -0.00151  -0.00151   2.02100
    A7        1.86630   0.00000   0.00000   0.00004   0.00004   1.86633
    A8        1.92036  -0.00003   0.00000  -0.00004  -0.00004   1.92033
    A9        2.01995   0.00009   0.00000   0.00105   0.00105   2.02100
   A10        2.34287  -0.00006   0.00000  -0.00101  -0.00101   2.34186
   A11        1.85890  -0.00001   0.00000  -0.00001  -0.00001   1.85890
   A12        2.15567  -0.00005   0.00000  -0.00063  -0.00063   2.15504
   A13        2.26861   0.00006   0.00000   0.00064   0.00064   2.26925
    D1       -0.00063   0.00003   0.00000   0.00063   0.00063   0.00000
    D2        3.14087   0.00001   0.00000   0.00072   0.00072   3.14159
    D3        3.14027   0.00002   0.00000   0.00133   0.00133  -3.14159
    D4       -0.00142   0.00000   0.00000   0.00142   0.00142   0.00000
    D5        0.00045  -0.00002   0.00000  -0.00045  -0.00045   0.00000
    D6       -3.14155  -0.00001   0.00000  -0.00004  -0.00004   3.14159
    D7       -3.14051  -0.00002   0.00000  -0.00109  -0.00109   3.14159
    D8        0.00068  -0.00001   0.00000  -0.00068  -0.00068   0.00000
    D9        0.00057  -0.00002   0.00000  -0.00057  -0.00057   0.00000
   D10       -3.14095  -0.00001   0.00000  -0.00064  -0.00064  -3.14159
   D11       -0.00027   0.00001   0.00000   0.00027   0.00027   0.00000
   D12        3.14016   0.00003   0.00000   0.00143   0.00144  -3.14159
   D13       -0.00011   0.00001   0.00000   0.00011   0.00011   0.00000
   D14       -3.14126   0.00000   0.00000  -0.00033  -0.00033  -3.14159
   D15       -3.14024  -0.00001   0.00000  -0.00136  -0.00135   3.14159
   D16        0.00179  -0.00003   0.00000  -0.00179  -0.00179   0.00000
         Item               Value     Threshold  Converged?
 Maximum Force            0.000159     0.000450     YES
 RMS     Force            0.000058     0.000300     YES
 Maximum Displacement     0.001371     0.001800     YES
 RMS     Displacement     0.000551     0.001200     YES
 Predicted change in Energy=-5.791586D-07
 Optimization completed.
    -- Stationary point found.
                           ----------------------------
                           !   Optimized Parameters   !
                           ! (Angstroms and Degrees)  !
 --------------------------                            --------------------------
 ! Name  Definition              Value          Derivative Info.                !
 --------------------------------------------------------------------------------
 ! R1    R(1,2)                  1.3591         -DE/DX =    0.0                 !
 ! R2    R(1,5)                  1.4342         -DE/DX =    0.0                 !
 ! R3    R(1,9)                  1.0862         -DE/DX =    0.0                 !
 ! R4    R(2,3)                  1.3727         -DE/DX =    0.0001              !
 ! R5    R(2,8)                  1.0933         -DE/DX =    0.0                 !
 ! R6    R(3,4)                  1.3731         -DE/DX =    0.0                 !
 ! R7    R(4,5)                  1.3588         -DE/DX =    0.0001              !
 ! R8    R(4,7)                  1.0935         -DE/DX =   -0.0001              !
 ! R9    R(5,6)                  1.086          -DE/DX =    0.0002              !
 ! A1    A(2,1,5)              106.4977         -DE/DX =    0.0                 !
 ! A2    A(2,1,9)              130.0792         -DE/DX =   -0.0001              !
 ! A3    A(5,1,9)              123.4231         -DE/DX =    0.0001              !
 ! A4    A(1,2,3)              110.0355         -DE/DX =    0.0                 !
 ! A5    A(1,2,8)              134.0828         -DE/DX =    0.0001              !
 ! A6    A(3,2,8)              115.8817         -DE/DX =   -0.0001              !
 ! A7    A(2,3,4)              106.931          -DE/DX =    0.0                 !
 ! A8    A(3,4,5)              110.0286         -DE/DX =    0.0                 !
 ! A9    A(3,4,7)              115.7348         -DE/DX =    0.0001              !
 ! A10   A(5,4,7)              134.2366         -DE/DX =   -0.0001              !
 ! A11   A(1,5,4)              106.5072         -DE/DX =    0.0                 !
 ! A12   A(1,5,6)              123.5109         -DE/DX =    0.0                 !
 ! A13   A(4,5,6)              129.9819         -DE/DX =    0.0001              !
 ! D1    D(5,1,2,3)             -0.0361         -DE/DX =    0.0                 !
 ! D2    D(5,1,2,8)            179.9587         -DE/DX =    0.0                 !
 ! D3    D(9,1,2,3)           -180.076          -DE/DX =    0.0                 !
 ! D4    D(9,1,2,8)             -0.0812         -DE/DX =    0.0                 !
 ! D5    D(2,1,5,4)              0.0256         -DE/DX =    0.0                 !
 ! D6    D(2,1,5,6)            180.0024         -DE/DX =    0.0                 !
 ! D7    D(9,1,5,4)            180.0622         -DE/DX =    0.0                 !
 ! D8    D(9,1,5,6)              0.039          -DE/DX =    0.0                 !
 ! D9    D(1,2,3,4)              0.0327         -DE/DX =    0.0                 !
 ! D10   D(8,2,3,4)           -179.9631         -DE/DX =    0.0                 !
 ! D11   D(2,3,4,5)             -0.0157         -DE/DX =    0.0                 !
 ! D12   D(2,3,4,7)           -180.0822         -DE/DX =    0.0                 !
 ! D13   D(3,4,5,1)             -0.006          -DE/DX =    0.0                 !
 ! D14   D(3,4,5,6)           -179.9808         -DE/DX =    0.0                 !
 ! D15   D(7,4,5,1)            180.0775         -DE/DX =    0.0                 !
 ! D16   D(7,4,5,6)              0.1028         -DE/DX =    0.0                 !
 --------------------------------------------------------------------------------
 GradGradGradGradGradGradGradGradGradGradGradGradGradGradGradGradGradGrad

 Leave Link  103 at Sun Nov 29 12:22:36 2015, MaxMem=    33554432 cpu:         0.0
 (Enter /home/Applications/g09/g09/l9999.exe)
 1\1\GINC-DUSTIN-DESKTOP\Freq\RAM1\ZDO\C4H4O1\DUSTIN\29-Nov-2015\0\\#P 
 Geom=AllCheck Guess=TCheck SCRF=Check GenChk RAM1/ZDO Freq\\AM1-Repara
 m Input\\0,1\C,0.9534733812,-0.71208898,-0.008455931\C,-0.3490837167,-
 1.0994844707,0.0100285209\O,-1.1673350586,0.0025602498,0.0236027039\C,
 -0.3512162287,1.1067116946,0.0125272138\C,0.9518936029,0.7220698289,-0
 .0072077364\H,1.8566544159,1.3226741921,-0.0198024094\H,-0.8610286693,
 2.0740337629,0.0198852746\H,-0.8542192988,-2.0690235549,0.0159302439\H
 ,1.8606545722,-1.3094027228,-0.0214918803\\Version=ES64L-G09RevD.01\St
 ate=1-A\HF=0.7309427\RMSD=3.160e-10\RMSF=1.054e-04\ZeroPoint=0.0648996
 \Thermal=0.0688497\Dipole=-0.2020507,0.0002039,0.0026192\DipoleDeriv=-
 0.5762383,0.0799196,0.0002535,0.3429296,-0.607117,-0.0050827,0.0005165
 ,-0.0012931,-0.5544959,0.2746989,0.0075302,-0.0013545,-0.3354808,-0.22
 44441,0.0041732,-0.0022202,-0.0005481,0.1610144,-0.8847511,-0.001819,0
 .0088709,0.0003313,0.0825915,0.0012664,0.0090432,0.0004478,-0.2805922,
 0.2707798,-0.0034298,-0.0019456,0.335488,-0.2230113,-0.0058498,-0.0014
 532,-0.0004508,0.1601036,-0.5734289,-0.0811932,0.0001339,-0.3432603,-0
 .6053669,0.0050862,-0.0000618,0.0014293,-0.5532521,0.4651338,0.0918457
 ,-0.0023198,0.2041788,0.3054471,-0.0030596,-0.0021416,-0.0013656,0.303
 4251,0.2795861,-0.1930169,-0.0008825,-0.1952937,0.4827973,0.0030225,-0
 .0008107,0.0029517,0.2301951,0.2777939,0.1915661,-0.0004242,0.194748,0
 .4842722,-0.0024495,-0.0004028,-0.0024153,0.2300154,0.4664913,-0.09141
 73,-0.0023326,-0.203656,0.3048781,0.0028935,-0.0024687,0.0012492,0.303
 5936\Polar=56.9917945,-0.0028421,48.6302633,-0.7094329,0.0479307,8.797
 983\HyperPolar=46.457867,-0.021519,-235.7342136,-0.3674375,-0.4644432,
 -0.4052422,3.543346,6.1476162,0.0167582,-0.2563372\PG=C01 [X(C4H4O1)]\
 NImag=0\\0.78759933,-0.08736411,0.56763351,-0.00932760,0.00159869,0.14
 184806,-0.39674996,-0.06865537,0.00449368,0.62852486,-0.13203841,-0.12
 100354,0.00187148,0.20151523,0.61059406,0.00443239,0.00093287,-0.08046
 663,-0.00689145,-0.00231021,0.13731789,-0.10010482,0.01285301,0.001754
 19,-0.15166427,0.07928536,0.00141876,0.49318228,0.05522850,0.00395408,
 -0.00082285,0.04147379,-0.13430752,-0.00072590,-0.00023509,0.34547484,
 0.00179047,-0.00019401,0.01733059,0.00137531,-0.00126951,-0.06280805,-
 0.00619770,0.00027485,0.07705094,0.00081013,0.07813372,0.00032145,0.02
 580011,-0.01720597,-0.00023761,-0.15105537,-0.04123872,0.00126939,0.63
 009360,0.02948631,-0.02997328,-0.00048894,0.01757328,-0.11076131,-0.00
 038749,-0.07893809,-0.13394188,0.00111497,-0.20218474,0.60835994,0.000
 27936,-0.00120510,0.01827827,-0.00019078,0.00011167,0.01064985,0.00123
 662,0.00058616,-0.06281270,-0.00737935,0.00320872,0.13729095,-0.065930
 12,-0.03147684,-0.00016559,0.00105712,-0.02946184,0.00021833,-0.099923
 21,-0.05538162,0.00169283,-0.39772056,0.13157585,0.00480986,0.78754529
 ,0.03197841,-0.29195011,-0.00065418,-0.07810799,-0.03012619,0.00110989
 ,-0.01307662,0.00366201,0.00016796,0.06827621,-0.12049429,-0.00103550,
 0.08797275,0.56838305,-0.00010063,0.00028801,-0.07576944,0.00015481,0.
 00039015,0.01829064,0.00173380,0.00079219,0.01732367,0.00477369,-0.001
 97895,-0.08039938,-0.00942528,-0.00090557,0.14174410,-0.00035861,-0.00
 370331,0.00006839,0.00215633,-0.00189650,-0.00000712,-0.00051405,0.005
 91363,0.00008101,-0.02669591,-0.01243347,0.00045194,-0.21008918,-0.121
 52789,0.00243532,0.23437888,-0.01615361,-0.01988007,0.00021427,0.00153
 872,-0.00379157,-0.00002863,0.00300127,0.00370339,-0.00004498,0.003516
 69,0.00515172,-0.00005298,-0.12490909,-0.10757289,0.00175360,0.1331322
 5,0.12198592,0.00005699,0.00002833,0.00463208,0.00000066,0.00002172,0.
 00183177,0.00007441,-0.00008437,0.00455838,0.00047534,0.00018010,0.004
 77153,0.00242228,0.00170521,-0.03498211,-0.00300966,-0.00184408,0.0194
 3557,-0.00226516,-0.00075951,0.00008200,-0.00043228,-0.00507585,0.0000
 4128,0.00528516,-0.01303017,-0.00005147,-0.08290794,0.10795050,0.00074
 197,-0.01225189,0.01997256,0.00027502,-0.00028136,-0.00043780,-0.00000
 023,0.09212818,-0.00049723,0.00205715,0.00001039,-0.00540885,0.0021004
 5,0.00008343,0.00206318,-0.04621606,-0.00005811,0.10682790,-0.21669164
 ,-0.00154855,0.00500674,-0.00412350,-0.00007625,0.00117641,0.00120063,
 -0.00001634,-0.10907719,0.26283428,0.00008376,0.00001013,0.00335490,0.
 00004079,0.00007451,0.00278201,-0.00004514,0.00015391,0.00241038,0.000
 72637,-0.00154002,-0.03239452,0.00028208,-0.00030441,0.00580025,0.0000
 0110,0.00000782,-0.00023921,-0.00107930,0.00160594,0.01819440,-0.01220
 724,-0.02000733,0.00023822,-0.08198650,-0.10747292,0.00056347,0.005267
 93,0.01320851,-0.00002446,-0.00047567,0.00505074,0.00005399,-0.0022648
 5,0.00073490,0.00008179,-0.00002094,-0.00020454,-0.00000097,0.00074866
 ,-0.00024232,-0.00000879,0.09121772,-0.00504321,-0.00421296,0.00006005
 ,-0.10631840,-0.21787556,0.00127219,-0.00194107,-0.04600709,-0.0000374
 5,0.00539676,0.00214049,-0.00008119,0.00048608,0.00205358,-0.00001238,
 -0.00015053,-0.00020716,0.00000229,0.00025027,-0.00095603,-0.00000481,
 0.10850301,0.26386384,0.00026133,0.00027743,0.00582202,0.00056130,0.00
 128273,-0.03234994,-0.00004613,-0.00025958,0.00238963,0.00005751,-0.00
 007331,0.00278721,0.00008043,-0.00000950,0.00334924,-0.00000101,0.0000
 0257,-0.00007640,-0.00000851,0.00000162,0.00016780,-0.00090417,-0.0012
 1735,0.01814847,-0.21079889,0.12098149,0.00253535,-0.02669426,0.012351
 86,0.00046177,-0.00048684,-0.00593742,0.00006483,0.00216197,0.00191719
 ,-0.00000378,-0.00042825,0.00377589,0.00007158,0.00142471,0.00051547,-
 0.00001880,-0.00002210,0.00015126,-0.00000088,-0.00027763,-0.00118253,
 -0.00000079,0.23512135,0.12439409,-0.10662636,-0.00178876,-0.00360837,
 0.00517618,0.00005380,-0.00301269,0.00367510,0.00004629,-0.00152252,-0
 .00378350,0.00001678,0.01619681,-0.01983351,-0.00025094,-0.00050984,-0
 .00059120,0.00000714,0.00020595,-0.00020640,-0.00000303,0.00043106,0.0
 0119971,-0.00000463,-0.13257404,0.12098880,0.00252398,-0.00173636,-0.0
 3503084,0.00045526,-0.00017221,0.00475264,0.00007152,0.00008512,0.0045
 5802,-0.00000695,-0.00003490,0.00182897,0.00008524,-0.00007388,0.00464
 253,-0.00001992,-0.00000754,0.00006868,-0.00000072,-0.00000219,-0.0000
 7598,0.00000088,0.00001862,-0.00023823,-0.00310930,0.00192337,0.019494
 33\\0.00000380,-0.00015886,0.00000019,-0.00020613,0.00017942,-0.000043
 21,0.00005828,0.00002955,0.00004920,0.00028898,-0.00014633,0.00006429,
 0.00003346,0.00007004,-0.00006095,-0.00015995,-0.00004671,0.00001339,-
 0.00012576,0.00009084,-0.00003890,0.00008167,-0.00008174,-0.00001426,0
 .00002565,0.00006381,0.00003026\\\@


 Happiness is a conscious choice, not an automatic response.
 -- Mildred Barthel
 Job cpu time:       0 days  0 hours  0 minutes  0.3 seconds.
 File lengths (MBytes):  RWF=      5 Int=      0 D2E=      0 Chk=      2 Scr=      1
 Normal termination of Gaussian 09 at Sun Nov 29 12:22:36 2015.
