 Entering Gaussian System, Link 0=g09
 Input=ThiopheneDFTOpt.com
 Output=ThiopheneDFTOpt.log
 Initial command:
 /opt/g09/g09/l1.exe "/opt/g09/scratch/Gau-13817.inp" -scrdir="/opt/g09/scratch/"
 Entering Link 1 = /opt/g09/g09/l1.exe PID=     13818.
  
 Copyright (c) 1988,1990,1992,1993,1995,1998,2003,2009,2013,
            Gaussian, Inc.  All Rights Reserved.
  
 This is part of the Gaussian(R) 09 program.  It is based on
 the Gaussian(R) 03 system (copyright 2003, Gaussian, Inc.),
 the Gaussian(R) 98 system (copyright 1998, Gaussian, Inc.),
 the Gaussian(R) 94 system (copyright 1995, Gaussian, Inc.),
 the Gaussian 92(TM) system (copyright 1992, Gaussian, Inc.),
 the Gaussian 90(TM) system (copyright 1990, Gaussian, Inc.),
 the Gaussian 88(TM) system (copyright 1988, Gaussian, Inc.),
 the Gaussian 86(TM) system (copyright 1986, Carnegie Mellon
 University), and the Gaussian 82(TM) system (copyright 1983,
 Carnegie Mellon University). Gaussian is a federally registered
 trademark of Gaussian, Inc.
  
 This software contains proprietary and confidential information,
 including trade secrets, belonging to Gaussian, Inc.
  
 This software is provided under written license and may be
 used, copied, transmitted, or stored only in accord with that
 written license.
  
 The following legend is applicable only to US Government
 contracts under FAR:
  
                    RESTRICTED RIGHTS LEGEND
  
 Use, reproduction and disclosure by the US Government is
 subject to restrictions as set forth in subparagraphs (a)
 and (c) of the Commercial Computer Software - Restricted
 Rights clause in FAR 52.227-19.
  
 Gaussian, Inc.
 340 Quinnipiac St., Bldg. 40, Wallingford CT 06492
  
  
 ---------------------------------------------------------------
 Warning -- This program may not be used in any manner that
 competes with the business of Gaussian, Inc. or will provide
 assistance to any competitor of Gaussian, Inc.  The licensee
 of this program is prohibited from giving any competitor of
 Gaussian, Inc. access to this program.  By using this program,
 the user acknowledges that Gaussian, Inc. is engaged in the
 business of creating and licensing software in the field of
 computational chemistry and represents and warrants to the
 licensee that it is not a competitor of Gaussian, Inc. and that
 it will not use this program in any manner prohibited above.
 ---------------------------------------------------------------
  

 Cite this work as:
 Gaussian 09, Revision D.01,
 M. J. Frisch, G. W. Trucks, H. B. Schlegel, G. E. Scuseria, 
 M. A. Robb, J. R. Cheeseman, G. Scalmani, V. Barone, B. Mennucci, 
 G. A. Petersson, H. Nakatsuji, M. Caricato, X. Li, H. P. Hratchian, 
 A. F. Izmaylov, J. Bloino, G. Zheng, J. L. Sonnenberg, M. Hada, 
 M. Ehara, K. Toyota, R. Fukuda, J. Hasegawa, M. Ishida, T. Nakajima, 
 Y. Honda, O. Kitao, H. Nakai, T. Vreven, J. A. Montgomery, Jr., 
 J. E. Peralta, F. Ogliaro, M. Bearpark, J. J. Heyd, E. Brothers, 
 K. N. Kudin, V. N. Staroverov, T. Keith, R. Kobayashi, J. Normand, 
 K. Raghavachari, A. Rendell, J. C. Burant, S. S. Iyengar, J. Tomasi, 
 M. Cossi, N. Rega, J. M. Millam, M. Klene, J. E. Knox, J. B. Cross, 
 V. Bakken, C. Adamo, J. Jaramillo, R. Gomperts, R. E. Stratmann, 
 O. Yazyev, A. J. Austin, R. Cammi, C. Pomelli, J. W. Ochterski, 
 R. L. Martin, K. Morokuma, V. G. Zakrzewski, G. A. Voth, 
 P. Salvador, J. J. Dannenberg, S. Dapprich, A. D. Daniels, 
 O. Farkas, J. B. Foresman, J. V. Ortiz, J. Cioslowski, 
 and D. J. Fox, Gaussian, Inc., Wallingford CT, 2013.
 
 ******************************************
 Gaussian 09:  ES64L-G09RevD.01 24-Apr-2013
                10-Jan-2016 
 ******************************************
 -----------------------
 #P B3LYP/3-21G Opt Freq
 -----------------------
 1/14=-1,18=20,19=15,26=3,38=1/1,3;
 2/9=110,12=2,17=6,18=5,40=1/2;
 3/5=5,11=2,16=1,25=1,30=1,71=1,74=-5/1,2,3;
 4//1;
 5/5=2,38=5/2;
 6/7=2,8=2,9=2,10=2,28=1/1;
 7//1,2,3,16;
 1/14=-1,18=20,19=15,26=3/3(2);
 2/9=110/2;
 99//99;
 2/9=110/2;
 3/5=5,11=2,16=1,25=1,30=1,71=1,74=-5/1,2,3;
 4/5=5,16=3,69=1/1;
 5/5=2,38=5/2;
 7//1,2,3,16;
 1/14=-1,18=20,19=15,26=3/3(-5);
 2/9=110/2;
 6/7=2,8=2,9=2,10=2,19=2,28=1/1;
 99/9=1/99;
 Leave Link    1 at Sun Jan 10 23:06:04 2016, MaxMem=           0 cpu:         0.0
 (Enter /opt/g09/g09/l101.exe)
 ------------------------
 Thiophene at B3LYP/3-21G
 ------------------------
 Symbolic Z-matrix:
 Charge =  0 Multiplicity = 1
 6                     0.95548  -0.71596   0. 
 6                    -0.34563  -1.09282   0. 
 16                   -1.15731   0.        0. 
 6                    -0.34563   1.09282   0. 
 6                     0.95548   0.71596   0. 
 1                     1.81044   1.36938   0. 
 1                    -0.84031   2.04688   0. 
 1                    -0.84031  -2.04688   0. 
 1                     1.81044  -1.36938   0. 
 
 NAtoms=      9 NQM=        9 NQMF=       0 NMMI=      0 NMMIF=      0
                NMic=       0 NMicF=      0.
                    Isotopes and Nuclear Properties:
 (Nuclear quadrupole moments (NQMom) in fm**2, nuclear magnetic moments (NMagM)
  in nuclear magnetons)

  Atom         1           2           3           4           5           6           7           8           9
 IAtWgt=          12          12          32          12          12           1           1           1           1
 AtmWgt=  12.0000000  12.0000000  31.9720718  12.0000000  12.0000000   1.0078250   1.0078250   1.0078250   1.0078250
 NucSpn=           0           0           0           0           0           1           1           1           1
 AtZEff=   0.0000000   0.0000000   0.0000000   0.0000000   0.0000000   0.0000000   0.0000000   0.0000000   0.0000000
 NQMom=    0.0000000   0.0000000   0.0000000   0.0000000   0.0000000   0.0000000   0.0000000   0.0000000   0.0000000
 NMagM=    0.0000000   0.0000000   0.0000000   0.0000000   0.0000000   2.7928460   2.7928460   2.7928460   2.7928460
 AtZNuc=   6.0000000   6.0000000  16.0000000   6.0000000   6.0000000   1.0000000   1.0000000   1.0000000   1.0000000
 Leave Link  101 at Sun Jan 10 23:06:04 2016, MaxMem=    33554432 cpu:         0.0
 (Enter /opt/g09/g09/l103.exe)

 GradGradGradGradGradGradGradGradGradGradGradGradGradGradGradGradGradGrad
 Berny optimization.
 Initialization pass.
                           ----------------------------
                           !    Initial Parameters    !
                           ! (Angstroms and Degrees)  !
 --------------------------                            --------------------------
 ! Name  Definition              Value          Derivative Info.                !
 --------------------------------------------------------------------------------
 ! R1    R(1,2)                  1.3546         estimate D2E/DX2                !
 ! R2    R(1,5)                  1.4319         estimate D2E/DX2                !
 ! R3    R(1,9)                  1.0761         estimate D2E/DX2                !
 ! R4    R(2,3)                  1.3613         estimate D2E/DX2                !
 ! R5    R(2,8)                  1.0747         estimate D2E/DX2                !
 ! R6    R(3,4)                  1.3613         estimate D2E/DX2                !
 ! R7    R(4,5)                  1.3546         estimate D2E/DX2                !
 ! R8    R(4,7)                  1.0747         estimate D2E/DX2                !
 ! R9    R(5,6)                  1.0761         estimate D2E/DX2                !
 ! A1    A(2,1,5)              106.1533         estimate D2E/DX2                !
 ! A2    A(2,1,9)              126.4573         estimate D2E/DX2                !
 ! A3    A(5,1,9)              127.3894         estimate D2E/DX2                !
 ! A4    A(1,2,3)              110.4494         estimate D2E/DX2                !
 ! A5    A(1,2,8)              133.5599         estimate D2E/DX2                !
 ! A6    A(3,2,8)              115.9907         estimate D2E/DX2                !
 ! A7    A(2,3,4)              106.7946         estimate D2E/DX2                !
 ! A8    A(3,4,5)              110.4494         estimate D2E/DX2                !
 ! A9    A(3,4,7)              115.9907         estimate D2E/DX2                !
 ! A10   A(5,4,7)              133.5599         estimate D2E/DX2                !
 ! A11   A(1,5,4)              106.1533         estimate D2E/DX2                !
 ! A12   A(1,5,6)              127.3894         estimate D2E/DX2                !
 ! A13   A(4,5,6)              126.4573         estimate D2E/DX2                !
 ! D1    D(5,1,2,3)              0.0            estimate D2E/DX2                !
 ! D2    D(5,1,2,8)            180.0            estimate D2E/DX2                !
 ! D3    D(9,1,2,3)            180.0            estimate D2E/DX2                !
 ! D4    D(9,1,2,8)              0.0            estimate D2E/DX2                !
 ! D5    D(2,1,5,4)              0.0            estimate D2E/DX2                !
 ! D6    D(2,1,5,6)            180.0            estimate D2E/DX2                !
 ! D7    D(9,1,5,4)            180.0            estimate D2E/DX2                !
 ! D8    D(9,1,5,6)              0.0            estimate D2E/DX2                !
 ! D9    D(1,2,3,4)              0.0            estimate D2E/DX2                !
 ! D10   D(8,2,3,4)            180.0            estimate D2E/DX2                !
 ! D11   D(2,3,4,5)              0.0            estimate D2E/DX2                !
 ! D12   D(2,3,4,7)            180.0            estimate D2E/DX2                !
 ! D13   D(3,4,5,1)              0.0            estimate D2E/DX2                !
 ! D14   D(3,4,5,6)            180.0            estimate D2E/DX2                !
 ! D15   D(7,4,5,1)            180.0            estimate D2E/DX2                !
 ! D16   D(7,4,5,6)              0.0            estimate D2E/DX2                !
 --------------------------------------------------------------------------------
 Trust Radius=3.00D-01 FncErr=1.00D-07 GrdErr=1.00D-06
 Number of steps in this run=     48 maximum allowed number of steps=    100.
 GradGradGradGradGradGradGradGradGradGradGradGradGradGradGradGradGradGrad

 Leave Link  103 at Sun Jan 10 23:06:04 2016, MaxMem=    33554432 cpu:         0.0
 (Enter /opt/g09/g09/l202.exe)
                          Input orientation:                          
 ---------------------------------------------------------------------
 Center     Atomic      Atomic             Coordinates (Angstroms)
 Number     Number       Type             X           Y           Z
 ---------------------------------------------------------------------
      1          6           0        0.955475   -0.715963    0.000000
      2          6           0       -0.345627   -1.092818    0.000000
      3         16           0       -1.157305    0.000000    0.000000
      4          6           0       -0.345627    1.092818    0.000000
      5          6           0        0.955475    0.715963    0.000000
      6          1           0        1.810438    1.369382    0.000000
      7          1           0       -0.840307    2.046884    0.000000
      8          1           0       -0.840307   -2.046884    0.000000
      9          1           0        1.810438   -1.369382    0.000000
 ---------------------------------------------------------------------
                    Distance matrix (angstroms):
                    1          2          3          4          5
     1  C    0.000000
     2  C    1.354580   0.000000
     3  S    2.230794   1.361276   0.000000
     4  C    2.228128   2.185636   1.361276   0.000000
     5  C    1.431926   2.228128   2.230794   1.354580   0.000000
     6  H    2.253802   3.272773   3.268441   2.173730   1.076066
     7  H    3.295172   3.178433   2.071285   1.074686   2.235214
     8  H    2.235214   1.074686   2.071285   3.178433   3.295172
     9  H    1.076066   2.173730   3.268441   3.272773   2.253802
                    6          7          8          9
     6  H    0.000000
     7  H    2.735957   0.000000
     8  H    4.324040   4.093768   0.000000
     9  H    2.738764   4.324040   2.735957   0.000000
 Stoichiometry    C4H4S
 Framework group  C2V[C2(S),SGV(C4H4)]
 Deg. of freedom     8
 Full point group                 C2V     NOp   4
 Largest Abelian subgroup         C2V     NOp   4
 Largest concise Abelian subgroup C2      NOp   2
                         Standard orientation:                         
 ---------------------------------------------------------------------
 Center     Atomic      Atomic             Coordinates (Angstroms)
 Number     Number       Type             X           Y           Z
 ---------------------------------------------------------------------
      1          6           0        0.000000    0.715963   -1.165894
      2          6           0        0.000000    1.092818    0.135208
      3         16           0        0.000000    0.000000    0.946886
      4          6           0        0.000000   -1.092818    0.135208
      5          6           0        0.000000   -0.715963   -1.165894
      6          1           0        0.000000   -1.369382   -2.020857
      7          1           0        0.000000   -2.046884    0.629888
      8          1           0        0.000000    2.046884    0.629888
      9          1           0        0.000000    1.369382   -2.020857
 ---------------------------------------------------------------------
 Rotational constants (GHZ):      9.5015164      7.1512017      4.0802504
 Leave Link  202 at Sun Jan 10 23:06:04 2016, MaxMem=    33554432 cpu:         0.0
 (Enter /opt/g09/g09/l301.exe)
 Standard basis: 3-21G (6D, 7F)
 Ernie: Thresh=  0.10000D-02 Tol=  0.10000D-05 Strict=F.
 There are    25 symmetry adapted cartesian basis functions of A1  symmetry.
 There are     4 symmetry adapted cartesian basis functions of A2  symmetry.
 There are     7 symmetry adapted cartesian basis functions of B1  symmetry.
 There are    21 symmetry adapted cartesian basis functions of B2  symmetry.
 There are    25 symmetry adapted basis functions of A1  symmetry.
 There are     4 symmetry adapted basis functions of A2  symmetry.
 There are     7 symmetry adapted basis functions of B1  symmetry.
 There are    21 symmetry adapted basis functions of B2  symmetry.
    57 basis functions,    99 primitive gaussians,    57 cartesian basis functions
    22 alpha electrons       22 beta electrons
       nuclear repulsion energy       227.9956068494 Hartrees.



 Warning!  S  atom    3 may be hypervalent but has no d functions.



 IExCor=  402 DFT=T Ex+Corr=B3LYP ExCW=0 ScaHFX=  0.200000
 ScaDFX=  0.800000  0.720000  1.000000  0.810000 ScalE2=  1.000000  1.000000
 IRadAn=      0 IRanWt=     -1 IRanGd=            0 ICorTp=0 IEmpDi=  4
 NAtoms=    9 NActive=    9 NUniq=    5 SFac= 3.24D+00 NAtFMM=   60 NAOKFM=F Big=F
 Integral buffers will be    131072 words long.
 Raffenetti 2 integral format.
 Two-electron integral symmetry is turned on.
 Leave Link  301 at Sun Jan 10 23:06:04 2016, MaxMem=    33554432 cpu:         0.0
 (Enter /opt/g09/g09/l302.exe)
 NPDir=0 NMtPBC=     1 NCelOv=     1 NCel=       1 NClECP=     1 NCelD=      1
         NCelK=      1 NCelE2=     1 NClLst=     1 CellRange=     0.0.
 One-electron integrals computed using PRISM.
 One-electron integral symmetry used in STVInt
 NBasis=    57 RedAO= T EigKep=  3.09D-03  NBF=    25     4     7    21
 NBsUse=    57 1.00D-06 EigRej= -1.00D+00 NBFU=    25     4     7    21
 Precomputing XC quadrature grid using
 IXCGrd= 4 IRadAn=           0 IRanWt=          -1 IRanGd=           0 AccXCQ= 0.00D+00.
 Generated NRdTot=       0 NPtTot=           0 NUsed=           0 NTot=          32
 NSgBfM=    57    57    57    57    57 MxSgAt=     9 MxSgA2=     9.
 Leave Link  302 at Sun Jan 10 23:06:04 2016, MaxMem=    33554432 cpu:         0.1
 (Enter /opt/g09/g09/l303.exe)
 DipDrv:  MaxL=1.
 Leave Link  303 at Sun Jan 10 23:06:04 2016, MaxMem=    33554432 cpu:         0.0
 (Enter /opt/g09/g09/l401.exe)
 ExpMin= 1.42D-01 ExpMax= 1.21D+03 ExpMxC= 1.21D+03 IAcc=1 IRadAn=         1 AccDes= 0.00D+00
 Harris functional with IExCor=  402 and IRadAn=       1 diagonalized for initial guess.
 HarFok:  IExCor=  402 AccDes= 0.00D+00 IRadAn=         1 IDoV= 1 UseB2=F ITyADJ=14
 ICtDFT=  3500011 ScaDFX=  1.000000  1.000000  1.000000  1.000000
 FoFCou: FMM=F IPFlag=           0 FMFlag=      100000 FMFlg1=           0
         NFxFlg=           0 DoJE=T BraDBF=F KetDBF=T FulRan=T
         wScrn=  0.000000 ICntrl=     500 IOpCl=  0 I1Cent=   200000004 NGrid=           0
         NMat0=    1 NMatS0=      1 NMatT0=    0 NMatD0=    1 NMtDS0=    0 NMtDT0=    0
 Petite list used in FoFCou.
 Harris En= -549.846660324641    
 JPrj=0 DoOrth=F DoCkMO=F.
 Initial guess orbital symmetries:
       Occupied  (A1) (A1) (B2) (B2) (A1) (A1) (B2) (A1) (B1) (A1)
                 (B2) (A1) (B2) (A1) (A1) (B2) (B1) (B2) (A1) (A2)
                 (A1) (B1)
       Virtual   (A2) (B1) (A1) (B2) (B2) (A1) (B2) (A1) (A1) (B2)
                 (B2) (A1) (B1) (A1) (B2) (A1) (B1) (A2) (A1) (B2)
                 (B1) (A2) (A1) (B2) (B2) (A1) (B2) (A1) (A1) (B2)
                 (B2) (A1) (B2) (A1) (B2)
 The electronic state of the initial guess is 1-A1.
 Leave Link  401 at Sun Jan 10 23:06:04 2016, MaxMem=    33554432 cpu:         0.1
 (Enter /opt/g09/g09/l502.exe)
 Closed shell SCF:
 Using DIIS extrapolation, IDIIS=  1040.
 Integral symmetry usage will be decided dynamically.
 Keep R1 ints in memory in symmetry-blocked form, NReq=2278287.
 IVT=       29221 IEndB=       29221 NGot=    33554432 MDV=    33126421
 LenX=    33126421 LenY=    33122731
 Requested convergence on RMS density matrix=1.00D-08 within 128 cycles.
 Requested convergence on MAX density matrix=1.00D-06.
 Requested convergence on             energy=1.00D-06.
 No special actions if energy rises.
 FoFCou: FMM=F IPFlag=           0 FMFlag=           0 FMFlg1=           0
         NFxFlg=           0 DoJE=F BraDBF=F KetDBF=F FulRan=T
         wScrn=  0.000000 ICntrl=     600 IOpCl=  0 I1Cent=           0 NGrid=           0
         NMat0=    1 NMatS0=   1653 NMatT0=    0 NMatD0=    1 NMtDS0=    0 NMtDT0=    0
 Petite list used in FoFCou.
 Integral accuracy reduced to 1.0D-05 until final iterations.

 Cycle   1  Pass 0  IDiag  1:
 E= -549.678555320733    
 DIIS: error= 6.11D-02 at cycle   1 NSaved=   1.
 NSaved= 1 IEnMin= 1 EnMin= -549.678555320733     IErMin= 1 ErrMin= 6.11D-02
 ErrMax= 6.11D-02  0.00D+00 EMaxC= 1.00D-01 BMatC= 1.74D-01 BMatP= 1.74D-01
 IDIUse=3 WtCom= 3.89D-01 WtEn= 6.11D-01
 Coeff-Com:  0.100D+01
 Coeff-En:   0.100D+01
 Coeff:      0.100D+01
 Gap=     0.240 Goal=   None    Shift=    0.000
 GapD=    0.240 DampG=1.000 DampE=0.500 DampFc=0.5000 IDamp=-1.
 Damping current iteration by 5.00D-01
 RMSDP=1.92D-02 MaxDP=1.71D-01              OVMax= 2.06D-01

 Cycle   2  Pass 0  IDiag  1:
 E= -549.762959370021     Delta-E=       -0.084404049288 Rises=F Damp=T
 DIIS: error= 5.72D-03 at cycle   2 NSaved=   2.
 NSaved= 2 IEnMin= 2 EnMin= -549.762959370021     IErMin= 2 ErrMin= 5.72D-03
 ErrMax= 5.72D-03  0.00D+00 EMaxC= 1.00D-01 BMatC= 3.86D-03 BMatP= 1.74D-01
 IDIUse=3 WtCom= 9.43D-01 WtEn= 5.72D-02
 Coeff-Com:  0.158D-01 0.984D+00
 Coeff-En:   0.430D-01 0.957D+00
 Coeff:      0.173D-01 0.983D+00
 Gap=     0.308 Goal=   None    Shift=    0.000
 RMSDP=4.94D-03 MaxDP=6.94D-02 DE=-8.44D-02 OVMax= 1.32D-01

 Cycle   3  Pass 0  IDiag  1:
 E= -549.851710519338     Delta-E=       -0.088751149317 Rises=F Damp=F
 DIIS: error= 8.11D-03 at cycle   3 NSaved=   3.
 NSaved= 3 IEnMin= 3 EnMin= -549.851710519338     IErMin= 2 ErrMin= 5.72D-03
 ErrMax= 8.11D-03  0.00D+00 EMaxC= 1.00D-01 BMatC= 1.80D-03 BMatP= 3.86D-03
 IDIUse=3 WtCom= 9.19D-01 WtEn= 8.11D-02
 Coeff-Com: -0.699D-02 0.379D+00 0.628D+00
 Coeff-En:   0.000D+00 0.000D+00 0.100D+01
 Coeff:     -0.642D-02 0.348D+00 0.659D+00
 Gap=     0.301 Goal=   None    Shift=    0.000
 RMSDP=1.73D-03 MaxDP=1.60D-02 DE=-8.88D-02 OVMax= 2.87D-02

 Cycle   4  Pass 0  IDiag  1:
 E= -549.852928139758     Delta-E=       -0.001217620419 Rises=F Damp=F
 DIIS: error= 5.16D-03 at cycle   4 NSaved=   4.
 NSaved= 4 IEnMin= 4 EnMin= -549.852928139758     IErMin= 4 ErrMin= 5.16D-03
 ErrMax= 5.16D-03  0.00D+00 EMaxC= 1.00D-01 BMatC= 7.26D-04 BMatP= 1.80D-03
 IDIUse=3 WtCom= 9.48D-01 WtEn= 5.16D-02
 Coeff-Com: -0.439D-02 0.463D-01 0.392D+00 0.567D+00
 Coeff-En:   0.000D+00 0.000D+00 0.303D+00 0.697D+00
 Coeff:     -0.416D-02 0.439D-01 0.387D+00 0.573D+00
 Gap=     0.307 Goal=   None    Shift=    0.000
 RMSDP=6.81D-04 MaxDP=7.92D-03 DE=-1.22D-03 OVMax= 1.17D-02

 Cycle   5  Pass 0  IDiag  1:
 E= -549.853704419995     Delta-E=       -0.000776280237 Rises=F Damp=F
 DIIS: error= 2.02D-04 at cycle   5 NSaved=   5.
 NSaved= 5 IEnMin= 5 EnMin= -549.853704419995     IErMin= 5 ErrMin= 2.02D-04
 ErrMax= 2.02D-04  0.00D+00 EMaxC= 1.00D-01 BMatC= 2.50D-06 BMatP= 7.26D-04
 IDIUse=3 WtCom= 9.98D-01 WtEn= 2.02D-03
 Coeff-Com:  0.977D-03-0.290D-02 0.438D-01 0.102D+00 0.856D+00
 Coeff-En:   0.000D+00 0.000D+00 0.000D+00 0.000D+00 0.100D+01
 Coeff:      0.975D-03-0.289D-02 0.437D-01 0.102D+00 0.856D+00
 Gap=     0.307 Goal=   None    Shift=    0.000
 RMSDP=6.18D-05 MaxDP=6.58D-04 DE=-7.76D-04 OVMax= 5.15D-04

 Cycle   6  Pass 0  IDiag  1:
 E= -549.853707037298     Delta-E=       -0.000002617303 Rises=F Damp=F
 DIIS: error= 6.35D-05 at cycle   6 NSaved=   6.
 NSaved= 6 IEnMin= 6 EnMin= -549.853707037298     IErMin= 6 ErrMin= 6.35D-05
 ErrMax= 6.35D-05  0.00D+00 EMaxC= 1.00D-01 BMatC= 1.80D-07 BMatP= 2.50D-06
 IDIUse=1 WtCom= 1.00D+00 WtEn= 0.00D+00
 Coeff-Com:  0.625D-03-0.257D-02 0.919D-02 0.296D-01 0.359D+00 0.604D+00
 Coeff:      0.625D-03-0.257D-02 0.919D-02 0.296D-01 0.359D+00 0.604D+00
 Gap=     0.307 Goal=   None    Shift=    0.000
 RMSDP=1.42D-05 MaxDP=2.19D-04 DE=-2.62D-06 OVMax= 1.07D-04

 Cycle   7  Pass 0  IDiag  1:
 E= -549.853707236009     Delta-E=       -0.000000198711 Rises=F Damp=F
 DIIS: error= 2.27D-06 at cycle   7 NSaved=   7.
 NSaved= 7 IEnMin= 7 EnMin= -549.853707236009     IErMin= 7 ErrMin= 2.27D-06
 ErrMax= 2.27D-06  0.00D+00 EMaxC= 1.00D-01 BMatC= 3.18D-10 BMatP= 1.80D-07
 IDIUse=1 WtCom= 1.00D+00 WtEn= 0.00D+00
 Coeff-Com:  0.130D-04-0.162D-04-0.763D-03-0.138D-02-0.125D-01-0.441D-02
 Coeff-Com:  0.102D+01
 Coeff:      0.130D-04-0.162D-04-0.763D-03-0.138D-02-0.125D-01-0.441D-02
 Coeff:      0.102D+01
 Gap=     0.307 Goal=   None    Shift=    0.000
 RMSDP=9.03D-07 MaxDP=9.19D-06 DE=-1.99D-07 OVMax= 1.58D-05

 Initial convergence to 1.0D-05 achieved.  Increase integral accuracy.
 Cycle   8  Pass 1  IDiag  1:
 E= -549.853715040211     Delta-E=       -0.000007804202 Rises=F Damp=F
 DIIS: error= 1.71D-05 at cycle   1 NSaved=   1.
 NSaved= 1 IEnMin= 1 EnMin= -549.853715040211     IErMin= 1 ErrMin= 1.71D-05
 ErrMax= 1.71D-05  0.00D+00 EMaxC= 1.00D-01 BMatC= 1.47D-08 BMatP= 1.47D-08
 IDIUse=1 WtCom= 1.00D+00 WtEn= 0.00D+00
 Coeff-Com:  0.100D+01
 Coeff:      0.100D+01
 Gap=     0.307 Goal=   None    Shift=    0.000
 RMSDP=9.03D-07 MaxDP=9.19D-06 DE=-7.80D-06 OVMax= 3.56D-05

 Cycle   9  Pass 1  IDiag  1:
 E= -549.853715060234     Delta-E=       -0.000000020023 Rises=F Damp=F
 DIIS: error= 4.09D-06 at cycle   2 NSaved=   2.
 NSaved= 2 IEnMin= 2 EnMin= -549.853715060234     IErMin= 2 ErrMin= 4.09D-06
 ErrMax= 4.09D-06  0.00D+00 EMaxC= 1.00D-01 BMatC= 7.38D-10 BMatP= 1.47D-08
 IDIUse=1 WtCom= 1.00D+00 WtEn= 0.00D+00
 Coeff-Com:  0.612D-01 0.939D+00
 Coeff:      0.612D-01 0.939D+00
 Gap=     0.307 Goal=   None    Shift=    0.000
 RMSDP=1.12D-06 MaxDP=1.55D-05 DE=-2.00D-08 OVMax= 1.54D-05

 Cycle  10  Pass 1  IDiag  1:
 E= -549.853715060505     Delta-E=       -0.000000000271 Rises=F Damp=F
 DIIS: error= 3.27D-06 at cycle   3 NSaved=   3.
 NSaved= 3 IEnMin= 3 EnMin= -549.853715060505     IErMin= 3 ErrMin= 3.27D-06
 ErrMax= 3.27D-06  0.00D+00 EMaxC= 1.00D-01 BMatC= 5.46D-10 BMatP= 7.38D-10
 IDIUse=1 WtCom= 1.00D+00 WtEn= 0.00D+00
 Coeff-Com: -0.201D-01 0.462D+00 0.558D+00
 Coeff:     -0.201D-01 0.462D+00 0.558D+00
 Gap=     0.307 Goal=   None    Shift=    0.000
 RMSDP=5.90D-07 MaxDP=1.19D-05 DE=-2.71D-10 OVMax= 8.49D-06

 Cycle  11  Pass 1  IDiag  1:
 E= -549.853715061003     Delta-E=       -0.000000000498 Rises=F Damp=F
 DIIS: error= 8.13D-07 at cycle   4 NSaved=   4.
 NSaved= 4 IEnMin= 4 EnMin= -549.853715061003     IErMin= 4 ErrMin= 8.13D-07
 ErrMax= 8.13D-07  0.00D+00 EMaxC= 1.00D-01 BMatC= 2.16D-11 BMatP= 5.46D-10
 IDIUse=1 WtCom= 1.00D+00 WtEn= 0.00D+00
 Coeff-Com: -0.130D-01 0.230D+00 0.307D+00 0.476D+00
 Coeff:     -0.130D-01 0.230D+00 0.307D+00 0.476D+00
 Gap=     0.307 Goal=   None    Shift=    0.000
 RMSDP=1.43D-07 MaxDP=1.47D-06 DE=-4.98D-10 OVMax= 2.02D-06

 Cycle  12  Pass 1  IDiag  1:
 E= -549.853715061031     Delta-E=       -0.000000000028 Rises=F Damp=F
 DIIS: error= 9.60D-08 at cycle   5 NSaved=   5.
 NSaved= 5 IEnMin= 5 EnMin= -549.853715061031     IErMin= 5 ErrMin= 9.60D-08
 ErrMax= 9.60D-08  0.00D+00 EMaxC= 1.00D-01 BMatC= 3.46D-13 BMatP= 2.16D-11
 IDIUse=1 WtCom= 1.00D+00 WtEn= 0.00D+00
 Coeff-Com: -0.219D-02 0.301D-01 0.436D-01 0.135D+00 0.793D+00
 Coeff:     -0.219D-02 0.301D-01 0.436D-01 0.135D+00 0.793D+00
 Gap=     0.307 Goal=   None    Shift=    0.000
 RMSDP=2.95D-08 MaxDP=2.42D-07 DE=-2.75D-11 OVMax= 3.88D-07

 Cycle  13  Pass 1  IDiag  1:
 E= -549.853715061028     Delta-E=        0.000000000002 Rises=F Damp=F
 DIIS: error= 3.75D-08 at cycle   6 NSaved=   6.
 NSaved= 6 IEnMin= 5 EnMin= -549.853715061031     IErMin= 6 ErrMin= 3.75D-08
 ErrMax= 3.75D-08  0.00D+00 EMaxC= 1.00D-01 BMatC= 8.66D-14 BMatP= 3.46D-13
 IDIUse=1 WtCom= 1.00D+00 WtEn= 0.00D+00
 Coeff-Com: -0.192D-03-0.950D-03-0.381D-05 0.286D-01 0.396D+00 0.577D+00
 Coeff:     -0.192D-03-0.950D-03-0.381D-05 0.286D-01 0.396D+00 0.577D+00
 Gap=     0.307 Goal=   None    Shift=    0.000
 RMSDP=9.02D-09 MaxDP=1.04D-07 DE= 2.16D-12 OVMax= 6.72D-08

 SCF Done:  E(RB3LYP) =  -549.853715061     A.U. after   13 cycles
            NFock= 13  Conv=0.90D-08     -V/T= 1.9990
 KE= 5.504148123035D+02 PE=-1.755453991832D+03 EE= 4.271898576181D+02
 Leave Link  502 at Sun Jan 10 23:06:05 2016, MaxMem=    33554432 cpu:         1.0
 (Enter /opt/g09/g09/l601.exe)
 Copying SCF densities to generalized density rwf, IOpCl= 0 IROHF=0.

 **********************************************************************

            Population analysis using the SCF density.

 **********************************************************************

 Orbital symmetries:
       Occupied  (A1) (B2) (A1) (A1) (B2) (A1) (B2) (A1) (B1) (A1)
                 (B2) (A1) (B2) (A1) (A1) (B1) (B2) (B2) (A1) (A1)
                 (A2) (B1)
       Virtual   (B1) (A2) (A1) (B2) (B2) (A1) (A1) (B2) (A1) (B2)
                 (A1) (B1) (B2) (A1) (B2) (A1) (B1) (A2) (B2) (A1)
                 (B1) (A2) (A1) (B2) (B2) (A1) (B2) (A1) (A1) (B2)
                 (B2) (A1) (B2) (A1) (B2)
 The electronic state is 1-A1.
 Alpha  occ. eigenvalues --  -88.25194 -10.11916 -10.11823 -10.11739 -10.11728
 Alpha  occ. eigenvalues --   -7.93171  -5.89980  -5.89056  -5.88751  -1.04572
 Alpha  occ. eigenvalues --   -0.78573  -0.76252  -0.60241  -0.55689  -0.52094
 Alpha  occ. eigenvalues --   -0.46564  -0.43371  -0.40645  -0.39327  -0.31804
 Alpha  occ. eigenvalues --   -0.25607  -0.24827
 Alpha virt. eigenvalues --    0.05869   0.07176   0.11913   0.15674   0.17576
 Alpha virt. eigenvalues --    0.19197   0.20253   0.20835   0.29811   0.34556
 Alpha virt. eigenvalues --    0.44374   0.47266   0.48470   0.56452   0.65933
 Alpha virt. eigenvalues --    0.74243   0.74900   0.75812   0.77581   0.79069
 Alpha virt. eigenvalues --    0.83122   0.83620   0.92534   0.98871   1.01360
 Alpha virt. eigenvalues --    1.02434   1.05590   1.08174   1.29934   1.33453
 Alpha virt. eigenvalues --    1.35335   1.50685   1.66441   1.88607   2.04993
          Condensed to atoms (all electrons):
               1          2          3          4          5          6
     1  C    5.172239   0.376935  -0.185023  -0.129765   0.561509  -0.030112
     2  C    0.376935   6.327118   0.079197  -0.181330  -0.129765   0.006519
     3  S   -0.185023   0.079197  15.218122   0.079197  -0.185023   0.007110
     4  C   -0.129765  -0.181330   0.079197   6.327118   0.376935  -0.039949
     5  C    0.561509  -0.129765  -0.185023   0.376935   5.172239   0.393537
     6  H   -0.030112   0.006519   0.007110  -0.039949   0.393537   0.489018
     7  H    0.001534   0.008801  -0.082128   0.398541   0.001976  -0.002374
     8  H    0.001976   0.398541  -0.082128   0.008801   0.001534  -0.000023
     9  H    0.393537  -0.039949   0.007110   0.006519  -0.030112  -0.001341
               7          8          9
     1  C    0.001534   0.001976   0.393537
     2  C    0.008801   0.398541  -0.039949
     3  S   -0.082128  -0.082128   0.007110
     4  C    0.398541   0.008801   0.006519
     5  C    0.001976   0.001534  -0.030112
     6  H   -0.002374  -0.000023  -0.001341
     7  H    0.414210  -0.000036  -0.000023
     8  H   -0.000036   0.414210  -0.002374
     9  H   -0.000023  -0.002374   0.489018
 Mulliken charges:
               1
     1  C   -0.162830
     2  C   -0.846067
     3  S    1.143567
     4  C   -0.846067
     5  C   -0.162830
     6  H    0.177614
     7  H    0.259499
     8  H    0.259499
     9  H    0.177614
 Sum of Mulliken charges =   0.00000
 Mulliken charges with hydrogens summed into heavy atoms:
               1
     1  C    0.014784
     2  C   -0.586568
     3  S    1.143567
     4  C   -0.586568
     5  C    0.014784
 Electronic spatial extent (au):  <R**2>=            337.4355
 Charge=              0.0000 electrons
 Dipole moment (field-independent basis, Debye):
    X=              0.0000    Y=              0.0000    Z=              0.1529  Tot=              0.1529
 Quadrupole moment (field-independent basis, Debye-Ang):
   XX=            -38.4504   YY=            -32.3075   ZZ=            -35.1125
   XY=              0.0000   XZ=              0.0000   YZ=              0.0000
 Traceless Quadrupole moment (field-independent basis, Debye-Ang):
   XX=             -3.1603   YY=              2.9826   ZZ=              0.1776
   XY=              0.0000   XZ=              0.0000   YZ=              0.0000
 Octapole moment (field-independent basis, Debye-Ang**2):
  XXX=              0.0000  YYY=              0.0000  ZZZ=             -4.4644  XYY=              0.0000
  XXY=              0.0000  XXZ=              3.2195  XZZ=              0.0000  YZZ=              0.0000
  YYZ=              3.3361  XYZ=              0.0000
 Hexadecapole moment (field-independent basis, Debye-Ang**3):
 XXXX=            -41.2374 YYYY=           -170.5857 ZZZZ=           -221.6845 XXXY=              0.0000
 XXXZ=              0.0000 YYYX=              0.0000 YYYZ=              0.0000 ZZZX=              0.0000
 ZZZY=              0.0000 XXYY=            -42.9876 XXZZ=            -48.3555 YYZZ=            -57.6747
 XXYZ=              0.0000 YYXZ=              0.0000 ZZXY=              0.0000
 N-N= 2.279956068494D+02 E-N=-1.755453988087D+03  KE= 5.504148123035D+02
 Symmetry A1   KE= 3.968471178530D+02
 Symmetry A2   KE= 2.401745538409D+00
 Symmetry B1   KE= 4.020778287108D+01
 Symmetry B2   KE= 1.109581660411D+02
 No NMR shielding tensors so no spin-rotation constants.
 Leave Link  601 at Sun Jan 10 23:06:05 2016, MaxMem=    33554432 cpu:         0.1
 (Enter /opt/g09/g09/l701.exe)
 Compute integral first derivatives.
 ... and contract with generalized density number  0.
 Leave Link  701 at Sun Jan 10 23:06:05 2016, MaxMem=    33554432 cpu:         0.1
 (Enter /opt/g09/g09/l702.exe)
 L702 exits ... SP integral derivatives will be done elsewhere.
 Leave Link  702 at Sun Jan 10 23:06:05 2016, MaxMem=    33554432 cpu:         0.0
 (Enter /opt/g09/g09/l703.exe)
 Compute integral first derivatives, UseDBF=F ICtDFT=           0.
 Integral derivatives from FoFJK, PRISM(SPDF).
 Calling FoFJK, ICntrl=      2127 FMM=F ISym2X=1 I1Cent= 0 IOpClX= 0 NMat=1 NMatS=1 NMatT=0.
 FoFJK:  IHMeth= 1 ICntrl=    2127 DoSepK=F KAlg= 0 I1Cent=   0 FoldK=F
 IRaf=         0 NMat=   1 IRICut=       1 DoRegI=T DoRafI=F ISym2E= 1.
 FoFCou: FMM=F IPFlag=           0 FMFlag=      100000 FMFlg1=         800
         NFxFlg=           0 DoJE=F BraDBF=F KetDBF=F FulRan=T
         wScrn=  0.000000 ICntrl=    2127 IOpCl=  0 I1Cent=           0 NGrid=           0
         NMat0=    1 NMatS0=      1 NMatT0=    0 NMatD0=    1 NMtDS0=    0 NMtDT0=    0
 Petite list used in FoFCou.
 Leave Link  703 at Sun Jan 10 23:06:05 2016, MaxMem=    33554432 cpu:         0.2
 (Enter /opt/g09/g09/l716.exe)
 Dipole        = 3.18215271D-16-8.88178420D-16 6.01365598D-02
 ***** Axes restored to original set *****
 -------------------------------------------------------------------
 Center     Atomic                   Forces (Hartrees/Bohr)
 Number     Number              X              Y              Z
 -------------------------------------------------------------------
      1        6           0.067584338    0.005076128    0.000000000
      2        6           0.262484330   -0.427600625    0.000000000
      3       16          -0.703330384    0.000000000    0.000000000
      4        6           0.262484330    0.427600625    0.000000000
      5        6           0.067584338   -0.005076128    0.000000000
      6        1           0.001794603   -0.001586969    0.000000000
      7        1           0.019801921    0.012198460    0.000000000
      8        1           0.019801921   -0.012198460    0.000000000
      9        1           0.001794603    0.001586969    0.000000000
 -------------------------------------------------------------------
 Cartesian Forces:  Max     0.703330384 RMS     0.193259986
 Leave Link  716 at Sun Jan 10 23:06:05 2016, MaxMem=    33554432 cpu:         0.0
 (Enter /opt/g09/g09/l103.exe)

 GradGradGradGradGradGradGradGradGradGradGradGradGradGradGradGradGradGrad
 Berny optimization.
 FormGI is forming the generalized inverse of G from B-inverse, IUseBI=4.
 Internal  Forces:  Max     0.510416430 RMS     0.125313853
 Search for a local minimum.
 Step number   1 out of a maximum of   48
 All quantities printed in internal units (Hartrees-Bohrs-Radians)
 RMS Force = .12531D+00 SwitMx=.10000D-02 MixMth= 1
 Mixed Optimization -- RFO/linear search
 Second derivative matrix not updated -- first step.
 ITU=  0
     Eigenvalues ---    0.02048   0.02329   0.02522   0.03418   0.03589
     Eigenvalues ---    0.05086   0.16000   0.16000   0.16000   0.16000
     Eigenvalues ---    0.22000   0.22909   0.36474   0.36474   0.36644
     Eigenvalues ---    0.36644   0.39017   0.48016   0.53651   1.36328
     Eigenvalues ---    1.41614
 RFO step:  Lambda=-3.56562922D-01 EMin= 2.04817730D-02
 Linear search not attempted -- first point.
 Maximum step size (   0.300) exceeded in Quadratic search.
    -- Step size scaled by   0.637
 Iteration  1 RMS(Cart)=  0.05786255 RMS(Int)=  0.00165117
 Iteration  2 RMS(Cart)=  0.00201823 RMS(Int)=  0.00070327
 Iteration  3 RMS(Cart)=  0.00000132 RMS(Int)=  0.00070327
 Iteration  4 RMS(Cart)=  0.00000000 RMS(Int)=  0.00070327
 ITry= 1 IFail=0 DXMaxC= 2.23D-01 DCOld= 1.00D+10 DXMaxT= 3.00D-01 DXLimC= 3.00D+00 Rises=F
 ClnCor:  largest displacement from symmetrization is 5.13D-13 for atom     8.
 Variable       Old X    -DE/DX   Delta X   Delta X   Delta X     New X
                                 (Linear)    (Quad)   (Total)
    R1        2.55978   0.08478   0.00000   0.05058   0.05022   2.61000
    R2        2.70595   0.05853   0.00000   0.00839   0.00719   2.71314
    R3        2.03347   0.00046   0.00000   0.00041   0.00041   2.03388
    R4        2.57244   0.51042   0.00000   0.18874   0.18968   2.76211
    R5        2.03086   0.00171   0.00000   0.00151   0.00151   2.03237
    R6        2.57244   0.51042   0.00000   0.18874   0.18968   2.76211
    R7        2.55978   0.08478   0.00000   0.05058   0.05022   2.61000
    R8        2.03086   0.00171   0.00000   0.00151   0.00151   2.03237
    R9        2.03347   0.00046   0.00000   0.00041   0.00041   2.03388
    A1        1.85272   0.08990   0.00000   0.02772   0.02607   1.87880
    A2        2.20710  -0.04256   0.00000  -0.01092  -0.01009   2.19700
    A3        2.22337  -0.04734   0.00000  -0.01681  -0.01598   2.20738
    A4        1.92771  -0.00132   0.00000   0.01471   0.01506   1.94276
    A5        2.33106  -0.02289   0.00000  -0.03638  -0.03655   2.29451
    A6        2.02442   0.02421   0.00000   0.02167   0.02149   2.04591
    A7        1.86392  -0.17717   0.00000  -0.08487  -0.08226   1.78166
    A8        1.92771  -0.00132   0.00000   0.01471   0.01506   1.94276
    A9        2.02442   0.02421   0.00000   0.02167   0.02149   2.04591
   A10        2.33106  -0.02289   0.00000  -0.03638  -0.03655   2.29451
   A11        1.85272   0.08990   0.00000   0.02772   0.02607   1.87880
   A12        2.22337  -0.04734   0.00000  -0.01681  -0.01598   2.20738
   A13        2.20710  -0.04256   0.00000  -0.01092  -0.01009   2.19700
    D1        0.00000   0.00000   0.00000   0.00000   0.00000   0.00000
    D2        3.14159   0.00000   0.00000   0.00000   0.00000   3.14159
    D3        3.14159   0.00000   0.00000   0.00000   0.00000   3.14159
    D4        0.00000   0.00000   0.00000   0.00000   0.00000   0.00000
    D5        0.00000   0.00000   0.00000   0.00000   0.00000   0.00000
    D6        3.14159   0.00000   0.00000   0.00000   0.00000   3.14159
    D7        3.14159   0.00000   0.00000   0.00000   0.00000   3.14159
    D8        0.00000   0.00000   0.00000   0.00000   0.00000   0.00000
    D9        0.00000   0.00000   0.00000   0.00000   0.00000   0.00000
   D10        3.14159   0.00000   0.00000   0.00000   0.00000   3.14159
   D11        0.00000   0.00000   0.00000   0.00000   0.00000   0.00000
   D12        3.14159   0.00000   0.00000   0.00000   0.00000   3.14159
   D13        0.00000   0.00000   0.00000   0.00000   0.00000   0.00000
   D14        3.14159   0.00000   0.00000   0.00000   0.00000   3.14159
   D15        3.14159   0.00000   0.00000   0.00000   0.00000   3.14159
   D16        0.00000   0.00000   0.00000   0.00000   0.00000   0.00000
         Item               Value     Threshold  Converged?
 Maximum Force            0.510416     0.000450     NO 
 RMS     Force            0.125314     0.000300     NO 
 Maximum Displacement     0.222743     0.001800     NO 
 RMS     Displacement     0.056950     0.001200     NO 
 Predicted change in Energy=-1.702625D-01
 Lowest energy point so far.  Saving SCF results.
 GradGradGradGradGradGradGradGradGradGradGradGradGradGradGradGradGradGrad

 Leave Link  103 at Sun Jan 10 23:06:05 2016, MaxMem=    33554432 cpu:         0.0
 (Enter /opt/g09/g09/l202.exe)
                          Input orientation:                          
 ---------------------------------------------------------------------
 Center     Atomic      Atomic             Coordinates (Angstroms)
 Number     Number       Type             X           Y           Z
 ---------------------------------------------------------------------
      1          6           0        0.960022   -0.717865    0.000000
      2          6           0       -0.356137   -1.136567    0.000000
      3         16           0       -1.275175    0.000000    0.000000
      4          6           0       -0.356137    1.136567    0.000000
      5          6           0        0.960022    0.717865    0.000000
      6          1           0        1.825492    1.357666    0.000000
      7          1           0       -0.790463    2.120452    0.000000
      8          1           0       -0.790463   -2.120452    0.000000
      9          1           0        1.825492   -1.357666    0.000000
 ---------------------------------------------------------------------
                    Distance matrix (angstroms):
                    1          2          3          4          5
     1  C    0.000000
     2  C    1.381155   0.000000
     3  S    2.347646   1.461648   0.000000
     4  C    2.274026   2.273134   1.461648   0.000000
     5  C    1.435730   2.274026   2.347646   1.381155   0.000000
     6  H    2.248748   3.313715   3.384877   2.192804   1.076282
     7  H    3.334702   3.285850   2.175146   1.075485   2.243089
     8  H    2.243089   1.075485   2.175146   3.285850   3.334702
     9  H    1.076282   2.192804   3.384877   3.313715   2.248748
                    6          7          8          9
     6  H    0.000000
     7  H    2.724896   0.000000
     8  H    4.352071   4.240903   0.000000
     9  H    2.715333   4.352071   2.724896   0.000000
 Stoichiometry    C4H4S
 Framework group  C2V[C2(S),SGV(C4H4)]
 Deg. of freedom     8
 Full point group                 C2V     NOp   4
 RotChk:  IX=0 Diff= 2.44D-16
 Largest Abelian subgroup         C2V     NOp   4
 Largest concise Abelian subgroup C2      NOp   2
                         Standard orientation:                         
 ---------------------------------------------------------------------
 Center     Atomic      Atomic             Coordinates (Angstroms)
 Number     Number       Type             X           Y           Z
 ---------------------------------------------------------------------
      1          6           0        0.000000    0.717865   -1.211980
      2          6           0        0.000000    1.136567    0.104180
      3         16           0        0.000000    0.000000    1.023218
      4          6           0        0.000000   -1.136567    0.104180
      5          6           0        0.000000   -0.717865   -1.211980
      6          1           0        0.000000   -1.357666   -2.077449
      7          1           0        0.000000   -2.120452    0.538505
      8          1           0        0.000000    2.120452    0.538505
      9          1           0        0.000000    1.357666   -2.077449
 ---------------------------------------------------------------------
 Rotational constants (GHZ):      9.0006587      6.4657369      3.7627313
 Leave Link  202 at Sun Jan 10 23:06:05 2016, MaxMem=    33554432 cpu:         0.0
 (Enter /opt/g09/g09/l301.exe)
 Standard basis: 3-21G (6D, 7F)
 Ernie: Thresh=  0.10000D-02 Tol=  0.10000D-05 Strict=F.
 There are    25 symmetry adapted cartesian basis functions of A1  symmetry.
 There are     4 symmetry adapted cartesian basis functions of A2  symmetry.
 There are     7 symmetry adapted cartesian basis functions of B1  symmetry.
 There are    21 symmetry adapted cartesian basis functions of B2  symmetry.
 There are    25 symmetry adapted basis functions of A1  symmetry.
 There are     4 symmetry adapted basis functions of A2  symmetry.
 There are     7 symmetry adapted basis functions of B1  symmetry.
 There are    21 symmetry adapted basis functions of B2  symmetry.
    57 basis functions,    99 primitive gaussians,    57 cartesian basis functions
    22 alpha electrons       22 beta electrons
       nuclear repulsion energy       218.6279998304 Hartrees.



 Warning!  S  atom    3 may be hypervalent but has no d functions.



 IExCor=  402 DFT=T Ex+Corr=B3LYP ExCW=0 ScaHFX=  0.200000
 ScaDFX=  0.800000  0.720000  1.000000  0.810000 ScalE2=  1.000000  1.000000
 IRadAn=      0 IRanWt=     -1 IRanGd=            0 ICorTp=0 IEmpDi=  4
 NAtoms=    9 NActive=    9 NUniq=    5 SFac= 3.24D+00 NAtFMM=   60 NAOKFM=F Big=F
 Integral buffers will be    131072 words long.
 Raffenetti 2 integral format.
 Two-electron integral symmetry is turned on.
 Leave Link  301 at Sun Jan 10 23:06:05 2016, MaxMem=    33554432 cpu:         0.0
 (Enter /opt/g09/g09/l302.exe)
 NPDir=0 NMtPBC=     1 NCelOv=     1 NCel=       1 NClECP=     1 NCelD=      1
         NCelK=      1 NCelE2=     1 NClLst=     1 CellRange=     0.0.
 One-electron integrals computed using PRISM.
 One-electron integral symmetry used in STVInt
 NBasis=    57 RedAO= T EigKep=  3.77D-03  NBF=    25     4     7    21
 NBsUse=    57 1.00D-06 EigRej= -1.00D+00 NBFU=    25     4     7    21
 Precomputing XC quadrature grid using
 IXCGrd= 4 IRadAn=           0 IRanWt=          -1 IRanGd=           0 AccXCQ= 0.00D+00.
 Generated NRdTot=       0 NPtTot=           0 NUsed=           0 NTot=          32
 NSgBfM=    57    57    57    57    57 MxSgAt=     9 MxSgA2=     9.
 Leave Link  302 at Sun Jan 10 23:06:05 2016, MaxMem=    33554432 cpu:         0.1
 (Enter /opt/g09/g09/l303.exe)
 DipDrv:  MaxL=1.
 Leave Link  303 at Sun Jan 10 23:06:05 2016, MaxMem=    33554432 cpu:         0.0
 (Enter /opt/g09/g09/l401.exe)
 Initial guess from the checkpoint file:  "/opt/g09/scratch/Gau-13818.chk"
 B after Tr=     0.000000    0.000000    0.000000
         Rot=    1.000000    0.000000    0.000000    0.000000 Ang=   0.00 deg.
 Guess basis will be translated and rotated to current coordinates.
 JPrj=2 DoOrth=T DoCkMO=T.
 Initial guess orbital symmetries:
       Occupied  (A1) (B2) (A1) (A1) (B2) (A1) (B2) (A1) (B1) (A1)
                 (B2) (A1) (B2) (A1) (A1) (B1) (B2) (B2) (A1) (A1)
                 (A2) (B1)
       Virtual   (A1) (A1) (A1) (A1) (A1) (A1) (A1) (A1) (A1) (A1)
                 (A1) (A1) (A1) (A1) (A2) (A2) (A2) (B1) (B1) (B1)
                 (B1) (B2) (B2) (B2) (B2) (B2) (B2) (B2) (B2) (B2)
                 (B2) (B2) (B2) (B2) (B2)
 The electronic state of the initial guess is 1-A1.
 Generating alternative initial guess.
 ExpMin= 1.42D-01 ExpMax= 1.21D+03 ExpMxC= 1.21D+03 IAcc=1 IRadAn=         1 AccDes= 0.00D+00
 Harris functional with IExCor=  402 and IRadAn=       1 diagonalized for initial guess.
 HarFok:  IExCor=  402 AccDes= 0.00D+00 IRadAn=         1 IDoV= 1 UseB2=F ITyADJ=14
 ICtDFT=  3500011 ScaDFX=  1.000000  1.000000  1.000000  1.000000
 FoFCou: FMM=F IPFlag=           0 FMFlag=      100000 FMFlg1=           0
         NFxFlg=           0 DoJE=T BraDBF=F KetDBF=T FulRan=T
         wScrn=  0.000000 ICntrl=     500 IOpCl=  0 I1Cent=   200000004 NGrid=           0
         NMat0=    1 NMatS0=      1 NMatT0=    0 NMatD0=    1 NMtDS0=    0 NMtDT0=    0
 Petite list used in FoFCou.
 Harris En= -550.001796530327    
 Leave Link  401 at Sun Jan 10 23:06:05 2016, MaxMem=    33554432 cpu:         0.1
 (Enter /opt/g09/g09/l502.exe)
 Closed shell SCF:
 Using DIIS extrapolation, IDIIS=  1040.
 Integral symmetry usage will be decided dynamically.
 Keep R1 ints in memory in symmetry-blocked form, NReq=2278287.
 IVT=       29221 IEndB=       29221 NGot=    33554432 MDV=    33126421
 LenX=    33126421 LenY=    33122731
 Requested convergence on RMS density matrix=1.00D-08 within 128 cycles.
 Requested convergence on MAX density matrix=1.00D-06.
 Requested convergence on             energy=1.00D-06.
 No special actions if energy rises.
 FoFCou: FMM=F IPFlag=           0 FMFlag=           0 FMFlg1=           0
         NFxFlg=           0 DoJE=F BraDBF=F KetDBF=F FulRan=T
         wScrn=  0.000000 ICntrl=     600 IOpCl=  0 I1Cent=           0 NGrid=           0
         NMat0=    1 NMatS0=   1653 NMatT0=    0 NMatD0=    1 NMtDS0=    0 NMtDT0=    0
 Petite list used in FoFCou.
 Integral accuracy reduced to 1.0D-05 until final iterations.

 Cycle   1  Pass 0  IDiag  1:
 E= -550.014815555362    
 DIIS: error= 3.56D-02 at cycle   1 NSaved=   1.
 NSaved= 1 IEnMin= 1 EnMin= -550.014815555362     IErMin= 1 ErrMin= 3.56D-02
 ErrMax= 3.56D-02  0.00D+00 EMaxC= 1.00D-01 BMatC= 2.01D-02 BMatP= 2.01D-02
 IDIUse=3 WtCom= 6.44D-01 WtEn= 3.56D-01
 Coeff-Com:  0.100D+01
 Coeff-En:   0.100D+01
 Coeff:      0.100D+01
 Recover alternate guess density for next cycle.
 RMSDP=8.06D-03 MaxDP=7.14D-02              OVMax= 0.00D+00

 Cycle   2  Pass 0  IDiag  1:
 E= -549.866612014921     Delta-E=        0.148203540441 Rises=F Damp=F
 Switch densities from cycles 1 and 2 for lowest energy.
 DIIS: error= 5.44D-02 at cycle   2 NSaved=   2.
 NSaved= 2 IEnMin= 1 EnMin= -550.014815555362     IErMin= 1 ErrMin= 3.56D-02
 ErrMax= 5.44D-02  0.00D+00 EMaxC= 1.00D+00 BMatC= 1.54D-01 BMatP= 2.01D-02
 IDIUse=1 WtCom= 1.00D+00 WtEn= 0.00D+00
 Coeff-Com:  0.984D+00 0.160D-01
 Coeff:      0.984D+00 0.160D-01
 Gap=     0.327 Goal=   None    Shift=    0.000
 RMSDP=4.14D-03 MaxDP=4.68D-02 DE= 1.48D-01 OVMax= 3.88D-02

 Cycle   3  Pass 0  IDiag  1:
 E= -550.022942684517     Delta-E=       -0.156330669595 Rises=F Damp=F
 DIIS: error= 9.35D-03 at cycle   3 NSaved=   3.
 NSaved= 3 IEnMin= 3 EnMin= -550.022942684517     IErMin= 3 ErrMin= 9.35D-03
 ErrMax= 9.35D-03  0.00D+00 EMaxC= 1.00D+00 BMatC= 4.76D-03 BMatP= 2.01D-02
 IDIUse=1 WtCom= 1.00D+00 WtEn= 0.00D+00
 Coeff-Com:  0.158D+00 0.790D-01 0.763D+00
 Coeff:      0.158D+00 0.790D-01 0.763D+00
 Gap=     0.274 Goal=   None    Shift=    0.000
 RMSDP=2.29D-03 MaxDP=3.23D-02 DE=-1.56D-01 OVMax= 3.86D-02

 Cycle   4  Pass 0  IDiag  1:
 E= -550.024705715689     Delta-E=       -0.001763031172 Rises=F Damp=F
 DIIS: error= 9.85D-03 at cycle   4 NSaved=   4.
 NSaved= 4 IEnMin= 4 EnMin= -550.024705715689     IErMin= 3 ErrMin= 9.35D-03
 ErrMax= 9.85D-03  0.00D+00 EMaxC= 1.00D+00 BMatC= 2.68D-03 BMatP= 4.76D-03
 IDIUse=1 WtCom= 1.00D+00 WtEn= 0.00D+00
 Coeff-Com: -0.767D-02 0.610D-01 0.465D+00 0.482D+00
 Coeff:     -0.767D-02 0.610D-01 0.465D+00 0.482D+00
 Gap=     0.278 Goal=   None    Shift=    0.000
 RMSDP=1.20D-03 MaxDP=1.08D-02 DE=-1.76D-03 OVMax= 2.31D-02

 Cycle   5  Pass 0  IDiag  1:
 E= -550.027598407694     Delta-E=       -0.002892692005 Rises=F Damp=F
 DIIS: error= 5.98D-04 at cycle   5 NSaved=   5.
 NSaved= 5 IEnMin= 5 EnMin= -550.027598407694     IErMin= 5 ErrMin= 5.98D-04
 ErrMax= 5.98D-04  0.00D+00 EMaxC= 1.00D+00 BMatC= 1.37D-05 BMatP= 2.68D-03
 IDIUse=1 WtCom= 1.00D+00 WtEn= 0.00D+00
 Coeff-Com: -0.219D-02 0.524D-02 0.672D-01 0.109D+00 0.821D+00
 Coeff:     -0.219D-02 0.524D-02 0.672D-01 0.109D+00 0.821D+00
 Gap=     0.278 Goal=   None    Shift=    0.000
 RMSDP=1.69D-04 MaxDP=2.10D-03 DE=-2.89D-03 OVMax= 2.34D-03

 Cycle   6  Pass 0  IDiag  1:
 E= -550.027616474678     Delta-E=       -0.000018066985 Rises=F Damp=F
 DIIS: error= 4.52D-05 at cycle   6 NSaved=   6.
 NSaved= 6 IEnMin= 6 EnMin= -550.027616474678     IErMin= 6 ErrMin= 4.52D-05
 ErrMax= 4.52D-05  0.00D+00 EMaxC= 1.00D+00 BMatC= 1.09D-07 BMatP= 1.37D-05
 IDIUse=1 WtCom= 1.00D+00 WtEn= 0.00D+00
 Coeff-Com: -0.139D-03 0.406D-04-0.234D-03 0.289D-02 0.975D-01 0.900D+00
 Coeff:     -0.139D-03 0.406D-04-0.234D-03 0.289D-02 0.975D-01 0.900D+00
 Gap=     0.278 Goal=   None    Shift=    0.000
 RMSDP=1.70D-05 MaxDP=2.19D-04 DE=-1.81D-05 OVMax= 1.51D-04

 Cycle   7  Pass 0  IDiag  1:
 E= -550.027616614483     Delta-E=       -0.000000139804 Rises=F Damp=F
 DIIS: error= 9.97D-06 at cycle   7 NSaved=   7.
 NSaved= 7 IEnMin= 7 EnMin= -550.027616614483     IErMin= 7 ErrMin= 9.97D-06
 ErrMax= 9.97D-06  0.00D+00 EMaxC= 1.00D+00 BMatC= 5.90D-09 BMatP= 1.09D-07
 IDIUse=1 WtCom= 1.00D+00 WtEn= 0.00D+00
 Coeff-Com: -0.200D-04-0.658D-04-0.119D-02-0.386D-03 0.261D-01 0.344D+00
 Coeff-Com:  0.632D+00
 Coeff:     -0.200D-04-0.658D-04-0.119D-02-0.386D-03 0.261D-01 0.344D+00
 Coeff:      0.632D+00
 Gap=     0.278 Goal=   None    Shift=    0.000
 RMSDP=2.53D-06 MaxDP=3.58D-05 DE=-1.40D-07 OVMax= 3.34D-05

 Initial convergence to 1.0D-05 achieved.  Increase integral accuracy.
 Cycle   8  Pass 1  IDiag  1:
 E= -550.027595081991     Delta-E=        0.000021532491 Rises=F Damp=F
 DIIS: error= 1.64D-05 at cycle   1 NSaved=   1.
 NSaved= 1 IEnMin= 1 EnMin= -550.027595081991     IErMin= 1 ErrMin= 1.64D-05
 ErrMax= 1.64D-05  0.00D+00 EMaxC= 1.00D+00 BMatC= 1.47D-08 BMatP= 1.47D-08
 IDIUse=1 WtCom= 1.00D+00 WtEn= 0.00D+00
 Coeff-Com:  0.100D+01
 Coeff:      0.100D+01
 Gap=     0.278 Goal=   None    Shift=    0.000
 RMSDP=2.53D-06 MaxDP=3.58D-05 DE= 2.15D-05 OVMax= 2.51D-05

 Cycle   9  Pass 1  IDiag  1:
 E= -550.027595101739     Delta-E=       -0.000000019747 Rises=F Damp=F
 DIIS: error= 3.49D-06 at cycle   2 NSaved=   2.
 NSaved= 2 IEnMin= 2 EnMin= -550.027595101739     IErMin= 2 ErrMin= 3.49D-06
 ErrMax= 3.49D-06  0.00D+00 EMaxC= 1.00D+00 BMatC= 4.02D-10 BMatP= 1.47D-08
 IDIUse=1 WtCom= 1.00D+00 WtEn= 0.00D+00
 Coeff-Com:  0.238D-01 0.976D+00
 Coeff:      0.238D-01 0.976D+00
 Gap=     0.278 Goal=   None    Shift=    0.000
 RMSDP=1.03D-06 MaxDP=1.51D-05 DE=-1.97D-08 OVMax= 1.26D-05

 Cycle  10  Pass 1  IDiag  1:
 E= -550.027595101874     Delta-E=       -0.000000000135 Rises=F Damp=F
 DIIS: error= 2.69D-06 at cycle   3 NSaved=   3.
 NSaved= 3 IEnMin= 3 EnMin= -550.027595101874     IErMin= 3 ErrMin= 2.69D-06
 ErrMax= 2.69D-06  0.00D+00 EMaxC= 1.00D+00 BMatC= 3.01D-10 BMatP= 4.02D-10
 IDIUse=1 WtCom= 1.00D+00 WtEn= 0.00D+00
 Coeff-Com: -0.201D-01 0.464D+00 0.556D+00
 Coeff:     -0.201D-01 0.464D+00 0.556D+00
 Gap=     0.278 Goal=   None    Shift=    0.000
 RMSDP=5.84D-07 MaxDP=8.52D-06 DE=-1.35D-10 OVMax= 9.01D-06

 Cycle  11  Pass 1  IDiag  1:
 E= -550.027595102200     Delta-E=       -0.000000000326 Rises=F Damp=F
 DIIS: error= 6.12D-07 at cycle   4 NSaved=   4.
 NSaved= 4 IEnMin= 4 EnMin= -550.027595102200     IErMin= 4 ErrMin= 6.12D-07
 ErrMax= 6.12D-07  0.00D+00 EMaxC= 1.00D+00 BMatC= 1.41D-11 BMatP= 3.01D-10
 IDIUse=1 WtCom= 1.00D+00 WtEn= 0.00D+00
 Coeff-Com: -0.106D-01 0.219D+00 0.302D+00 0.489D+00
 Coeff:     -0.106D-01 0.219D+00 0.302D+00 0.489D+00
 Gap=     0.278 Goal=   None    Shift=    0.000
 RMSDP=1.24D-07 MaxDP=1.12D-06 DE=-3.26D-10 OVMax= 1.89D-06

 Cycle  12  Pass 1  IDiag  1:
 E= -550.027595102211     Delta-E=       -0.000000000011 Rises=F Damp=F
 DIIS: error= 1.57D-07 at cycle   5 NSaved=   5.
 NSaved= 5 IEnMin= 5 EnMin= -550.027595102211     IErMin= 5 ErrMin= 1.57D-07
 ErrMax= 1.57D-07  0.00D+00 EMaxC= 1.00D+00 BMatC= 8.58D-13 BMatP= 1.41D-11
 IDIUse=1 WtCom= 1.00D+00 WtEn= 0.00D+00
 Coeff-Com: -0.264D-02 0.392D-01 0.713D-01 0.216D+00 0.676D+00
 Coeff:     -0.264D-02 0.392D-01 0.713D-01 0.216D+00 0.676D+00
 Gap=     0.278 Goal=   None    Shift=    0.000
 RMSDP=2.68D-08 MaxDP=3.80D-07 DE=-1.14D-11 OVMax= 3.89D-07

 Cycle  13  Pass 1  IDiag  1:
 E= -550.027595102213     Delta-E=       -0.000000000002 Rises=F Damp=F
 DIIS: error= 4.04D-08 at cycle   6 NSaved=   6.
 NSaved= 6 IEnMin= 6 EnMin= -550.027595102213     IErMin= 6 ErrMin= 4.04D-08
 ErrMax= 4.04D-08  0.00D+00 EMaxC= 1.00D+00 BMatC= 9.29D-14 BMatP= 8.58D-13
 IDIUse=1 WtCom= 1.00D+00 WtEn= 0.00D+00
 Coeff-Com: -0.675D-03 0.753D-02 0.174D-01 0.749D-01 0.327D+00 0.574D+00
 Coeff:     -0.675D-03 0.753D-02 0.174D-01 0.749D-01 0.327D+00 0.574D+00
 Gap=     0.278 Goal=   None    Shift=    0.000
 RMSDP=7.44D-09 MaxDP=9.34D-08 DE=-1.82D-12 OVMax= 1.04D-07

 SCF Done:  E(RB3LYP) =  -550.027595102     A.U. after   13 cycles
            NFock= 13  Conv=0.74D-08     -V/T= 2.0014
 KE= 5.492715857596D+02 PE=-1.736232130422D+03 EE= 4.183049497295D+02
 Leave Link  502 at Sun Jan 10 23:06:06 2016, MaxMem=    33554432 cpu:         1.0
 (Enter /opt/g09/g09/l701.exe)
 Compute integral first derivatives.
 ... and contract with generalized density number  0.
 Leave Link  701 at Sun Jan 10 23:06:07 2016, MaxMem=    33554432 cpu:         0.0
 (Enter /opt/g09/g09/l702.exe)
 L702 exits ... SP integral derivatives will be done elsewhere.
 Leave Link  702 at Sun Jan 10 23:06:07 2016, MaxMem=    33554432 cpu:         0.0
 (Enter /opt/g09/g09/l703.exe)
 Compute integral first derivatives, UseDBF=F ICtDFT=           0.
 Integral derivatives from FoFJK, PRISM(SPDF).
 Calling FoFJK, ICntrl=      2127 FMM=F ISym2X=1 I1Cent= 0 IOpClX= 0 NMat=1 NMatS=1 NMatT=0.
 FoFJK:  IHMeth= 1 ICntrl=    2127 DoSepK=F KAlg= 0 I1Cent=   0 FoldK=F
 IRaf=         0 NMat=   1 IRICut=       1 DoRegI=T DoRafI=F ISym2E= 1.
 FoFCou: FMM=F IPFlag=           0 FMFlag=      100000 FMFlg1=         800
         NFxFlg=           0 DoJE=F BraDBF=F KetDBF=F FulRan=T
         wScrn=  0.000000 ICntrl=    2127 IOpCl=  0 I1Cent=           0 NGrid=           0
         NMat0=    1 NMatS0=      1 NMatT0=    0 NMatD0=    1 NMtDS0=    0 NMtDT0=    0
 Petite list used in FoFCou.
 Leave Link  703 at Sun Jan 10 23:06:07 2016, MaxMem=    33554432 cpu:         0.2
 (Enter /opt/g09/g09/l716.exe)
 Dipole        = 3.11473708D-16 0.00000000D+00 5.36303456D-03
 ***** Axes restored to original set *****
 -------------------------------------------------------------------
 Center     Atomic                   Forces (Hartrees/Bohr)
 Number     Number              X              Y              Z
 -------------------------------------------------------------------
      1        6           0.022524508    0.006805721    0.000000000
      2        6           0.168649019   -0.233028517    0.000000000
      3       16          -0.411933032    0.000000000    0.000000000
      4        6           0.168649019    0.233028517    0.000000000
      5        6           0.022524508   -0.006805721    0.000000000
      6        1           0.001019578   -0.000226387    0.000000000
      7        1           0.013773410    0.007124243    0.000000000
      8        1           0.013773410   -0.007124243    0.000000000
      9        1           0.001019578    0.000226387    0.000000000
 -------------------------------------------------------------------
 Cartesian Forces:  Max     0.411933032 RMS     0.111682227
 Leave Link  716 at Sun Jan 10 23:06:07 2016, MaxMem=    33554432 cpu:         0.0
 (Enter /opt/g09/g09/l103.exe)

 GradGradGradGradGradGradGradGradGradGradGradGradGradGradGradGradGradGrad
 Berny optimization.
 Using GEDIIS/GDIIS optimizer.
 FormGI is forming the generalized inverse of G from B-inverse, IUseBI=4.
 Internal  Forces:  Max     0.292152661 RMS     0.070855792
 Search for a local minimum.
 Step number   2 out of a maximum of   48
 All quantities printed in internal units (Hartrees-Bohrs-Radians)
 RMS Force = .70856D-01 SwitMx=.10000D-02 MixMth= 1
 Mixed Optimization -- RFO/linear search
 Update second derivatives using D2CorX and points    1    2
 DE= -1.74D-01 DEPred=-1.70D-01 R= 1.02D+00
 TightC=F SS=  1.41D+00  RLast= 3.00D-01 DXNew= 5.0454D-01 8.9972D-01
 Trust test= 1.02D+00 RLast= 3.00D-01 DXMaxT set to 5.05D-01
 ITU=  1  0
 Use linear search instead of GDIIS.
 Linear search step of   0.600 exceeds DXMaxT=   0.505 but not scaled.
 Quartic linear search produced a step of  2.00000.
 Iteration  1 RMS(Cart)=  0.07127232 RMS(Int)=  0.03920983
 Iteration  2 RMS(Cart)=  0.03772256 RMS(Int)=  0.00392778
 Iteration  3 RMS(Cart)=  0.00068644 RMS(Int)=  0.00389311
 Iteration  4 RMS(Cart)=  0.00000124 RMS(Int)=  0.00389311
 Iteration  5 RMS(Cart)=  0.00000001 RMS(Int)=  0.00389311
 ITry= 1 IFail=0 DXMaxC= 4.53D-01 DCOld= 1.00D+10 DXMaxT= 5.05D-01 DXLimC= 3.00D+00 Rises=F
 ClnCor:  largest displacement from symmetrization is 2.46D-10 for atom     9.
 Variable       Old X    -DE/DX   Delta X   Delta X   Delta X     New X
                                 (Linear)    (Quad)   (Total)
    R1        2.61000   0.03183   0.10044   0.00000   0.09832   2.70832
    R2        2.71314   0.02395   0.01438   0.00000   0.00821   2.72135
    R3        2.03388   0.00069   0.00082   0.00000   0.00082   2.03469
    R4        2.76211   0.29215   0.37935   0.00000   0.38384   3.14596
    R5        2.03237   0.00096   0.00302   0.00000   0.00302   2.03539
    R6        2.76211   0.29215   0.37935   0.00000   0.38384   3.14596
    R7        2.61000   0.03183   0.10044   0.00000   0.09832   2.70832
    R8        2.03237   0.00096   0.00302   0.00000   0.00302   2.03539
    R9        2.03388   0.00069   0.00082   0.00000   0.00082   2.03469
    A1        1.87880   0.04905   0.05214   0.00000   0.04308   1.92187
    A2        2.19700  -0.02372  -0.02018   0.00000  -0.01565   2.18136
    A3        2.20738  -0.02532  -0.03196   0.00000  -0.02743   2.17996
    A4        1.94276  -0.00093   0.03012   0.00000   0.03150   1.97427
    A5        2.29451  -0.01526  -0.07310   0.00000  -0.07380   2.22071
    A6        2.04591   0.01619   0.04299   0.00000   0.04229   2.08820
    A7        1.78166  -0.09623  -0.16452   0.00000  -0.14916   1.63250
    A8        1.94276  -0.00093   0.03012   0.00000   0.03150   1.97427
    A9        2.04591   0.01619   0.04299   0.00000   0.04229   2.08820
   A10        2.29451  -0.01526  -0.07310   0.00000  -0.07380   2.22071
   A11        1.87880   0.04905   0.05214   0.00000   0.04308   1.92187
   A12        2.20738  -0.02532  -0.03196   0.00000  -0.02743   2.17996
   A13        2.19700  -0.02372  -0.02018   0.00000  -0.01565   2.18136
    D1        0.00000   0.00000   0.00000   0.00000   0.00000   0.00000
    D2        3.14159   0.00000   0.00000   0.00000   0.00000   3.14159
    D3        3.14159   0.00000   0.00000   0.00000   0.00000   3.14159
    D4        0.00000   0.00000   0.00000   0.00000   0.00000   0.00000
    D5        0.00000   0.00000   0.00000   0.00000   0.00000   0.00000
    D6        3.14159   0.00000   0.00000   0.00000   0.00000   3.14159
    D7        3.14159   0.00000   0.00000   0.00000   0.00000   3.14159
    D8        0.00000   0.00000   0.00000   0.00000   0.00000   0.00000
    D9        0.00000   0.00000   0.00000   0.00000   0.00000   0.00000
   D10        3.14159   0.00000   0.00000   0.00000   0.00000   3.14159
   D11        0.00000   0.00000   0.00000   0.00000   0.00000   0.00000
   D12        3.14159   0.00000   0.00000   0.00000   0.00000   3.14159
   D13        0.00000   0.00000   0.00000   0.00000   0.00000   0.00000
   D14        3.14159   0.00000   0.00000   0.00000   0.00000   3.14159
   D15        3.14159   0.00000   0.00000   0.00000   0.00000   3.14159
   D16        0.00000   0.00000   0.00000   0.00000   0.00000   0.00000
         Item               Value     Threshold  Converged?
 Maximum Force            0.292153     0.000450     NO 
 RMS     Force            0.070856     0.000300     NO 
 Maximum Displacement     0.453131     0.001800     NO 
 RMS     Displacement     0.106999     0.001200     NO 
 Predicted change in Energy=-5.834077D-02
 Lowest energy point so far.  Saving SCF results.
 GradGradGradGradGradGradGradGradGradGradGradGradGradGradGradGradGradGrad

 Leave Link  103 at Sun Jan 10 23:06:07 2016, MaxMem=    33554432 cpu:         0.0
 (Enter /opt/g09/g09/l202.exe)
                          Input orientation:                          
 ---------------------------------------------------------------------
 Center     Atomic      Atomic             Coordinates (Angstroms)
 Number     Number       Type             X           Y           Z
 ---------------------------------------------------------------------
      1          6           0        0.971099   -0.720038    0.000000
      2          6           0       -0.374664   -1.212921    0.000000
      3         16           0       -1.514962    0.000000    0.000000
      4          6           0       -0.374664    1.212921    0.000000
      5          6           0        0.971099    0.720038    0.000000
      6          1           0        1.854143    1.336111    0.000000
      7          1           0       -0.691770    2.242265    0.000000
      8          1           0       -0.691770   -2.242265    0.000000
      9          1           0        1.854143   -1.336111    0.000000
 ---------------------------------------------------------------------
                    Distance matrix (angstroms):
                    1          2          3          4          5
     1  C    0.000000
     2  C    1.433182   0.000000
     3  S    2.588234   1.664770   0.000000
     4  C    2.355294   2.425842   1.664770   0.000000
     5  C    1.440076   2.355294   2.588234   1.433182   0.000000
     6  H    2.237748   3.386022   3.624370   2.232208   1.076714
     7  H    3.397113   3.469707   2.388598   1.077082   2.254398
     8  H    2.254398   1.077082   2.388598   3.469707   3.397113
     9  H    1.076714   2.232208   3.624370   3.386022   2.237748
                    6          7          8          9
     6  H    0.000000
     7  H    2.702367   0.000000
     8  H    4.391634   4.484531   0.000000
     9  H    2.672222   4.391634   2.702367   0.000000
 Stoichiometry    C4H4S
 Framework group  C2V[C2(S),SGV(C4H4)]
 Deg. of freedom     8
 Full point group                 C2V     NOp   4
 RotChk:  IX=0 Diff= 3.66D-16
 Largest Abelian subgroup         C2V     NOp   4
 Largest concise Abelian subgroup C2      NOp   2
                         Standard orientation:                         
 ---------------------------------------------------------------------
 Center     Atomic      Atomic             Coordinates (Angstroms)
 Number     Number       Type             X           Y           Z
 ---------------------------------------------------------------------
      1          6           0        0.000000    0.720038   -1.306495
      2          6           0        0.000000    1.212921    0.039268
      3         16           0        0.000000    0.000000    1.179566
      4          6           0        0.000000   -1.212921    0.039268
      5          6           0        0.000000   -0.720038   -1.306495
      6          1           0        0.000000   -1.336111   -2.189539
      7          1           0        0.000000   -2.242265    0.356374
      8          1           0        0.000000    2.242265    0.356374
      9          1           0        0.000000    1.336111   -2.189539
 ---------------------------------------------------------------------
 Rotational constants (GHZ):      8.2197254      5.3056496      3.2243825
 Leave Link  202 at Sun Jan 10 23:06:07 2016, MaxMem=    33554432 cpu:         0.0
 (Enter /opt/g09/g09/l301.exe)
 Standard basis: 3-21G (6D, 7F)
 Ernie: Thresh=  0.10000D-02 Tol=  0.10000D-05 Strict=F.
 There are    25 symmetry adapted cartesian basis functions of A1  symmetry.
 There are     4 symmetry adapted cartesian basis functions of A2  symmetry.
 There are     7 symmetry adapted cartesian basis functions of B1  symmetry.
 There are    21 symmetry adapted cartesian basis functions of B2  symmetry.
 There are    25 symmetry adapted basis functions of A1  symmetry.
 There are     4 symmetry adapted basis functions of A2  symmetry.
 There are     7 symmetry adapted basis functions of B1  symmetry.
 There are    21 symmetry adapted basis functions of B2  symmetry.
    57 basis functions,    99 primitive gaussians,    57 cartesian basis functions
    22 alpha electrons       22 beta electrons
       nuclear repulsion energy       202.7069218645 Hartrees.



 Warning!  S  atom    3 may be hypervalent but has no d functions.



 IExCor=  402 DFT=T Ex+Corr=B3LYP ExCW=0 ScaHFX=  0.200000
 ScaDFX=  0.800000  0.720000  1.000000  0.810000 ScalE2=  1.000000  1.000000
 IRadAn=      0 IRanWt=     -1 IRanGd=            0 ICorTp=0 IEmpDi=  4
 NAtoms=    9 NActive=    9 NUniq=    5 SFac= 3.24D+00 NAtFMM=   60 NAOKFM=F Big=F
 Integral buffers will be    131072 words long.
 Raffenetti 2 integral format.
 Two-electron integral symmetry is turned on.
 Leave Link  301 at Sun Jan 10 23:06:07 2016, MaxMem=    33554432 cpu:         0.0
 (Enter /opt/g09/g09/l302.exe)
 NPDir=0 NMtPBC=     1 NCelOv=     1 NCel=       1 NClECP=     1 NCelD=      1
         NCelK=      1 NCelE2=     1 NClLst=     1 CellRange=     0.0.
 One-electron integrals computed using PRISM.
 One-electron integral symmetry used in STVInt
 NBasis=    57 RedAO= T EigKep=  5.49D-03  NBF=    25     4     7    21
 NBsUse=    57 1.00D-06 EigRej= -1.00D+00 NBFU=    25     4     7    21
 Precomputing XC quadrature grid using
 IXCGrd= 4 IRadAn=           0 IRanWt=          -1 IRanGd=           0 AccXCQ= 0.00D+00.
 Generated NRdTot=       0 NPtTot=           0 NUsed=           0 NTot=          32
 NSgBfM=    57    57    57    57    57 MxSgAt=     9 MxSgA2=     9.
 Leave Link  302 at Sun Jan 10 23:06:07 2016, MaxMem=    33554432 cpu:         0.1
 (Enter /opt/g09/g09/l303.exe)
 DipDrv:  MaxL=1.
 Leave Link  303 at Sun Jan 10 23:06:07 2016, MaxMem=    33554432 cpu:         0.0
 (Enter /opt/g09/g09/l401.exe)
 Initial guess from the checkpoint file:  "/opt/g09/scratch/Gau-13818.chk"
 B after Tr=     0.000000    0.000000    0.000000
         Rot=    1.000000    0.000000    0.000000    0.000000 Ang=   0.00 deg.
 Guess basis will be translated and rotated to current coordinates.
 JPrj=2 DoOrth=T DoCkMO=T.
 Initial guess orbital symmetries:
       Occupied  (A1) (A1) (B2) (B2) (A1) (A1) (B2) (A1) (B1) (A1)
                 (B2) (A1) (B2) (A1) (A1) (B1) (B2) (B2) (A1) (A1)
                 (B1) (A2)
       Virtual   (A1) (A1) (A1) (A1) (A1) (A1) (A1) (A1) (A1) (A1)
                 (A1) (A1) (A1) (A1) (A2) (A2) (A2) (B1) (B1) (B1)
                 (B1) (B2) (B2) (B2) (B2) (B2) (B2) (B2) (B2) (B2)
                 (B2) (B2) (B2) (B2) (B2)
 The electronic state of the initial guess is 1-A1.
 Generating alternative initial guess.
 ExpMin= 1.42D-01 ExpMax= 1.21D+03 ExpMxC= 1.21D+03 IAcc=1 IRadAn=         1 AccDes= 0.00D+00
 Harris functional with IExCor=  402 and IRadAn=       1 diagonalized for initial guess.
 HarFok:  IExCor=  402 AccDes= 0.00D+00 IRadAn=         1 IDoV= 1 UseB2=F ITyADJ=14
 ICtDFT=  3500011 ScaDFX=  1.000000  1.000000  1.000000  1.000000
 FoFCou: FMM=F IPFlag=           0 FMFlag=      100000 FMFlg1=           0
         NFxFlg=           0 DoJE=T BraDBF=F KetDBF=T FulRan=T
         wScrn=  0.000000 ICntrl=     500 IOpCl=  0 I1Cent=   200000004 NGrid=           0
         NMat0=    1 NMatS0=      1 NMatT0=    0 NMatD0=    1 NMtDS0=    0 NMtDT0=    0
 Petite list used in FoFCou.
 Harris En= -550.118087126028    
 Leave Link  401 at Sun Jan 10 23:06:07 2016, MaxMem=    33554432 cpu:         0.1
 (Enter /opt/g09/g09/l502.exe)
 Closed shell SCF:
 Using DIIS extrapolation, IDIIS=  1040.
 Integral symmetry usage will be decided dynamically.
 Keep R1 ints in memory in symmetry-blocked form, NReq=2278287.
 IVT=       29221 IEndB=       29221 NGot=    33554432 MDV=    33126421
 LenX=    33126421 LenY=    33122731
 Requested convergence on RMS density matrix=1.00D-08 within 128 cycles.
 Requested convergence on MAX density matrix=1.00D-06.
 Requested convergence on             energy=1.00D-06.
 No special actions if energy rises.
 FoFCou: FMM=F IPFlag=           0 FMFlag=           0 FMFlg1=           0
         NFxFlg=           0 DoJE=F BraDBF=F KetDBF=F FulRan=T
         wScrn=  0.000000 ICntrl=     600 IOpCl=  0 I1Cent=           0 NGrid=           0
         NMat0=    1 NMatS0=   1653 NMatT0=    0 NMatD0=    1 NMtDS0=    0 NMtDT0=    0
 Petite list used in FoFCou.
 Integral accuracy reduced to 1.0D-05 until final iterations.

 Cycle   1  Pass 0  IDiag  1:
 E= -550.120652413432    
 DIIS: error= 5.32D-02 at cycle   1 NSaved=   1.
 NSaved= 1 IEnMin= 1 EnMin= -550.120652413432     IErMin= 1 ErrMin= 5.32D-02
 ErrMax= 5.32D-02  0.00D+00 EMaxC= 1.00D-01 BMatC= 5.53D-02 BMatP= 5.53D-02
 IDIUse=3 WtCom= 4.68D-01 WtEn= 5.32D-01
 Coeff-Com:  0.100D+01
 Coeff-En:   0.100D+01
 Coeff:      0.100D+01
 Recover alternate guess density for next cycle.
 RMSDP=9.37D-03 MaxDP=8.09D-02              OVMax= 0.00D+00

 Cycle   2  Pass 0  IDiag  1:
 E= -550.007224420298     Delta-E=        0.113427993134 Rises=F Damp=F
 Switch densities from cycles 1 and 2 for lowest energy.
 DIIS: error= 5.17D-02 at cycle   2 NSaved=   2.
 NSaved= 2 IEnMin= 1 EnMin= -550.120652413432     IErMin= 2 ErrMin= 5.17D-02
 ErrMax= 5.17D-02  0.00D+00 EMaxC= 1.00D+00 BMatC= 1.37D-01 BMatP= 5.53D-02
 IDIUse=1 WtCom= 1.00D+00 WtEn= 0.00D+00
 Coeff-Com:  0.778D+00 0.222D+00
 Coeff:      0.778D+00 0.222D+00
 Gap=     0.332 Goal=   None    Shift=    0.000
 RMSDP=8.79D-03 MaxDP=9.98D-02 DE= 1.13D-01 OVMax= 9.57D-02

 Cycle   3  Pass 0  IDiag  1:
 E= -550.127292416360     Delta-E=       -0.120067996063 Rises=F Damp=F
 DIIS: error= 2.30D-02 at cycle   3 NSaved=   3.
 NSaved= 3 IEnMin= 3 EnMin= -550.127292416360     IErMin= 3 ErrMin= 2.30D-02
 ErrMax= 2.30D-02  0.00D+00 EMaxC= 1.00D+00 BMatC= 2.96D-02 BMatP= 5.53D-02
 IDIUse=1 WtCom= 1.00D+00 WtEn= 0.00D+00
 Coeff-Com:  0.754D-01 0.275D+00 0.650D+00
 Coeff:      0.754D-01 0.275D+00 0.650D+00
 Gap=     0.221 Goal=   None    Shift=    0.000
 RMSDP=4.74D-03 MaxDP=5.83D-02 DE=-1.20D-01 OVMax= 5.80D-02

 Cycle   4  Pass 0  IDiag  1:
 E= -550.157249427358     Delta-E=       -0.029957010998 Rises=F Damp=F
 DIIS: error= 1.05D-02 at cycle   4 NSaved=   4.
 NSaved= 4 IEnMin= 4 EnMin= -550.157249427358     IErMin= 4 ErrMin= 1.05D-02
 ErrMax= 1.05D-02  0.00D+00 EMaxC= 1.00D+00 BMatC= 3.27D-03 BMatP= 2.96D-02
 IDIUse=1 WtCom= 1.00D+00 WtEn= 0.00D+00
 Coeff-Com: -0.197D-01 0.153D+00 0.352D+00 0.514D+00
 Coeff:     -0.197D-01 0.153D+00 0.352D+00 0.514D+00
 Gap=     0.221 Goal=   None    Shift=    0.000
 RMSDP=1.34D-03 MaxDP=1.52D-02 DE=-3.00D-02 OVMax= 3.03D-02

 Cycle   5  Pass 0  IDiag  1:
 E= -550.160423047679     Delta-E=       -0.003173620320 Rises=F Damp=F
 DIIS: error= 3.15D-03 at cycle   5 NSaved=   5.
 NSaved= 5 IEnMin= 5 EnMin= -550.160423047679     IErMin= 5 ErrMin= 3.15D-03
 ErrMax= 3.15D-03  0.00D+00 EMaxC= 1.00D+00 BMatC= 2.63D-04 BMatP= 3.27D-03
 IDIUse=1 WtCom= 1.00D+00 WtEn= 0.00D+00
 Coeff-Com: -0.218D-02 0.118D-01 0.555D-01 0.233D+00 0.702D+00
 Coeff:     -0.218D-02 0.118D-01 0.555D-01 0.233D+00 0.702D+00
 Gap=     0.221 Goal=   None    Shift=    0.000
 RMSDP=4.29D-04 MaxDP=4.21D-03 DE=-3.17D-03 OVMax= 9.02D-03

 Cycle   6  Pass 0  IDiag  1:
 E= -550.160735849432     Delta-E=       -0.000312801753 Rises=F Damp=F
 DIIS: error= 2.28D-04 at cycle   6 NSaved=   6.
 NSaved= 6 IEnMin= 6 EnMin= -550.160735849432     IErMin= 6 ErrMin= 2.28D-04
 ErrMax= 2.28D-04  0.00D+00 EMaxC= 1.00D+00 BMatC= 2.53D-06 BMatP= 2.63D-04
 IDIUse=1 WtCom= 1.00D+00 WtEn= 0.00D+00
 Coeff-Com: -0.473D-03 0.853D-03 0.471D-02 0.443D-01 0.180D+00 0.770D+00
 Coeff:     -0.473D-03 0.853D-03 0.471D-02 0.443D-01 0.180D+00 0.770D+00
 Gap=     0.221 Goal=   None    Shift=    0.000
 RMSDP=5.69D-05 MaxDP=8.22D-04 DE=-3.13D-04 OVMax= 8.21D-04

 Cycle   7  Pass 0  IDiag  1:
 E= -550.160739010333     Delta-E=       -0.000003160901 Rises=F Damp=F
 DIIS: error= 4.87D-05 at cycle   7 NSaved=   7.
 NSaved= 7 IEnMin= 7 EnMin= -550.160739010333     IErMin= 7 ErrMin= 4.87D-05
 ErrMax= 4.87D-05  0.00D+00 EMaxC= 1.00D+00 BMatC= 1.81D-07 BMatP= 2.53D-06
 IDIUse=1 WtCom= 1.00D+00 WtEn= 0.00D+00
 Coeff-Com:  0.609D-04-0.398D-03-0.136D-02 0.559D-02 0.352D-01 0.302D+00
 Coeff-Com:  0.659D+00
 Coeff:      0.609D-04-0.398D-03-0.136D-02 0.559D-02 0.352D-01 0.302D+00
 Coeff:      0.659D+00
 Gap=     0.221 Goal=   None    Shift=    0.000
 RMSDP=1.40D-05 MaxDP=1.83D-04 DE=-3.16D-06 OVMax= 1.76D-04

 Cycle   8  Pass 0  IDiag  1:
 E= -550.160739244478     Delta-E=       -0.000000234145 Rises=F Damp=F
 DIIS: error= 5.96D-06 at cycle   8 NSaved=   8.
 NSaved= 8 IEnMin= 8 EnMin= -550.160739244478     IErMin= 8 ErrMin= 5.96D-06
 ErrMax= 5.96D-06  0.00D+00 EMaxC= 1.00D+00 BMatC= 1.48D-09 BMatP= 1.81D-07
 IDIUse=1 WtCom= 1.00D+00 WtEn= 0.00D+00
 Coeff-Com:  0.147D-05 0.141D-05-0.159D-03-0.104D-02-0.514D-02-0.357D-01
 Coeff-Com: -0.115D-01 0.105D+01
 Coeff:      0.147D-05 0.141D-05-0.159D-03-0.104D-02-0.514D-02-0.357D-01
 Coeff:     -0.115D-01 0.105D+01
 Gap=     0.221 Goal=   None    Shift=    0.000
 RMSDP=1.40D-06 MaxDP=1.69D-05 DE=-2.34D-07 OVMax= 1.94D-05

 Initial convergence to 1.0D-05 achieved.  Increase integral accuracy.
 Cycle   9  Pass 1  IDiag  1:
 E= -550.160700032129     Delta-E=        0.000039212349 Rises=F Damp=F
 DIIS: error= 1.79D-05 at cycle   1 NSaved=   1.
 NSaved= 1 IEnMin= 1 EnMin= -550.160700032129     IErMin= 1 ErrMin= 1.79D-05
 ErrMax= 1.79D-05  0.00D+00 EMaxC= 1.00D+00 BMatC= 1.65D-08 BMatP= 1.65D-08
 IDIUse=1 WtCom= 1.00D+00 WtEn= 0.00D+00
 Coeff-Com:  0.100D+01
 Coeff:      0.100D+01
 Gap=     0.221 Goal=   None    Shift=    0.000
 RMSDP=1.40D-06 MaxDP=1.69D-05 DE= 3.92D-05 OVMax= 3.80D-05

 Cycle  10  Pass 1  IDiag  1:
 E= -550.160700053421     Delta-E=       -0.000000021292 Rises=F Damp=F
 DIIS: error= 6.91D-06 at cycle   2 NSaved=   2.
 NSaved= 2 IEnMin= 2 EnMin= -550.160700053421     IErMin= 2 ErrMin= 6.91D-06
 ErrMax= 6.91D-06  0.00D+00 EMaxC= 1.00D+00 BMatC= 2.27D-09 BMatP= 1.65D-08
 IDIUse=1 WtCom= 1.00D+00 WtEn= 0.00D+00
 Coeff-Com:  0.188D+00 0.812D+00
 Coeff:      0.188D+00 0.812D+00
 Gap=     0.221 Goal=   None    Shift=    0.000
 RMSDP=2.09D-06 MaxDP=3.80D-05 DE=-2.13D-08 OVMax= 4.10D-05

 Cycle  11  Pass 1  IDiag  1:
 E= -550.160700053717     Delta-E=       -0.000000000295 Rises=F Damp=F
 DIIS: error= 6.87D-06 at cycle   3 NSaved=   3.
 NSaved= 3 IEnMin= 3 EnMin= -550.160700053717     IErMin= 3 ErrMin= 6.87D-06
 ErrMax= 6.87D-06  0.00D+00 EMaxC= 1.00D+00 BMatC= 1.80D-09 BMatP= 2.27D-09
 IDIUse=1 WtCom= 1.00D+00 WtEn= 0.00D+00
 Coeff-Com: -0.527D-02 0.469D+00 0.536D+00
 Coeff:     -0.527D-02 0.469D+00 0.536D+00
 Gap=     0.221 Goal=   None    Shift=    0.000
 RMSDP=1.32D-06 MaxDP=1.60D-05 DE=-2.95D-10 OVMax= 2.94D-05

 Cycle  12  Pass 1  IDiag  1:
 E= -550.160700055807     Delta-E=       -0.000000002090 Rises=F Damp=F
 DIIS: error= 2.30D-06 at cycle   4 NSaved=   4.
 NSaved= 4 IEnMin= 4 EnMin= -550.160700055807     IErMin= 4 ErrMin= 2.30D-06
 ErrMax= 2.30D-06  0.00D+00 EMaxC= 1.00D+00 BMatC= 1.60D-10 BMatP= 1.80D-09
 IDIUse=1 WtCom= 1.00D+00 WtEn= 0.00D+00
 Coeff-Com: -0.809D-02 0.221D+00 0.326D+00 0.461D+00
 Coeff:     -0.809D-02 0.221D+00 0.326D+00 0.461D+00
 Gap=     0.221 Goal=   None    Shift=    0.000
 RMSDP=2.99D-07 MaxDP=2.77D-06 DE=-2.09D-09 OVMax= 5.76D-06

 Cycle  13  Pass 1  IDiag  1:
 E= -550.160700055994     Delta-E=       -0.000000000188 Rises=F Damp=F
 DIIS: error= 4.21D-07 at cycle   5 NSaved=   5.
 NSaved= 5 IEnMin= 5 EnMin= -550.160700055994     IErMin= 5 ErrMin= 4.21D-07
 ErrMax= 4.21D-07  0.00D+00 EMaxC= 1.00D+00 BMatC= 7.31D-12 BMatP= 1.60D-10
 IDIUse=1 WtCom= 1.00D+00 WtEn= 0.00D+00
 Coeff-Com: -0.452D-02 0.733D-01 0.135D+00 0.220D+00 0.577D+00
 Coeff:     -0.452D-02 0.733D-01 0.135D+00 0.220D+00 0.577D+00
 Gap=     0.221 Goal=   None    Shift=    0.000
 RMSDP=8.10D-08 MaxDP=1.07D-06 DE=-1.88D-10 OVMax= 1.05D-06

 Cycle  14  Pass 1  IDiag  1:
 E= -550.160700056000     Delta-E=       -0.000000000005 Rises=F Damp=F
 DIIS: error= 1.19D-07 at cycle   6 NSaved=   6.
 NSaved= 6 IEnMin= 6 EnMin= -550.160700056000     IErMin= 6 ErrMin= 1.19D-07
 ErrMax= 1.19D-07  0.00D+00 EMaxC= 1.00D+00 BMatC= 5.42D-13 BMatP= 7.31D-12
 IDIUse=1 WtCom= 1.00D+00 WtEn= 0.00D+00
 Coeff-Com: -0.123D-02 0.136D-01 0.336D-01 0.495D-01 0.262D+00 0.643D+00
 Coeff:     -0.123D-02 0.136D-01 0.336D-01 0.495D-01 0.262D+00 0.643D+00
 Gap=     0.221 Goal=   None    Shift=    0.000
 RMSDP=1.80D-08 MaxDP=1.62D-07 DE=-5.12D-12 OVMax= 3.12D-07

 Cycle  15  Pass 1  IDiag  1:
 E= -550.160700056000     Delta-E=        0.000000000000 Rises=F Damp=F
 DIIS: error= 8.70D-09 at cycle   7 NSaved=   7.
 NSaved= 7 IEnMin= 7 EnMin= -550.160700056000     IErMin= 7 ErrMin= 8.70D-09
 ErrMax= 8.70D-09  0.00D+00 EMaxC= 1.00D+00 BMatC= 4.16D-15 BMatP= 5.42D-13
 IDIUse=1 WtCom= 1.00D+00 WtEn= 0.00D+00
 Coeff-Com: -0.670D-04-0.206D-03 0.108D-03-0.122D-03 0.195D-01 0.109D+00
 Coeff-Com:  0.872D+00
 Coeff:     -0.670D-04-0.206D-03 0.108D-03-0.122D-03 0.195D-01 0.109D+00
 Coeff:      0.872D+00
 Gap=     0.221 Goal=   None    Shift=    0.000
 RMSDP=2.36D-09 MaxDP=2.03D-08 DE=-1.14D-13 OVMax= 4.24D-08

 SCF Done:  E(RB3LYP) =  -550.160700056     A.U. after   15 cycles
            NFock= 15  Conv=0.24D-08     -V/T= 2.0044
 KE= 5.477321403839D+02 PE=-1.703587091879D+03 EE= 4.029873295743D+02
 Leave Link  502 at Sun Jan 10 23:06:08 2016, MaxMem=    33554432 cpu:         1.1
 (Enter /opt/g09/g09/l701.exe)
 Compute integral first derivatives.
 ... and contract with generalized density number  0.
 Leave Link  701 at Sun Jan 10 23:06:08 2016, MaxMem=    33554432 cpu:         0.0
 (Enter /opt/g09/g09/l702.exe)
 L702 exits ... SP integral derivatives will be done elsewhere.
 Leave Link  702 at Sun Jan 10 23:06:08 2016, MaxMem=    33554432 cpu:         0.0
 (Enter /opt/g09/g09/l703.exe)
 Compute integral first derivatives, UseDBF=F ICtDFT=           0.
 Integral derivatives from FoFJK, PRISM(SPDF).
 Calling FoFJK, ICntrl=      2127 FMM=F ISym2X=1 I1Cent= 0 IOpClX= 0 NMat=1 NMatS=1 NMatT=0.
 FoFJK:  IHMeth= 1 ICntrl=    2127 DoSepK=F KAlg= 0 I1Cent=   0 FoldK=F
 IRaf=         0 NMat=   1 IRICut=       1 DoRegI=T DoRafI=F ISym2E= 1.
 FoFCou: FMM=F IPFlag=           0 FMFlag=      100000 FMFlg1=         800
[...]
     13  0.277104D-01  0.244678D-01  0.984064D-01
     14 -0.155581D-01 -0.119952D-01 -0.488895D-01  0.756777D-01
     15 -0.121523D-01 -0.124726D-01 -0.495169D-01 -0.267882D-01  0.763050D-01
     16 -0.153107D-01 -0.375549D-02 -0.660425D-01  0.329036D-01  0.331389D-01
     17  0.988545D-02 -0.367234D-02  0.260275D-01 -0.922401D-02 -0.168035D-01
     18 -0.647525D-02 -0.208122D-02 -0.168035D-01  0.498699D-02  0.118165D-01
     19 -0.341020D-02  0.575356D-02 -0.922401D-02  0.423702D-02  0.498699D-02
     20  0.211015D-01  0.250818D-01 -0.621311D-02 -0.234336D-02  0.855647D-02
     21 -0.105081D-01 -0.145737D-01 -0.367234D-02  0.575356D-02 -0.208122D-02
     22 -0.105934D-01 -0.105081D-01  0.988545D-02 -0.341020D-02 -0.647525D-02
     23  0.000000D+00  0.000000D+00  0.000000D+00  0.000000D+00  0.000000D+00
     24  0.000000D+00  0.000000D+00  0.000000D+00  0.000000D+00  0.000000D+00
     25  0.000000D+00  0.000000D+00  0.000000D+00  0.000000D+00  0.000000D+00
     26  0.000000D+00  0.000000D+00  0.000000D+00  0.000000D+00  0.000000D+00
     27  0.000000D+00  0.000000D+00  0.000000D+00  0.000000D+00  0.000000D+00
     28  0.000000D+00  0.000000D+00  0.000000D+00  0.000000D+00  0.000000D+00
     29  0.000000D+00  0.000000D+00  0.000000D+00  0.000000D+00  0.000000D+00
     30  0.000000D+00  0.000000D+00  0.000000D+00  0.000000D+00  0.000000D+00
     31  0.000000D+00  0.000000D+00  0.000000D+00  0.000000D+00  0.000000D+00
     32  0.000000D+00  0.000000D+00  0.000000D+00  0.000000D+00  0.000000D+00
     33  0.000000D+00  0.000000D+00  0.000000D+00  0.000000D+00  0.000000D+00
     34  0.000000D+00  0.000000D+00  0.000000D+00  0.000000D+00  0.000000D+00
     35  0.000000D+00  0.000000D+00  0.000000D+00  0.000000D+00  0.000000D+00
     36  0.000000D+00  0.000000D+00  0.000000D+00  0.000000D+00  0.000000D+00
     37  0.000000D+00  0.000000D+00  0.000000D+00  0.000000D+00  0.000000D+00
     38  0.000000D+00  0.000000D+00  0.000000D+00  0.000000D+00  0.000000D+00
               16            17            18            19            20 
     16  0.939527D-01
     17 -0.660425D-01  0.984064D-01
     18  0.331389D-01 -0.495169D-01  0.763050D-01
     19  0.329036D-01 -0.488895D-01 -0.267882D-01  0.756777D-01
     20  0.190661D-01 -0.521782D-01  0.246249D-01  0.275533D-01  0.855085D-01
     21 -0.375549D-02  0.244678D-01 -0.124726D-01 -0.119952D-01 -0.421218D-01
     22 -0.153107D-01  0.277104D-01 -0.121523D-01 -0.155581D-01 -0.433868D-01
     23  0.000000D+00  0.000000D+00  0.000000D+00  0.000000D+00  0.000000D+00
     24  0.000000D+00  0.000000D+00  0.000000D+00  0.000000D+00  0.000000D+00
     25  0.000000D+00  0.000000D+00  0.000000D+00  0.000000D+00  0.000000D+00
     26  0.000000D+00  0.000000D+00  0.000000D+00  0.000000D+00  0.000000D+00
     27  0.000000D+00  0.000000D+00  0.000000D+00  0.000000D+00  0.000000D+00
     28  0.000000D+00  0.000000D+00  0.000000D+00  0.000000D+00  0.000000D+00
     29  0.000000D+00  0.000000D+00  0.000000D+00  0.000000D+00  0.000000D+00
     30  0.000000D+00  0.000000D+00  0.000000D+00  0.000000D+00  0.000000D+00
     31  0.000000D+00  0.000000D+00  0.000000D+00  0.000000D+00  0.000000D+00
     32  0.000000D+00  0.000000D+00  0.000000D+00  0.000000D+00  0.000000D+00
     33  0.000000D+00  0.000000D+00  0.000000D+00  0.000000D+00  0.000000D+00
     34  0.000000D+00  0.000000D+00  0.000000D+00  0.000000D+00  0.000000D+00
     35  0.000000D+00  0.000000D+00  0.000000D+00  0.000000D+00  0.000000D+00
     36  0.000000D+00  0.000000D+00  0.000000D+00  0.000000D+00  0.000000D+00
     37  0.000000D+00  0.000000D+00  0.000000D+00  0.000000D+00  0.000000D+00
     38  0.000000D+00  0.000000D+00  0.000000D+00  0.000000D+00  0.000000D+00
               21            22            23            24            25 
     21  0.787428D-01
     22 -0.366210D-01  0.800078D-01
     23  0.000000D+00  0.000000D+00  0.152645D-01
     24  0.000000D+00  0.000000D+00  0.416961D-02  0.102802D-01
     25  0.000000D+00  0.000000D+00  0.712278D-02 -0.235601D-02  0.110962D-01
     26  0.000000D+00  0.000000D+00 -0.397208D-02  0.375463D-02  0.161744D-02
     27  0.000000D+00  0.000000D+00 -0.104825D-01 -0.565148D-02 -0.187252D-02
     28  0.000000D+00  0.000000D+00 -0.568920D-02 -0.382756D-02  0.103254D-02
     29  0.000000D+00  0.000000D+00 -0.233513D-02  0.878728D-03 -0.584876D-02
     30  0.000000D+00  0.000000D+00  0.245821D-02  0.270264D-02 -0.294369D-02
     31  0.000000D+00  0.000000D+00 -0.124271D-01 -0.147887D-02 -0.787306D-02
     32  0.000000D+00  0.000000D+00 -0.250921D-02 -0.694127D-02  0.600186D-03
     33  0.000000D+00  0.000000D+00  0.658578D-02 -0.167037D-02  0.682961D-02
     34  0.000000D+00  0.000000D+00  0.315411D-02  0.153748D-02  0.745377D-03
     35  0.000000D+00  0.000000D+00  0.479613D-03  0.431853D-02 -0.431037D-02
     36  0.000000D+00  0.000000D+00 -0.431037D-02  0.249589D-02 -0.721340D-02
     37  0.000000D+00  0.000000D+00  0.431853D-02  0.729993D-03  0.249589D-02
     38  0.000000D+00  0.000000D+00 -0.471452D-03 -0.109264D-02 -0.407135D-03
               26            27            28            29            30 
     26  0.934414D-02
     27  0.295854D-02  0.139587D-01
     28  0.289418D-02  0.534266D-02  0.885876D-02
     29 -0.263490D-02  0.534266D-02 -0.138380D-02  0.885876D-02
     30 -0.269926D-02 -0.327340D-02  0.213230D-02  0.213230D-02  0.753800D-02
     31  0.307516D-02  0.388920D-02  0.364519D-02 -0.668034D-03 -0.912038D-03
     32 -0.383187D-02 -0.429376D-03  0.198105D-02 -0.354096D-02 -0.113054D-02
     33 -0.142654D-02  0.388920D-02 -0.668034D-03  0.364519D-02 -0.912039D-03
     34 -0.871246D-03 -0.429376D-03 -0.354096D-02  0.198105D-02 -0.113054D-02
     35 -0.471452D-03 -0.104825D-01 -0.233513D-02 -0.568920D-02  0.245821D-02
     36 -0.407135D-03 -0.187252D-02 -0.584876D-02  0.103254D-02 -0.294369D-02
     37 -0.109264D-02 -0.565148D-02  0.878728D-03 -0.382756D-02  0.270264D-02
     38 -0.102833D-02  0.295854D-02 -0.263490D-02  0.289418D-02 -0.269926D-02
               31            32            33            34            35 
     31  0.133086D-01
     32  0.352180D-02  0.748369D-02
     33 -0.111414D-01 -0.376106D-02  0.133086D-01
     34 -0.376106D-02 -0.231593D-02  0.352180D-02  0.748369D-02
     35  0.658578D-02  0.315411D-02 -0.124271D-01 -0.250921D-02  0.152645D-01
     36  0.682961D-02  0.745377D-03 -0.787306D-02  0.600186D-03  0.712278D-02
     37 -0.167037D-02  0.153748D-02 -0.147887D-02 -0.694127D-02  0.416961D-02
     38 -0.142654D-02 -0.871246D-03  0.307516D-02 -0.383187D-02 -0.397208D-02
               36            37            38 
     36  0.110962D-01
     37 -0.235601D-02  0.102802D-01
     38  0.161744D-02  0.375463D-02  0.934414D-02
 Leave Link  716 at Sun Jan 10 23:06:24 2016, MaxMem=    33554432 cpu:         0.0
 (Enter /opt/g09/g09/l103.exe)

 GradGradGradGradGradGradGradGradGradGradGradGradGradGradGradGradGradGrad
 Berny optimization.
 Red2BG is reusing G-inverse.
 Internal  Forces:  Max     0.000102180 RMS     0.000041162
 Search for a local minimum.
 Step number   1 out of a maximum of    2
 All quantities printed in internal units (Hartrees-Bohrs-Radians)
 Second derivative matrix not updated -- analytic derivatives used.
 ITU=  0
     Eigenvalues ---    0.01532   0.01668   0.01840   0.02690   0.04325
     Eigenvalues ---    0.05221   0.09274   0.09720   0.11181   0.11671
     Eigenvalues ---    0.15154   0.17751   0.23293   0.26227   0.37000
     Eigenvalues ---    0.37201   0.37959   0.38211   0.39874   0.48426
     Eigenvalues ---    0.52649
 Angle between quadratic step and forces=  33.33 degrees.
 Linear search not attempted -- first point.
 Iteration  1 RMS(Cart)=  0.00022575 RMS(Int)=  0.00000003
 Iteration  2 RMS(Cart)=  0.00000004 RMS(Int)=  0.00000000
 ITry= 1 IFail=0 DXMaxC= 6.25D-04 DCOld= 1.00D+10 DXMaxT= 3.00D-01 DXLimC= 3.00D+00 Rises=F
 ClnCor:  largest displacement from symmetrization is 3.83D-11 for atom     9.
 Variable       Old X    -DE/DX   Delta X   Delta X   Delta X     New X
                                 (Linear)    (Quad)   (Total)
    R1        2.56674  -0.00006   0.00000  -0.00013  -0.00013   2.56661
    R2        2.72524  -0.00010   0.00000  -0.00011  -0.00011   2.72513
    R3        2.04334   0.00001   0.00000   0.00001   0.00001   2.04335
    R4        3.41588  -0.00003   0.00000  -0.00017  -0.00017   3.41571
    R5        2.03497  -0.00002   0.00000  -0.00002  -0.00002   2.03495
    R6        3.41588  -0.00003   0.00000  -0.00017  -0.00017   3.41571
    R7        2.56674  -0.00006   0.00000  -0.00013  -0.00013   2.56661
    R8        2.03497  -0.00002   0.00000  -0.00002  -0.00002   2.03495
    R9        2.04334   0.00001   0.00000   0.00001   0.00001   2.04335
    A1        1.98769  -0.00003   0.00000  -0.00013  -0.00013   1.98755
    A2        2.14721   0.00007   0.00000   0.00047   0.00047   2.14768
    A3        2.14829  -0.00004   0.00000  -0.00034  -0.00034   2.14795
    A4        1.94485   0.00008   0.00000   0.00026   0.00026   1.94511
    A5        2.25114  -0.00007   0.00000  -0.00041  -0.00041   2.25073
    A6        2.08719  -0.00001   0.00000   0.00015   0.00015   2.08734
    A7        1.55969  -0.00010   0.00000  -0.00025  -0.00025   1.55945
    A8        1.94485   0.00008   0.00000   0.00026   0.00026   1.94511
    A9        2.08719  -0.00001   0.00000   0.00015   0.00015   2.08734
   A10        2.25114  -0.00007   0.00000  -0.00041  -0.00041   2.25073
   A11        1.98769  -0.00003   0.00000  -0.00013  -0.00013   1.98755
   A12        2.14829  -0.00004   0.00000  -0.00034  -0.00034   2.14795
   A13        2.14721   0.00007   0.00000   0.00047   0.00047   2.14768
    D1        0.00000   0.00000   0.00000   0.00000   0.00000   0.00000
    D2        3.14159   0.00000   0.00000   0.00000   0.00000   3.14159
    D3        3.14159   0.00000   0.00000   0.00000   0.00000   3.14159
    D4        0.00000   0.00000   0.00000   0.00000   0.00000   0.00000
    D5        0.00000   0.00000   0.00000   0.00000   0.00000   0.00000
    D6        3.14159   0.00000   0.00000   0.00000   0.00000   3.14159
    D7        3.14159   0.00000   0.00000   0.00000   0.00000   3.14159
    D8        0.00000   0.00000   0.00000   0.00000   0.00000   0.00000
    D9        0.00000   0.00000   0.00000   0.00000   0.00000   0.00000
   D10        3.14159   0.00000   0.00000   0.00000   0.00000   3.14159
   D11        0.00000   0.00000   0.00000   0.00000   0.00000   0.00000
   D12        3.14159   0.00000   0.00000   0.00000   0.00000   3.14159
   D13        0.00000   0.00000   0.00000   0.00000   0.00000   0.00000
   D14        3.14159   0.00000   0.00000   0.00000   0.00000   3.14159
   D15        3.14159   0.00000   0.00000   0.00000   0.00000   3.14159
   D16        0.00000   0.00000   0.00000   0.00000   0.00000   0.00000
         Item               Value     Threshold  Converged?
 Maximum Force            0.000102     0.000450     YES
 RMS     Force            0.000041     0.000300     YES
 Maximum Displacement     0.000625     0.001800     YES
 RMS     Displacement     0.000226     0.001200     YES
 Predicted change in Energy=-1.250056D-07
 Optimization completed.
    -- Stationary point found.
                           ----------------------------
                           !   Optimized Parameters   !
                           ! (Angstroms and Degrees)  !
 --------------------------                            --------------------------
 ! Name  Definition              Value          Derivative Info.                !
 --------------------------------------------------------------------------------
 ! R1    R(1,2)                  1.3583         -DE/DX =   -0.0001              !
 ! R2    R(1,5)                  1.4421         -DE/DX =   -0.0001              !
 ! R3    R(1,9)                  1.0813         -DE/DX =    0.0                 !
 ! R4    R(2,3)                  1.8076         -DE/DX =    0.0                 !
 ! R5    R(2,8)                  1.0769         -DE/DX =    0.0                 !
 ! R6    R(3,4)                  1.8076         -DE/DX =    0.0                 !
 ! R7    R(4,5)                  1.3583         -DE/DX =   -0.0001              !
 ! R8    R(4,7)                  1.0769         -DE/DX =    0.0                 !
 ! R9    R(5,6)                  1.0813         -DE/DX =    0.0                 !
 ! A1    A(2,1,5)              113.8861         -DE/DX =    0.0                 !
 ! A2    A(2,1,9)              123.026          -DE/DX =    0.0001              !
 ! A3    A(5,1,9)              123.0878         -DE/DX =    0.0                 !
 ! A4    A(1,2,3)              111.4319         -DE/DX =    0.0001              !
 ! A5    A(1,2,8)              128.9809         -DE/DX =   -0.0001              !
 ! A6    A(3,2,8)              119.5871         -DE/DX =    0.0                 !
 ! A7    A(2,3,4)               89.3638         -DE/DX =   -0.0001              !
 ! A8    A(3,4,5)              111.4319         -DE/DX =    0.0001              !
 ! A9    A(3,4,7)              119.5871         -DE/DX =    0.0                 !
 ! A10   A(5,4,7)              128.9809         -DE/DX =   -0.0001              !
 ! A11   A(1,5,4)              113.8861         -DE/DX =    0.0                 !
 ! A12   A(1,5,6)              123.0878         -DE/DX =    0.0                 !
 ! A13   A(4,5,6)              123.026          -DE/DX =    0.0001              !
 ! D1    D(5,1,2,3)              0.0            -DE/DX =    0.0                 !
 ! D2    D(5,1,2,8)            180.0            -DE/DX =    0.0                 !
 ! D3    D(9,1,2,3)            180.0            -DE/DX =    0.0                 !
 ! D4    D(9,1,2,8)              0.0            -DE/DX =    0.0                 !
 ! D5    D(2,1,5,4)              0.0            -DE/DX =    0.0                 !
 ! D6    D(2,1,5,6)            180.0            -DE/DX =    0.0                 !
 ! D7    D(9,1,5,4)            180.0            -DE/DX =    0.0                 !
 ! D8    D(9,1,5,6)              0.0            -DE/DX =    0.0                 !
 ! D9    D(1,2,3,4)              0.0            -DE/DX =    0.0                 !
 ! D10   D(8,2,3,4)            180.0            -DE/DX =    0.0                 !
 ! D11   D(2,3,4,5)              0.0            -DE/DX =    0.0                 !
 ! D12   D(2,3,4,7)            180.0            -DE/DX =    0.0                 !
 ! D13   D(3,4,5,1)              0.0            -DE/DX =    0.0                 !
 ! D14   D(3,4,5,6)            180.0            -DE/DX =    0.0                 !
 ! D15   D(7,4,5,1)            180.0            -DE/DX =    0.0                 !
 ! D16   D(7,4,5,6)              0.0            -DE/DX =    0.0                 !
 --------------------------------------------------------------------------------
 GradGradGradGradGradGradGradGradGradGradGradGradGradGradGradGradGradGrad

 Leave Link  103 at Sun Jan 10 23:06:24 2016, MaxMem=    33554432 cpu:         0.0
 (Enter /opt/g09/g09/l9999.exe)
 1\1\GINC-LINUX-CBNE\Freq\RB3LYP\3-21G\C4H4S1\DUSTIN\10-Jan-2016\0\\#P 
 Geom=AllCheck Guess=TCheck SCRF=Check GenChk RB3LYP/3-21G Freq\\Thioph
 ene at B3LYP/3-21G\\0,1\C,0.9162808871,-0.7210680876,0.\C,-0.325648844
 9,-1.2710561899,0.\S,-1.6108967744,0.,0.\C,-0.3256488449,1.2710561899,
 0.\C,0.9162808871,0.7210680876,0.\H,1.8222242425,1.3113708246,0.\H,-0.
 6060813975,2.3107626865,0.\H,-0.6060813975,-2.3107626865,0.\H,1.822224
 2425,-1.3113708246,0.\\Version=ES64L-G09RevD.01\State=1-A1\HF=-550.184
 1092\RMSD=5.429e-10\RMSF=5.084e-05\ZeroPoint=0.0671986\Thermal=0.07128
 07\Dipole=0.3799368,0.,0.\DipoleDeriv=-0.2041579,-0.0392197,0.,-0.1683
 365,-0.0001343,0.,0.,0.,-0.1165398,0.3391892,-0.1477538,0.,-0.2290541,
 -0.0152129,0.,0.,0.,-0.3172106,-0.3535677,0.,0.,0.,-0.0876756,0.,0.,0.
 ,0.1034829,0.3391892,0.1477539,0.,0.2290541,-0.0152129,0.,0.,0.,-0.317
 2106,-0.2041579,0.0392197,0.,0.1683365,-0.0001343,0.,0.,0.,-0.1165398,
 -0.0227029,-0.0823604,0.,-0.0448306,0.0545351,0.,0.,0.,0.1724619,0.064
 4554,-0.0158193,0.,0.0040136,0.0046499,0.,0.,0.,0.209547,0.0644554,0.0
 158193,0.,-0.0040136,0.0046499,0.,0.,0.,0.209547,-0.0227029,0.0823604,
 0.,0.0448306,0.0545351,0.,0.,0.,0.1724619\Polar=63.7313711,0.,57.36031
 28,0.,0.,17.273625\PG=C02V [C2(S1),SGV(C4H4)]\NImag=0\\0.80832008,-0.0
 5008510,0.59541436,0.,0.,0.13448859,-0.37789821,-0.10592042,0.,0.56733
 512,-0.13198385,-0.15252856,0.,0.20068958,0.67434309,0.,0.,-0.06219852
 ,0.,0.,0.09582552,-0.06608046,-0.00313794,0.,-0.07520322,0.02594717,0.
 ,0.28075557,0.02760729,-0.01138432,0.,0.05869530,-0.08108310,0.,0.,0.2
 0126524,0.,0.,0.00751933,0.,0.,-0.03221957,0.,0.,0.03890751,-0.0011343
 5,0.06319692,0.,-0.01597299,-0.00857477,0.,-0.07520322,-0.05869530,0.,
 0.56733512,0.02370723,-0.04450610,0.,0.00857477,-0.05188972,0.,-0.0259
 4716,-0.08108310,0.,-0.20068958,0.67434309,0.,0.,0.00957800,0.,0.,0.00
 918908,0.,0.,-0.03221957,0.,0.,0.09582552,-0.10631122,-0.01786584,0.,-
 0.00113435,-0.02370723,0.,-0.06608045,-0.02760729,0.,-0.37789821,0.131
 98385,0.,0.80832008,0.01786584,-0.23203447,0.,-0.06319692,-0.04450610,
 0.,0.00313794,-0.01138432,0.,0.10592042,-0.15252856,0.,0.05008510,0.59
 541436,0.,0.,-0.06620763,0.,0.,0.00957800,0.,0.,0.00751933,0.,0.,-0.06
 219852,0.,0.,0.13448859,0.00583270,0.00577278,0.,-0.00042091,0.0024234
 8,0.,-0.00194812,0.00045166,0.,-0.01940034,-0.01818299,0.,-0.26204379,
 -0.13352956,0.,0.27672522,-0.02666176,-0.00855355,0.,0.00069524,-0.006
 05780,0.,0.00418083,0.00085166,0.,0.01365924,0.00993268,0.,-0.13367054
 ,-0.14502363,0.,0.14304261,0.14808277,0.,0.,0.00123066,0.,0.,0.0022265
 9,0.,0.,0.00703139,0.,0.,0.00527840,0.,0.,-0.03483003,0.,0.,0.02476989
 ,-0.00420863,0.00148745,0.,-0.00502087,-0.00382867,0.,0.00285401,-0.01
 954887,0.,-0.07228424,0.07914870,0.,0.00352387,0.02697742,0.,0.0007463
 6,-0.00063377,0.,0.07273464,0.00116910,0.00094289,0.,-0.00221630,-0.00
 005245,0.,0.00555777,-0.00901686,0.,0.08366201,-0.34815805,0.,-0.00471
 071,-0.00232661,0.,0.00067188,0.00032009,0.,-0.08449886,0.35858710,0.,
 0.,0.00660043,0.,0.,-0.00040097,0.,0.,-0.00178491,0.,0.,-0.02727853,0.
 ,0.,0.00381916,0.,0.,-0.00472587,0.,0.,0.02091252,0.00352387,-0.026977
 42,0.,-0.07228424,-0.07914870,0.,0.00285401,0.01954887,0.,-0.00502087,
 0.00382867,0.,-0.00420863,-0.00148745,0.,0.00028307,-0.00129271,0.,0.0
 0137179,0.00039611,0.,0.07273464,0.00471071,-0.00232661,0.,-0.08366201
 ,-0.34815805,0.,-0.00555777,-0.00901686,0.,0.00221630,-0.00005245,0.,-
 0.00116910,0.00094289,0.,0.00003101,-0.00018915,0.,-0.00039611,-0.0001
 0697,0.,0.08449886,0.35858710,0.,0.,0.00381916,0.,0.,-0.02727853,0.,0.
 ,-0.00178491,0.,0.,-0.00040097,0.,0.,0.00660043,0.,0.,0.00065136,0.,0.
 ,0.00220681,0.,0.,0.02091252,-0.26204379,0.13352956,0.,-0.01940034,0.0
 1818299,0.,-0.00194812,-0.00045166,0.,-0.00042091,-0.00242348,0.,0.005
 83270,-0.00577278,0.,0.00022580,0.00068086,0.,0.00028307,-0.00003101,0
 .,0.00074636,-0.00067188,0.,0.27672522,0.13367054,-0.14502363,0.,-0.01
 365924,0.00993268,0.,-0.00418083,0.00085166,0.,-0.00069524,-0.00605780
 ,0.,0.02666176,-0.00855355,0.,-0.00068086,0.00063693,0.,0.00129271,-0.
 00018915,0.,0.00063377,0.00032009,0.,-0.14304261,0.14808277,0.,0.,-0.0
 3483003,0.,0.,0.00527840,0.,0.,0.00703139,0.,0.,0.00222659,0.,0.,0.001
 23066,0.,0.,-0.00163239,0.,0.,0.00065136,0.,0.,-0.00472587,0.,0.,0.024
 76989\\0.00004797,0.00004580,0.,-0.00000193,-0.00016188,0.,0.00003648,
 0.,0.,-0.00000193,0.00016188,0.,0.00004797,-0.00004580,0.,-0.00003346,
 0.00003866,0.,-0.00003082,0.00000761,0.,-0.00003082,-0.00000761,0.,-0.
 00003346,-0.00003866,0.\\\@


 HIGGLEDY-PIGGLEDY
 NIC'LAUS COPERNICUS
 LOOKED AT THE UNIVERSE,
 SPOKE TO THE THRONG;
 GIVE UP YOUR PTOLOMY,
 RISE UP AND FOLLOW ME,
 HELIOCENTRICALLY
 PTOLEMY'S WRONG.
   -- NANCY L. STARK
 Job cpu time:       0 days  0 hours  0 minutes  8.2 seconds.
 File lengths (MBytes):  RWF=      6 Int=      0 D2E=      0 Chk=      1 Scr=      1
 Normal termination of Gaussian 09 at Sun Jan 10 23:06:24 2016.
