 Entering Gaussian System, Link 0=g09
 Input=ThiopheneAM1.com
 Output=ThiopheneAM1.log
 Initial command:
 /opt/g09/g09/l1.exe "/opt/g09/scratch/Gau-15171.inp" -scrdir="/opt/g09/scratch/"
 Entering Link 1 = /opt/g09/g09/l1.exe PID=     15172.
  
 Copyright (c) 1988,1990,1992,1993,1995,1998,2003,2009,2013,
            Gaussian, Inc.  All Rights Reserved.
  
 This is part of the Gaussian(R) 09 program.  It is based on
 the Gaussian(R) 03 system (copyright 2003, Gaussian, Inc.),
 the Gaussian(R) 98 system (copyright 1998, Gaussian, Inc.),
 the Gaussian(R) 94 system (copyright 1995, Gaussian, Inc.),
 the Gaussian 92(TM) system (copyright 1992, Gaussian, Inc.),
 the Gaussian 90(TM) system (copyright 1990, Gaussian, Inc.),
 the Gaussian 88(TM) system (copyright 1988, Gaussian, Inc.),
 the Gaussian 86(TM) system (copyright 1986, Carnegie Mellon
 University), and the Gaussian 82(TM) system (copyright 1983,
 Carnegie Mellon University). Gaussian is a federally registered
 trademark of Gaussian, Inc.
  
 This software contains proprietary and confidential information,
 including trade secrets, belonging to Gaussian, Inc.
  
 This software is provided under written license and may be
 used, copied, transmitted, or stored only in accord with that
 written license.
  
 The following legend is applicable only to US Government
 contracts under FAR:
  
                    RESTRICTED RIGHTS LEGEND
  
 Use, reproduction and disclosure by the US Government is
 subject to restrictions as set forth in subparagraphs (a)
 and (c) of the Commercial Computer Software - Restricted
 Rights clause in FAR 52.227-19.
  
 Gaussian, Inc.
 340 Quinnipiac St., Bldg. 40, Wallingford CT 06492
  
  
 ---------------------------------------------------------------
 Warning -- This program may not be used in any manner that
 competes with the business of Gaussian, Inc. or will provide
 assistance to any competitor of Gaussian, Inc.  The licensee
 of this program is prohibited from giving any competitor of
 Gaussian, Inc. access to this program.  By using this program,
 the user acknowledges that Gaussian, Inc. is engaged in the
 business of creating and licensing software in the field of
 computational chemistry and represents and warrants to the
 licensee that it is not a competitor of Gaussian, Inc. and that
 it will not use this program in any manner prohibited above.
 ---------------------------------------------------------------
  

 Cite this work as:
 Gaussian 09, Revision D.01,
 M. J. Frisch, G. W. Trucks, H. B. Schlegel, G. E. Scuseria, 
 M. A. Robb, J. R. Cheeseman, G. Scalmani, V. Barone, B. Mennucci, 
 G. A. Petersson, H. Nakatsuji, M. Caricato, X. Li, H. P. Hratchian, 
 A. F. Izmaylov, J. Bloino, G. Zheng, J. L. Sonnenberg, M. Hada, 
 M. Ehara, K. Toyota, R. Fukuda, J. Hasegawa, M. Ishida, T. Nakajima, 
 Y. Honda, O. Kitao, H. Nakai, T. Vreven, J. A. Montgomery, Jr., 
 J. E. Peralta, F. Ogliaro, M. Bearpark, J. J. Heyd, E. Brothers, 
 K. N. Kudin, V. N. Staroverov, T. Keith, R. Kobayashi, J. Normand, 
 K. Raghavachari, A. Rendell, J. C. Burant, S. S. Iyengar, J. Tomasi, 
 M. Cossi, N. Rega, J. M. Millam, M. Klene, J. E. Knox, J. B. Cross, 
 V. Bakken, C. Adamo, J. Jaramillo, R. Gomperts, R. E. Stratmann, 
 O. Yazyev, A. J. Austin, R. Cammi, C. Pomelli, J. W. Ochterski, 
 R. L. Martin, K. Morokuma, V. G. Zakrzewski, G. A. Voth, 
 P. Salvador, J. J. Dannenberg, S. Dapprich, A. D. Daniels, 
 O. Farkas, J. B. Foresman, J. V. Ortiz, J. Cioslowski, 
 and D. J. Fox, Gaussian, Inc., Wallingford CT, 2013.
 
 ******************************************
 Gaussian 09:  ES64L-G09RevD.01 24-Apr-2013
                10-Jan-2016 
 ******************************************
 ------------------------
 #P AM1(Input,print) freq
 ------------------------
 1/10=4,30=1,38=1/1,3;
 2/12=2,17=6,18=5,40=1/2;
 3/5=2,16=1,25=1,41=700000,71=2,135=100,136=1,140=1/1,2,3;
 4/35=1/1;
 5/5=2,35=1,38=5,98=1/2;
 8/6=4,10=90,11=11/1;
 11/6=1,8=1,9=11,15=111,16=1/1,2,10;
 10/6=1/2;
 6/7=2,8=2,9=2,10=2,18=1,28=1/1;
 7/8=1,10=1,25=1/1,2,3,16;
 1/10=4,30=1/3;
 99//99;
 Leave Link    1 at Sun Jan 10 23:09:28 2016, MaxMem=           0 cpu:         0.0
 (Enter /opt/g09/g09/l101.exe)
 -----------------
 AM1-Reparam Input
 -----------------
 Symbolic Z-matrix:
 Charge =  0 Multiplicity = 1
 6                     0.95548  -0.71596   0. 
 6                    -0.34563  -1.09282   0. 
 16                   -1.15731   0.        0. 
 6                    -0.34563   1.09282   0. 
 6                     0.95548   0.71596   0. 
 1                     1.81044   1.36938   0. 
 1                    -0.84031   2.04688   0. 
 1                    -0.84031  -2.04688   0. 
 1                     1.81044  -1.36938   0. 
 
 NAtoms=      9 NQM=        9 NQMF=       0 NMMI=      0 NMMIF=      0
                NMic=       0 NMicF=      0.
                    Isotopes and Nuclear Properties:
 (Nuclear quadrupole moments (NQMom) in fm**2, nuclear magnetic moments (NMagM)
  in nuclear magnetons)

  Atom         1           2           3           4           5           6           7           8           9
 IAtWgt=          12          12          32          12          12           1           1           1           1
 AtmWgt=  12.0000000  12.0000000  31.9720718  12.0000000  12.0000000   1.0078250   1.0078250   1.0078250   1.0078250
 NucSpn=           0           0           0           0           0           1           1           1           1
 AtZEff=   0.0000000   0.0000000   0.0000000   0.0000000   0.0000000   0.0000000   0.0000000   0.0000000   0.0000000
 NQMom=    0.0000000   0.0000000   0.0000000   0.0000000   0.0000000   0.0000000   0.0000000   0.0000000   0.0000000
 NMagM=    0.0000000   0.0000000   0.0000000   0.0000000   0.0000000   2.7928460   2.7928460   2.7928460   2.7928460
 AtZNuc=   6.0000000   6.0000000  16.0000000   6.0000000   6.0000000   1.0000000   1.0000000   1.0000000   1.0000000
 Leave Link  101 at Sun Jan 10 23:09:28 2016, MaxMem=    33554432 cpu:         0.0
 (Enter /opt/g09/g09/l103.exe)

 GradGradGradGradGradGradGradGradGradGradGradGradGradGradGradGradGradGrad
 Berny optimization.
 Initialization pass.
 Trust Radius=3.00D-01 FncErr=1.00D-07 GrdErr=1.00D-07
 Number of steps in this run=      2 maximum allowed number of steps=      2.
 GradGradGradGradGradGradGradGradGradGradGradGradGradGradGradGradGradGrad

 Leave Link  103 at Sun Jan 10 23:09:28 2016, MaxMem=    33554432 cpu:         0.0
 (Enter /opt/g09/g09/l202.exe)
                          Input orientation:                          
 ---------------------------------------------------------------------
 Center     Atomic      Atomic             Coordinates (Angstroms)
 Number     Number       Type             X           Y           Z
 ---------------------------------------------------------------------
      1          6           0        0.955475   -0.715963    0.000000
      2          6           0       -0.345627   -1.092818    0.000000
      3         16           0       -1.157305    0.000000    0.000000
      4          6           0       -0.345627    1.092818    0.000000
      5          6           0        0.955475    0.715963    0.000000
      6          1           0        1.810438    1.369382    0.000000
      7          1           0       -0.840307    2.046884    0.000000
      8          1           0       -0.840307   -2.046884    0.000000
      9          1           0        1.810438   -1.369382    0.000000
 ---------------------------------------------------------------------
                    Distance matrix (angstroms):
                    1          2          3          4          5
     1  C    0.000000
     2  C    1.354580   0.000000
     3  S    2.230794   1.361276   0.000000
     4  C    2.228128   2.185636   1.361276   0.000000
     5  C    1.431926   2.228128   2.230794   1.354580   0.000000
     6  H    2.253802   3.272773   3.268441   2.173730   1.076066
     7  H    3.295172   3.178433   2.071285   1.074686   2.235214
     8  H    2.235214   1.074686   2.071285   3.178433   3.295172
     9  H    1.076066   2.173730   3.268441   3.272773   2.253802
                    6          7          8          9
     6  H    0.000000
     7  H    2.735957   0.000000
     8  H    4.324040   4.093768   0.000000
     9  H    2.738764   4.324040   2.735957   0.000000
 Stoichiometry    C4H4S
 Framework group  C2V[C2(S),SGV(C4H4)]
 Deg. of freedom     8
 Full point group                 C2V     NOp   4
 Largest Abelian subgroup         C2V     NOp   4
 Largest concise Abelian subgroup C2      NOp   2
                         Standard orientation:                         
 ---------------------------------------------------------------------
 Center     Atomic      Atomic             Coordinates (Angstroms)
 Number     Number       Type             X           Y           Z
 ---------------------------------------------------------------------
      1          6           0        0.000000    0.715963   -1.165894
      2          6           0        0.000000    1.092818    0.135208
      3         16           0        0.000000    0.000000    0.946886
      4          6           0        0.000000   -1.092818    0.135208
      5          6           0        0.000000   -0.715963   -1.165894
      6          1           0        0.000000   -1.369382   -2.020857
      7          1           0        0.000000   -2.046884    0.629888
      8          1           0        0.000000    2.046884    0.629888
      9          1           0        0.000000    1.369382   -2.020857
 ---------------------------------------------------------------------
 Rotational constants (GHZ):      9.5015164      7.1512017      4.0802504
 Leave Link  202 at Sun Jan 10 23:09:28 2016, MaxMem=    33554432 cpu:         0.0
 (Enter /opt/g09/g09/l301.exe)

 Semi-emprical parameters in input format:
 Method=8 CoreType=1 PeptideFC=0.0114505045 RIJScale=0.5291772086
 ****
 H       
 PQN=1 NValence=1 F0ss=0.4721553327 ZetaOverlap=1.1880780000 U=-0.4188110042
 Beta=-0.2268825074 CoreKO=1.0589197790 KON=0,0,0,1.0589197790 KON=1,0,1,1.0589197790
 KON=0,1,1,1.0589197790 KON=2,1,1,1.0589197790 EISol=-0.4188110042 EHeat=0.0830298228
 Alpha=1.5252601686
 GCore=0.0085277107,1.4001425905,2.2676713595
 GCore=0.0003534810,1.4001425905,3.4015070392
 GCore=-0.0012733648,0.5600570362,3.9684248791
 ****
 C       
 PQN=2,2 NValence=4 F0ss=0.4494442496 F0sp=0.4215147623 F0pp=0.3768030831 F2pp=0.1898715146
 G1sp=0.2679025821
 ZetaOverlap=1.8086650000,1.6851160000
 U=-1.9120180828,-1.4557965594
 Beta=-0.5775444233,-0.2836784428 DDN=0,1,0.8236736000 DDN=1,1,0.7268015000
 CoreKO=1.1124284736 KON=0,0,0,1.1124284736 KON=1,0,1,0.8219701441 KON=0,1,1,1.1124284736
 KON=2,1,1,0.7783928119 EISol=-4.4398989268 EHeat=0.2723305520 Alpha=1.4014062429
 DipHyp=1.6472524267
 GCore=0.0007885612,1.4001425905,3.0235618126
 GCore=0.0031892455,1.4001425905,3.4959933458
 GCore=-0.0013931594,1.4001425905,3.8739385724
 GCore=-0.0000875022,1.4001425905,5.0077742521
 ****
 S       
 PQN=3,3 NValence=6 F0ss=0.4331396397 F0sp=0.3183640731 F0pp=0.3136271218 F2pp=0.3456917167
 G1sp=0.2791629797
 ZetaOverlap=2.3665150000,1.6672630000,1.0000000000
 U=-2.0834683120,-1.7903186861
 Beta=-0.1440781557,-0.2905136336 DDN=0,1,0.9004265000 DDN=1,1,1.0036329000
 CoreKO=1.1543033468 KON=0,0,0,1.1543033468 KON=1,0,1,0.8464368816 KON=0,1,1,1.1543033468
 KON=2,1,1,0.7746001785 EISol=-7.0460287497 EHeat=0.1058151363 Alpha=1.3026480172
 DipHyp=1.8007493954
 GCore=-0.0353616377,1.2863644833,1.4563457902
 GCore=-0.0008238398,1.6425719595,2.8408498620
 GCore=0.0008565489,3.7964407093,3.7967867236
 ****
 
 Standard basis: VSTO-6G (5D, 7F)
 Ernie: Thresh=  0.10000D-02 Tol=  0.10000D-05 Strict=F.
  NNHCO=     0 NNPyr=     0 NCTC=     0               EPep=         0.000000000
    EC=        67.702818059  ECS=         2.328056498   EG=         0.016737030
   EHC=         0.000000000  EAt=       -26.480868474  AtH=         1.527256636
 EPDDG=         0.000000000  ECC=        70.047611587 EAtT=        28.008125109
 There are    10 symmetry adapted cartesian basis functions of A1  symmetry.
 There are     2 symmetry adapted cartesian basis functions of A2  symmetry.
 There are     3 symmetry adapted cartesian basis functions of B1  symmetry.
 There are     9 symmetry adapted cartesian basis functions of B2  symmetry.
 There are    10 symmetry adapted basis functions of A1  symmetry.
 There are     2 symmetry adapted basis functions of A2  symmetry.
 There are     3 symmetry adapted basis functions of B1  symmetry.
 There are     9 symmetry adapted basis functions of B2  symmetry.
    24 basis functions,   144 primitive gaussians,    24 cartesian basis functions
    13 alpha electrons       13 beta electrons
       nuclear repulsion energy        98.0557366963 Hartrees.



 Warning!  S  atom    3 may be hypervalent but has no d functions.



 IExCor=    0 DFT=F Ex=HF Corr=None ExCW=0 ScaHFX=  1.000000
 ScaDFX=  1.000000  1.000000  1.000000  1.000000 ScalE2=  1.000000  1.000000
 IRadAn=      0 IRanWt=     -1 IRanGd=            0 ICorTp=0 IEmpDi=  4
 Integral buffers will be    131072 words long.
 Regular integral format.
 Two-electron integral symmetry is turned off.
 Leave Link  301 at Sun Jan 10 23:09:28 2016, MaxMem=    33554432 cpu:         0.0
 (Enter /opt/g09/g09/l302.exe)
 Do NDO integrals.
 NPDir=0 NMtPBC=     1 NCelOv=     1 NCel=       1 NClECP=     1 NCelD=      1
         NCelK=      1 NCelE2=     1 NClLst=     1 CellRange=     0.0.
 One-electron integrals computed using PRISM.
 NBasis=    24 RedAO= T EigKep=  1.00D+00  NBF=    10     2     3     9
 NBsUse=    24 1.00D-06 EigRej= -1.00D+00 NBFU=    10     2     3     9
 Leave Link  302 at Sun Jan 10 23:09:28 2016, MaxMem=    33554432 cpu:         0.0
 (Enter /opt/g09/g09/l303.exe)
 DipDrv:  MaxL=1.
 Leave Link  303 at Sun Jan 10 23:09:28 2016, MaxMem=    33554432 cpu:         0.0
 (Enter /opt/g09/g09/l401.exe)
 Simple Huckel Guess.
 JPrj=0 DoOrth=F DoCkMO=F.
 Initial guess orbital symmetries:
       Occupied  (A1) (B2) (A1) (B2) (A1) (A1) (B1) (B2) (A1) (B2)
                 (B1) (A2) (A1)
       Virtual   (A2) (B1) (B2) (A1) (B2) (A1) (B2) (A1) (B2) (B2)
                 (A1)
 The electronic state of the initial guess is 1-A1.
 Leave Link  401 at Sun Jan 10 23:09:28 2016, MaxMem=    33554432 cpu:         0.0
 (Enter /opt/g09/g09/l502.exe)
 Closed shell SCF:
 Using DIIS extrapolation, IDIIS=  1040.
 Overlap will be assumed to be unity.
 Two-electron integral symmetry not used.
 Keep J ints in memory in canonical form, NReq=888094.
 IVT=       79487 IEndB=       79487 NGot=    33554432 MDV=    33473461
 LenX=    33473461 LenY=    33472444
 Requested convergence on RMS density matrix=1.00D-08 within 128 cycles.
 Requested convergence on MAX density matrix=1.00D-06.
 Requested convergence on             energy=1.00D-06.
 No special actions if energy rises.
 FoFCou: FMM=F IPFlag=           0 FMFlag=           0 FMFlg1=           0
         NFxFlg=           0 DoJE=F BraDBF=F KetDBF=F FulRan=T
         wScrn=  0.000000 ICntrl=     600 IOpCl=  2 I1Cent=           0 NGrid=           0
         NMat0=    1 NMatS0=     54 NMatT0=    0 NMatD0=    1 NMtDS0=    0 NMtDT0=    0
 Symmetry not used in FoFCou.

 Cycle   1  Pass 1  IDiag  1:
 E= 0.457454405586816    
 DIIS: error= 3.57D-02 at cycle   1 NSaved=   1.
 NSaved= 1 IEnMin= 1 EnMin= 0.457454405586816     IErMin= 1 ErrMin= 3.57D-02
 ErrMax= 3.57D-02  0.00D+00 EMaxC= 1.00D-01 BMatC= 7.83D-02 BMatP= 7.83D-02
 IDIUse=3 WtCom= 6.43D-01 WtEn= 3.57D-01
 Coeff-Com:  0.100D+01
 Coeff-En:   0.100D+01
 Coeff:      0.100D+01
 GapD=    2.000 DampG=2.000 DampE=0.500 DampFc=1.0000 IDamp=-1.
 RMSDP=2.06D-02 MaxDP=1.43D-01              OVMax= 0.00D+00

 Cycle   2  Pass 1  IDiag  1:
 E= 0.230242614751063     Delta-E=       -0.227211790836 Rises=F Damp=F
 DIIS: error= 1.12D-02 at cycle   2 NSaved=   2.
 NSaved= 2 IEnMin= 2 EnMin= 0.230242614751063     IErMin= 2 ErrMin= 1.12D-02
 ErrMax= 1.12D-02  0.00D+00 EMaxC= 1.00D-01 BMatC= 7.28D-03 BMatP= 7.83D-02
 IDIUse=3 WtCom= 8.88D-01 WtEn= 1.12D-01
 Coeff-Com: -0.355D+00 0.135D+01
 Coeff-En:   0.000D+00 0.100D+01
 Coeff:     -0.315D+00 0.132D+01
 RMSDP=9.46D-03 MaxDP=1.04D-01 DE=-2.27D-01 OVMax= 0.00D+00

 Cycle   3  Pass 1  IDiag  3:
 E= 0.199600044717542     Delta-E=       -0.030642570034 Rises=F Damp=F
 DIIS: error= 3.68D-03 at cycle   3 NSaved=   3.
 NSaved= 3 IEnMin= 3 EnMin= 0.199600044717542     IErMin= 3 ErrMin= 3.68D-03
 ErrMax= 3.68D-03  0.00D+00 EMaxC= 1.00D-01 BMatC= 5.68D-04 BMatP= 7.28D-03
 IDIUse=3 WtCom= 9.63D-01 WtEn= 3.68D-02
 Coeff-Com:  0.160D+00-0.712D+00 0.155D+01
 Coeff-En:   0.000D+00 0.000D+00 0.100D+01
 Coeff:      0.154D+00-0.686D+00 0.153D+01
 Fock symm off for IB=2 I1=    2 I=   12 J=    6 Cut=1.00D-07 Err=4.20D-03
 Fock matrix is not symmetric: symmetry in diagonalization turned off.
 Gap=     0.352 Goal=   None    Shift=    0.000
 RMSDP=4.29D-03 MaxDP=5.16D-02 DE=-3.06D-02 OVMax= 5.81D-02

 Cycle   4  Pass 1  IDiag  3:
 E= 0.195066597556050     Delta-E=       -0.004533447161 Rises=F Damp=F
 DIIS: error= 1.43D-03 at cycle   4 NSaved=   4.
 NSaved= 4 IEnMin= 4 EnMin= 0.195066597556050     IErMin= 4 ErrMin= 1.43D-03
 ErrMax= 1.43D-03  0.00D+00 EMaxC= 1.00D-01 BMatC= 9.54D-05 BMatP= 5.68D-04
 IDIUse=3 WtCom= 9.86D-01 WtEn= 1.43D-02
 Coeff-Com: -0.539D-01 0.262D+00-0.102D+01 0.181D+01
 Coeff-En:   0.000D+00 0.000D+00 0.000D+00 0.100D+01
 Coeff:     -0.532D-01 0.258D+00-0.100D+01 0.180D+01
 Gap=     0.359 Goal=   None    Shift=    0.000
 RMSDP=2.50D-03 MaxDP=2.51D-02 DE=-4.53D-03 OVMax= 2.87D-02

 Cycle   5  Pass 1  IDiag  3:
 E= 0.194191770802817     Delta-E=       -0.000874826753 Rises=F Damp=F
 DIIS: error= 3.89D-04 at cycle   5 NSaved=   5.
 NSaved= 5 IEnMin= 5 EnMin= 0.194191770802817     IErMin= 5 ErrMin= 3.89D-04
 ErrMax= 3.89D-04  0.00D+00 EMaxC= 1.00D-01 BMatC= 4.88D-06 BMatP= 9.54D-05
 IDIUse=3 WtCom= 9.96D-01 WtEn= 3.89D-03
 Coeff-Com:  0.682D-02-0.415D-01 0.326D+00-0.824D+00 0.153D+01
 Coeff-En:   0.000D+00 0.000D+00 0.000D+00 0.000D+00 0.100D+01
 Coeff:      0.679D-02-0.414D-01 0.325D+00-0.821D+00 0.153D+01
 Gap=     0.359 Goal=   None    Shift=    0.000
 RMSDP=4.60D-04 MaxDP=3.42D-03 DE=-8.75D-04 OVMax= 4.86D-03

 Cycle   6  Pass 1  IDiag  3:
 E= 0.194152381367559     Delta-E=       -0.000039389435 Rises=F Damp=F
 DIIS: error= 1.17D-04 at cycle   6 NSaved=   6.
 NSaved= 6 IEnMin= 6 EnMin= 0.194152381367559     IErMin= 6 ErrMin= 1.17D-04
 ErrMax= 1.17D-04  0.00D+00 EMaxC= 1.00D-01 BMatC= 3.64D-07 BMatP= 4.88D-06
 IDIUse=3 WtCom= 9.99D-01 WtEn= 1.17D-03
 Coeff-Com: -0.131D-02 0.735D-02-0.977D-01 0.276D+00-0.734D+00 0.155D+01
 Coeff-En:   0.000D+00 0.000D+00 0.000D+00 0.000D+00 0.000D+00 0.100D+01
 Coeff:     -0.131D-02 0.734D-02-0.976D-01 0.276D+00-0.733D+00 0.155D+01
 Gap=     0.359 Goal=   None    Shift=    0.000
 RMSDP=1.50D-04 MaxDP=1.24D-03 DE=-3.94D-05 OVMax= 1.75D-03

 Cycle   7  Pass 1  IDiag  3:
 E= 0.194148817956474     Delta-E=       -0.000003563411 Rises=F Damp=F
 DIIS: error= 4.14D-05 at cycle   7 NSaved=   7.
 NSaved= 7 IEnMin= 7 EnMin= 0.194148817956474     IErMin= 7 ErrMin= 4.14D-05
 ErrMax= 4.14D-05  0.00D+00 EMaxC= 1.00D-01 BMatC= 2.89D-08 BMatP= 3.64D-07
 IDIUse=1 WtCom= 1.00D+00 WtEn= 0.00D+00
 Coeff-Com: -0.616D-03 0.320D-02 0.103D-01-0.473D-01 0.204D+00-0.718D+00
 Coeff-Com:  0.155D+01
 Coeff:     -0.616D-03 0.320D-02 0.103D-01-0.473D-01 0.204D+00-0.718D+00
 Coeff:      0.155D+01
 Gap=     0.359 Goal=   None    Shift=    0.000
 RMSDP=4.50D-05 MaxDP=3.18D-04 DE=-3.56D-06 OVMax= 4.96D-04

 Cycle   8  Pass 1  IDiag  3:
 E= 0.194148518822672     Delta-E=       -0.000000299134 Rises=F Damp=F
 DIIS: error= 1.13D-05 at cycle   8 NSaved=   8.
 NSaved= 8 IEnMin= 8 EnMin= 0.194148518822672     IErMin= 8 ErrMin= 1.13D-05
 ErrMax= 1.13D-05  0.00D+00 EMaxC= 1.00D-01 BMatC= 1.87D-09 BMatP= 2.89D-08
 IDIUse=1 WtCom= 1.00D+00 WtEn= 0.00D+00
 Coeff-Com:  0.318D-03-0.176D-02 0.117D-02 0.312D-02-0.426D-01 0.212D+00
 Coeff-Com: -0.696D+00 0.152D+01
 Coeff:      0.318D-03-0.176D-02 0.117D-02 0.312D-02-0.426D-01 0.212D+00
 Coeff:     -0.696D+00 0.152D+01
 Gap=     0.359 Goal=   None    Shift=    0.000
 RMSDP=1.28D-05 MaxDP=9.87D-05 DE=-2.99D-07 OVMax= 1.53D-04

 Cycle   9  Pass 1  IDiag  3:
 E= 0.194148499385520     Delta-E=       -0.000000019437 Rises=F Damp=F
 DIIS: error= 1.73D-06 at cycle   9 NSaved=   9.
 NSaved= 9 IEnMin= 9 EnMin= 0.194148499385520     IErMin= 9 ErrMin= 1.73D-06
 ErrMax= 1.73D-06  0.00D+00 EMaxC= 1.00D-01 BMatC= 6.94D-11 BMatP= 1.87D-09
 IDIUse=1 WtCom= 1.00D+00 WtEn= 0.00D+00
 Coeff-Com: -0.115D-03 0.650D-03-0.113D-02 0.119D-02 0.837D-02-0.551D-01
 Coeff-Com:  0.209D+00-0.596D+00 0.143D+01
 Coeff:     -0.115D-03 0.650D-03-0.113D-02 0.119D-02 0.837D-02-0.551D-01
 Coeff:      0.209D+00-0.596D+00 0.143D+01
 Gap=     0.359 Goal=   None    Shift=    0.000
 RMSDP=1.81D-06 MaxDP=1.23D-05 DE=-1.94D-08 OVMax= 2.04D-05

 Cycle  10  Pass 1  IDiag  3:
 E= 0.194148498848634     Delta-E=       -0.000000000537 Rises=F Damp=F
 DIIS: error= 2.98D-07 at cycle  10 NSaved=  10.
 NSaved=10 IEnMin=10 EnMin= 0.194148498848634     IErMin=10 ErrMin= 2.98D-07
 ErrMax= 2.98D-07  0.00D+00 EMaxC= 1.00D-01 BMatC= 3.69D-12 BMatP= 6.94D-11
 IDIUse=1 WtCom= 1.00D+00 WtEn= 0.00D+00
 Coeff-Com:  0.233D-04-0.146D-03 0.394D-03-0.821D-03-0.592D-03 0.956D-02
 Coeff-Com: -0.452D-01 0.163D+00-0.621D+00 0.149D+01
 Coeff:      0.233D-04-0.146D-03 0.394D-03-0.821D-03-0.592D-03 0.956D-02
 Coeff:     -0.452D-01 0.163D+00-0.621D+00 0.149D+01
 Gap=     0.359 Goal=   None    Shift=    0.000
 RMSDP=4.66D-07 MaxDP=2.76D-06 DE=-5.37D-10 OVMax= 5.52D-06

 Cycle  11  Pass 1  IDiag  3:
 E= 0.194148498819544     Delta-E=       -0.000000000029 Rises=F Damp=F
 DIIS: error= 3.14D-08 at cycle  11 NSaved=  11.
 NSaved=11 IEnMin=11 EnMin= 0.194148498819544     IErMin=11 ErrMin= 3.14D-08
 ErrMax= 3.14D-08  0.00D+00 EMaxC= 1.00D-01 BMatC= 8.46D-14 BMatP= 3.69D-12
 IDIUse=1 WtCom= 1.00D+00 WtEn= 0.00D+00
 Coeff-Com: -0.313D-05 0.241D-04-0.756D-04 0.202D-03 0.709D-05-0.159D-02
 Coeff-Com:  0.859D-02-0.359D-01 0.167D+00-0.509D+00 0.137D+01
 Coeff:     -0.313D-05 0.241D-04-0.756D-04 0.202D-03 0.709D-05-0.159D-02
 Coeff:      0.859D-02-0.359D-01 0.167D+00-0.509D+00 0.137D+01
 Gap=     0.359 Goal=   None    Shift=    0.000
 RMSDP=4.76D-08 MaxDP=2.67D-07 DE=-2.91D-11 OVMax= 3.66D-07

 Cycle  12  Pass 1  IDiag  3:
 E= 0.194148498819089     Delta-E=        0.000000000000 Rises=F Damp=F
 DIIS: error= 6.57D-09 at cycle  12 NSaved=  12.
 NSaved=12 IEnMin=12 EnMin= 0.194148498819089     IErMin=12 ErrMin= 6.57D-09
 ErrMax= 6.57D-09  0.00D+00 EMaxC= 1.00D-01 BMatC= 2.91D-15 BMatP= 8.46D-14
 IDIUse=1 WtCom= 1.00D+00 WtEn= 0.00D+00
 Coeff-Com:  0.433D-06-0.429D-05 0.205D-04-0.654D-04 0.703D-04 0.117D-03
 Coeff-Com: -0.126D-02 0.708D-02-0.413D-01 0.137D+00-0.491D+00 0.139D+01
 Coeff:      0.433D-06-0.429D-05 0.205D-04-0.654D-04 0.703D-04 0.117D-03
 Coeff:     -0.126D-02 0.708D-02-0.413D-01 0.137D+00-0.491D+00 0.139D+01
 Gap=     0.359 Goal=   None    Shift=    0.000
 RMSDP=9.99D-09 MaxDP=6.38D-08 DE=-4.55D-13 OVMax= 9.64D-08

 Cycle  13  Pass 2  IDiag  1:
 SCF Done:  E(RAM1) =  0.194148498819     A.U. after   13 cycles
            NFock= 12  Conv=0.10D-07     -V/T= 1.0130
 KE=-1.489355999717D+01 PE=-1.630733411776D+02 EE= 8.010531297724D+01
 Leave Link  502 at Sun Jan 10 23:09:28 2016, MaxMem=    33554432 cpu:         0.0
 (Enter /opt/g09/g09/l801.exe)
 Range of M.O.s used for correlation:     1    24
 NBasis=    24 NAE=    13 NBE=    13 NFC=     0 NFV=     0
 NROrb=     24 NOA=    13 NOB=    13 NVA=    11 NVB=    11
 Leave Link  801 at Sun Jan 10 23:09:28 2016, MaxMem=    33554432 cpu:         0.0
 (Enter /opt/g09/g09/l1101.exe)
 Using compressed storage, NAtomX=     9.
 Will process     10 centers per pass.
 Leave Link 1101 at Sun Jan 10 23:09:29 2016, MaxMem=    33554432 cpu:         0.0
 (Enter /opt/g09/g09/l1102.exe)
 Symmetrizing basis deriv contribution to polar:
 IMax=3 JMax=2 DiffMx= 0.00D+00
 Leave Link 1102 at Sun Jan 10 23:09:29 2016, MaxMem=    33554432 cpu:         0.0
 (Enter /opt/g09/g09/l1110.exe)
 Forming Gx(P) for the SCF density, NAtomX=     9.
 Integral derivatives from FoFJK, PRISM(SPDF).
 Do as many integral derivatives as possible in FoFJK.
 G2DrvN: MDV=      33495365.
 G2DrvN: will do    10 centers at a time, making    1 passes.
 Calling FoFCou, ICntrl=  3107 FMM=F I1Cent=   0 AccDes= 0.00D+00.
 FoFJK:  IHMeth= 8 ICntrl=    3107 DoSepK=F KAlg= 0 I1Cent=   0 FoldK=F
 IRaf=         0 NMat=   1 IRICut=       1 DoRegI=T DoRafI=F ISym2E= 0.
 FoFCou: FMM=F IPFlag=           0 FMFlag=      100000 FMFlg1=           0
         NFxFlg=           0 DoJE=F BraDBF=F KetDBF=F FulRan=T
         wScrn=  0.000000 ICntrl=    3107 IOpCl=  0 I1Cent=           0 NGrid=           0
         NMat0=    1 NMatS0=      1 NMatT0=    0 NMatD0=    1 NMtDS0=    0 NMtDT0=    0
 Symmetry not used in FoFCou.
 End of G2Drv F.D. properties file   721 does not exist.
 End of G2Drv F.D. properties file   722 does not exist.
 End of G2Drv F.D. properties file   788 does not exist.
 Leave Link 1110 at Sun Jan 10 23:09:29 2016, MaxMem=    33554432 cpu:         0.0
 (Enter /opt/g09/g09/l1002.exe)
 Minotr:  Closed shell wavefunction.
          IDoAtm=111111111
          Direct CPHF calculation.
          Differentiating once with respect to electric field.
                with respect to dipole field.
          Differentiating once with respect to nuclear coordinates.
          Electric field/nuclear overlap derivatives assumed to be zero.
          Using symmetry in CPHF.
          Requested convergence is 1.0D-08 RMS, and 1.0D-07 maximum.
          NewPWx=T KeepS1=F KeepF1=F KeepIn=T MapXYZ=F SortEE=F KeepMc=T.
          MDV=      33495423 using IRadAn=       2.
 Keep J ints in memory in canonical form, NReq=871758.
 FoFCou: FMM=F IPFlag=           0 FMFlag=           0 FMFlg1=           0
         NFxFlg=           0 DoJE=F BraDBF=F KetDBF=F FulRan=T
         wScrn=  0.000000 ICntrl=     600 IOpCl=  2 I1Cent=           0 NGrid=           0
         NMat0=    1 NMatS0=     54 NMatT0=    0 NMatD0=    1 NMtDS0=    0 NMtDT0=    0
 Symmetry not used in FoFCou.
          Solving linear equations separately, MaxMat=       0.
          There are    18 degrees of freedom in the 1st order CPHF.  IDoFFX=4 NUNeed=    18.
 LinEq1:  Iter=  0 NonCon=    18 RMS=4.28D-01 Max=3.08D+00 NDo=    18
 AX will form    18 AO Fock derivatives at one time.
 LinEq1:  Iter=  1 NonCon=    18 RMS=6.84D-02 Max=3.01D-01 NDo=    18
 LinEq1:  Iter=  2 NonCon=    18 RMS=7.50D-03 Max=3.43D-02 NDo=    18
 LinEq1:  Iter=  3 NonCon=    18 RMS=9.94D-04 Max=4.13D-03 NDo=    18
 LinEq1:  Iter=  4 NonCon=    18 RMS=1.07D-04 Max=4.91D-04 NDo=    18
 LinEq1:  Iter=  5 NonCon=    18 RMS=1.50D-05 Max=6.60D-05 NDo=    18
 LinEq1:  Iter=  6 NonCon=    18 RMS=1.72D-06 Max=6.78D-06 NDo=    18
 LinEq1:  Iter=  7 NonCon=    14 RMS=1.64D-07 Max=6.04D-07 NDo=    18
 LinEq1:  Iter=  8 NonCon=     2 RMS=1.66D-08 Max=6.89D-08 NDo=    18
 LinEq1:  Iter=  9 NonCon=     0 RMS=1.86D-09 Max=8.33D-09 NDo=    18
 Linear equations converged to 1.000D-08 1.000D-07 after     9 iterations.
 FullF1:  Do perturbations    1 to     3.
 Isotropic polarizability for W=    0.000000       37.81 Bohr**3.
 End of Minotr F.D. properties file   721 does not exist.
 End of Minotr F.D. properties file   722 does not exist.
 End of Minotr F.D. properties file   788 does not exist.
 Leave Link 1002 at Sun Jan 10 23:09:29 2016, MaxMem=    33554432 cpu:         0.0
 (Enter /opt/g09/g09/l601.exe)
 Copying SCF densities to generalized density rwf, IOpCl= 0 IROHF=0.

 **********************************************************************

            Population analysis using the SCF density.

 **********************************************************************

 Orbital symmetries:
       Occupied  (A1) (B2) (A1) (B2) (A1) (A1) (B1) (B2) (B2) (A1)
                 (A1) (A2) (B1)
       Virtual   (A1) (B1) (A2) (B2) (A1) (B2) (A1) (B2) (A1) (B2)
                 (B2)
 The electronic state is 1-A1.
 Alpha  occ. eigenvalues --   -1.49382  -1.16635  -0.97282  -0.79704  -0.67522
 Alpha  occ. eigenvalues --   -0.61635  -0.58163  -0.52006  -0.48911  -0.48036
 Alpha  occ. eigenvalues --   -0.38444  -0.37340  -0.32754
 Alpha virt. eigenvalues --    0.03135   0.03883   0.06471   0.06631   0.15506
 Alpha virt. eigenvalues --    0.15554   0.17718   0.17868   0.20211   0.20682
 Alpha virt. eigenvalues --    0.20897
          Condensed to atoms (all electrons):
               1          2          3          4          5          6
     1  C    4.173322   0.000000   0.000000   0.000000   0.000000   0.000000
     2  C    0.000000   4.882266   0.000000   0.000000   0.000000   0.000000
     3  S    0.000000   0.000000   4.575552   0.000000   0.000000   0.000000
     4  C    0.000000   0.000000   0.000000   4.882266   0.000000   0.000000
     5  C    0.000000   0.000000   0.000000   0.000000   4.173322   0.000000
     6  H    0.000000   0.000000   0.000000   0.000000   0.000000   0.845652
     7  H    0.000000   0.000000   0.000000   0.000000   0.000000   0.000000
     8  H    0.000000   0.000000   0.000000   0.000000   0.000000   0.000000
     9  H    0.000000   0.000000   0.000000   0.000000   0.000000   0.000000
               7          8          9
     1  C    0.000000   0.000000   0.000000
     2  C    0.000000   0.000000   0.000000
     3  S    0.000000   0.000000   0.000000
     4  C    0.000000   0.000000   0.000000
     5  C    0.000000   0.000000   0.000000
     6  H    0.000000   0.000000   0.000000
     7  H    0.810984   0.000000   0.000000
     8  H    0.000000   0.810984   0.000000
     9  H    0.000000   0.000000   0.845652
 Mulliken charges:
               1
     1  C   -0.173322
     2  C   -0.882266
     3  S    1.424448
     4  C   -0.882266
     5  C   -0.173322
     6  H    0.154348
     7  H    0.189016
     8  H    0.189016
     9  H    0.154348
 Sum of Mulliken charges =   0.00000
 Mulliken charges with hydrogens summed into heavy atoms:
               1
     1  C   -0.018974
     2  C   -0.693250
     3  S    1.424448
     4  C   -0.693250
     5  C   -0.018974
 APT charges:
               1
     1  C   -0.137527
     2  C   -0.425530
     3  S    0.370254
     4  C   -0.425530
     5  C   -0.137527
     6  H    0.155896
     7  H    0.222036
     8  H    0.222036
     9  H    0.155896
 Sum of APT charges =   0.00000
 APT charges with hydrogens summed into heavy atoms:
               1
     1  C    0.018369
     2  C   -0.203494
     3  S    0.370254
     4  C   -0.203494
     5  C    0.018369
 Charge=              0.0000 electrons
 Dipole moment (field-independent basis, Debye):
    X=              0.0000    Y=              0.0000    Z=              2.3444  Tot=              2.3444
 N-N= 9.805573669632D+01 E-N=-1.630733412491D+02  KE=-1.489355999717D+01
 Symmetry A1   KE=-7.776402745663D+00
 Symmetry A2   KE=-6.182932092612D-01
 Symmetry B1   KE=-1.519519767721D+00
 Symmetry B2   KE=-4.979344274529D+00
  Exact polarizability:  11.444   0.000  52.763   0.000   0.000  49.211
 Approx polarizability:   7.695   0.000  48.745   0.000   0.000  35.515
 Leave Link  601 at Sun Jan 10 23:09:29 2016, MaxMem=    33554432 cpu:         0.0
 (Enter /opt/g09/g09/l701.exe)
 Compute integral second derivatives.
 ... and contract with generalized density number  0.
 Leave Link  701 at Sun Jan 10 23:09:29 2016, MaxMem=    33554432 cpu:         0.0
 (Enter /opt/g09/g09/l702.exe)
 L702 exits ... SP integral derivatives will be done elsewhere.
 Leave Link  702 at Sun Jan 10 23:09:29 2016, MaxMem=    33554432 cpu:         0.0
 (Enter /opt/g09/g09/l703.exe)
 Compute integral second derivatives, UseDBF=F ICtDFT=           0.
 Integral derivatives from FoFJK, PRISM(SPDF).
 Calling FoFJK, ICntrl=    100127 FMM=F ISym2X=1 I1Cent= 0 IOpClX= 0 NMat=1 NMatS=1 NMatT=0.
 FoFJK:  IHMeth= 8 ICntrl=  100127 DoSepK=F KAlg= 0 I1Cent=   0 FoldK=F
 IRaf=         0 NMat=   1 IRICut=       1 DoRegI=T DoRafI=F ISym2E= 1.
 FoFCou: FMM=F IPFlag=           0 FMFlag=      100000 FMFlg1=         800
         NFxFlg=           0 DoJE=F BraDBF=F KetDBF=F FulRan=T
         wScrn=  0.000000 ICntrl=  100127 IOpCl=  0 I1Cent=           0 NGrid=           0
         NMat0=    1 NMatS0=      1 NMatT0=    0 NMatD0=    1 NMtDS0=    0 NMtDT0=    0
 Symmetry not used in FoFCou.
 Leave Link  703 at Sun Jan 10 23:09:29 2016, MaxMem=    33554432 cpu:         0.0
 (Enter /opt/g09/g09/l716.exe)
 Dipole        = 1.43184334D-15-1.33226763D-15 9.22373981D-01
 Polarizability= 1.14442510D+01 5.04278172D-15 5.27630969D+01
                -1.66549163D-15 7.77156117D-14 4.92108284D+01
 HyperPolar    = 3.97893624D-15-9.19709182D-14-7.23947570D-14
                 3.34110739D-13-1.33901120D+01 2.12213414D-13
                -3.38764454D+01 1.01499385D-13-7.11109481D-13
                 1.96125262D+02
 Full mass-weighted force constant matrix:
 Low frequencies --- -412.7710 -387.0069 -362.3090 -105.8913   -0.0006   -0.0004
 Low frequencies ---    0.0206  423.7455  646.5138
 ******    1 imaginary frequencies (negative Signs) ****** 
 Diagonal vibrational polarizability:
       21.1269955       1.9360750       2.0638916
 Harmonic frequencies (cm**-1), IR intensities (KM/Mole), Raman scattering
 activities (A**4/AMU), depolarization ratios for plane and unpolarized
 incident light, reduced masses (AMU), force constants (mDyne/A),
 and normal coordinates:
                      1                      2                      3
                     B1                     A2                     B1
 Frequencies --   -199.6270               385.6320               646.5075
 Red. masses --      2.6677                 2.0238                 1.2296
 Frc consts  --      0.0626                 0.1773                 0.3028
 IR Inten    --     13.6353                 0.0000               185.1211
  Atom  AN      X      Y      Z        X      Y      Z        X      Y      Z
     1   6     0.06   0.00   0.00    -0.18   0.00   0.00     0.02   0.00   0.00
     2   6    -0.21   0.00   0.00     0.11   0.00   0.00     0.09   0.00   0.00
     3  16     0.14   0.00   0.00     0.00   0.00   0.00    -0.02   0.00   0.00
     4   6    -0.21   0.00   0.00    -0.11   0.00   0.00     0.09   0.00   0.00
     5   6     0.06   0.00   0.00     0.18   0.00   0.00     0.02   0.00   0.00
     6   1     0.21   0.00   0.00     0.54   0.00   0.00    -0.40   0.00   0.00
     7   1    -0.63   0.00   0.00    -0.40   0.00   0.00    -0.57   0.00   0.00
     8   1    -0.63   0.00   0.00     0.40   0.00   0.00    -0.57   0.00   0.00
     9   1     0.21   0.00   0.00    -0.54   0.00   0.00    -0.40   0.00   0.00
                      4                      5                      6
                     A1                     A2                     B1
 Frequencies --    673.1559               747.2710               837.4752
 Red. masses --      6.4694                 1.3047                 1.4186
 Frc consts  --      1.7272                 0.4293                 0.5862
 IR Inten    --      0.0001                 0.0000                 0.0017
  Atom  AN      X      Y      Z        X      Y      Z        X      Y      Z
     1   6     0.00  -0.03  -0.20     0.03   0.00   0.00    -0.10   0.00   0.00
     2   6     0.00  -0.22  -0.16     0.11   0.00   0.00     0.09   0.00   0.00
     3  16     0.00   0.00   0.31     0.00   0.00   0.00    -0.01   0.00   0.00
     4   6     0.00   0.22  -0.16    -0.11   0.00   0.00     0.09   0.00   0.00
     5   6     0.00   0.03  -0.20    -0.03   0.00   0.00    -0.10   0.00   0.00
     6   1     0.00  -0.13  -0.08     0.29   0.00   0.00     0.63   0.00   0.00
     7   1     0.00   0.02  -0.56     0.64   0.00   0.00    -0.30   0.00   0.00
     8   1     0.00  -0.02  -0.56    -0.64   0.00   0.00    -0.30   0.00   0.00
     9   1     0.00   0.13  -0.08    -0.29   0.00   0.00     0.63   0.00   0.00
                      7                      8                      9
                     B2                     A2                     A1
 Frequencies --    856.4745               904.2548               982.8484
 Red. masses --      3.5566                 1.6713                 1.1594
 Frc consts  --      1.5372                 0.8052                 0.6599
 IR Inten    --      1.6440                 0.0000                30.4174
  Atom  AN      X      Y      Z        X      Y      Z        X      Y      Z
     1   6     0.00  -0.18   0.20     0.16   0.00   0.00     0.00  -0.04   0.04
     2   6     0.00   0.12   0.17    -0.07   0.00   0.00     0.00   0.05   0.02
     3  16     0.00   0.03   0.00     0.00   0.00   0.00     0.00   0.00  -0.01
     4   6     0.00   0.12  -0.17     0.07   0.00   0.00     0.00  -0.05   0.02
     5   6     0.00  -0.18  -0.20    -0.16   0.00   0.00     0.00   0.04   0.04
     6   1     0.00  -0.05  -0.30     0.65   0.00   0.00     0.00   0.07   0.02
     7   1     0.00   0.37   0.39    -0.22   0.00   0.00     0.00  -0.34  -0.61
     8   1     0.00   0.37  -0.39     0.22   0.00   0.00     0.00   0.34  -0.61
     9   1     0.00  -0.05   0.30    -0.65   0.00   0.00     0.00  -0.07   0.02
                     10                     11                     12
                     B2                     A1                     B2
 Frequencies --   1017.1642              1064.6699              1133.6649
 Red. masses --      1.2150                 1.0932                 1.3289
 Frc consts  --      0.7406                 0.7301                 1.0063
 IR Inten    --     17.9894                10.3471                15.9333
  Atom  AN      X      Y      Z        X      Y      Z        X      Y      Z
     1   6     0.00  -0.06   0.04     0.00   0.00   0.02     0.00  -0.05   0.01
     2   6     0.00   0.05   0.02     0.00   0.04  -0.03     0.00  -0.07  -0.03
     3  16     0.00   0.04   0.00     0.00   0.00   0.03     0.00   0.07   0.00
     4   6     0.00   0.05  -0.02     0.00  -0.04  -0.03     0.00  -0.07   0.03
     5   6     0.00  -0.06  -0.04     0.00   0.00   0.02     0.00  -0.05  -0.01
     6   1     0.00  -0.23   0.09     0.00   0.57  -0.41     0.00   0.51  -0.43
     7   1     0.00  -0.23  -0.62     0.00   0.01   0.08     0.00  -0.14  -0.14
     8   1     0.00  -0.23   0.62     0.00  -0.01   0.08     0.00  -0.14   0.14
     9   1     0.00  -0.23  -0.09     0.00  -0.57  -0.41     0.00   0.51   0.43
                     13                     14                     15
                     A1                     B2                     A1
 Frequencies --   1301.3403              1449.9412              1492.7921
 Red. masses --      7.1985                 5.4972                 5.7014
 Frc consts  --      7.1825                 6.8091                 7.4857
 IR Inten    --     42.6298                27.1114                 2.5982
  Atom  AN      X      Y      Z        X      Y      Z        X      Y      Z
     1   6     0.00   0.33   0.03     0.00   0.09   0.12     0.00   0.37   0.03
     2   6     0.00   0.33  -0.21     0.00  -0.32   0.15     0.00  -0.22   0.13
     3  16     0.00   0.00   0.13     0.00   0.20   0.00     0.00   0.00  -0.07
     4   6     0.00  -0.33  -0.21     0.00  -0.32  -0.15     0.00   0.22   0.13
     5   6     0.00  -0.33   0.03     0.00   0.09  -0.12     0.00  -0.37   0.03
     6   1     0.00  -0.42   0.08     0.00  -0.45   0.26     0.00   0.15  -0.34
     7   1     0.00  -0.21   0.08     0.00  -0.11   0.23     0.00  -0.04  -0.39
     8   1     0.00   0.21   0.08     0.00  -0.11  -0.23     0.00   0.04  -0.39
     9   1     0.00   0.42   0.08     0.00  -0.45  -0.26     0.00  -0.15  -0.34
                     16                     17                     18
                     A1                     B2                     B2
 Frequencies --   1671.4610              1775.6064              3362.3720
 Red. masses --      6.8815                 8.9785                 1.0853
 Frc consts  --     11.3273                16.6781                 7.2290
 IR Inten    --      0.0636                 0.2529                37.8916
  Atom  AN      X      Y      Z        X      Y      Z        X      Y      Z
     1   6     0.00   0.02  -0.37     0.00   0.10   0.43     0.00  -0.03   0.05
     2   6     0.00   0.17   0.32     0.00   0.00  -0.41     0.00   0.00   0.00
     3  16     0.00   0.00   0.05     0.00  -0.05   0.00     0.00   0.00   0.00
     4   6     0.00  -0.17   0.32     0.00   0.00   0.41     0.00   0.00   0.00
     5   6     0.00  -0.02  -0.37     0.00   0.10  -0.43     0.00  -0.03  -0.05
     6   1     0.00  -0.11  -0.35     0.00  -0.28  -0.15     0.00   0.42   0.56
     7   1     0.00  -0.29   0.12     0.00  -0.18   0.10     0.00  -0.03   0.01
     8   1     0.00   0.29   0.12     0.00  -0.18  -0.10     0.00  -0.03  -0.01
     9   1     0.00   0.11  -0.35     0.00  -0.28   0.15     0.00   0.42  -0.56
                     19                     20                     21
                     A1                     B2                     A1
 Frequencies --   3367.3106              3386.9192              3397.4670
 Red. masses --      1.0867                 1.0804                 1.0932
 Frc consts  --      7.2601                 7.3023                 7.4346
 IR Inten    --     88.2827               270.5973                22.2614
  Atom  AN      X      Y      Z        X      Y      Z        X      Y      Z
     1   6     0.00  -0.03   0.05     0.00   0.00   0.00     0.00   0.01  -0.02
     2   6     0.00   0.01   0.01     0.00   0.05   0.03     0.00   0.05   0.03
     3  16     0.00   0.00   0.00     0.00   0.00   0.00     0.00   0.00   0.00
     4   6     0.00  -0.01   0.01     0.00   0.05  -0.03     0.00  -0.05   0.03
     5   6     0.00   0.03   0.05     0.00   0.00   0.00     0.00  -0.01  -0.02
     6   1     0.00  -0.40  -0.54     0.00  -0.02  -0.02     0.00   0.12   0.16
     7   1     0.00   0.18  -0.08     0.00  -0.64   0.29     0.00   0.62  -0.28
     8   1     0.00  -0.18  -0.08     0.00  -0.64  -0.29     0.00  -0.62  -0.28
     9   1     0.00   0.40  -0.54     0.00  -0.02   0.02     0.00  -0.12   0.16

 -------------------
 - Thermochemistry -
 -------------------
 Temperature   298.150 Kelvin.  Pressure   1.00000 Atm.
 Atom     1 has atomic number  6 and mass  12.00000
 Atom     2 has atomic number  6 and mass  12.00000
 Atom     3 has atomic number 16 and mass  31.97207
 Atom     4 has atomic number  6 and mass  12.00000
 Atom     5 has atomic number  6 and mass  12.00000
 Atom     6 has atomic number  1 and mass   1.00783
 Atom     7 has atomic number  1 and mass   1.00783
 Atom     8 has atomic number  1 and mass   1.00783
 Atom     9 has atomic number  1 and mass   1.00783
 Molecular mass:    84.00337 amu.
 Principal axes and moments of inertia in atomic units:
                           1         2         3
     Eigenvalues --   189.94244 252.36894 442.31138
           X            0.00000   0.00000   1.00000
           Y            0.00000   1.00000   0.00000
           Z            1.00000   0.00000   0.00000
 This molecule is an asymmetric top.
 Rotational symmetry number  2.
 Rotational temperatures (Kelvin)      0.45600     0.34320     0.19582
 Rotational constants (GHZ):           9.50152     7.15120     4.08025
    1 imaginary frequencies ignored.
 Zero-point vibrational energy     182157.3 (Joules/Mol)
                                   43.53665 (Kcal/Mol)
 Warning -- explicit consideration of   1 degrees of freedom as
           vibrations may cause significant error
 Vibrational temperatures:    554.84   930.18   968.52  1075.15  1204.94
          (Kelvin)           1232.27  1301.02  1414.10  1463.47  1531.82
                             1631.09  1872.34  2086.14  2147.79  2404.86
                             2554.70  4837.70  4844.80  4873.02  4888.19
 
 Zero-point correction=                           0.069380 (Hartree/Particle)
 Thermal correction to Energy=                    0.073227
 Thermal correction to Enthalpy=                  0.074171
 Thermal correction to Gibbs Free Energy=         0.043177
 Sum of electronic and zero-point Energies=              0.263529
 Sum of electronic and thermal Energies=                 0.267375
 Sum of electronic and thermal Enthalpies=               0.268319
 Sum of electronic and thermal Free Energies=            0.237325
 
                     E (Thermal)             CV                S
                      KCal/Mol        Cal/Mol-Kelvin    Cal/Mol-Kelvin
 Total                   45.950             13.369             65.232
 Electronic               0.000              0.000              0.000
 Translational            0.889              2.981             39.198
 Rotational               0.889              2.981             23.187
 Vibrational             44.173              7.407              2.847
 Vibration     1          0.754              1.501              1.017
                       Q            Log10(Q)             Ln(Q)
 Total Bot       0.138039D-19        -19.859999        -45.729338
 Total V=0       0.112862D+13         12.052547         27.752015
 Vib (Bot)       0.175021D-31        -31.756909        -73.122985
 Vib (Bot)    1  0.467001D+00         -0.330683         -0.761425
 Vib (V=0)       0.143099D+01          0.155637          0.358368
 Vib (V=0)    1  0.118417D+01          0.073414          0.169043
 Electronic      0.100000D+01          0.000000          0.000000
 Translational   0.302622D+08          7.480900         17.225409
 Rotational      0.260621D+05          4.416009         10.168237
 
                                                          AM1-Reparam Input
                                                             IR Spectrum
 
    3333                                                          1   1      11     1     1  11                                      
    3333                                                          7   6      44     3     1  00 9  988   7 66         3              
    9866                                                          7   7      95     0     3  61 8  053   4 74         8              
    7772                                                          6   1      30     1     4  57 3  467   7 37         6              
 
    XXXX                                                          X   X      XX     X     X  XX X   X       X                        
    XXXX                                                                      X     X           X           X                        
     XXX                                                                            X                       X                        
     XX                                                                                                     X                        
     XX                                                                                                     X                        
     XX                                                                                                     X                        
     XX                                                                                                     X                        
     X                                                                                                      X                        
     X                                                                                                      X                        
     X                                                                                                      X                        
     X                                                                                                      X                        
     X                                                                                                      X                        
     X                                                                                                      X                        
     X                                                                                                      X                        
     X                                                                                                                               
     X                                                                                                                               
     X                                                                                                                               
     X                                                                                                                               
     X                                                                                                                               
     X                                                                                                                               
 
 ***** Axes restored to original set *****
 -------------------------------------------------------------------
 Center     Atomic                   Forces (Hartrees/Bohr)
 Number     Number              X              Y              Z
 -------------------------------------------------------------------
      1        6           0.115508513    0.015754625    0.000000000
      2        6           0.034371580   -0.186483877    0.000000000
      3       16          -0.340938761    0.000000000    0.000000000
      4        6           0.034371580    0.186483877    0.000000000
      5        6           0.115508513   -0.015754625    0.000000000
      6        1           0.010261768    0.001447740    0.000000000
      7        1           0.010327519    0.033879376    0.000000000
      8        1           0.010327519   -0.033879376    0.000000000
      9        1           0.010261768   -0.001447740    0.000000000
 -------------------------------------------------------------------
 Cartesian Forces:  Max     0.340938761 RMS     0.089868033
 Z-matrix is all fixed cartesians, so copy forces.
 Force constants in Cartesian coordinates: 
                1             2             3             4             5 
      1  0.103914D+01
      2 -0.127177D+00  0.679490D+00
      3  0.000000D+00  0.000000D+00  0.110028D+00
      4 -0.511887D+00 -0.616388D-01  0.000000D+00  0.803458D+00
      5 -0.188564D+00 -0.104558D+00  0.000000D+00  0.819019D-01  0.918829D+00
      6  0.000000D+00  0.000000D+00 -0.581995D-01  0.000000D+00  0.000000D+00
      7 -0.179487D+00 -0.629178D-02  0.000000D+00 -0.116418D+00  0.236953D+00
      8  0.813041D-01  0.102123D-02  0.000000D+00  0.297891D+00 -0.365833D+00
      9  0.000000D+00  0.000000D+00  0.372633D-01  0.000000D+00  0.000000D+00
     10  0.671263D-02  0.128373D+00  0.000000D+00 -0.543252D-01  0.444643D-01
     11  0.675631D-01 -0.536997D-01  0.000000D+00 -0.444643D-01 -0.105056D+00
     12  0.000000D+00  0.000000D+00  0.989507D-02  0.000000D+00  0.000000D+00
     13 -0.960084D-01 -0.470252D-01  0.000000D+00  0.671263D-02 -0.675631D-01
     14  0.470252D-01 -0.341114D+00  0.000000D+00 -0.128373D+00 -0.536997D-01
     15  0.000000D+00  0.000000D+00 -0.742279D-01  0.000000D+00  0.000000D+00
     16  0.175554D-02 -0.449965D-02  0.000000D+00  0.117150D-02  0.129501D-02
     17 -0.238089D-01 -0.251174D-01  0.000000D+00 -0.488953D-03 -0.314455D-02
     18  0.000000D+00  0.000000D+00  0.302822D-02  0.000000D+00  0.000000D+00
     19 -0.473804D-02 -0.212404D-03  0.000000D+00 -0.201831D-02 -0.421498D-02
     20 -0.724008D-03  0.681563D-03  0.000000D+00 -0.412959D-02 -0.202930D-02
     21  0.000000D+00  0.000000D+00  0.320577D-02  0.000000D+00  0.000000D+00
     22 -0.194148D-01 -0.345627D-01  0.000000D+00 -0.863657D-01 -0.119889D+00
     23 -0.105710D-01 -0.430704D-02  0.000000D+00 -0.134331D+00 -0.291562D+00
     24  0.000000D+00  0.000000D+00  0.587689D-02  0.000000D+00  0.000000D+00
     25 -0.236067D+00  0.153035D+00  0.000000D+00 -0.403283D-01  0.156175D-01
     26  0.154953D+00 -0.152396D+00  0.000000D+00 -0.636821D-02  0.705373D-02
     27  0.000000D+00  0.000000D+00 -0.368707D-01  0.000000D+00  0.000000D+00
                6             7             8             9            10 
      6  0.512968D-01
      7  0.000000D+00  0.574998D+00
      8  0.000000D+00  0.000000D+00  0.821415D+00
      9 -0.345434D-02  0.000000D+00  0.000000D+00 -0.961216D-01
     10  0.000000D+00 -0.116418D+00 -0.297891D+00  0.000000D+00  0.803458D+00
     11  0.000000D+00 -0.236953D+00 -0.365833D+00  0.000000D+00 -0.819019D-01
     12  0.180405D-01  0.000000D+00  0.000000D+00 -0.345434D-02  0.000000D+00
     13  0.000000D+00 -0.179487D+00 -0.813041D-01  0.000000D+00 -0.511887D+00
     14  0.000000D+00  0.629178D-02  0.102123D-02  0.000000D+00  0.616388D-01
     15  0.989507D-02  0.000000D+00  0.000000D+00  0.372633D-01  0.000000D+00
     16  0.000000D+00 -0.178046D-02  0.119224D-02  0.000000D+00 -0.403283D-01
     17  0.000000D+00  0.300981D-02  0.292280D-03  0.000000D+00  0.636821D-02
     18  0.543394D-02  0.000000D+00  0.000000D+00  0.368344D-02  0.000000D+00
     19  0.000000D+00  0.101863D-01 -0.813160D-02  0.000000D+00 -0.863657D-01
     20  0.000000D+00  0.660862D-03 -0.461886D-01  0.000000D+00  0.134331D+00
     21  0.658041D-02  0.000000D+00  0.000000D+00  0.105678D-01  0.000000D+00
     22  0.000000D+00  0.101863D-01  0.813160D-02  0.000000D+00 -0.201831D-02
     23  0.000000D+00 -0.660862D-03 -0.461886D-01  0.000000D+00  0.412959D-02
     24 -0.366680D-01  0.000000D+00  0.000000D+00  0.105678D-01  0.000000D+00
     25  0.000000D+00 -0.178046D-02 -0.119224D-02  0.000000D+00  0.117150D-02
     26  0.000000D+00 -0.300981D-02  0.292280D-03  0.000000D+00  0.488953D-03
     27  0.707621D-02  0.000000D+00  0.000000D+00  0.368344D-02  0.000000D+00
               11            12            13            14            15 
     11  0.918829D+00
     12  0.000000D+00  0.512968D-01
     13  0.188564D+00  0.000000D+00  0.103914D+01
     14 -0.104558D+00  0.000000D+00  0.127177D+00  0.679490D+00
     15  0.000000D+00 -0.581995D-01  0.000000D+00  0.000000D+00  0.110028D+00
     16 -0.156175D-01  0.000000D+00 -0.236067D+00 -0.153035D+00  0.000000D+00
     17  0.705373D-02  0.000000D+00 -0.154953D+00 -0.152396D+00  0.000000D+00
     18  0.000000D+00  0.707621D-02  0.000000D+00  0.000000D+00 -0.368707D-01
     19  0.119889D+00  0.000000D+00 -0.194148D-01  0.345627D-01  0.000000D+00
     20 -0.291562D+00  0.000000D+00  0.105710D-01 -0.430704D-02  0.000000D+00
     21  0.000000D+00 -0.366680D-01  0.000000D+00  0.000000D+00  0.587689D-02
     22  0.421498D-02  0.000000D+00 -0.473804D-02  0.212404D-03  0.000000D+00
     23 -0.202930D-02  0.000000D+00  0.724008D-03  0.681563D-03  0.000000D+00
     24  0.000000D+00  0.658041D-02  0.000000D+00  0.000000D+00  0.320577D-02
     25 -0.129501D-02  0.000000D+00  0.175554D-02  0.449965D-02  0.000000D+00
     26 -0.314455D-02  0.000000D+00  0.238089D-01 -0.251174D-01  0.000000D+00
     27  0.000000D+00  0.543394D-02  0.000000D+00  0.000000D+00  0.302822D-02
               16            17            18            19            20 
     16  0.274188D+00
     17  0.170641D+00  0.172996D+00
     18  0.000000D+00  0.000000D+00  0.197505D-01
     19  0.713935D-03 -0.396563D-03  0.000000D+00  0.101032D+00
     20  0.295508D-03  0.282621D-03  0.000000D+00 -0.141572D+00  0.344219D+00
     21  0.000000D+00  0.000000D+00 -0.117832D-02  0.000000D+00  0.000000D+00
     22  0.465754D-04 -0.522031D-03  0.000000D+00  0.557670D-03  0.446568D-03
     23 -0.121102D-03 -0.639996D-04  0.000000D+00 -0.446568D-03 -0.103250D-02
     24  0.000000D+00  0.000000D+00 -0.157439D-03  0.000000D+00  0.000000D+00
     25  0.300265D-03  0.150479D-03  0.000000D+00  0.465754D-04  0.121102D-03
     26 -0.150479D-03  0.973796D-04  0.000000D+00  0.522031D-03 -0.639996D-04
     27  0.000000D+00  0.000000D+00 -0.766141D-03  0.000000D+00  0.000000D+00
               21            22            23            24            25 
     21  0.129265D-01
     22  0.000000D+00  0.101032D+00
     23  0.000000D+00  0.141572D+00  0.344219D+00
     24 -0.115326D-02  0.000000D+00  0.000000D+00  0.129265D-01
     25  0.000000D+00  0.713935D-03 -0.295508D-03  0.000000D+00  0.274188D+00
     26  0.000000D+00  0.396563D-03  0.282621D-03  0.000000D+00 -0.170641D+00
     27 -0.157439D-03  0.000000D+00  0.000000D+00 -0.117832D-02  0.000000D+00
               26            27 
     26  0.172996D+00
     27  0.000000D+00  0.197505D-01
 Leave Link  716 at Sun Jan 10 23:09:29 2016, MaxMem=    33554432 cpu:         0.0
 (Enter /opt/g09/g09/l103.exe)

 GradGradGradGradGradGradGradGradGradGradGradGradGradGradGradGradGradGrad
 Berny optimization.
 Search for a local minimum.
 Step number   1 out of a maximum of    2
 All quantities printed in internal units (Hartrees-Bohrs-Radians)
 Second derivative matrix not updated -- analytic derivatives used.
 ITU=  0
     Eigenvalues ---   -0.04863   0.00913   0.02829   0.03840   0.04393
     Eigenvalues ---    0.05092   0.05214   0.11508   0.12177   0.17368
     Eigenvalues ---    0.20334   0.21533   0.35439   0.49685   0.72139
     Eigenvalues ---    0.91251   0.93944   1.19934   1.45832   1.60612
     Eigenvalues ---    1.69276
 Eigenvalue     1 is  -4.86D-02 should be greater than     0.000000 Eigenvector:
                          Z3        Z7        Z8        Z6        Z9
   1                    0.62348  -0.41923  -0.41923   0.25755   0.25755
                          Z2        Z4        Z1        Z5        X7
   1                   -0.24606  -0.24606  -0.05490  -0.05490   0.00000
 Quadratic step=1.284D+00 exceeds max=3.000D-01 adjusted using Lamda=-5.608D-01.
 Angle between NR and scaled steps=  50.98 degrees.
 Angle between quadratic step and forces=  19.02 degrees.
 ClnCor:  largest displacement from symmetrization is 2.44D-15 for atom     5.
 Linear search not attempted -- first point.
 ClnCor:  largest displacement from symmetrization is 2.47D-32 for atom     1.
 TrRot= -0.013133  0.000000  0.000000  0.000000  0.000000  0.000000
 Variable       Old X    -DE/DX   Delta X   Delta X   Delta X     New X
                                 (Linear)    (Quad)   (Total)
    X1        1.80559   0.11551   0.00000   0.06278   0.04965   1.85524
    Y1       -1.35297   0.01575   0.00000   0.00801   0.00801  -1.34497
    Z1        0.00000   0.00000   0.00000   0.00000   0.00000   0.00000
    X2       -0.65314   0.03437   0.00000   0.04213   0.02900  -0.62414
    Y2       -2.06513  -0.18648   0.00000  -0.08621  -0.08621  -2.15133
    Z2        0.00000   0.00000   0.00000   0.00000   0.00000   0.00000
    X3       -2.18699  -0.34094   0.00000  -0.22630  -0.23944  -2.42643
    Y3        0.00000   0.00000   0.00000   0.00000   0.00000   0.00000
    Z3        0.00000   0.00000   0.00000   0.00000   0.00000   0.00000
    X4       -0.65314   0.03437   0.00000   0.04213   0.02900  -0.62414
    Y4        2.06513   0.18648   0.00000   0.08621   0.08621   2.15133
    Z4        0.00000   0.00000   0.00000   0.00000   0.00000   0.00000
    X5        1.80559   0.11551   0.00000   0.06278   0.04965   1.85524
    Y5        1.35297  -0.01575   0.00000  -0.00801  -0.00801   1.34497
    Z5        0.00000   0.00000   0.00000   0.00000   0.00000   0.00000
    X6        3.42123   0.01026   0.00000   0.03572   0.02258   3.44382
    Y6        2.58776   0.00145   0.00000   0.00697   0.00697   2.59473
    Z6        0.00000   0.00000   0.00000   0.00000   0.00000   0.00000
    X7       -1.58795   0.01033   0.00000   0.03162   0.01848  -1.56947
    Y7        3.86805   0.03388   0.00000   0.06323   0.06323   3.93128
    Z7        0.00000   0.00000   0.00000   0.00000   0.00000   0.00000
    X8       -1.58795   0.01033   0.00000   0.03162   0.01848  -1.56947
    Y8       -3.86805  -0.03388   0.00000  -0.06323  -0.06323  -3.93128
    Z8        0.00000   0.00000   0.00000   0.00000   0.00000   0.00000
    X9        3.42123   0.01026   0.00000   0.03572   0.02258   3.44382
    Y9       -2.58776  -0.00145   0.00000  -0.00697  -0.00697  -2.59473
    Z9        0.00000   0.00000   0.00000   0.00000   0.00000   0.00000
         Item               Value     Threshold  Converged?
 Maximum Force            0.340939     0.000450     NO 
 RMS     Force            0.089868     0.000300     NO 
 Maximum Displacement     0.239437     0.001800     NO 
 RMS     Displacement     0.057326     0.001200     NO 
 Predicted change in Energy=-9.164185D-02
 GradGradGradGradGradGradGradGradGradGradGradGradGradGradGradGradGradGrad

 Leave Link  103 at Sun Jan 10 23:09:29 2016, MaxMem=    33554432 cpu:         0.0
 (Enter /opt/g09/g09/l9999.exe)
 1\1\GINC-LINUX-CBNE\Freq\RAM1\ZDO\C4H4S1\DUSTIN\10-Jan-2016\0\\#P AM1(
 Input,print) freq\\AM1-Reparam Input\\0,1\C,0.955475,-0.715963,0.\C,-0
 .345627,-1.092818,0.\S,-1.157305,0.,0.\C,-0.345627,1.092818,0.\C,0.955
 475,0.715963,0.\H,1.810438,1.369382,0.\H,-0.840307,2.046884,0.\H,-0.84
 0307,-2.046884,0.\H,1.810438,-1.369382,0.\\Version=ES64L-G09RevD.01\St
 ate=1-A1\HF=0.1941485\RMSD=9.990e-09\RMSF=8.987e-02\ZeroPoint=0.069380
 1\Thermal=0.0732268\Dipole=-0.922374,0.,0.\DipoleDeriv=-0.2846347,0.13
 28394,0.,-0.2269598,0.0030527,0.,0.,0.,-0.131,0.1027687,-0.232541,0.,-
 0.5257081,-0.757984,0.,0.,0.,-0.6213757,-0.3044093,0.,0.,0.,0.6025439,
 0.,0.,0.,0.8126278,0.1027687,0.232541,0.,0.5257081,-0.757984,0.,0.,0.,
 -0.6213757,-0.2846347,-0.1328394,0.,0.2269598,0.0030527,0.,0.,0.,-0.13
 1,0.1720079,0.0890617,0.,0.0626302,0.13445,0.,0.,0.,0.1612313,0.162065
 6,-0.0710884,0.,-0.0718234,0.3192072,0.,0.,0.,0.1848348,0.1620656,0.07
 10884,0.,0.0718234,0.3192072,0.,0.,0.,0.1848348,0.1720079,-0.0890617,0
 .,-0.0626302,0.13445,0.,0.,0.,0.1612313\Polar=49.2108284,0.,52.7630969
 ,0.,0.,11.444251\HyperPolar=-196.125262,0.,33.8764454,0.,0.,0.,0.,13.3
 90112,0.,0.\PG=C02V [C2(S1),SGV(C4H4)]\NImag=1\\1.03913518,-0.12717693
 ,0.67949048,0.,0.,0.11002846,-0.51188740,-0.06163884,0.,0.80345838,-0.
 18856415,-0.10455837,0.,0.08190192,0.91882916,0.,0.,-0.05819953,0.,0.,
 0.05129683,-0.17948735,-0.00629178,0.,-0.11641761,0.23695269,0.,0.5749
 9812,0.08130409,0.00102123,0.,0.29789126,-0.36583279,0.,0.,0.82141548,
 0.,0.,0.03726326,0.,0.,-0.00345434,0.,0.,-0.09612157,0.00671263,0.1283
 7320,0.,-0.05432522,0.04446432,0.,-0.11641761,-0.29789126,0.,0.8034583
 8,0.06756310,-0.05369970,0.,-0.04446432,-0.10505648,0.,-0.23695269,-0.
 36583279,0.,-0.08190192,0.91882916,0.,0.,0.00989507,0.,0.,0.01804051,0
 .,0.,-0.00345434,0.,0.,0.05129683,-0.09600841,-0.04702524,0.,0.0067126
 3,-0.06756310,0.,-0.17948735,-0.08130409,0.,-0.51188740,0.18856415,0.,
 1.03913518,0.04702524,-0.34111433,0.,-0.12837320,-0.05369970,0.,0.0062
 9178,0.00102123,0.,0.06163884,-0.10455837,0.,0.12717693,0.67949048,0.,
 0.,-0.07422787,0.,0.,0.00989507,0.,0.,0.03726326,0.,0.,-0.05819953,0.,
 0.,0.11002846,0.00175554,-0.00449965,0.,0.00117150,0.00129501,0.,-0.00
 178046,0.00119224,0.,-0.04032826,-0.01561745,0.,-0.23606721,-0.1530346
 4,0.,0.27418810,-0.02380889,-0.02511741,0.,-0.00048895,-0.00314455,0.,
 0.00300981,0.00029228,0.,0.00636821,0.00705373,0.,-0.15495268,-0.15239
 613,0.,0.17064066,0.17299593,0.,0.,0.00302822,0.,0.,0.00543394,0.,0.,0
 .00368344,0.,0.,0.00707621,0.,0.,-0.03687072,0.,0.,0.01975051,-0.00473
 804,-0.00021240,0.,-0.00201831,-0.00421498,0.,0.01018629,-0.00813160,0
 .,-0.08636573,0.11988931,0.,-0.01941475,0.03456273,0.,0.00071394,-0.00
 039656,0.,0.10103229,-0.00072401,0.00068156,0.,-0.00412959,-0.00202930
 ,0.,0.00066086,-0.04618857,0.,0.13433067,-0.29156175,0.,0.01057096,-0.
 00430704,0.,0.00029551,0.00028262,0.,-0.14157200,0.34421900,0.,0.,0.00
 320577,0.,0.,0.00658041,0.,0.,0.01056777,0.,0.,-0.03666799,0.,0.,0.005
 87689,0.,0.,-0.00117832,0.,0.,0.01292648,-0.01941475,-0.03456273,0.,-0
 .08636573,-0.11988931,0.,0.01018629,0.00813160,0.,-0.00201831,0.004214
 98,0.,-0.00473804,0.00021240,0.,0.00004658,-0.00052203,0.,0.00055767,0
 .00044657,0.,0.10103229,-0.01057096,-0.00430704,0.,-0.13433067,-0.2915
 6175,0.,-0.00066086,-0.04618857,0.,0.00412959,-0.00202930,0.,0.0007240
 1,0.00068156,0.,-0.00012110,-0.00006400,0.,-0.00044657,-0.00103250,0.,
 0.14157200,0.34421900,0.,0.,0.00587689,0.,0.,-0.03666799,0.,0.,0.01056
 777,0.,0.,0.00658041,0.,0.,0.00320577,0.,0.,-0.00015744,0.,0.,-0.00115
 326,0.,0.,0.01292648,-0.23606721,0.15303464,0.,-0.04032826,0.01561745,
 0.,-0.00178046,-0.00119224,0.,0.00117150,-0.00129501,0.,0.00175554,0.0
 0449965,0.,0.00030027,0.00015048,0.,0.00004658,0.00012110,0.,0.0007139
 4,-0.00029551,0.,0.27418810,0.15495268,-0.15239613,0.,-0.00636821,0.00
 705373,0.,-0.00300981,0.00029228,0.,0.00048895,-0.00314455,0.,0.023808
 89,-0.02511741,0.,-0.00015048,0.00009738,0.,0.00052203,-0.00006400,0.,
 0.00039656,0.00028262,0.,-0.17064066,0.17299593,0.,0.,-0.03687072,0.,0
 .,0.00707621,0.,0.,0.00368344,0.,0.,0.00543394,0.,0.,0.00302822,0.,0.,
 -0.00076614,0.,0.,-0.00015744,0.,0.,-0.00117832,0.,0.,0.01975051\\-0.1
 1550851,-0.01575463,0.,-0.03437158,0.18648388,0.,0.34093876,0.,0.,-0.0
 3437158,-0.18648388,0.,-0.11550851,0.01575463,0.,-0.01026177,-0.001447
 74,0.,-0.01032752,-0.03387938,0.,-0.01032752,0.03387938,0.,-0.01026177
 ,0.00144774,0.\\\@


 BE LIKE A POSTAGE STAMP.  STICK TO ONE THING UNTIL
 YOU GET THERE -- JOSH BILLINGS
 Job cpu time:       0 days  0 hours  0 minutes  0.3 seconds.
 File lengths (MBytes):  RWF=      5 Int=      0 D2E=      0 Chk=      2 Scr=      1
 Normal termination of Gaussian 09 at Sun Jan 10 23:09:29 2016.
