 Entering Gaussian System, Link 0=g09
 Input=ThiopheneBestInput.com
 Output=ThiopheneBestInput.log
 Initial command:
 /opt/g09/g09/l1.exe "/opt/g09/scratch/Gau-11326.inp" -scrdir="/opt/g09/scratch/"
 Entering Link 1 = /opt/g09/g09/l1.exe PID=     11331.
  
 Copyright (c) 1988,1990,1992,1993,1995,1998,2003,2009,2013,
            Gaussian, Inc.  All Rights Reserved.
  
 This is part of the Gaussian(R) 09 program.  It is based on
 the Gaussian(R) 03 system (copyright 2003, Gaussian, Inc.),
 the Gaussian(R) 98 system (copyright 1998, Gaussian, Inc.),
 the Gaussian(R) 94 system (copyright 1995, Gaussian, Inc.),
 the Gaussian 92(TM) system (copyright 1992, Gaussian, Inc.),
 the Gaussian 90(TM) system (copyright 1990, Gaussian, Inc.),
 the Gaussian 88(TM) system (copyright 1988, Gaussian, Inc.),
 the Gaussian 86(TM) system (copyright 1986, Carnegie Mellon
 University), and the Gaussian 82(TM) system (copyright 1983,
 Carnegie Mellon University). Gaussian is a federally registered
 trademark of Gaussian, Inc.
  
 This software contains proprietary and confidential information,
 including trade secrets, belonging to Gaussian, Inc.
  
 This software is provided under written license and may be
 used, copied, transmitted, or stored only in accord with that
 written license.
  
 The following legend is applicable only to US Government
 contracts under FAR:
  
                    RESTRICTED RIGHTS LEGEND
  
 Use, reproduction and disclosure by the US Government is
 subject to restrictions as set forth in subparagraphs (a)
 and (c) of the Commercial Computer Software - Restricted
 Rights clause in FAR 52.227-19.
  
 Gaussian, Inc.
 340 Quinnipiac St., Bldg. 40, Wallingford CT 06492
  
  
 ---------------------------------------------------------------
 Warning -- This program may not be used in any manner that
 competes with the business of Gaussian, Inc. or will provide
 assistance to any competitor of Gaussian, Inc.  The licensee
 of this program is prohibited from giving any competitor of
 Gaussian, Inc. access to this program.  By using this program,
 the user acknowledges that Gaussian, Inc. is engaged in the
 business of creating and licensing software in the field of
 computational chemistry and represents and warrants to the
 licensee that it is not a competitor of Gaussian, Inc. and that
 it will not use this program in any manner prohibited above.
 ---------------------------------------------------------------
  

 Cite this work as:
 Gaussian 09, Revision D.01,
 M. J. Frisch, G. W. Trucks, H. B. Schlegel, G. E. Scuseria, 
 M. A. Robb, J. R. Cheeseman, G. Scalmani, V. Barone, B. Mennucci, 
 G. A. Petersson, H. Nakatsuji, M. Caricato, X. Li, H. P. Hratchian, 
 A. F. Izmaylov, J. Bloino, G. Zheng, J. L. Sonnenberg, M. Hada, 
 M. Ehara, K. Toyota, R. Fukuda, J. Hasegawa, M. Ishida, T. Nakajima, 
 Y. Honda, O. Kitao, H. Nakai, T. Vreven, J. A. Montgomery, Jr., 
 J. E. Peralta, F. Ogliaro, M. Bearpark, J. J. Heyd, E. Brothers, 
 K. N. Kudin, V. N. Staroverov, T. Keith, R. Kobayashi, J. Normand, 
 K. Raghavachari, A. Rendell, J. C. Burant, S. S. Iyengar, J. Tomasi, 
 M. Cossi, N. Rega, J. M. Millam, M. Klene, J. E. Knox, J. B. Cross, 
 V. Bakken, C. Adamo, J. Jaramillo, R. Gomperts, R. E. Stratmann, 
 O. Yazyev, A. J. Austin, R. Cammi, C. Pomelli, J. W. Ochterski, 
 R. L. Martin, K. Morokuma, V. G. Zakrzewski, G. A. Voth, 
 P. Salvador, J. J. Dannenberg, S. Dapprich, A. D. Daniels, 
 O. Farkas, J. B. Foresman, J. V. Ortiz, J. Cioslowski, 
 and D. J. Fox, Gaussian, Inc., Wallingford CT, 2013.
 
 ******************************************
 Gaussian 09:  ES64L-G09RevD.01 24-Apr-2013
                16-Jan-2016 
 ******************************************
 ----------------------------
 #P AM1(Input,print) Opt Freq
 ----------------------------
 1/14=-1,18=20,19=15,26=1,38=1/1,3;
 2/9=110,12=2,17=6,18=5,40=1/2;
 3/5=2,16=1,25=1,41=700000,71=1,135=100,136=1/1,2,3;
 4/35=1/1;
 5/5=2,35=1,38=5/2;
 6/7=2,8=2,9=2,10=2,28=1/1;
 7//1,2,3,16;
 1/14=-1,18=20,19=15,26=1/3(2);
 2/9=110/2;
 99//99;
 2/9=110/2;
 3/5=2,16=1,25=1,41=700000,71=1,135=20,136=1/1,2,3;
 4/5=5,16=3,35=1/1;
 5/5=2,35=1,38=5/2;
 7//1,2,3,16;
 1/14=-1,18=20,19=15,26=1/3(-5);
 2/9=110/2;
 6/7=2,8=2,9=2,10=2,19=2,28=1/1;
 99/9=1/99;
 Leave Link    1 at Sat Jan 16 16:00:59 2016, MaxMem=           0 cpu:         0.0
 (Enter /opt/g09/g09/l101.exe)
 -----------------
 AM1-Reparam Input
 -----------------
 Symbolic Z-matrix:
 Charge =  0 Multiplicity = 1
 6                     0.95548  -0.71596   0. 
 6                    -0.34563  -1.09282   0. 
 16                   -1.15731   0.        0. 
 6                    -0.34563   1.09282   0. 
 6                     0.95548   0.71596   0. 
 1                     1.81044   1.36938   0. 
 1                    -0.84031   2.04688   0. 
 1                    -0.84031  -2.04688   0. 
 1                     1.81044  -1.36938   0. 
 
 NAtoms=      9 NQM=        9 NQMF=       0 NMMI=      0 NMMIF=      0
                NMic=       0 NMicF=      0.
                    Isotopes and Nuclear Properties:
 (Nuclear quadrupole moments (NQMom) in fm**2, nuclear magnetic moments (NMagM)
  in nuclear magnetons)

  Atom         1           2           3           4           5           6           7           8           9
 IAtWgt=          12          12          32          12          12           1           1           1           1
 AtmWgt=  12.0000000  12.0000000  31.9720718  12.0000000  12.0000000   1.0078250   1.0078250   1.0078250   1.0078250
 NucSpn=           0           0           0           0           0           1           1           1           1
 AtZEff=   0.0000000   0.0000000   0.0000000   0.0000000   0.0000000   0.0000000   0.0000000   0.0000000   0.0000000
 NQMom=    0.0000000   0.0000000   0.0000000   0.0000000   0.0000000   0.0000000   0.0000000   0.0000000   0.0000000
 NMagM=    0.0000000   0.0000000   0.0000000   0.0000000   0.0000000   2.7928460   2.7928460   2.7928460   2.7928460
 AtZNuc=   6.0000000   6.0000000  16.0000000   6.0000000   6.0000000   1.0000000   1.0000000   1.0000000   1.0000000
 Leave Link  101 at Sat Jan 16 16:00:59 2016, MaxMem=    33554432 cpu:         0.1
 (Enter /opt/g09/g09/l103.exe)

 GradGradGradGradGradGradGradGradGradGradGradGradGradGradGradGradGradGrad
 Berny optimization.
 Initialization pass.
                           ----------------------------
                           !    Initial Parameters    !
                           ! (Angstroms and Degrees)  !
 --------------------------                            --------------------------
 ! Name  Definition              Value          Derivative Info.                !
 --------------------------------------------------------------------------------
 ! R1    R(1,2)                  1.3546         estimate D2E/DX2                !
 ! R2    R(1,5)                  1.4319         estimate D2E/DX2                !
 ! R3    R(1,9)                  1.0761         estimate D2E/DX2                !
 ! R4    R(2,3)                  1.3613         estimate D2E/DX2                !
 ! R5    R(2,8)                  1.0747         estimate D2E/DX2                !
 ! R6    R(3,4)                  1.3613         estimate D2E/DX2                !
 ! R7    R(4,5)                  1.3546         estimate D2E/DX2                !
 ! R8    R(4,7)                  1.0747         estimate D2E/DX2                !
 ! R9    R(5,6)                  1.0761         estimate D2E/DX2                !
 ! A1    A(2,1,5)              106.1533         estimate D2E/DX2                !
 ! A2    A(2,1,9)              126.4573         estimate D2E/DX2                !
 ! A3    A(5,1,9)              127.3894         estimate D2E/DX2                !
 ! A4    A(1,2,3)              110.4494         estimate D2E/DX2                !
 ! A5    A(1,2,8)              133.5599         estimate D2E/DX2                !
 ! A6    A(3,2,8)              115.9907         estimate D2E/DX2                !
 ! A7    A(2,3,4)              106.7946         estimate D2E/DX2                !
 ! A8    A(3,4,5)              110.4494         estimate D2E/DX2                !
 ! A9    A(3,4,7)              115.9907         estimate D2E/DX2                !
 ! A10   A(5,4,7)              133.5599         estimate D2E/DX2                !
 ! A11   A(1,5,4)              106.1533         estimate D2E/DX2                !
 ! A12   A(1,5,6)              127.3894         estimate D2E/DX2                !
 ! A13   A(4,5,6)              126.4573         estimate D2E/DX2                !
 ! D1    D(5,1,2,3)              0.0            estimate D2E/DX2                !
 ! D2    D(5,1,2,8)            180.0            estimate D2E/DX2                !
 ! D3    D(9,1,2,3)            180.0            estimate D2E/DX2                !
 ! D4    D(9,1,2,8)              0.0            estimate D2E/DX2                !
 ! D5    D(2,1,5,4)              0.0            estimate D2E/DX2                !
 ! D6    D(2,1,5,6)            180.0            estimate D2E/DX2                !
 ! D7    D(9,1,5,4)            180.0            estimate D2E/DX2                !
 ! D8    D(9,1,5,6)              0.0            estimate D2E/DX2                !
 ! D9    D(1,2,3,4)              0.0            estimate D2E/DX2                !
 ! D10   D(8,2,3,4)            180.0            estimate D2E/DX2                !
 ! D11   D(2,3,4,5)              0.0            estimate D2E/DX2                !
 ! D12   D(2,3,4,7)            180.0            estimate D2E/DX2                !
 ! D13   D(3,4,5,1)              0.0            estimate D2E/DX2                !
 ! D14   D(3,4,5,6)            180.0            estimate D2E/DX2                !
 ! D15   D(7,4,5,1)            180.0            estimate D2E/DX2                !
 ! D16   D(7,4,5,6)              0.0            estimate D2E/DX2                !
 --------------------------------------------------------------------------------
 Trust Radius=3.00D-01 FncErr=1.00D-07 GrdErr=1.00D-07
 Number of steps in this run=     48 maximum allowed number of steps=    100.
 GradGradGradGradGradGradGradGradGradGradGradGradGradGradGradGradGradGrad

 Leave Link  103 at Sat Jan 16 16:00:59 2016, MaxMem=    33554432 cpu:         0.0
 (Enter /opt/g09/g09/l202.exe)
                          Input orientation:                          
 ---------------------------------------------------------------------
 Center     Atomic      Atomic             Coordinates (Angstroms)
 Number     Number       Type             X           Y           Z
 ---------------------------------------------------------------------
      1          6           0        0.955475   -0.715963    0.000000
      2          6           0       -0.345627   -1.092818    0.000000
      3         16           0       -1.157305    0.000000    0.000000
      4          6           0       -0.345627    1.092818    0.000000
      5          6           0        0.955475    0.715963    0.000000
      6          1           0        1.810438    1.369382    0.000000
      7          1           0       -0.840307    2.046884    0.000000
      8          1           0       -0.840307   -2.046884    0.000000
      9          1           0        1.810438   -1.369382    0.000000
 ---------------------------------------------------------------------
                    Distance matrix (angstroms):
                    1          2          3          4          5
     1  C    0.000000
     2  C    1.354580   0.000000
     3  S    2.230794   1.361276   0.000000
     4  C    2.228128   2.185636   1.361276   0.000000
     5  C    1.431926   2.228128   2.230794   1.354580   0.000000
     6  H    2.253802   3.272773   3.268441   2.173730   1.076066
     7  H    3.295172   3.178433   2.071285   1.074686   2.235214
     8  H    2.235214   1.074686   2.071285   3.178433   3.295172
     9  H    1.076066   2.173730   3.268441   3.272773   2.253802
                    6          7          8          9
     6  H    0.000000
     7  H    2.735957   0.000000
     8  H    4.324040   4.093768   0.000000
     9  H    2.738764   4.324040   2.735957   0.000000
 Stoichiometry    C4H4S
 Framework group  C2V[C2(S),SGV(C4H4)]
 Deg. of freedom     8
 Full point group                 C2V     NOp   4
 Largest Abelian subgroup         C2V     NOp   4
 Largest concise Abelian subgroup C2      NOp   2
                         Standard orientation:                         
 ---------------------------------------------------------------------
 Center     Atomic      Atomic             Coordinates (Angstroms)
 Number     Number       Type             X           Y           Z
 ---------------------------------------------------------------------
      1          6           0        0.000000    0.715963   -1.165894
      2          6           0        0.000000    1.092818    0.135208
      3         16           0        0.000000    0.000000    0.946886
      4          6           0        0.000000   -1.092818    0.135208
      5          6           0        0.000000   -0.715963   -1.165894
      6          1           0        0.000000   -1.369382   -2.020857
      7          1           0        0.000000   -2.046884    0.629888
      8          1           0        0.000000    2.046884    0.629888
      9          1           0        0.000000    1.369382   -2.020857
 ---------------------------------------------------------------------
 Rotational constants (GHZ):      9.5015164      7.1512017      4.0802504
 Leave Link  202 at Sat Jan 16 16:00:59 2016, MaxMem=    33554432 cpu:         0.0
 (Enter /opt/g09/g09/l301.exe)

 Semi-emprical parameters in input format:
 Method=8 CoreType=1 PeptideFC=0.0114510000 RIJScale=0.5291770000
 ****
 H       
 PQN=1 NValence=1 F0ss=0.4721550000 ZetaOverlap=1.1880780000 U=-0.4188110000
 Beta=-0.2268830000 CoreKO=1.0589200000 KON=0,0,0,1.0589200000 KON=1,0,1,1.0589200000
 KON=0,1,1,1.0589200000 KON=2,1,1,1.0589200000 EISol=-0.4188110042 EHeat=0.0830298228
 Alpha=1.5252600000
 GCore=0.0085280000,1.4001430000,2.2676710000
 GCore=0.0003530000,1.4001430000,3.4015070000
 GCore=-0.0012730000,0.5600570000,3.9684250000
 ****
 C       
 PQN=2,2 NValence=4 F0ss=0.4494440000 F0sp=0.4215150000 F0pp=0.3768030000 F2pp=0.1898720000
 G1sp=0.2679030000
 ZetaOverlap=1.8086650000,1.6851160000
 U=-1.9120180000,-1.4557970000
 Beta=-0.5775440000,-0.2836780000 DDN=0,1,0.8236740000 DDN=1,1,0.7268010000
 CoreKO=1.1124280000 KON=0,0,0,1.1124280000 KON=1,0,1,0.8219700000 KON=0,1,1,1.1124280000
 KON=2,1,1,0.7783930000 EISol=-4.4398989268 EHeat=0.2723305520 Alpha=1.4014060000
 DipHyp=1.6472532266
 GCore=0.0007890000,1.4001430000,3.0235620000
 GCore=0.0031890000,1.4001430000,3.4959930000
 GCore=-0.0013930000,1.4001430000,3.8739390000
 GCore=-0.0000880000,1.4001430000,5.0077740000
 ****
 S       
 PQN=3,3 NValence=6 F0ss=0.4331400000 F0sp=0.3183640000 F0pp=0.3136270000 F2pp=0.3456920000
 G1sp=0.2791630000
 ZetaOverlap=2.3665150000,1.6672630000,1.0000000000
 U=-2.0834680000,-1.7903190000
 Beta=-0.1440780000,-0.2905140000 DDN=0,1,0.9004270000 DDN=1,1,1.0036330000
 CoreKO=1.1543030000 KON=0,0,0,1.1543030000 KON=1,0,1,0.8464370000 KON=0,1,1,1.1543030000
 KON=2,1,1,0.7746000000 EISol=-7.0460287497 EHeat=0.1058151363 Alpha=1.3026480000
 DipHyp=1.8007503953
 GCore=-0.0353620000,1.2863640000,1.4563460000
 GCore=-0.0008240000,1.6425720000,2.8408500000
 GCore=0.0008570000,3.7964410000,3.7967870000
 ****
 
 Standard basis: VSTO-6G (5D, 7F)
 Ernie: Thresh=  0.10000D-02 Tol=  0.10000D-05 Strict=F.
  NNHCO=     0 NNPyr=     0 NCTC=     0               EPep=         0.000000000
    EC=        67.702825085  ECS=         2.328057887   EG=         0.016751150
   EHC=         0.000000000  EAt=       -26.480868474  AtH=         1.527256636
 EPDDG=         0.000000000  ECC=        70.047634123 EAtT=        28.008125109
 There are    10 symmetry adapted cartesian basis functions of A1  symmetry.
 There are     2 symmetry adapted cartesian basis functions of A2  symmetry.
 There are     3 symmetry adapted cartesian basis functions of B1  symmetry.
 There are     9 symmetry adapted cartesian basis functions of B2  symmetry.
 There are    10 symmetry adapted basis functions of A1  symmetry.
 There are     2 symmetry adapted basis functions of A2  symmetry.
 There are     3 symmetry adapted basis functions of B1  symmetry.
 There are     9 symmetry adapted basis functions of B2  symmetry.
    24 basis functions,   144 primitive gaussians,    24 cartesian basis functions
    13 alpha electrons       13 beta electrons
       nuclear repulsion energy        98.0557592318 Hartrees.



 Warning!  S  atom    3 may be hypervalent but has no d functions.



 IExCor=    0 DFT=F Ex=HF Corr=None ExCW=0 ScaHFX=  1.000000
 ScaDFX=  1.000000  1.000000  1.000000  1.000000 ScalE2=  1.000000  1.000000
 IRadAn=      0 IRanWt=     -1 IRanGd=            0 ICorTp=0 IEmpDi=  4
 Integral buffers will be    131072 words long.
 Regular integral format.
 Two-electron integral symmetry is turned off.
 Leave Link  301 at Sat Jan 16 16:00:59 2016, MaxMem=    33554432 cpu:         0.0
 (Enter /opt/g09/g09/l302.exe)
 Do NDO integrals.
 NPDir=0 NMtPBC=     1 NCelOv=     1 NCel=       1 NClECP=     1 NCelD=      1
         NCelK=      1 NCelE2=     1 NClLst=     1 CellRange=     0.0.
 One-electron integrals computed using PRISM.
 NBasis=    24 RedAO= T EigKep=  1.00D+00  NBF=    10     2     3     9
 NBsUse=    24 1.00D-06 EigRej= -1.00D+00 NBFU=    10     2     3     9
 Leave Link  302 at Sat Jan 16 16:00:59 2016, MaxMem=    33554432 cpu:         0.0
 (Enter /opt/g09/g09/l303.exe)
 DipDrv:  MaxL=1.
 Leave Link  303 at Sat Jan 16 16:01:00 2016, MaxMem=    33554432 cpu:         0.0
 (Enter /opt/g09/g09/l401.exe)
 Simple Huckel Guess.
 JPrj=0 DoOrth=F DoCkMO=F.
 Initial guess orbital symmetries:
       Occupied  (A1) (B2) (A1) (B2) (A1) (A1) (B1) (B2) (A1) (B2)
                 (B1) (A2) (A1)
       Virtual   (A2) (B1) (B2) (A1) (B2) (A1) (B2) (A1) (B2) (B2)
                 (A1)
 The electronic state of the initial guess is 1-A1.
 Leave Link  401 at Sat Jan 16 16:01:00 2016, MaxMem=    33554432 cpu:         0.0
 (Enter /opt/g09/g09/l502.exe)
 Closed shell SCF:
 Using DIIS extrapolation, IDIIS=  1040.
 Overlap will be assumed to be unity.
 Two-electron integral symmetry not used.
 Keep J ints in memory in canonical form, NReq=888094.
 IVT=       79487 IEndB=       79487 NGot=    33554432 MDV=    33473461
 LenX=    33473461 LenY=    33472444
 Requested convergence on RMS density matrix=1.00D-08 within 128 cycles.
 Requested convergence on MAX density matrix=1.00D-06.
 Requested convergence on             energy=1.00D-06.
 No special actions if energy rises.
 FoFCou: FMM=F IPFlag=           0 FMFlag=           0 FMFlg1=           0
         NFxFlg=           0 DoJE=F BraDBF=F KetDBF=F FulRan=T
         wScrn=  0.000000 ICntrl=     600 IOpCl=  2 I1Cent=           0 NGrid=           0
         NMat0=    1 NMatS0=     54 NMatT0=    0 NMatD0=    1 NMtDS0=    0 NMtDT0=    0
 Symmetry not used in FoFCou.

 Cycle   1  Pass 1  IDiag  1:
 E= 0.457464377774102    
 DIIS: error= 3.57D-02 at cycle   1 NSaved=   1.
 NSaved= 1 IEnMin= 1 EnMin= 0.457464377774102     IErMin= 1 ErrMin= 3.57D-02
 ErrMax= 3.57D-02  0.00D+00 EMaxC= 1.00D-01 BMatC= 7.83D-02 BMatP= 7.83D-02
 IDIUse=3 WtCom= 6.43D-01 WtEn= 3.57D-01
 Coeff-Com:  0.100D+01
 Coeff-En:   0.100D+01
 Coeff:      0.100D+01
 GapD=    2.000 DampG=2.000 DampE=0.500 DampFc=1.0000 IDamp=-1.
 RMSDP=2.06D-02 MaxDP=1.43D-01              OVMax= 0.00D+00

 Cycle   2  Pass 1  IDiag  1:
 E= 0.230253414159677     Delta-E=       -0.227210963614 Rises=F Damp=F
 DIIS: error= 1.12D-02 at cycle   2 NSaved=   2.
 NSaved= 2 IEnMin= 2 EnMin= 0.230253414159677     IErMin= 2 ErrMin= 1.12D-02
 ErrMax= 1.12D-02  0.00D+00 EMaxC= 1.00D-01 BMatC= 7.28D-03 BMatP= 7.83D-02
 IDIUse=3 WtCom= 8.88D-01 WtEn= 1.12D-01
 Coeff-Com: -0.355D+00 0.135D+01
 Coeff-En:   0.000D+00 0.100D+01
 Coeff:     -0.315D+00 0.132D+01
 RMSDP=9.46D-03 MaxDP=1.04D-01 DE=-2.27D-01 OVMax= 0.00D+00

 Cycle   3  Pass 1  IDiag  3:
 E= 0.199610871441223     Delta-E=       -0.030642542718 Rises=F Damp=F
 DIIS: error= 3.68D-03 at cycle   3 NSaved=   3.
 NSaved= 3 IEnMin= 3 EnMin= 0.199610871441223     IErMin= 3 ErrMin= 3.68D-03
 ErrMax= 3.68D-03  0.00D+00 EMaxC= 1.00D-01 BMatC= 5.68D-04 BMatP= 7.28D-03
 IDIUse=3 WtCom= 9.63D-01 WtEn= 3.68D-02
 Coeff-Com:  0.160D+00-0.712D+00 0.155D+01
 Coeff-En:   0.000D+00 0.000D+00 0.100D+01
 Coeff:      0.154D+00-0.686D+00 0.153D+01
 Fock symm off for IB=2 I1=    2 I=   12 J=    6 Cut=1.00D-07 Err=4.20D-03
 Fock matrix is not symmetric: symmetry in diagonalization turned off.
 Gap=     0.352 Goal=   None    Shift=    0.000
 RMSDP=4.29D-03 MaxDP=5.16D-02 DE=-3.06D-02 OVMax= 5.81D-02

 Cycle   4  Pass 1  IDiag  3:
 E= 0.195077401898061     Delta-E=       -0.004533469543 Rises=F Damp=F
 DIIS: error= 1.43D-03 at cycle   4 NSaved=   4.
 NSaved= 4 IEnMin= 4 EnMin= 0.195077401898061     IErMin= 4 ErrMin= 1.43D-03
 ErrMax= 1.43D-03  0.00D+00 EMaxC= 1.00D-01 BMatC= 9.54D-05 BMatP= 5.68D-04
 IDIUse=3 WtCom= 9.86D-01 WtEn= 1.43D-02
 Coeff-Com: -0.539D-01 0.262D+00-0.102D+01 0.181D+01
 Coeff-En:   0.000D+00 0.000D+00 0.000D+00 0.100D+01
 Coeff:     -0.532D-01 0.258D+00-0.100D+01 0.180D+01
 Gap=     0.359 Goal=   None    Shift=    0.000
 RMSDP=2.50D-03 MaxDP=2.51D-02 DE=-4.53D-03 OVMax= 2.87D-02

 Cycle   5  Pass 1  IDiag  3:
 E= 0.194202566605256     Delta-E=       -0.000874835293 Rises=F Damp=F
 DIIS: error= 3.89D-04 at cycle   5 NSaved=   5.
 NSaved= 5 IEnMin= 5 EnMin= 0.194202566605256     IErMin= 5 ErrMin= 3.89D-04
 ErrMax= 3.89D-04  0.00D+00 EMaxC= 1.00D-01 BMatC= 4.88D-06 BMatP= 9.54D-05
 IDIUse=3 WtCom= 9.96D-01 WtEn= 3.89D-03
 Coeff-Com:  0.682D-02-0.415D-01 0.326D+00-0.824D+00 0.153D+01
 Coeff-En:   0.000D+00 0.000D+00 0.000D+00 0.000D+00 0.100D+01
 Coeff:      0.679D-02-0.414D-01 0.325D+00-0.821D+00 0.153D+01
 Gap=     0.359 Goal=   None    Shift=    0.000
 RMSDP=4.60D-04 MaxDP=3.42D-03 DE=-8.75D-04 OVMax= 4.86D-03

 Cycle   6  Pass 1  IDiag  3:
 E= 0.194163176503068     Delta-E=       -0.000039390102 Rises=F Damp=F
 DIIS: error= 1.17D-04 at cycle   6 NSaved=   6.
 NSaved= 6 IEnMin= 6 EnMin= 0.194163176503068     IErMin= 6 ErrMin= 1.17D-04
 ErrMax= 1.17D-04  0.00D+00 EMaxC= 1.00D-01 BMatC= 3.64D-07 BMatP= 4.88D-06
 IDIUse=3 WtCom= 9.99D-01 WtEn= 1.17D-03
 Coeff-Com: -0.131D-02 0.735D-02-0.977D-01 0.276D+00-0.734D+00 0.155D+01
 Coeff-En:   0.000D+00 0.000D+00 0.000D+00 0.000D+00 0.000D+00 0.100D+01
 Coeff:     -0.131D-02 0.734D-02-0.976D-01 0.276D+00-0.733D+00 0.155D+01
 Gap=     0.359 Goal=   None    Shift=    0.000
 RMSDP=1.50D-04 MaxDP=1.24D-03 DE=-3.94D-05 OVMax= 1.75D-03

 Cycle   7  Pass 1  IDiag  3:
 E= 0.194159613007273     Delta-E=       -0.000003563496 Rises=F Damp=F
 DIIS: error= 4.14D-05 at cycle   7 NSaved=   7.
 NSaved= 7 IEnMin= 7 EnMin= 0.194159613007273     IErMin= 7 ErrMin= 4.14D-05
 ErrMax= 4.14D-05  0.00D+00 EMaxC= 1.00D-01 BMatC= 2.89D-08 BMatP= 3.64D-07
 IDIUse=1 WtCom= 1.00D+00 WtEn= 0.00D+00
 Coeff-Com: -0.616D-03 0.320D-02 0.103D-01-0.473D-01 0.204D+00-0.718D+00
 Coeff-Com:  0.155D+01
 Coeff:     -0.616D-03 0.320D-02 0.103D-01-0.473D-01 0.204D+00-0.718D+00
 Coeff:      0.155D+01
 Gap=     0.359 Goal=   None    Shift=    0.000
 RMSDP=4.50D-05 MaxDP=3.18D-04 DE=-3.56D-06 OVMax= 4.96D-04

 Cycle   8  Pass 1  IDiag  3:
 E= 0.194159313868028     Delta-E=       -0.000000299139 Rises=F Damp=F
 DIIS: error= 1.13D-05 at cycle   8 NSaved=   8.
 NSaved= 8 IEnMin= 8 EnMin= 0.194159313868028     IErMin= 8 ErrMin= 1.13D-05
 ErrMax= 1.13D-05  0.00D+00 EMaxC= 1.00D-01 BMatC= 1.87D-09 BMatP= 2.89D-08
 IDIUse=1 WtCom= 1.00D+00 WtEn= 0.00D+00
 Coeff-Com:  0.318D-03-0.176D-02 0.117D-02 0.312D-02-0.426D-01 0.212D+00
 Coeff-Com: -0.696D+00 0.152D+01
 Coeff:      0.318D-03-0.176D-02 0.117D-02 0.312D-02-0.426D-01 0.212D+00
 Coeff:     -0.696D+00 0.152D+01
 Gap=     0.359 Goal=   None    Shift=    0.000
 RMSDP=1.28D-05 MaxDP=9.87D-05 DE=-2.99D-07 OVMax= 1.53D-04

 Cycle   9  Pass 1  IDiag  3:
 E= 0.194159294430648     Delta-E=       -0.000000019437 Rises=F Damp=F
 DIIS: error= 1.73D-06 at cycle   9 NSaved=   9.
 NSaved= 9 IEnMin= 9 EnMin= 0.194159294430648     IErMin= 9 ErrMin= 1.73D-06
 ErrMax= 1.73D-06  0.00D+00 EMaxC= 1.00D-01 BMatC= 6.94D-11 BMatP= 1.87D-09
 IDIUse=1 WtCom= 1.00D+00 WtEn= 0.00D+00
 Coeff-Com: -0.115D-03 0.650D-03-0.113D-02 0.119D-02 0.837D-02-0.551D-01
 Coeff-Com:  0.209D+00-0.596D+00 0.143D+01
 Coeff:     -0.115D-03 0.650D-03-0.113D-02 0.119D-02 0.837D-02-0.551D-01
 Coeff:      0.209D+00-0.596D+00 0.143D+01
 Gap=     0.359 Goal=   None    Shift=    0.000
 RMSDP=1.81D-06 MaxDP=1.23D-05 DE=-1.94D-08 OVMax= 2.04D-05

 Cycle  10  Pass 1  IDiag  3:
 E= 0.194159293893591     Delta-E=       -0.000000000537 Rises=F Damp=F
 DIIS: error= 2.98D-07 at cycle  10 NSaved=  10.
 NSaved=10 IEnMin=10 EnMin= 0.194159293893591     IErMin=10 ErrMin= 2.98D-07
 ErrMax= 2.98D-07  0.00D+00 EMaxC= 1.00D-01 BMatC= 3.69D-12 BMatP= 6.94D-11
 IDIUse=1 WtCom= 1.00D+00 WtEn= 0.00D+00
 Coeff-Com:  0.233D-04-0.146D-03 0.394D-03-0.821D-03-0.592D-03 0.956D-02
 Coeff-Com: -0.452D-01 0.163D+00-0.621D+00 0.149D+01
 Coeff:      0.233D-04-0.146D-03 0.394D-03-0.821D-03-0.592D-03 0.956D-02
 Coeff:     -0.452D-01 0.163D+00-0.621D+00 0.149D+01
 Gap=     0.359 Goal=   None    Shift=    0.000
 RMSDP=4.66D-07 MaxDP=2.76D-06 DE=-5.37D-10 OVMax= 5.52D-06

 Cycle  11  Pass 1  IDiag  3:
 E= 0.194159293864615     Delta-E=       -0.000000000029 Rises=F Damp=F
 DIIS: error= 3.14D-08 at cycle  11 NSaved=  11.
 NSaved=11 IEnMin=11 EnMin= 0.194159293864615     IErMin=11 ErrMin= 3.14D-08
 ErrMax= 3.14D-08  0.00D+00 EMaxC= 1.00D-01 BMatC= 8.46D-14 BMatP= 3.69D-12
 IDIUse=1 WtCom= 1.00D+00 WtEn= 0.00D+00
 Coeff-Com: -0.313D-05 0.240D-04-0.756D-04 0.202D-03 0.704D-05-0.159D-02
 Coeff-Com:  0.859D-02-0.359D-01 0.167D+00-0.509D+00 0.137D+01
 Coeff:     -0.313D-05 0.240D-04-0.756D-04 0.202D-03 0.704D-05-0.159D-02
 Coeff:      0.859D-02-0.359D-01 0.167D+00-0.509D+00 0.137D+01
 Gap=     0.359 Goal=   None    Shift=    0.000
 RMSDP=4.76D-08 MaxDP=2.67D-07 DE=-2.90D-11 OVMax= 3.66D-07

 Cycle  12  Pass 1  IDiag  3:
 E= 0.194159293864004     Delta-E=       -0.000000000001 Rises=F Damp=F
 DIIS: error= 6.57D-09 at cycle  12 NSaved=  12.
 NSaved=12 IEnMin=12 EnMin= 0.194159293864004     IErMin=12 ErrMin= 6.57D-09
 ErrMax= 6.57D-09  0.00D+00 EMaxC= 1.00D-01 BMatC= 2.91D-15 BMatP= 8.46D-14
 IDIUse=1 WtCom= 1.00D+00 WtEn= 0.00D+00
 Coeff-Com:  0.433D-06-0.429D-05 0.205D-04-0.654D-04 0.703D-04 0.117D-03
 Coeff-Com: -0.126D-02 0.708D-02-0.413D-01 0.137D+00-0.491D+00 0.139D+01
 Coeff:      0.433D-06-0.429D-05 0.205D-04-0.654D-04 0.703D-04 0.117D-03
 Coeff:     -0.126D-02 0.708D-02-0.413D-01 0.137D+00-0.491D+00 0.139D+01
 Gap=     0.359 Goal=   None    Shift=    0.000
 RMSDP=9.99D-09 MaxDP=6.38D-08 DE=-6.11D-13 OVMax= 9.64D-08

 Cycle  13  Pass 2  IDiag  1:
 SCF Done:  E(RAM1) =  0.194159293864     A.U. after   13 cycles
            NFock= 12  Conv=0.10D-07     -V/T= 1.0130
 KE=-1.489355789463D+01 PE=-1.630733631177D+02 EE= 8.010532107440D+01
 Leave Link  502 at Sat Jan 16 16:01:00 2016, MaxMem=    33554432 cpu:         0.0
 (Enter /opt/g09/g09/l601.exe)
 Copying SCF densities to generalized density rwf, IOpCl= 0 IROHF=0.

 **********************************************************************

            Population analysis using the SCF density.

 **********************************************************************

 Orbital symmetries:
       Occupied  (A1) (B2) (A1) (B2) (A1) (A1) (B1) (B2) (B2) (A1)
                 (A1) (A2) (B1)
       Virtual   (A1) (B1) (A2) (B2) (A1) (B2) (A1) (B2) (A1) (B2)
                 (B2)
 The electronic state is 1-A1.
 Alpha  occ. eigenvalues --   -1.49382  -1.16635  -0.97282  -0.79704  -0.67522
 Alpha  occ. eigenvalues --   -0.61635  -0.58163  -0.52006  -0.48911  -0.48036
 Alpha  occ. eigenvalues --   -0.38444  -0.37340  -0.32754
 Alpha virt. eigenvalues --    0.03135   0.03883   0.06471   0.06631   0.15506
 Alpha virt. eigenvalues --    0.15554   0.17718   0.17868   0.20211   0.20682
 Alpha virt. eigenvalues --    0.20897
          Condensed to atoms (all electrons):
               1          2          3          4          5          6
     1  C    4.173321   0.000000   0.000000   0.000000   0.000000   0.000000
     2  C    0.000000   4.882268   0.000000   0.000000   0.000000   0.000000
     3  S    0.000000   0.000000   4.575551   0.000000   0.000000   0.000000
     4  C    0.000000   0.000000   0.000000   4.882268   0.000000   0.000000
     5  C    0.000000   0.000000   0.000000   0.000000   4.173321   0.000000
     6  H    0.000000   0.000000   0.000000   0.000000   0.000000   0.845652
     7  H    0.000000   0.000000   0.000000   0.000000   0.000000   0.000000
     8  H    0.000000   0.000000   0.000000   0.000000   0.000000   0.000000
     9  H    0.000000   0.000000   0.000000   0.000000   0.000000   0.000000
               7          8          9
     1  C    0.000000   0.000000   0.000000
     2  C    0.000000   0.000000   0.000000
     3  S    0.000000   0.000000   0.000000
     4  C    0.000000   0.000000   0.000000
     5  C    0.000000   0.000000   0.000000
     6  H    0.000000   0.000000   0.000000
     7  H    0.810983   0.000000   0.000000
     8  H    0.000000   0.810983   0.000000
     9  H    0.000000   0.000000   0.845652
 Mulliken charges:
               1
     1  C   -0.173321
     2  C   -0.882268
     3  S    1.424449
     4  C   -0.882268
     5  C   -0.173321
     6  H    0.154348
     7  H    0.189017
     8  H    0.189017
     9  H    0.154348
 Sum of Mulliken charges =   0.00000
 Mulliken charges with hydrogens summed into heavy atoms:
               1
     1  C   -0.018973
     2  C   -0.693251
     3  S    1.424449
     4  C   -0.693251
     5  C   -0.018973
 Charge=              0.0000 electrons
 Dipole moment (field-independent basis, Debye):
    X=              0.0000    Y=              0.0000    Z=              2.3444  Tot=              2.3444
 N-N= 9.805575923182D+01 E-N=-1.630733631893D+02  KE=-1.489355789463D+01
 Symmetry A1   KE=-7.776400342619D+00
 Symmetry A2   KE=-6.182932093779D-01
 Symmetry B1   KE=-1.519520661756D+00
 Symmetry B2   KE=-4.979343680881D+00
 Leave Link  601 at Sat Jan 16 16:01:00 2016, MaxMem=    33554432 cpu:         0.0
 (Enter /opt/g09/g09/l701.exe)
 Compute integral first derivatives.
 ... and contract with generalized density number  0.
 Leave Link  701 at Sat Jan 16 16:01:00 2016, MaxMem=    33554432 cpu:         0.0
 (Enter /opt/g09/g09/l702.exe)
 L702 exits ... SP integral derivatives will be done elsewhere.
 Leave Link  702 at Sat Jan 16 16:01:00 2016, MaxMem=    33554432 cpu:         0.0
 (Enter /opt/g09/g09/l703.exe)
 Compute integral first derivatives, UseDBF=F ICtDFT=           0.
 Integral derivatives from FoFJK, PRISM(SPDF).
 Calling FoFJK, ICntrl=      2127 FMM=F ISym2X=1 I1Cent= 0 IOpClX= 0 NMat=1 NMatS=1 NMatT=0.
 FoFJK:  IHMeth= 8 ICntrl=    2127 DoSepK=F KAlg= 0 I1Cent=   0 FoldK=F
 IRaf=         0 NMat=   1 IRICut=       1 DoRegI=T DoRafI=F ISym2E= 1.
 FoFCou: FMM=F IPFlag=           0 FMFlag=      100000 FMFlg1=         800
         NFxFlg=           0 DoJE=F BraDBF=F KetDBF=F FulRan=T
         wScrn=  0.000000 ICntrl=    2127 IOpCl=  0 I1Cent=           0 NGrid=           0
         NMat0=    1 NMatS0=      1 NMatT0=    0 NMatD0=    1 NMtDS0=    0 NMtDT0=    0
 Symmetry not used in FoFCou.
 Leave Link  703 at Sat Jan 16 16:01:00 2016, MaxMem=    33554432 cpu:         0.0
 (Enter /opt/g09/g09/l716.exe)
 Dipole        =-2.08542746D-17 7.99360578D-15 9.22371791D-01
 ***** Axes restored to original set *****
 -------------------------------------------------------------------
 Center     Atomic                   Forces (Hartrees/Bohr)
 Number     Number              X              Y              Z
 -------------------------------------------------------------------
      1        6           0.115516474    0.015748900    0.000000000
      2        6           0.034368358   -0.186487657    0.000000000
      3       16          -0.340948075    0.000000000    0.000000000
      4        6           0.034368358    0.186487657    0.000000000
      5        6           0.115516474   -0.015748900    0.000000000
      6        1           0.010261683    0.001447735    0.000000000
      7        1           0.010327523    0.033878773    0.000000000
      8        1           0.010327523   -0.033878773    0.000000000
      9        1           0.010261683   -0.001447735    0.000000000
 -------------------------------------------------------------------
 Cartesian Forces:  Max     0.340948075 RMS     0.089870498
 Leave Link  716 at Sat Jan 16 16:01:00 2016, MaxMem=    33554432 cpu:         0.0
 (Enter /opt/g09/g09/l103.exe)

 GradGradGradGradGradGradGradGradGradGradGradGradGradGradGradGradGradGrad
 Berny optimization.
 FormGI is forming the generalized inverse of G from B-inverse, IUseBI=4.
 Internal  Forces:  Max     0.247032230 RMS     0.067380880
 Search for a local minimum.
 Step number   1 out of a maximum of   48
 All quantities printed in internal units (Hartrees-Bohrs-Radians)
 RMS Force = .67381D-01 SwitMx=.10000D-02 MixMth= 1
 Mixed Optimization -- RFO/linear search
 Second derivative matrix not updated -- first step.
 ITU=  0
     Eigenvalues ---    0.02048   0.02329   0.02522   0.03418   0.03589
     Eigenvalues ---    0.05086   0.16000   0.16000   0.16000   0.16000
     Eigenvalues ---    0.22000   0.22909   0.36474   0.36474   0.36644
     Eigenvalues ---    0.36644   0.39017   0.48016   0.53651   1.36328
     Eigenvalues ---    1.41614
 RFO step:  Lambda=-1.48781741D-01 EMin= 2.04817730D-02
 Linear search not attempted -- first point.
 Maximum step size (   0.300) exceeded in Quadratic search.
    -- Step size scaled by   0.736
 Iteration  1 RMS(Cart)=  0.05802744 RMS(Int)=  0.00157771
 Iteration  2 RMS(Cart)=  0.00185905 RMS(Int)=  0.00035816
 Iteration  3 RMS(Cart)=  0.00000166 RMS(Int)=  0.00035816
 Iteration  4 RMS(Cart)=  0.00000000 RMS(Int)=  0.00035816
 ITry= 1 IFail=0 DXMaxC= 2.19D-01 DCOld= 1.00D+10 DXMaxT= 3.00D-01 DXLimC= 3.00D+00 Rises=F
 ClnCor:  largest displacement from symmetrization is 1.05D-12 for atom     6.
 Variable       Old X    -DE/DX   Delta X   Delta X   Delta X     New X
                                 (Linear)    (Quad)   (Total)
    R1        2.55978   0.13174   0.00000   0.13342   0.13325   2.69303
    R2        2.70595   0.02497   0.00000   0.00069   0.00009   2.70603
    R3        2.03347   0.00903   0.00000   0.01295   0.01295   2.04642
    R4        2.57244   0.24703   0.00000   0.11935   0.11982   2.69226
    R5        2.03086   0.02532   0.00000   0.03618   0.03618   2.06704
    R6        2.57244   0.24703   0.00000   0.11935   0.11982   2.69226
    R7        2.55978   0.13174   0.00000   0.13342   0.13325   2.69303
    R8        2.03086   0.02532   0.00000   0.03618   0.03618   2.06704
    R9        2.03347   0.00903   0.00000   0.01295   0.01295   2.04642
    A1        1.85272   0.03389   0.00000   0.00213   0.00128   1.85401
    A2        2.20710  -0.01178   0.00000   0.01125   0.01168   2.21877
    A3        2.22337  -0.02211   0.00000  -0.01338  -0.01296   2.21041
    A4        1.92771   0.00904   0.00000   0.03249   0.03269   1.96039
    A5        2.33106  -0.02966   0.00000  -0.07619  -0.07629   2.25477
    A6        2.02442   0.02063   0.00000   0.04370   0.04360   2.06802
    A7        1.86392  -0.08586   0.00000  -0.06925  -0.06794   1.79598
    A8        1.92771   0.00904   0.00000   0.03249   0.03269   1.96039
    A9        2.02442   0.02063   0.00000   0.04370   0.04360   2.06802
   A10        2.33106  -0.02966   0.00000  -0.07619  -0.07629   2.25477
   A11        1.85272   0.03389   0.00000   0.00213   0.00128   1.85401
   A12        2.22337  -0.02211   0.00000  -0.01338  -0.01296   2.21041
   A13        2.20710  -0.01178   0.00000   0.01125   0.01168   2.21877
    D1        0.00000   0.00000   0.00000   0.00000   0.00000   0.00000
    D2        3.14159   0.00000   0.00000   0.00000   0.00000   3.14159
    D3        3.14159   0.00000   0.00000   0.00000   0.00000   3.14159
    D4        0.00000   0.00000   0.00000   0.00000   0.00000   0.00000
    D5        0.00000   0.00000   0.00000   0.00000   0.00000   0.00000
    D6        3.14159   0.00000   0.00000   0.00000   0.00000   3.14159
    D7        3.14159   0.00000   0.00000   0.00000   0.00000   3.14159
    D8        0.00000   0.00000   0.00000   0.00000   0.00000   0.00000
    D9        0.00000   0.00000   0.00000   0.00000   0.00000   0.00000
   D10        3.14159   0.00000   0.00000   0.00000   0.00000   3.14159
   D11        0.00000   0.00000   0.00000   0.00000   0.00000   0.00000
   D12        3.14159   0.00000   0.00000   0.00000   0.00000   3.14159
   D13        0.00000   0.00000   0.00000   0.00000   0.00000   0.00000
   D14        3.14159   0.00000   0.00000   0.00000   0.00000   3.14159
   D15        3.14159   0.00000   0.00000   0.00000   0.00000   3.14159
   D16        0.00000   0.00000   0.00000   0.00000   0.00000   0.00000
         Item               Value     Threshold  Converged?
 Maximum Force            0.247032     0.000450     NO 
 RMS     Force            0.067381     0.000300     NO 
 Maximum Displacement     0.218755     0.001800     NO 
 RMS     Displacement     0.057537     0.001200     NO 
 Predicted change in Energy=-7.576278D-02
 Lowest energy point so far.  Saving SCF results.
 GradGradGradGradGradGradGradGradGradGradGradGradGradGradGradGradGradGrad

 Leave Link  103 at Sat Jan 16 16:01:00 2016, MaxMem=    33554432 cpu:         0.0
 (Enter /opt/g09/g09/l202.exe)
                          Input orientation:                          
 ---------------------------------------------------------------------
 Center     Atomic      Atomic             Coordinates (Angstroms)
 Number     Number       Type             X           Y           Z
 ---------------------------------------------------------------------
      1          6           0        0.983094   -0.715986    0.000000
      2          6           0       -0.385228   -1.114211    0.000000
      3         16           0       -1.273065    0.000000    0.000000
      4          6           0       -0.385228    1.114211    0.000000
      5          6           0        0.983094    0.715986    0.000000
      6          1           0        1.851948    1.362363    0.000000
      7          1           0       -0.811955    2.121372    0.000000
      8          1           0       -0.811955   -2.121372    0.000000
      9          1           0        1.851948   -1.362363    0.000000
 ---------------------------------------------------------------------
                    Distance matrix (angstroms):
                    1          2          3          4          5
     1  C    0.000000
     2  C    1.425092   0.000000
     3  S    2.367042   1.424683   0.000000
     4  C    2.285153   2.228422   1.424683   0.000000
     5  C    1.431972   2.285153   2.367042   1.425092   0.000000
     6  H    2.252652   3.337421   3.409067   2.250897   1.082918
     7  H    3.357499   3.263602   2.170908   1.093833   2.279761
     8  H    2.279761   1.093833   2.170908   3.263602   3.357499
     9  H    1.082918   2.250897   3.409067   3.337421   2.252652
                    6          7          8          9
     6  H    0.000000
     7  H    2.769924   0.000000
     8  H    4.385521   4.242745   0.000000
     9  H    2.724725   4.385521   2.769924   0.000000
 Stoichiometry    C4H4S
 Framework group  C2V[C2(S),SGV(C4H4)]
 Deg. of freedom     8
 Full point group                 C2V     NOp   4
 RotChk:  IX=0 Diff= 3.66D-16
 Largest Abelian subgroup         C2V     NOp   4
 Largest concise Abelian subgroup C2      NOp   2
                         Standard orientation:                         
 ---------------------------------------------------------------------
 Center     Atomic      Atomic             Coordinates (Angstroms)
 Number     Number       Type             X           Y           Z
 ---------------------------------------------------------------------
      1          6           0        0.000000    0.715986   -1.235700
      2          6           0        0.000000    1.114211    0.132622
      3         16           0        0.000000    0.000000    1.020459
      4          6           0        0.000000   -1.114211    0.132622
      5          6           0        0.000000   -0.715986   -1.235700
      6          1           0        0.000000   -1.362363   -2.104554
      7          1           0        0.000000   -2.121372    0.559349
      8          1           0        0.000000    2.121372    0.559349
      9          1           0        0.000000    1.362363   -2.104554
 ---------------------------------------------------------------------
 Rotational constants (GHZ):      9.2036968      6.3321895      3.7512860
 Leave Link  202 at Sat Jan 16 16:01:00 2016, MaxMem=    33554432 cpu:         0.0
 (Enter /opt/g09/g09/l301.exe)

 Semi-emprical parameters in input format:
 Method=8 CoreType=1 PeptideFC=0.0114510000 RIJScale=0.5291770000
 ****
 H       
 PQN=1 NValence=1 F0ss=0.4721550000 ZetaOverlap=1.1880780000 U=-0.4188110000
 Beta=-0.2268830000 CoreKO=1.0589200000 KON=0,0,0,1.0589200000 KON=1,0,1,1.0589200000
 KON=0,1,1,1.0589200000 KON=2,1,1,1.0589200000 EISol=-0.4188110042 EHeat=0.0830298228
 Alpha=1.5252600000
 GCore=0.0085280000,1.4001430000,2.2676710000
 GCore=0.0003530000,1.4001430000,3.4015070000
 GCore=-0.0012730000,0.5600570000,3.9684250000
 ****
 C       
 PQN=2,2 NValence=4 F0ss=0.4494440000 F0sp=0.4215150000 F0pp=0.3768030000 F2pp=0.1898720000
 G1sp=0.2679030000
 ZetaOverlap=1.8086650000,1.6851160000
 U=-1.9120180000,-1.4557970000
 Beta=-0.5775440000,-0.2836780000 DDN=0,1,0.8236740000 DDN=1,1,0.7268010000
 CoreKO=1.1124280000 KON=0,0,0,1.1124280000 KON=1,0,1,0.8219700000 KON=0,1,1,1.1124280000
 KON=2,1,1,0.7783930000 EISol=-4.4398989268 EHeat=0.2723305520 Alpha=1.4014060000
 DipHyp=1.6472532266
 GCore=0.0007890000,1.4001430000,3.0235620000
 GCore=0.0031890000,1.4001430000,3.4959930000
 GCore=-0.0013930000,1.4001430000,3.8739390000
 GCore=-0.0000880000,1.4001430000,5.0077740000
 ****
 S       
 PQN=3,3 NValence=6 F0ss=0.4331400000 F0sp=0.3183640000 F0pp=0.3136270000 F2pp=0.3456920000
 G1sp=0.2791630000
 ZetaOverlap=2.3665150000,1.6672630000,1.0000000000
 U=-2.0834680000,-1.7903190000
 Beta=-0.1440780000,-0.2905140000 DDN=0,1,0.9004270000 DDN=1,1,1.0036330000
 CoreKO=1.1543030000 KON=0,0,0,1.1543030000 KON=1,0,1,0.8464370000 KON=0,1,1,1.1543030000
 KON=2,1,1,0.7746000000 EISol=-7.0460287497 EHeat=0.1058151363 Alpha=1.3026480000
 DipHyp=1.8007503953
 GCore=-0.0353620000,1.2863640000,1.4563460000
 GCore=-0.0008240000,1.6425720000,2.8408500000
 GCore=0.0008570000,3.7964410000,3.7967870000
 ****
 
 Standard basis: VSTO-6G (5D, 7F)
 Ernie: Thresh=  0.10000D-02 Tol=  0.10000D-05 Strict=F.
  NNHCO=     0 NNPyr=     0 NCTC=     0               EPep=         0.000000000
    EC=        66.082668711  ECS=         2.015563823   EG=         0.058060024
   EHC=         0.000000000  EAt=       -26.480868474  AtH=         1.527256636
 EPDDG=         0.000000000  ECC=        68.156292558 EAtT=        28.008125109
 There are    10 symmetry adapted cartesian basis functions of A1  symmetry.
 There are     2 symmetry adapted cartesian basis functions of A2  symmetry.
 There are     3 symmetry adapted cartesian basis functions of B1  symmetry.
 There are     9 symmetry adapted cartesian basis functions of B2  symmetry.
 There are    10 symmetry adapted basis functions of A1  symmetry.
 There are     2 symmetry adapted basis functions of A2  symmetry.
 There are     3 symmetry adapted basis functions of B1  symmetry.
 There are     9 symmetry adapted basis functions of B2  symmetry.
    24 basis functions,   144 primitive gaussians,    24 cartesian basis functions
    13 alpha electrons       13 beta electrons
       nuclear repulsion energy        96.1644176670 Hartrees.



 Warning!  S  atom    3 may be hypervalent but has no d functions.



 IExCor=    0 DFT=F Ex=HF Corr=None ExCW=0 ScaHFX=  1.000000
 ScaDFX=  1.000000  1.000000  1.000000  1.000000 ScalE2=  1.000000  1.000000
 IRadAn=      0 IRanWt=     -1 IRanGd=            0 ICorTp=0 IEmpDi=  4
 Integral buffers will be    131072 words long.
 Regular integral format.
 Two-electron integral symmetry is turned off.
 Leave Link  301 at Sat Jan 16 16:01:00 2016, MaxMem=    33554432 cpu:         0.0
 (Enter /opt/g09/g09/l302.exe)
 Do NDO integrals.
 NPDir=0 NMtPBC=     1 NCelOv=     1 NCel=       1 NClECP=     1 NCelD=      1
         NCelK=      1 NCelE2=     1 NClLst=     1 CellRange=     0.0.
 One-electron integrals computed using PRISM.
 NBasis=    24 RedAO= T EigKep=  1.00D+00  NBF=    10     2     3     9
 NBsUse=    24 1.00D-06 EigRej= -1.00D+00 NBFU=    10     2     3     9
 Leave Link  302 at Sat Jan 16 16:01:00 2016, MaxMem=    33554432 cpu:         0.0
 (Enter /opt/g09/g09/l303.exe)
 DipDrv:  MaxL=1.
 Leave Link  303 at Sat Jan 16 16:01:00 2016, MaxMem=    33554432 cpu:         0.0
 (Enter /opt/g09/g09/l401.exe)
 Initial guess from the checkpoint file:  "/opt/g09/scratch/Gau-11331.chk"
 B after Tr=     0.000000    0.000000    0.000000
         Rot=    1.000000    0.000000    0.000000    0.000000 Ang=   0.00 deg.
 Guess basis will be translated and rotated to current coordinates.
 JPrj=0 DoOrth=T DoCkMO=T.
 Initial guess orbital symmetries:
       Occupied  (A1) (B2) (A1) (B2) (A1) (A1) (B1) (B2) (B2) (A1)
                 (A1) (A2) (B1)
       Virtual   (A1) (B1) (A2) (B2) (A1) (B2) (A1) (B2) (A1) (B2)
                 (B2)
 The electronic state of the initial guess is 1-A1.
 Leave Link  401 at Sat Jan 16 16:01:00 2016, MaxMem=    33554432 cpu:         0.1
 (Enter /opt/g09/g09/l502.exe)
 Closed shell SCF:
 Using DIIS extrapolation, IDIIS=  1040.
 Overlap will be assumed to be unity.
 Two-electron integral symmetry not used.
 Keep J ints in memory in canonical form, NReq=888094.
 IVT=       79487 IEndB=       79487 NGot=    33554432 MDV=    33473461
 LenX=    33473461 LenY=    33472444
 Requested convergence on RMS density matrix=1.00D-08 within 128 cycles.
 Requested convergence on MAX density matrix=1.00D-06.
 Requested convergence on             energy=1.00D-06.
 No special actions if energy rises.
 FoFCou: FMM=F IPFlag=           0 FMFlag=           0 FMFlg1=           0
         NFxFlg=           0 DoJE=F BraDBF=F KetDBF=F FulRan=T
         wScrn=  0.000000 ICntrl=     600 IOpCl=  2 I1Cent=           0 NGrid=           0
         NMat0=    1 NMatS0=     54 NMatT0=    0 NMatD0=    1 NMtDS0=    0 NMtDT0=    0
 Symmetry not used in FoFCou.

 Cycle   1  Pass 1  IDiag  1:
 E= 0.123043121291076    
 DIIS: error= 5.03D-03 at cycle   1 NSaved=   1.
 NSaved= 1 IEnMin= 1 EnMin= 0.123043121291076     IErMin= 1 ErrMin= 5.03D-03
 ErrMax= 5.03D-03  0.00D+00 EMaxC= 1.00D-01 BMatC= 1.72D-03 BMatP= 1.72D-03
 IDIUse=3 WtCom= 9.50D-01 WtEn= 5.03D-02
 Coeff-Com:  0.100D+01
 Coeff-En:   0.100D+01
 Coeff:      0.100D+01
 GapD=    2.000 DampG=2.000 DampE=1.000 DampFc=2.0000 IDamp=-1.
 RMSDP=3.12D-03 MaxDP=1.54D-02              OVMax= 0.00D+00

 Cycle   2  Pass 1  IDiag  3:
 E= 0.117378487744176     Delta-E=       -0.005664633547 Rises=F Damp=F
 DIIS: error= 1.91D-03 at cycle   2 NSaved=   2.
 NSaved= 2 IEnMin= 2 EnMin= 0.117378487744176     IErMin= 2 ErrMin= 1.91D-03
 ErrMax= 1.91D-03  0.00D+00 EMaxC= 1.00D-01 BMatC= 2.33D-04 BMatP= 1.72D-03
 IDIUse=3 WtCom= 9.81D-01 WtEn= 1.91D-02
 Coeff-Com: -0.457D+00 0.146D+01
 Coeff-En:   0.000D+00 0.100D+01
 Coeff:     -0.448D+00 0.145D+01
 Fock symm off for IB=2 I1=    1 I=   11 J=   10 Cut=1.00D-07 Err=1.05D-03
 Fock matrix is not symmetric: symmetry in diagonalization turned off.
 Gap=     0.360 Goal=   None    Shift=    0.000
 RMSDP=1.79D-03 MaxDP=8.77D-03 DE=-5.66D-03 OVMax= 1.28D-02

 Cycle   3  Pass 1  IDiag  3:
 E= 0.116285969706567     Delta-E=       -0.001092518038 Rises=F Damp=F
 DIIS: error= 5.24D-04 at cycle   3 NSaved=   3.
 NSaved= 3 IEnMin= 3 EnMin= 0.116285969706567     IErMin= 3 ErrMin= 5.24D-04
 ErrMax= 5.24D-04  0.00D+00 EMaxC= 1.00D-01 BMatC= 1.66D-05 BMatP= 2.33D-04
 IDIUse=3 WtCom= 9.95D-01 WtEn= 5.24D-03
 Coeff-Com:  0.245D+00-0.932D+00 0.169D+01
 Coeff-En:   0.000D+00 0.000D+00 0.100D+01
 Coeff:      0.244D+00-0.928D+00 0.168D+01
 Gap=     0.359 Goal=   None    Shift=    0.000
 RMSDP=6.75D-04 MaxDP=5.39D-03 DE=-1.09D-03 OVMax= 5.28D-03

 Cycle   4  Pass 1  IDiag  3:
 E= 0.116180294324991     Delta-E=       -0.000105675382 Rises=F Damp=F
 DIIS: error= 1.27D-04 at cycle   4 NSaved=   4.
 NSaved= 4 IEnMin= 4 EnMin= 0.116180294324991     IErMin= 4 ErrMin= 1.27D-04
 ErrMax= 1.27D-04  0.00D+00 EMaxC= 1.00D-01 BMatC= 9.93D-07 BMatP= 1.66D-05
 IDIUse=3 WtCom= 9.99D-01 WtEn= 1.27D-03
 Coeff-Com: -0.112D+00 0.440D+00-0.969D+00 0.164D+01
 Coeff-En:   0.000D+00 0.000D+00 0.000D+00 0.100D+01
 Coeff:     -0.112D+00 0.440D+00-0.968D+00 0.164D+01
 Gap=     0.359 Goal=   None    Shift=    0.000
 RMSDP=1.95D-04 MaxDP=1.57D-03 DE=-1.06D-04 OVMax= 1.71D-03

 Cycle   5  Pass 1  IDiag  3:
 E= 0.116172956365745     Delta-E=       -0.000007337959 Rises=F Damp=F
 DIIS: error= 4.22D-05 at cycle   5 NSaved=   5.
 NSaved= 5 IEnMin= 5 EnMin= 0.116172956365745     IErMin= 5 ErrMin= 4.22D-05
 ErrMax= 4.22D-05  0.00D+00 EMaxC= 1.00D-01 BMatC= 5.25D-08 BMatP= 9.93D-07
 IDIUse=1 WtCom= 1.00D+00 WtEn= 0.00D+00
 Coeff-Com:  0.335D-01-0.132D+00 0.306D+00-0.692D+00 0.148D+01
 Coeff:      0.335D-01-0.132D+00 0.306D+00-0.692D+00 0.148D+01
 Gap=     0.359 Goal=   None    Shift=    0.000
 RMSDP=5.10D-05 MaxDP=3.11D-04 DE=-7.34D-06 OVMax= 5.03D-04

 Cycle   6  Pass 1  IDiag  3:
 E= 0.116172485618435     Delta-E=       -0.000000470747 Rises=F Damp=F
 DIIS: error= 1.71D-05 at cycle   6 NSaved=   6.
 NSaved= 6 IEnMin= 6 EnMin= 0.116172485618435     IErMin= 6 ErrMin= 1.71D-05
 ErrMax= 1.71D-05  0.00D+00 EMaxC= 1.00D-01 BMatC= 4.77D-09 BMatP= 5.25D-08
 IDIUse=1 WtCom= 1.00D+00 WtEn= 0.00D+00
 Coeff-Com: -0.147D-01 0.582D-01-0.140D+00 0.360D+00-0.105D+01 0.178D+01
 Coeff:     -0.147D-01 0.582D-01-0.140D+00 0.360D+00-0.105D+01 0.178D+01
 Gap=     0.359 Goal=   None    Shift=    0.000
 RMSDP=2.09D-05 MaxDP=1.58D-04 DE=-4.71D-07 OVMax= 2.57D-04

 Cycle   7  Pass 1  IDiag  3:
 E= 0.116172429262122     Delta-E=       -0.000000056356 Rises=F Damp=F
 DIIS: error= 4.13D-06 at cycle   7 NSaved=   7.
 NSaved= 7 IEnMin= 7 EnMin= 0.116172429262122     IErMin= 7 ErrMin= 4.13D-06
 ErrMax= 4.13D-06  0.00D+00 EMaxC= 1.00D-01 BMatC= 2.88D-10 BMatP= 4.77D-09
 IDIUse=1 WtCom= 1.00D+00 WtEn= 0.00D+00
 Coeff-Com:  0.551D-02-0.219D-01 0.534D-01-0.146D+00 0.474D+00-0.995D+00
 Coeff-Com:  0.163D+01
 Coeff:      0.551D-02-0.219D-01 0.534D-01-0.146D+00 0.474D+00-0.995D+00
 Coeff:      0.163D+01
 Gap=     0.359 Goal=   None    Shift=    0.000
 RMSDP=5.11D-06 MaxDP=3.95D-05 DE=-5.64D-08 OVMax= 6.05D-05

 Cycle   8  Pass 1  IDiag  3:
 E= 0.116172426001427     Delta-E=       -0.000000003261 Rises=F Damp=F
 DIIS: error= 8.04D-07 at cycle   8 NSaved=   8.
 NSaved= 8 IEnMin= 8 EnMin= 0.116172426001427     IErMin= 8 ErrMin= 8.04D-07
 ErrMax= 8.04D-07  0.00D+00 EMaxC= 1.00D-01 BMatC= 1.58D-11 BMatP= 2.88D-10
 IDIUse=1 WtCom= 1.00D+00 WtEn= 0.00D+00
 Coeff-Com: -0.159D-02 0.633D-02-0.157D-01 0.459D-01-0.165D+00 0.380D+00
 Coeff-Com: -0.818D+00 0.157D+01
 Coeff:     -0.159D-02 0.633D-02-0.157D-01 0.459D-01-0.165D+00 0.380D+00
 Coeff:     -0.818D+00 0.157D+01
 Gap=     0.359 Goal=   None    Shift=    0.000
 RMSDP=1.08D-06 MaxDP=7.81D-06 DE=-3.26D-09 OVMax= 1.26D-05

 Cycle   9  Pass 1  IDiag  3:
 E= 0.116172425853733     Delta-E=       -0.000000000148 Rises=F Damp=F
 DIIS: error= 8.18D-08 at cycle   9 NSaved=   9.
 NSaved= 9 IEnMin= 9 EnMin= 0.116172425853733     IErMin= 9 ErrMin= 8.18D-08
 ErrMax= 8.18D-08  0.00D+00 EMaxC= 1.00D-01 BMatC= 5.37D-13 BMatP= 1.58D-11
 IDIUse=1 WtCom= 1.00D+00 WtEn= 0.00D+00
 Coeff-Com:  0.349D-03-0.139D-02 0.350D-02-0.112D-01 0.449D-01-0.112D+00
 Coeff-Com:  0.272D+00-0.659D+00 0.146D+01
 Coeff:      0.349D-03-0.139D-02 0.350D-02-0.112D-01 0.449D-01-0.112D+00
 Coeff:      0.272D+00-0.659D+00 0.146D+01
 Gap=     0.359 Goal=   None    Shift=    0.000
 RMSDP=1.49D-07 MaxDP=9.62D-07 DE=-1.48D-10 OVMax= 1.47D-06

 Cycle  10  Pass 1  IDiag  3:
 E= 0.116172425850280     Delta-E=       -0.000000000003 Rises=F Damp=F
 DIIS: error= 1.55D-08 at cycle  10 NSaved=  10.
 NSaved=10 IEnMin=10 EnMin= 0.116172425850280     IErMin=10 ErrMin= 1.55D-08
 ErrMax= 1.55D-08  0.00D+00 EMaxC= 1.00D-01 BMatC= 1.57D-14 BMatP= 5.37D-13
 IDIUse=1 WtCom= 1.00D+00 WtEn= 0.00D+00
 Coeff-Com: -0.312D-04 0.127D-03-0.361D-03 0.169D-02-0.888D-02 0.251D-01
 Coeff-Com: -0.701D-01 0.193D+00-0.561D+00 0.142D+01
 Coeff:     -0.312D-04 0.127D-03-0.361D-03 0.169D-02-0.888D-02 0.251D-01
 Coeff:     -0.701D-01 0.193D+00-0.561D+00 0.142D+01
 Gap=     0.359 Goal=   None    Shift=    0.000
 RMSDP=2.26D-08 MaxDP=1.05D-07 DE=-3.45D-12 OVMax= 1.98D-07

 Cycle  11  Pass 1  IDiag  3:
 E= 0.116172425850110     Delta-E=        0.000000000000 Rises=F Damp=F
 DIIS: error= 2.01D-09 at cycle  11 NSaved=  11.
 NSaved=11 IEnMin=11 EnMin= 0.116172425850110     IErMin=11 ErrMin= 2.01D-09
 ErrMax= 2.01D-09  0.00D+00 EMaxC= 1.00D-01 BMatC= 3.22D-16 BMatP= 1.57D-14
 IDIUse=1 WtCom= 1.00D+00 WtEn= 0.00D+00
 Coeff-Com:  0.263D-05-0.119D-04 0.470D-04-0.384D-03 0.247D-02-0.750D-02
 Coeff-Com:  0.221D-01-0.636D-01 0.198D+00-0.584D+00 0.143D+01
 Coeff:      0.263D-05-0.119D-04 0.470D-04-0.384D-03 0.247D-02-0.750D-02
 Coeff:      0.221D-01-0.636D-01 0.198D+00-0.584D+00 0.143D+01
 Gap=     0.359 Goal=   None    Shift=    0.000
 RMSDP=3.08D-09 MaxDP=1.50D-08 DE=-1.71D-13 OVMax= 3.01D-08

 Cycle  12  Pass 2  IDiag  1:
 SCF Done:  E(RAM1) =  0.116172425850     A.U. after   12 cycles
            NFock= 11  Conv=0.31D-08     -V/T= 1.0079
 KE=-1.473081038156D+01 PE=-1.600158228812D+02 EE= 7.869838802157D+01
 Leave Link  502 at Sat Jan 16 16:01:00 2016, MaxMem=    33554432 cpu:         0.0
 (Enter /opt/g09/g09/l701.exe)
 Compute integral first derivatives.
 ... and contract with generalized density number  0.
 Leave Link  701 at Sat Jan 16 16:01:00 2016, MaxMem=    33554432 cpu:         0.0
 (Enter /opt/g09/g09/l702.exe)
 L702 exits ... SP integral derivatives will be done elsewhere.
 Leave Link  702 at Sat Jan 16 16:01:00 2016, MaxMem=    33554432 cpu:         0.0
 (Enter /opt/g09/g09/l703.exe)
 Compute integral first derivatives, UseDBF=F ICtDFT=           0.
 Integral derivatives from FoFJK, PRISM(SPDF).
 Calling FoFJK, ICntrl=      2127 FMM=F ISym2X=1 I1Cent= 0 IOpClX= 0 NMat=1 NMatS=1 NMatT=0.
 FoFJK:  IHMeth= 8 ICntrl=    2127 DoSepK=F KAlg= 0 I1Cent=   0 FoldK=F
 IRaf=         0 NMat=   1 IRICut=       1 DoRegI=T DoRafI=F ISym2E= 1.
 FoFCou: FMM=F IPFlag=           0 FMFlag=      100000 FMFlg1=         800
         NFxFlg=           0 DoJE=F BraDBF=F KetDBF=F FulRan=T
         wScrn=  0.000000 ICntrl=    2127 IOpCl=  0 I1Cent=           0 NGrid=           0
         NMat0=    1 NMatS0=      1 NMatT0=    0 NMatD0=    1 NMtDS0=    0 NMtDT0=    0
 Symmetry not used in FoFCou.
 Leave Link  703 at Sat Jan 16 16:01:00 2016, MaxMem=    33554432 cpu:         0.0
 (Enter /opt/g09/g09/l716.exe)
 Dipole        =-2.51327624D-16 2.26485497D-14 8.32414233D-01
 ***** Axes restored to original set *****
 -------------------------------------------------------------------
 Center     Atomic                   Forces (Hartrees/Bohr)
 Number     Number              X              Y              Z
 -------------------------------------------------------------------
      1        6           0.010168762    0.019946122    0.000000000
      2        6           0.075209113   -0.119450077    0.000000000
      3       16          -0.203243540    0.000000000    0.000000000
      4        6           0.075209113    0.119450077    0.000000000
      5        6           0.010168762   -0.019946122    0.000000000
      6        1           0.000870443    0.000469898    0.000000000
      7        1           0.015373452    0.012114763    0.000000000
      8        1           0.015373452   -0.012114763    0.000000000
      9        1           0.000870443   -0.000469898    0.000000000
 -------------------------------------------------------------------
 Cartesian Forces:  Max     0.203243540 RMS     0.055420307
 Leave Link  716 at Sat Jan 16 16:01:00 2016, MaxMem=    33554432 cpu:         0.0
 (Enter /opt/g09/g09/l103.exe)

 GradGradGradGradGradGradGradGradGradGradGradGradGradGradGradGradGradGrad
 Berny optimization.
 Using GEDIIS/GDIIS optimizer.
 FormGI is forming the generalized inverse of G from B-inverse, IUseBI=4.
 Internal  Forces:  Max     0.153585912 RMS     0.037806536
 Search for a local minimum.
 Step number   2 out of a maximum of   48
 All quantities printed in internal units (Hartrees-Bohrs-Radians)
 RMS Force = .37807D-01 SwitMx=.10000D-02 MixMth= 1
 Mixed Optimization -- RFO/linear search
 Update second derivatives using D2CorX and points    1    2
 DE= -7.80D-02 DEPred=-7.58D-02 R= 1.03D+00
 TightC=F SS=  1.41D+00  RLast= 3.00D-01 DXNew= 5.0454D-01 8.9993D-01
 Trust test= 1.03D+00 RLast= 3.00D-01 DXMaxT set to 5.05D-01
 ITU=  1  0
 Use linear search instead of GDIIS.
     Eigenvalues ---    0.02061   0.02340   0.02526   0.03555   0.03727
     Eigenvalues ---    0.04992   0.15298   0.16000   0.16000   0.16073
     Eigenvalues ---    0.22000   0.23771   0.36474   0.36490   0.36644
     Eigenvalues ---    0.36818   0.38401   0.48145   0.79698   0.85103
     Eigenvalues ---    1.41096
 RFO step:  Lambda=-5.18253229D-02 EMin= 2.06067401D-02
 Quartic linear search produced a step of  1.02450.
 Iteration  1 RMS(Cart)=  0.12013262 RMS(Int)=  0.01410764
 Iteration  2 RMS(Cart)=  0.01330174 RMS(Int)=  0.00128266
 Iteration  3 RMS(Cart)=  0.00017855 RMS(Int)=  0.00127561
 Iteration  4 RMS(Cart)=  0.00000003 RMS(Int)=  0.00127561
 ITry= 1 IFail=0 DXMaxC= 3.77D-01 DCOld= 1.00D+10 DXMaxT= 5.05D-01 DXLimC= 3.00D+00 Rises=F
 ClnCor:  largest displacement from symmetrization is 1.00D-11 for atom     9.
 Variable       Old X    -DE/DX   Delta X   Delta X   Delta X     New X
                                 (Linear)    (Quad)   (Total)
    R1        2.69303   0.01511   0.13651  -0.08976   0.04608   2.73912
    R2        2.70603  -0.00332   0.00009  -0.08840  -0.09038   2.61565
    R3        2.04642   0.00098   0.01327  -0.00746   0.00580   2.05222
    R4        2.69226   0.15359   0.12276   0.10453   0.22884   2.92110
    R5        2.06704   0.00516   0.03707  -0.00933   0.02774   2.09478
    R6        2.69226   0.15359   0.12276   0.10453   0.22884   2.92110
    R7        2.69303   0.01511   0.13651  -0.08976   0.04608   2.73912
    R8        2.06704   0.00516   0.03707  -0.00933   0.02774   2.09478
    R9        2.04642   0.00098   0.01327  -0.00746   0.00580   2.05222
    A1        1.85401   0.02979   0.00131   0.04905   0.04735   1.90136
    A2        2.21877  -0.01475   0.01196  -0.03483  -0.02136   2.19741
    A3        2.21041  -0.01504  -0.01327  -0.01422  -0.02599   2.18441
    A4        1.96039  -0.00563   0.03349  -0.03463  -0.00056   1.95983
    A5        2.25477  -0.01670  -0.07816  -0.10997  -0.18842   2.06635
    A6        2.06802   0.02233   0.04467   0.14459   0.18898   2.25700
    A7        1.79598  -0.04831  -0.06960  -0.02885  -0.09359   1.70240
    A8        1.96039  -0.00563   0.03349  -0.03463  -0.00056   1.95983
    A9        2.06802   0.02233   0.04467   0.14459   0.18898   2.25700
   A10        2.25477  -0.01670  -0.07816  -0.10997  -0.18842   2.06635
   A11        1.85401   0.02979   0.00131   0.04905   0.04735   1.90136
   A12        2.21041  -0.01504  -0.01327  -0.01422  -0.02599   2.18441
   A13        2.21877  -0.01475   0.01196  -0.03483  -0.02136   2.19741
    D1        0.00000   0.00000   0.00000   0.00000   0.00000   0.00000
    D2        3.14159   0.00000   0.00000   0.00000   0.00000   3.14159
    D3        3.14159   0.00000   0.00000   0.00000   0.00000   3.14159
    D4        0.00000   0.00000   0.00000   0.00000   0.00000   0.00000
    D5        0.00000   0.00000   0.00000   0.00000   0.00000   0.00000
    D6        3.14159   0.00000   0.00000   0.00000   0.00000   3.14159
    D7        3.14159   0.00000   0.00000   0.00000   0.00000   3.14159
    D8        0.00000   0.00000   0.00000   0.00000   0.00000   0.00000
    D9        0.00000   0.00000   0.00000   0.00000   0.00000   0.00000
   D10        3.14159   0.00000   0.00000   0.00000   0.00000   3.14159
   D11        0.00000   0.00000   0.00000   0.00000   0.00000   0.00000
   D12        3.14159   0.00000   0.00000   0.00000   0.00000   3.14159
   D13        0.00000   0.00000   0.00000   0.00000   0.00000   0.00000
   D14        3.14159   0.00000   0.00000   0.00000   0.00000   3.14159
   D15        3.14159   0.00000   0.00000   0.00000   0.00000   3.14159
   D16        0.00000   0.00000   0.00000   0.00000   0.00000   0.00000
         Item               Value     Threshold  Converged?
 Maximum Force            0.153586     0.000450     NO 
 RMS     Force            0.037807     0.000300     NO 
 Maximum Displacement     0.376860     0.001800     NO 
 RMS     Displacement     0.124715     0.001200     NO 
 Predicted change in Energy=-4.257574D-02
 Lowest energy point so far.  Saving SCF results.
 GradGradGradGradGradGradGradGradGradGradGradGradGradGradGradGradGradGrad

 Leave Link  103 at Sat Jan 16 16:01:00 2016, MaxMem=    33554432 cpu:         0.0
 (Enter /opt/g09/g09/l202.exe)
                          Input orientation:                          
 ---------------------------------------------------------------------
 Center     Atomic      Atomic             Coordinates (Angstroms)
 Number     Number       Type             X           Y           Z
 ---------------------------------------------------------------------
      1          6           0        0.940540   -0.692071    0.000000
      2          6           0       -0.430464   -1.162537    0.000000
      3         16           0       -1.449262    0.000000    0.000000
      4          6           0       -0.430464    1.162537    0.000000
      5          6           0        0.940540    0.692071    0.000000
      6          1           0        1.828411    1.317416    0.000000
      7          1           0       -0.612529    2.255994    0.000000
      8          1           0       -0.612529   -2.255994    0.000000
      9          1           0        1.828411   -1.317416    0.000000
 ---------------------------------------------------------------------
                    Distance matrix (angstroms):
                    1          2          3          4          5
     1  C    0.000000
     2  C    1.449479   0.000000
     3  S    2.487994   1.545782   0.000000
     4  C    2.306344   2.325074   1.545782   0.000000
     5  C    1.384143   2.306344   2.487994   1.449479   0.000000
     6  H    2.196897   3.354502   3.532524   2.264178   1.085989
     7  H    3.332133   3.423376   2.406165   1.108510   2.204059
     8  H    2.204059   1.108510   2.406165   3.423376   3.332133
     9  H    1.085989   2.264178   3.532524   3.354502   2.196897
                    6          7          8          9
     6  H    0.000000
     7  H    2.615170   0.000000
     8  H    4.327522   4.511987   0.000000
     9  H    2.634832   4.327522   2.615170   0.000000
 Stoichiometry    C4H4S
 Framework group  C2V[C2(S),SGV(C4H4)]
 Deg. of freedom     8
 Full point group                 C2V     NOp   4
 RotChk:  IX=0 Diff= 2.44D-16
 Largest Abelian subgroup         C2V     NOp   4
 Largest concise Abelian subgroup C2      NOp   2
                         Standard orientation:                         
 ---------------------------------------------------------------------
 Center     Atomic      Atomic             Coordinates (Angstroms)
 Number     Number       Type             X           Y           Z
 ---------------------------------------------------------------------
      1          6           0        0.000000    0.692071   -1.273165
      2          6           0        0.000000    1.162537    0.097838
      3         16           0        0.000000    0.000000    1.116636
      4          6           0        0.000000   -1.162537    0.097838
      5          6           0        0.000000   -0.692071   -1.273165
      6          1           0        0.000000   -1.317416   -2.161036
      7          1           0        0.000000   -2.255994    0.279904
      8          1           0        0.000000    2.255994    0.279904
      9          1           0        0.000000    1.317416   -2.161036
 ---------------------------------------------------------------------
 Rotational constants (GHZ):      8.7605676      5.7165820      3.4592792
 Leave Link  202 at Sat Jan 16 16:01:00 2016, MaxMem=    33554432 cpu:         0.0
 (Enter /opt/g09/g09/l301.exe)

 Semi-emprical parameters in input format:
 Method=8 CoreType=1 PeptideFC=0.0114510000 RIJScale=0.5291770000
 ****
 H       
 PQN=1 NValence=1 F0ss=0.4721550000 ZetaOverlap=1.1880780000 U=-0.4188110000
 Beta=-0.2268830000 CoreKO=1.0589200000 KON=0,0,0,1.0589200000 KON=1,0,1,1.0589200000
 KON=0,1,1,1.0589200000 KON=2,1,1,1.0589200000 EISol=-0.4188110042 EHeat=0.0830298228
 Alpha=1.5252600000
 GCore=0.0085280000,1.4001430000,2.2676710000
 GCore=0.0003530000,1.4001430000,3.4015070000
 GCore=-0.0012730000,0.5600570000,3.9684250000
 ****
 C       
 PQN=2,2 NValence=4 F0ss=0.4494440000 F0sp=0.4215150000 F0pp=0.3768030000 F2pp=0.1898720000
 G1sp=0.2679030000
 ZetaOverlap=1.8086650000,1.6851160000
 U=-1.9120180000,-1.4557970000
 Beta=-0.5775440000,-0.2836780000 DDN=0,1,0.8236740000 DDN=1,1,0.7268010000
 CoreKO=1.1124280000 KON=0,0,0,1.1124280000 KON=1,0,1,0.8219700000 KON=0,1,1,1.1124280000
 KON=2,1,1,0.7783930000 EISol=-4.4398989268 EHeat=0.2723305520 Alpha=1.4014060000
 DipHyp=1.6472532266
 GCore=0.0007890000,1.4001430000,3.0235620000
 GCore=0.0031890000,1.4001430000,3.4959930000
 GCore=-0.0013930000,1.4001430000,3.8739390000
 GCore=-0.0000880000,1.4001430000,5.0077740000
 ****
 S       
 PQN=3,3 NValence=6 F0ss=0.4331400000 F0sp=0.3183640000 F0pp=0.3136270000 F2pp=0.3456920000
 G1sp=0.2791630000
 ZetaOverlap=2.3665150000,1.6672630000,1.0000000000
 U=-2.0834680000,-1.7903190000
 Beta=-0.1440780000,-0.2905140000 DDN=0,1,0.9004270000 DDN=1,1,1.0036330000
 CoreKO=1.1543030000 KON=0,0,0,1.1543030000 KON=1,0,1,0.8464370000 KON=0,1,1,1.1543030000
 KON=2,1,1,0.7746000000 EISol=-7.0460287497 EHeat=0.1058151363 Alpha=1.3026480000
 DipHyp=1.8007503953
 GCore=-0.0353620000,1.2863640000,1.4563460000
 GCore=-0.0008240000,1.6425720000,2.8408500000
 GCore=0.0008570000,3.7964410000,3.7967870000
 ****
 
 Standard basis: VSTO-6G (5D, 7F)
 Ernie: Thresh=  0.10000D-02 Tol=  0.10000D-05 Strict=F.
  NNHCO=     0 NNPyr=     0 NCTC=     0               EPep=         0.000000000
    EC=        64.655224309  ECS=         1.760180384   EG=         0.112262142
   EHC=         0.000000000  EAt=       -26.480868474  AtH=         1.527256636
 EPDDG=         0.000000000  ECC=        66.527666835 EAtT=        28.008125109
 There are    10 symmetry adapted cartesian basis functions of A1  symmetry.
 There are     2 symmetry adapted cartesian basis functions of A2  symmetry.
 There are     3 symmetry adapted cartesian basis functions of B1  symmetry.
 There are     9 symmetry adapted cartesian basis functions of B2  symmetry.
 There are    10 symmetry adapted basis functions of A1  symmetry.
 There are     2 symmetry adapted basis functions of A2  symmetry.
 There are     3 symmetry adapted basis functions of B1  symmetry.
 There are     9 symmetry adapted basis functions of B2  symmetry.
    24 basis functions,   144 primitive gaussians,    24 cartesian basis functions
    13 alpha electrons       13 beta electrons
       nuclear repulsion energy        94.5357919443 Hartrees.



 Warning!  S  atom    3 may be hypervalent but has no d functions.



 IExCor=    0 DFT=F Ex=HF Corr=None ExCW=0 ScaHFX=  1.000000
 ScaDFX=  1.000000  1.000000  1.000000  1.000000 ScalE2=  1.000000  1.000000
 IRadAn=      0 IRanWt=     -1 IRanGd=            0 ICorTp=0 IEmpDi=  4
 Integral buffers will be    131072 words long.
 Regular integral format.
 Two-electron integral symmetry is turned off.
 Leave Link  301 at Sat Jan 16 16:01:01 2016, MaxMem=    33554432 cpu:         0.0
 (Enter /opt/g09/g09/l302.exe)
 Do NDO integrals.
 NPDir=0 NMtPBC=     1 NCelOv=     1 NCel=       1 NClECP=     1 NCelD=      1
         NCelK=      1 NCelE2=     1 NClLst=     1 CellRange=     0.0.
 One-electron integrals computed using PRISM.
 NBasis=    24 RedAO= T EigKep=  1.00D+00  NBF=    10     2     3     9
 NBsUse=    24 1.00D-06 EigRej= -1.00D+00 NBFU=    10     2     3     9
 Leave Link  302 at Sat Jan 16 16:01:01 2016, MaxMem=    33554432 cpu:         0.0
 (Enter /opt/g09/g09/l303.exe)
 DipDrv:  MaxL=1.
 Leave Link  303 at Sat Jan 16 16:01:01 2016, MaxMem=    33554432 cpu:         0.0
 (Enter /opt/g09/g09/l401.exe)
 Initial guess from the checkpoint file:  "/opt/g09/scratch/Gau-11331.chk"
 B after Tr=     0.000000    0.000000    0.000000
         Rot=    1.000000    0.000000    0.000000    0.000000 Ang=   0.00 deg.
 Guess basis will be translated and rotated to current coordinates.
 JPrj=0 DoOrth=T DoCkMO=T.
 Initial guess orbital symmetries:
       Occupied  (A1) (B2) (A1) (B2) (A1) (A1) (B1) (B2) (B2) (A1)
                 (A1) (A2) (B1)
       Virtual   (B1) (A1) (A2) (B2) (A1) (B2) (B2) (A1) (A1) (B2)
                 (B2)
 The electronic state of the initial guess is 1-A1.
 Leave Link  401 at Sat Jan 16 16:01:01 2016, MaxMem=    33554432 cpu:         0.0
 (Enter /opt/g09/g09/l502.exe)
 Closed shell SCF:
 Using DIIS extrapolation, IDIIS=  1040.
 Overlap will be assumed to be unity.
 Two-electron integral symmetry not used.
 Keep J ints in memory in canonical form, NReq=888094.
 IVT=       79487 IEndB=       79487 NGot=    33554432 MDV=    33473461
 LenX=    33473461 LenY=    33472444
 Requested convergence on RMS density matrix=1.00D-08 within 128 cycles.
 Requested convergence on MAX density matrix=1.00D-06.
 Requested convergence on             energy=1.00D-06.
 No special actions if energy rises.
 FoFCou: FMM=F IPFlag=           0 FMFlag=           0 FMFlg1=           0
         NFxFlg=           0 DoJE=F BraDBF=F KetDBF=F FulRan=T
         wScrn=  0.000000 ICntrl=     600 IOpCl=  2 I1Cent=           0 NGrid=           0
         NMat0=    1 NMatS0=     54 NMatT0=    0 NMatD0=    1 NMtDS0=    0 NMtDT0=    0
 Symmetry not used in FoFCou.

 Cycle   1  Pass 1  IDiag  1:
 E= 0.870424869024617E-01
 DIIS: error= 1.31D-02 at cycle   1 NSaved=   1.
 NSaved= 1 IEnMin= 1 EnMin= 0.870424869024617E-01 IErMin= 1 ErrMin= 1.31D-02
 ErrMax= 1.31D-02  0.00D+00 EMaxC= 1.00D-01 BMatC= 5.53D-03 BMatP= 5.53D-03
 IDIUse=3 WtCom= 8.69D-01 WtEn= 1.31D-01
 Coeff-Com:  0.100D+01
 Coeff-En:   0.100D+01
 Coeff:      0.100D+01
 GapD=    2.000 DampG=2.000 DampE=0.500 DampFc=1.0000 IDamp=-1.
 RMSDP=5.93D-03 MaxDP=3.57D-02              OVMax= 0.00D+00

 Cycle   2  Pass 1  IDiag  3:
 E= 0.672038892368505E-01 Delta-E=       -0.019838597666 Rises=F Damp=F
 DIIS: error= 5.19D-03 at cycle   2 NSaved=   2.
 NSaved= 2 IEnMin= 2 EnMin= 0.672038892368505E-01 IErMin= 2 ErrMin= 5.19D-03
 ErrMax= 5.19D-03  0.00D+00 EMaxC= 1.00D-01 BMatC= 8.40D-04 BMatP= 5.53D-03
 IDIUse=3 WtCom= 9.48D-01 WtEn= 5.19D-02
 Coeff-Com: -0.519D+00 0.152D+01
 Coeff-En:   0.000D+00 0.100D+01
 Coeff:     -0.492D+00 0.149D+01
 Fock symm off for IB=2 I1=    1 I=   11 J=    6 Cut=1.00D-07 Err=4.26D-03
 Fock matrix is not symmetric: symmetry in diagonalization turned off.
 Gap=     0.349 Goal=   None    Shift=    0.000
 RMSDP=3.74D-03 MaxDP=2.06D-02 DE=-1.98D-02 OVMax= 2.74D-02

 Cycle   3  Pass 1  IDiag  3:
 E= 0.629288784811166E-01 Delta-E=       -0.004275010756 Rises=F Damp=F
 DIIS: error= 8.31D-04 at cycle   3 NSaved=   3.
 NSaved= 3 IEnMin= 3 EnMin= 0.629288784811166E-01 IErMin= 3 ErrMin= 8.31D-04
 ErrMax= 8.31D-04  0.00D+00 EMaxC= 1.00D-01 BMatC= 4.93D-05 BMatP= 8.40D-04
 IDIUse=3 WtCom= 9.92D-01 WtEn= 8.31D-03
 Coeff-Com:  0.243D+00-0.861D+00 0.162D+01
 Coeff-En:   0.000D+00 0.000D+00 0.100D+01
 Coeff:      0.241D+00-0.853D+00 0.161D+01
 Gap=     0.349 Goal=   None    Shift=    0.000
 RMSDP=1.26D-03 MaxDP=8.26D-03 DE=-4.28D-03 OVMax= 8.97D-03

 Cycle   4  Pass 1  IDiag  3:
 E= 0.625859610569819E-01 Delta-E=       -0.000342917424 Rises=F Damp=F
 DIIS: error= 3.11D-04 at cycle   4 NSaved=   4.
 NSaved= 4 IEnMin= 4 EnMin= 0.625859610569819E-01 IErMin= 4 ErrMin= 3.11D-04
 ErrMax= 3.11D-04  0.00D+00 EMaxC= 1.00D-01 BMatC= 3.44D-06 BMatP= 4.93D-05
 IDIUse=3 WtCom= 9.97D-01 WtEn= 3.11D-03
 Coeff-Com: -0.914D-01 0.349D+00-0.865D+00 0.161D+01
 Coeff-En:   0.000D+00 0.000D+00 0.000D+00 0.100D+01
 Coeff:     -0.911D-01 0.348D+00-0.863D+00 0.161D+01
 Gap=     0.350 Goal=   None    Shift=    0.000
 RMSDP=4.13D-04 MaxDP=2.66D-03 DE=-3.43D-04 OVMax= 4.42D-03

 Cycle   5  Pass 1  IDiag  3:
 E= 0.625562098439332E-01 Delta-E=       -0.000029751213 Rises=F Damp=F
 DIIS: error= 1.13D-04 at cycle   5 NSaved=   5.
 NSaved= 5 IEnMin= 5 EnMin= 0.625562098439332E-01 IErMin= 5 ErrMin= 1.13D-04
 ErrMax= 1.13D-04  0.00D+00 EMaxC= 1.00D-01 BMatC= 2.33D-07 BMatP= 3.44D-06
 IDIUse=3 WtCom= 9.99D-01 WtEn= 1.13D-03
 Coeff-Com:  0.223D-01-0.887D-01 0.252D+00-0.703D+00 0.152D+01
 Coeff-En:   0.000D+00 0.000D+00 0.000D+00 0.000D+00 0.100D+01
 Coeff:      0.223D-01-0.886D-01 0.252D+00-0.702D+00 0.152D+01
 Gap=     0.350 Goal=   None    Shift=    0.000
 RMSDP=1.28D-04 MaxDP=9.22D-04 DE=-2.98D-05 OVMax= 1.47D-03

 Cycle   6  Pass 1  IDiag  3:
 E= 0.625537791411119E-01 Delta-E=       -0.000002430703 Rises=F Damp=F
 DIIS: error= 3.31D-05 at cycle   6 NSaved=   6.
 NSaved= 6 IEnMin= 6 EnMin= 0.625537791411119E-01 IErMin= 6 ErrMin= 3.31D-05
 ErrMax= 3.31D-05  0.00D+00 EMaxC= 1.00D-01 BMatC= 1.85D-08 BMatP= 2.33D-07
 IDIUse=1 WtCom= 1.00D+00 WtEn= 0.00D+00
 Coeff-Com: -0.135D-01 0.548D-01-0.163D+00 0.490D+00-0.125D+01 0.188D+01
 Coeff:     -0.135D-01 0.548D-01-0.163D+00 0.490D+00-0.125D+01 0.188D+01
 Gap=     0.350 Goal=   None    Shift=    0.000
 RMSDP=4.35D-05 MaxDP=3.28D-04 DE=-2.43D-06 OVMax= 5.15D-04

 Cycle   7  Pass 1  IDiag  3:
 E= 0.625535595196283E-01 Delta-E=       -0.000000219621 Rises=F Damp=F
 DIIS: error= 5.31D-06 at cycle   7 NSaved=   7.
 NSaved= 7 IEnMin= 7 EnMin= 0.625535595196283E-01 IErMin= 7 ErrMin= 5.31D-06
 ErrMax= 5.31D-06  0.00D+00 EMaxC= 1.00D-01 BMatC= 7.01D-10 BMatP= 1.85D-08
 IDIUse=1 WtCom= 1.00D+00 WtEn= 0.00D+00
 Coeff-Com:  0.497D-02-0.205D-01 0.627D-01-0.195D+00 0.519D+00-0.923D+00
 Coeff-Com:  0.155D+01
 Coeff:      0.497D-02-0.205D-01 0.627D-01-0.195D+00 0.519D+00-0.923D+00
 Coeff:      0.155D+01
 Gap=     0.350 Goal=   None    Shift=    0.000
 RMSDP=7.51D-06 MaxDP=5.42D-05 DE=-2.20D-07 OVMax= 8.96D-05

 Cycle   8  Pass 1  IDiag  3:
 E= 0.625535526658183E-01 Delta-E=       -0.000000006854 Rises=F Damp=F
 DIIS: error= 6.78D-07 at cycle   8 NSaved=   8.
 NSaved= 8 IEnMin= 8 EnMin= 0.625535526658183E-01 IErMin= 8 ErrMin= 6.78D-07
 ErrMax= 6.78D-07  0.00D+00 EMaxC= 1.00D-01 BMatC= 2.74D-11 BMatP= 7.01D-10
 IDIUse=1 WtCom= 1.00D+00 WtEn= 0.00D+00
 Coeff-Com: -0.996D-03 0.418D-02-0.131D-01 0.420D-01-0.116D+00 0.226D+00
 Coeff-Com: -0.519D+00 0.138D+01
 Coeff:     -0.996D-03 0.418D-02-0.131D-01 0.420D-01-0.116D+00 0.226D+00
 Coeff:     -0.519D+00 0.138D+01
 Gap=     0.350 Goal=   None    Shift=    0.000
 RMSDP=1.01D-06 MaxDP=5.75D-06 DE=-6.85D-09 OVMax= 9.36D-06

 Cycle   9  Pass 1  IDiag  3:
 E= 0.625535524665253E-01 Delta-E=       -0.000000000199 Rises=F Damp=F
 DIIS: error= 1.62D-07 at cycle   9 NSaved=   9.
 NSaved= 9 IEnMin= 9 EnMin= 0.625535524665253E-01 IErMin= 9 ErrMin= 1.62D-07
 ErrMax= 1.62D-07  0.00D+00 EMaxC= 1.00D-01 BMatC= 1.95D-12 BMatP= 2.74D-11
 IDIUse=1 WtCom= 1.00D+00 WtEn= 0.00D+00
 Coeff-Com:  0.136D-03-0.598D-03 0.195D-02-0.671D-02 0.199D-01-0.463D-01
 Coeff-Com:  0.145D+00-0.650D+00 0.154D+01
 Coeff:      0.136D-03-0.598D-03 0.195D-02-0.671D-02 0.199D-01-0.463D-01
 Coeff:      0.145D+00-0.650D+00 0.154D+01
 Gap=     0.350 Goal=   None    Shift=    0.000
 RMSDP=3.21D-07 MaxDP=2.08D-06 DE=-1.99D-10 OVMax= 3.39D-06

 Cycle  10  Pass 1  IDiag  3:
 E= 0.625535524517318E-01 Delta-E=       -0.000000000015 Rises=F Damp=F
 DIIS: error= 2.50D-08 at cycle  10 NSaved=  10.
 NSaved=10 IEnMin=10 EnMin= 0.625535524517318E-01 IErMin=10 ErrMin= 2.50D-08
 ErrMax= 2.50D-08  0.00D+00 EMaxC= 1.00D-01 BMatC= 3.74D-14 BMatP= 1.95D-12
 IDIUse=1 WtCom= 1.00D+00 WtEn= 0.00D+00
 Coeff-Com: -0.182D-04 0.937D-04-0.351D-03 0.142D-02-0.473D-02 0.131D-01
 Coeff-Com: -0.490D-01 0.252D+00-0.688D+00 0.148D+01
 Coeff:     -0.182D-04 0.937D-04-0.351D-03 0.142D-02-0.473D-02 0.131D-01
 Coeff:     -0.490D-01 0.252D+00-0.688D+00 0.148D+01
 Gap=     0.350 Goal=   None    Shift=    0.000
 RMSDP=3.30D-08 MaxDP=1.35D-07 DE=-1.48D-11 OVMax= 3.23D-07

 Cycle  11  Pass 1  IDiag  3:
 E= 0.625535524514049E-01 Delta-E=        0.000000000000 Rises=F Damp=F
 DIIS: error= 2.96D-09 at cycle  11 NSaved=  11.
 NSaved=11 IEnMin=11 EnMin= 0.625535524514049E-01 IErMin=11 ErrMin= 2.96D-09
 ErrMax= 2.96D-09  0.00D+00 EMaxC= 1.00D-01 BMatC= 5.50D-16 BMatP= 3.74D-14
 IDIUse=1 WtCom= 1.00D+00 WtEn= 0.00D+00
 Coeff-Com:  0.200D-05-0.145D-04 0.659D-04-0.312D-03 0.115D-02-0.361D-02
 Coeff-Com:  0.148D-01-0.806D-01 0.228D+00-0.553D+00 0.139D+01
 Coeff:      0.200D-05-0.145D-04 0.659D-04-0.312D-03 0.115D-02-0.361D-02
 Coeff:      0.148D-01-0.806D-01 0.228D+00-0.553D+00 0.139D+01
 Gap=     0.350 Goal=   None    Shift=    0.000
 RMSDP=3.59D-09 MaxDP=1.73D-08 DE=-3.27D-13 OVMax= 2.94D-08

 Cycle  12  Pass 2  IDiag  1:
 SCF Done:  E(RAM1) =  0.625535524514E-01 A.U. after   12 cycles
            NFock= 11  Conv=0.36D-08     -V/T= 1.0043
 KE=-1.460363339485D+01 PE=-1.572817869505D+02 EE= 7.741218195350D+01
 Leave Link  502 at Sat Jan 16 16:01:01 2016, MaxMem=    33554432 cpu:         0.0
 (Enter /opt/g09/g09/l701.exe)
 Compute integral first derivatives.
 ... and contract with generalized density number  0.
 Leave Link  701 at Sat Jan 16 16:01:01 2016, MaxMem=    33554432 cpu:         0.0
 (Enter /opt/g09/g09/l702.exe)
 L702 exits ... SP integral derivatives will be done elsewhere.
 Leave Link  702 at Sat Jan 16 16:01:01 2016, MaxMem=    33554432 cpu:         0.0
 (Enter /opt/g09/g09/l703.exe)
 Compute integral first derivatives, UseDBF=F ICtDFT=           0.
 Integral derivatives from FoFJK, PRISM(SPDF).
 Calling FoFJK, ICntrl=      2127 FMM=F ISym2X=1 I1Cent= 0 IOpClX= 0 NMat=1 NMatS=1 NMatT=0.
 FoFJK:  IHMeth= 8 ICntrl=    2127 DoSepK=F KAlg= 0 I1Cent=   0 FoldK=F
 IRaf=         0 NMat=   1 IRICut=       1 DoRegI=T DoRafI=F ISym2E= 1.
 FoFCou: FMM=F IPFlag=           0 FMFlag=      100000 FMFlg1=         800
         NFxFlg=           0 DoJE=F BraDBF=F KetDBF=F FulRan=T
         wScrn=  0.000000 ICntrl=    2127 IOpCl=  0 I1Cent=           0 NGrid=           0
         NMat0=    1 NMatS0=      1 NMatT0=    0 NMatD0=    1 NMtDS0=    0 NMtDT0=    0
 Symmetry not used in FoFCou.
 Leave Link  703 at Sat Jan 16 16:01:01 2016, MaxMem=    33554432 cpu:         0.0
 (Enter /opt/g09/g09/l716.exe)
 Dipole        =-7.43420909D-17 7.99360578D-15 5.64324527D-01
 ***** Axes restored to original set *****
 -------------------------------------------------------------------
 Center     Atomic                   Forces (Hartrees/Bohr)
 Number     Number              X              Y              Z
 -------------------------------------------------------------------
      1        6          -0.032640089   -0.024521984    0.000000000
      2        6           0.066688029   -0.047646879    0.000000000
      3       16          -0.063260027    0.000000000    0.000000000
      4        6           0.066688029    0.047646879    0.000000000
      5        6          -0.032640089    0.024521984    0.000000000
      6        1          -0.001038377    0.003589313    0.000000000
[...]
     21 -0.119617D-01 -0.108657D-01 -0.286340D-02  0.442254D-02 -0.155914D-02
     22 -0.123352D-01 -0.119617D-01  0.784968D-02 -0.197633D-02 -0.587335D-02
     23  0.000000D+00  0.000000D+00  0.000000D+00  0.000000D+00  0.000000D+00
     24  0.000000D+00  0.000000D+00  0.000000D+00  0.000000D+00  0.000000D+00
     25  0.000000D+00  0.000000D+00  0.000000D+00  0.000000D+00  0.000000D+00
     26  0.000000D+00  0.000000D+00  0.000000D+00  0.000000D+00  0.000000D+00
     27  0.000000D+00  0.000000D+00  0.000000D+00  0.000000D+00  0.000000D+00
     28  0.000000D+00  0.000000D+00  0.000000D+00  0.000000D+00  0.000000D+00
     29  0.000000D+00  0.000000D+00  0.000000D+00  0.000000D+00  0.000000D+00
     30  0.000000D+00  0.000000D+00  0.000000D+00  0.000000D+00  0.000000D+00
     31  0.000000D+00  0.000000D+00  0.000000D+00  0.000000D+00  0.000000D+00
     32  0.000000D+00  0.000000D+00  0.000000D+00  0.000000D+00  0.000000D+00
     33  0.000000D+00  0.000000D+00  0.000000D+00  0.000000D+00  0.000000D+00
     34  0.000000D+00  0.000000D+00  0.000000D+00  0.000000D+00  0.000000D+00
     35  0.000000D+00  0.000000D+00  0.000000D+00  0.000000D+00  0.000000D+00
     36  0.000000D+00  0.000000D+00  0.000000D+00  0.000000D+00  0.000000D+00
     37  0.000000D+00  0.000000D+00  0.000000D+00  0.000000D+00  0.000000D+00
     38  0.000000D+00  0.000000D+00  0.000000D+00  0.000000D+00  0.000000D+00
               16            17            18            19            20 
     16  0.111210D+00
     17 -0.673513D-01  0.103345D+00
     18  0.309695D-01 -0.497580D-01  0.719374D-01
     19  0.363818D-01 -0.535870D-01 -0.221794D-01  0.757664D-01
     20  0.117462D-01 -0.463160D-01  0.229532D-01  0.233628D-01  0.866803D-01
     21 -0.962493D-03  0.243671D-01 -0.121334D-01 -0.122338D-01 -0.433686D-01
     22 -0.107837D-01  0.219488D-01 -0.108198D-01 -0.111290D-01 -0.433117D-01
     23  0.000000D+00  0.000000D+00  0.000000D+00  0.000000D+00  0.000000D+00
     24  0.000000D+00  0.000000D+00  0.000000D+00  0.000000D+00  0.000000D+00
     25  0.000000D+00  0.000000D+00  0.000000D+00  0.000000D+00  0.000000D+00
     26  0.000000D+00  0.000000D+00  0.000000D+00  0.000000D+00  0.000000D+00
     27  0.000000D+00  0.000000D+00  0.000000D+00  0.000000D+00  0.000000D+00
     28  0.000000D+00  0.000000D+00  0.000000D+00  0.000000D+00  0.000000D+00
     29  0.000000D+00  0.000000D+00  0.000000D+00  0.000000D+00  0.000000D+00
     30  0.000000D+00  0.000000D+00  0.000000D+00  0.000000D+00  0.000000D+00
     31  0.000000D+00  0.000000D+00  0.000000D+00  0.000000D+00  0.000000D+00
     32  0.000000D+00  0.000000D+00  0.000000D+00  0.000000D+00  0.000000D+00
     33  0.000000D+00  0.000000D+00  0.000000D+00  0.000000D+00  0.000000D+00
     34  0.000000D+00  0.000000D+00  0.000000D+00  0.000000D+00  0.000000D+00
     35  0.000000D+00  0.000000D+00  0.000000D+00  0.000000D+00  0.000000D+00
     36  0.000000D+00  0.000000D+00  0.000000D+00  0.000000D+00  0.000000D+00
     37  0.000000D+00  0.000000D+00  0.000000D+00  0.000000D+00  0.000000D+00
     38  0.000000D+00  0.000000D+00  0.000000D+00  0.000000D+00  0.000000D+00
               21            22            23            24            25 
     21  0.748019D-01
     22 -0.314334D-01  0.747451D-01
     23  0.000000D+00  0.000000D+00  0.144176D-01
     24  0.000000D+00  0.000000D+00  0.239692D-02  0.109986D-01
     25  0.000000D+00  0.000000D+00  0.570476D-02 -0.448052D-02  0.103472D-01
     26  0.000000D+00  0.000000D+00 -0.631587D-02  0.412117D-02  0.161908D-03
     27  0.000000D+00  0.000000D+00 -0.102552D-01 -0.468906D-02 -0.119033D-02
     28  0.000000D+00  0.000000D+00 -0.498302D-02 -0.264519D-02  0.158291D-02
     29  0.000000D+00  0.000000D+00 -0.176761D-02  0.201061D-02 -0.571275D-02
     30  0.000000D+00  0.000000D+00  0.350456D-02  0.405448D-02 -0.293951D-02
     31  0.000000D+00  0.000000D+00 -0.117600D-01  0.336201D-03 -0.685496D-02
     32  0.000000D+00  0.000000D+00 -0.154799D-03 -0.796823D-02  0.297834D-02
     33  0.000000D+00  0.000000D+00  0.574699D-02 -0.308558D-02  0.615702D-02
     34  0.000000D+00  0.000000D+00  0.251519D-02  0.862012D-03 -0.274228D-03
     35  0.000000D+00  0.000000D+00  0.156208D-02  0.490955D-02 -0.384999D-02
     36  0.000000D+00  0.000000D+00 -0.384999D-02  0.281146D-02 -0.669682D-02
     37  0.000000D+00  0.000000D+00  0.490955D-02  0.820658D-03  0.281146D-02
     38  0.000000D+00  0.000000D+00 -0.502512D-03 -0.127744D-02 -0.353647D-04
               26            27            28            29            30 
     26  0.105990D-01
     27  0.437581D-02  0.131629D-01
     28  0.392074D-02  0.433233D-02  0.817550D-02
     29 -0.193453D-02  0.433233D-02 -0.206388D-02  0.817550D-02
     30 -0.238960D-02 -0.449822D-02  0.177929D-02  0.177929D-02  0.805679D-02
     31  0.524127D-02  0.385897D-02  0.345953D-02 -0.919313D-03 -0.131874D-02
     32 -0.483510D-02 -0.151482D-02  0.120250D-02 -0.456697D-02 -0.184966D-02
     33 -0.267555D-02  0.385897D-02 -0.919313D-03  0.345953D-02 -0.131874D-02
     34 -0.192741D-02 -0.151482D-02 -0.456697D-02  0.120250D-02 -0.184966D-02
     35 -0.502512D-03 -0.102552D-01 -0.176761D-02 -0.498302D-02  0.350456D-02
     36 -0.353647D-04 -0.119033D-02 -0.571275D-02  0.158291D-02 -0.293951D-02
     37 -0.127744D-02 -0.468906D-02  0.201061D-02 -0.264519D-02  0.405448D-02
     38 -0.810289D-03  0.437581D-02 -0.193453D-02  0.392074D-02 -0.238960D-02
               31            32            33            34            35 
     31  0.130521D-01
     32  0.137394D-02  0.891736D-02
     33 -0.107895D-01 -0.226214D-02  0.130521D-01
     34 -0.226214D-02 -0.666091D-03  0.137394D-02  0.891736D-02
     35  0.574699D-02  0.251519D-02 -0.117600D-01 -0.154799D-03  0.144176D-01
     36  0.615702D-02 -0.274228D-03 -0.685496D-02  0.297834D-02  0.570476D-02
     37 -0.308558D-02  0.862012D-03  0.336201D-03 -0.796823D-02  0.239692D-02
     38 -0.267555D-02 -0.192741D-02  0.524127D-02 -0.483510D-02 -0.631587D-02
               36            37            38 
     36  0.103472D-01
     37 -0.448052D-02  0.109986D-01
     38  0.161908D-03  0.412117D-02  0.105990D-01
 Leave Link  716 at Sat Jan 16 16:01:02 2016, MaxMem=    33554432 cpu:         0.0
 (Enter /opt/g09/g09/l103.exe)

 GradGradGradGradGradGradGradGradGradGradGradGradGradGradGradGradGradGrad
 Berny optimization.
 Red2BG is reusing G-inverse.
 Internal  Forces:  Max     0.000150498 RMS     0.000043913
 Search for a local minimum.
 Step number   1 out of a maximum of    2
 All quantities printed in internal units (Hartrees-Bohrs-Radians)
 Second derivative matrix not updated -- analytic derivatives used.
 ITU=  0
     Eigenvalues ---    0.01247   0.01711   0.02385   0.02845   0.04276
     Eigenvalues ---    0.04959   0.08404   0.08631   0.10035   0.10403
     Eigenvalues ---    0.18085   0.21682   0.25695   0.27574   0.37020
     Eigenvalues ---    0.37400   0.38121   0.38264   0.48582   0.58881
     Eigenvalues ---    0.72953
 Angle between quadratic step and forces=  44.99 degrees.
 Linear search not attempted -- first point.
 Iteration  1 RMS(Cart)=  0.00015837 RMS(Int)=  0.00000003
 Iteration  2 RMS(Cart)=  0.00000003 RMS(Int)=  0.00000000
 ITry= 1 IFail=0 DXMaxC= 4.06D-04 DCOld= 1.00D+10 DXMaxT= 3.00D-01 DXLimC= 3.00D+00 Rises=F
 ClnCor:  largest displacement from symmetrization is 2.51D-13 for atom     6.
 Variable       Old X    -DE/DX   Delta X   Delta X   Delta X     New X
                                 (Linear)    (Quad)   (Total)
    R1        2.60277  -0.00015   0.00000  -0.00021  -0.00021   2.60256
    R2        2.70615   0.00006   0.00000   0.00025   0.00025   2.70639
    R3        2.06268  -0.00001   0.00000  -0.00003  -0.00003   2.06265
    R4        3.16036  -0.00009   0.00000  -0.00033  -0.00033   3.16003
    R5        2.05652  -0.00001   0.00000   0.00000   0.00000   2.05652
    R6        3.16036  -0.00009   0.00000  -0.00033  -0.00033   3.16003
    R7        2.60277  -0.00015   0.00000  -0.00021  -0.00021   2.60256
    R8        2.05652  -0.00001   0.00000   0.00000   0.00000   2.05652
    R9        2.06268  -0.00001   0.00000  -0.00003  -0.00003   2.06265
    A1        1.94652  -0.00001   0.00000  -0.00008  -0.00008   1.94644
    A2        2.18757   0.00003   0.00000   0.00036   0.00036   2.18793
    A3        2.14910  -0.00002   0.00000  -0.00028  -0.00028   2.14882
    A4        1.94705   0.00000   0.00000   0.00003   0.00003   1.94708
    A5        2.19391  -0.00003   0.00000  -0.00037  -0.00037   2.19354
    A6        2.14222   0.00004   0.00000   0.00034   0.00034   2.14256
    A7        1.63765   0.00002   0.00000   0.00009   0.00009   1.63774
    A8        1.94705   0.00000   0.00000   0.00003   0.00003   1.94708
    A9        2.14222   0.00004   0.00000   0.00034   0.00034   2.14256
   A10        2.19391  -0.00003   0.00000  -0.00037  -0.00037   2.19354
   A11        1.94652  -0.00001   0.00000  -0.00008  -0.00008   1.94644
   A12        2.14910  -0.00002   0.00000  -0.00028  -0.00028   2.14882
   A13        2.18757   0.00003   0.00000   0.00036   0.00036   2.18793
    D1        0.00000   0.00000   0.00000   0.00000   0.00000   0.00000
    D2        3.14159   0.00000   0.00000   0.00000   0.00000   3.14159
    D3        3.14159   0.00000   0.00000   0.00000   0.00000   3.14159
    D4        0.00000   0.00000   0.00000   0.00000   0.00000   0.00000
    D5        0.00000   0.00000   0.00000   0.00000   0.00000   0.00000
    D6        3.14159   0.00000   0.00000   0.00000   0.00000   3.14159
    D7        3.14159   0.00000   0.00000   0.00000   0.00000   3.14159
    D8        0.00000   0.00000   0.00000   0.00000   0.00000   0.00000
    D9        0.00000   0.00000   0.00000   0.00000   0.00000   0.00000
   D10        3.14159   0.00000   0.00000   0.00000   0.00000   3.14159
   D11        0.00000   0.00000   0.00000   0.00000   0.00000   0.00000
   D12        3.14159   0.00000   0.00000   0.00000   0.00000   3.14159
   D13        0.00000   0.00000   0.00000   0.00000   0.00000   0.00000
   D14        3.14159   0.00000   0.00000   0.00000   0.00000   3.14159
   D15        3.14159   0.00000   0.00000   0.00000   0.00000   3.14159
   D16        0.00000   0.00000   0.00000   0.00000   0.00000   0.00000
         Item               Value     Threshold  Converged?
 Maximum Force            0.000150     0.000450     YES
 RMS     Force            0.000044     0.000300     YES
 Maximum Displacement     0.000406     0.001800     YES
 RMS     Displacement     0.000158     0.001200     YES
 Predicted change in Energy=-1.097972D-07
 Optimization completed.
    -- Stationary point found.
                           ----------------------------
                           !   Optimized Parameters   !
                           ! (Angstroms and Degrees)  !
 --------------------------                            --------------------------
 ! Name  Definition              Value          Derivative Info.                !
 --------------------------------------------------------------------------------
 ! R1    R(1,2)                  1.3773         -DE/DX =   -0.0002              !
 ! R2    R(1,5)                  1.432          -DE/DX =    0.0001              !
 ! R3    R(1,9)                  1.0915         -DE/DX =    0.0                 !
 ! R4    R(2,3)                  1.6724         -DE/DX =   -0.0001              !
 ! R5    R(2,8)                  1.0883         -DE/DX =    0.0                 !
 ! R6    R(3,4)                  1.6724         -DE/DX =   -0.0001              !
 ! R7    R(4,5)                  1.3773         -DE/DX =   -0.0002              !
 ! R8    R(4,7)                  1.0883         -DE/DX =    0.0                 !
 ! R9    R(5,6)                  1.0915         -DE/DX =    0.0                 !
 ! A1    A(2,1,5)              111.5272         -DE/DX =    0.0                 !
 ! A2    A(2,1,9)              125.3386         -DE/DX =    0.0                 !
 ! A3    A(5,1,9)              123.1341         -DE/DX =    0.0                 !
 ! A4    A(1,2,3)              111.5577         -DE/DX =    0.0                 !
 ! A5    A(1,2,8)              125.702          -DE/DX =    0.0                 !
 ! A6    A(3,2,8)              122.7403         -DE/DX =    0.0                 !
 ! A7    A(2,3,4)               93.8302         -DE/DX =    0.0                 !
 ! A8    A(3,4,5)              111.5577         -DE/DX =    0.0                 !
 ! A9    A(3,4,7)              122.7403         -DE/DX =    0.0                 !
 ! A10   A(5,4,7)              125.702          -DE/DX =    0.0                 !
 ! A11   A(1,5,4)              111.5272         -DE/DX =    0.0                 !
 ! A12   A(1,5,6)              123.1341         -DE/DX =    0.0                 !
 ! A13   A(4,5,6)              125.3386         -DE/DX =    0.0                 !
 ! D1    D(5,1,2,3)              0.0            -DE/DX =    0.0                 !
 ! D2    D(5,1,2,8)            180.0            -DE/DX =    0.0                 !
 ! D3    D(9,1,2,3)            180.0            -DE/DX =    0.0                 !
 ! D4    D(9,1,2,8)              0.0            -DE/DX =    0.0                 !
 ! D5    D(2,1,5,4)              0.0            -DE/DX =    0.0                 !
 ! D6    D(2,1,5,6)            180.0            -DE/DX =    0.0                 !
 ! D7    D(9,1,5,4)            180.0            -DE/DX =    0.0                 !
 ! D8    D(9,1,5,6)              0.0            -DE/DX =    0.0                 !
 ! D9    D(1,2,3,4)              0.0            -DE/DX =    0.0                 !
 ! D10   D(8,2,3,4)            180.0            -DE/DX =    0.0                 !
 ! D11   D(2,3,4,5)              0.0            -DE/DX =    0.0                 !
 ! D12   D(2,3,4,7)            180.0            -DE/DX =    0.0                 !
 ! D13   D(3,4,5,1)              0.0            -DE/DX =    0.0                 !
 ! D14   D(3,4,5,6)            180.0            -DE/DX =    0.0                 !
 ! D15   D(7,4,5,1)            180.0            -DE/DX =    0.0                 !
 ! D16   D(7,4,5,6)              0.0            -DE/DX =    0.0                 !
 --------------------------------------------------------------------------------
 GradGradGradGradGradGradGradGradGradGradGradGradGradGradGradGradGradGrad

 Leave Link  103 at Sat Jan 16 16:01:02 2016, MaxMem=    33554432 cpu:         0.0
 (Enter /opt/g09/g09/l9999.exe)
 1\1\GINC-LINUX-CBNE\Freq\RAM1\ZDO\C4H4S1\DUSTIN\16-Jan-2016\0\\#P Geom
 =AllCheck Guess=TCheck SCRF=Check GenChk RAM1/ZDO Freq\\AM1-Reparam In
 put\\0,1\C,0.9173550757,-0.7160158678,0.\C,-0.3638932332,-1.2214169875
 ,0.\S,-1.5062722911,0.,0.\C,-0.3638932332,1.2214169875,0.\C,0.91735507
 57,0.7160158678,0.\H,1.8313880282,1.3126427803,0.\H,-0.6303872251,2.27
 65449385,0.\H,-0.6303872251,-2.2765449385,0.\H,1.8313880282,-1.3126427
 803,0.\\Version=ES64L-G09RevD.01\State=1-A1\HF=0.0436025\RMSD=2.447e-1
 0\RMSF=7.478e-05\ZeroPoint=0.0682006\Thermal=0.0722376\Dipole=-0.13531
 15,0.,0.\DipoleDeriv=-0.5100962,0.071573,0.,-0.4543325,-0.0539219,0.,0
 .,0.,-0.1175903,0.7189863,-0.2292847,0.,-0.4852218,-0.286178,0.,0.,0.,
 -0.3704683,-0.890808,0.,0.,0.,-0.0753706,0.,0.,0.,0.2983276,0.7189863,
 0.2292847,0.,0.4852218,-0.286178,0.,0.,0.,-0.3704683,-0.5100962,-0.071
 573,0.,0.4543325,-0.0539219,0.,0.,0.,-0.1175903,0.1892049,0.0558059,0.
 ,0.0856075,0.1102605,0.,0.,0.,0.1525651,0.0473138,-0.0533844,0.,-0.070
 0801,0.2675231,0.,0.,0.,0.1863326,0.0473138,0.0533844,0.,0.0700801,0.2
 675231,0.,0.,0.,0.1863326,0.1892049,-0.0558059,0.,-0.0856075,0.1102605
 ,0.,0.,0.,0.1525651\Polar=69.0177376,0.,56.3243625,0.,0.,9.7154224\Hyp
 erPolar=56.8933287,0.,52.7395159,0.,0.,0.,0.,16.5179911,0.,0.\PG=C02V 
 [C2(S1),SGV(C4H4)]\NImag=0\\0.86812468,-0.05386067,0.70273652,0.,0.,0.
 14435729,-0.43252401,-0.08866734,0.,0.61802548,-0.17598013,-0.13356000
 ,0.,0.22328679,0.68617310,0.,0.,-0.06902523,0.,0.,0.12171349,-0.098205
 06,-0.01497573,0.,-0.06819883,0.04971455,0.,0.33783605,0.03499533,-0.0
 0302080,0.,0.07183530,-0.11105667,0.,0.,0.27411311,0.,0.,0.01126984,0.
 ,0.,-0.04082617,0.,0.,0.04204053,0.00689531,0.10871688,0.,-0.03780532,
 0.01584339,0.,-0.06819883,-0.07183530,0.,0.61802548,0.05283670,-0.0614
 4137,0.,-0.01584339,-0.06502531,0.,-0.04971455,-0.11105667,0.,-0.22328
 679,0.68617310,0.,0.,0.00916178,0.,0.,0.00574779,0.,0.,-0.04082617,0.,
 0.,0.12171349,-0.08717142,-0.04620687,0.,0.00689531,-0.05283670,0.,-0.
 09820506,-0.03499533,0.,-0.43252401,0.17598013,0.,0.86812468,0.0462068
 7,-0.34086478,0.,-0.10871688,-0.06144137,0.,0.01497573,-0.00302080,0.,
 0.08866734,-0.13356000,0.,0.05386067,0.70273652,0.,0.,-0.07202162,0.,0
 .,0.00916178,0.,0.,0.01126984,0.,0.,-0.06902523,0.,0.,0.14435729,0.000
 49073,-0.00579650,0.,0.00009972,0.00115798,0.,-0.00160168,0.00059416,0
 .,-0.03770122,-0.01102586,0.,-0.24011051,-0.13359332,0.,0.27822306,-0.
 02517346,-0.02603995,0.,-0.00021939,-0.00339339,0.,0.00291825,0.000244
 90,0.,0.00753401,0.00680070,0.,-0.13298697,-0.12418074,0.,0.14845392,0
 .14646336,0.,0.,0.00487820,0.,0.,0.00290137,0.,0.,0.00479632,0.,0.,0.0
 0640733,0.,0.,-0.03983641,0.,0.,0.02308108,-0.00399395,0.00057183,0.,-
 0.00144327,-0.00369995,0.,-0.00091260,-0.01829783,0.,-0.04734741,0.068
 51181,0.,-0.01350604,0.03337506,0.,0.00018708,0.00001847,0.,0.06640841
 ,0.00081458,0.00063270,0.,-0.00233710,-0.00089697,0.,-0.00311181,-0.02
 322403,0.,0.07180435,-0.31759998,0.,0.01282615,-0.01426165,0.,0.000313
 76,0.00037533,0.,-0.08071915,0.35557030,0.,0.,0.00578897,0.,0.,0.00177
 030,0.,0.,0.00373927,0.,0.,-0.03784992,0.,0.,0.00542703,0.,0.,-0.00158
 826,0.,0.,0.02254988,-0.01350604,-0.03337506,0.,-0.04734741,-0.0685118
 1,0.,-0.00091260,0.01829783,0.,-0.00144327,0.00369995,0.,-0.00399395,-
 0.00057183,0.,0.00010279,-0.00055916,0.,0.00050496,0.00031944,0.,0.066
 40841,-0.01282615,-0.01426165,0.,-0.07180435,-0.31759998,0.,0.00311181
 ,-0.02322403,0.,0.00233710,-0.00089697,0.,-0.00081458,0.00063270,0.,-0
 .00008980,-0.00014142,0.,-0.00031944,-0.00045424,0.,0.08071915,0.35557
 030,0.,0.,0.00542703,0.,0.,-0.03784992,0.,0.,0.00373927,0.,0.,0.001770
 30,0.,0.,0.00578897,0.,0.,-0.00023462,0.,0.,0.00039718,0.,0.,0.0225498
 8,-0.24011051,0.13359332,0.,-0.03770122,0.01102586,0.,-0.00160168,-0.0
 0059416,0.,0.00009972,-0.00115798,0.,0.00049073,0.00579650,0.,0.000310
 03,0.00001434,0.,0.00010279,0.00008980,0.,0.00018708,-0.00031376,0.,0.
 27822306,0.13298697,-0.12418074,0.,-0.00753401,0.00680070,0.,-0.002918
 25,0.00024490,0.,0.00021939,-0.00339339,0.,0.02517346,-0.02603995,0.,-
 0.00001434,-0.00012884,0.,0.00055916,-0.00014142,0.,-0.00001847,0.0003
 7533,0.,-0.14845392,0.14646336,0.,0.,-0.03983641,0.,0.,0.00640733,0.,0
 .,0.00479632,0.,0.,0.00290137,0.,0.,0.00487820,0.,0.,-0.00040496,0.,0.
 ,-0.00023462,0.,0.,-0.00158826,0.,0.,0.02308108\\0.00013747,0.00016557
 ,0.,-0.00002146,-0.00012479,0.,-0.00015053,0.,0.,-0.00002146,0.0001247
 9,0.,0.00013747,-0.00016557,0.,-0.00000625,0.00002377,0.,-0.00003449,0
 .00000452,0.,-0.00003449,-0.00000452,0.,-0.00000625,-0.00002377,0.\\\@


 I MET A TRAVELLER FROM AN ANTIQUE LAND
 WHO SAID... TWO VAST AND TRUNKLESS LEGS OF STONE
 STAND IN THE DESERT..... NEAR THEM,  ON THE SAND,
 HALF SUNK,  A SHATTERED VISAGE LIES,  WHOSE FROWN,
 AND WRINKLED LIP,  AND SNEER OF COLD COMMAND
 TELL THAT ITS SCULPTOR WELL THOSE PASSIONS READ
 WHICH YET SURVIVE,  STAMPED ON THESE LIFELESS THINGS
 THE HAND THAT MOCKED THEM,  AND THE HEART THAT FED-
 AND ON THE PEDESTAL THESE WORDS APPEAR 
 MY NAME IS OZYMANDIAS, KING OF KINGS--   
 LOOK ON MY WORKS YE MIGHTY AND DESPAIR. 
 NOTHING BESIDE REMAINS,  ROUND THE DECAY 
 OF THAT COLOSSAL WRECK,  BOUNDLESS AND BARE
 THE LONE AND LEVEL SANDS STRETCH FAR AWAY.
                                    SHELLEY
 Job cpu time:       0 days  0 hours  0 minutes  0.3 seconds.
 File lengths (MBytes):  RWF=      5 Int=      0 D2E=      0 Chk=      2 Scr=      1
 Normal termination of Gaussian 09 at Sat Jan 16 16:01:02 2016.
