 Entering Gaussian System, Link 0=g09
 Input=ThiopheneAM1Opt.com
 Output=ThiopheneAM1Opt.log
 Initial command:
 /opt/g09/g09/l1.exe "/opt/g09/scratch/Gau-15286.inp" -scrdir="/opt/g09/scratch/"
 Entering Link 1 = /opt/g09/g09/l1.exe PID=     15287.
  
 Copyright (c) 1988,1990,1992,1993,1995,1998,2003,2009,2013,
            Gaussian, Inc.  All Rights Reserved.
  
 This is part of the Gaussian(R) 09 program.  It is based on
 the Gaussian(R) 03 system (copyright 2003, Gaussian, Inc.),
 the Gaussian(R) 98 system (copyright 1998, Gaussian, Inc.),
 the Gaussian(R) 94 system (copyright 1995, Gaussian, Inc.),
 the Gaussian 92(TM) system (copyright 1992, Gaussian, Inc.),
 the Gaussian 90(TM) system (copyright 1990, Gaussian, Inc.),
 the Gaussian 88(TM) system (copyright 1988, Gaussian, Inc.),
 the Gaussian 86(TM) system (copyright 1986, Carnegie Mellon
 University), and the Gaussian 82(TM) system (copyright 1983,
 Carnegie Mellon University). Gaussian is a federally registered
 trademark of Gaussian, Inc.
  
 This software contains proprietary and confidential information,
 including trade secrets, belonging to Gaussian, Inc.
  
 This software is provided under written license and may be
 used, copied, transmitted, or stored only in accord with that
 written license.
  
 The following legend is applicable only to US Government
 contracts under FAR:
  
                    RESTRICTED RIGHTS LEGEND
  
 Use, reproduction and disclosure by the US Government is
 subject to restrictions as set forth in subparagraphs (a)
 and (c) of the Commercial Computer Software - Restricted
 Rights clause in FAR 52.227-19.
  
 Gaussian, Inc.
 340 Quinnipiac St., Bldg. 40, Wallingford CT 06492
  
  
 ---------------------------------------------------------------
 Warning -- This program may not be used in any manner that
 competes with the business of Gaussian, Inc. or will provide
 assistance to any competitor of Gaussian, Inc.  The licensee
 of this program is prohibited from giving any competitor of
 Gaussian, Inc. access to this program.  By using this program,
 the user acknowledges that Gaussian, Inc. is engaged in the
 business of creating and licensing software in the field of
 computational chemistry and represents and warrants to the
 licensee that it is not a competitor of Gaussian, Inc. and that
 it will not use this program in any manner prohibited above.
 ---------------------------------------------------------------
  

 Cite this work as:
 Gaussian 09, Revision D.01,
 M. J. Frisch, G. W. Trucks, H. B. Schlegel, G. E. Scuseria, 
 M. A. Robb, J. R. Cheeseman, G. Scalmani, V. Barone, B. Mennucci, 
 G. A. Petersson, H. Nakatsuji, M. Caricato, X. Li, H. P. Hratchian, 
 A. F. Izmaylov, J. Bloino, G. Zheng, J. L. Sonnenberg, M. Hada, 
 M. Ehara, K. Toyota, R. Fukuda, J. Hasegawa, M. Ishida, T. Nakajima, 
 Y. Honda, O. Kitao, H. Nakai, T. Vreven, J. A. Montgomery, Jr., 
 J. E. Peralta, F. Ogliaro, M. Bearpark, J. J. Heyd, E. Brothers, 
 K. N. Kudin, V. N. Staroverov, T. Keith, R. Kobayashi, J. Normand, 
 K. Raghavachari, A. Rendell, J. C. Burant, S. S. Iyengar, J. Tomasi, 
 M. Cossi, N. Rega, J. M. Millam, M. Klene, J. E. Knox, J. B. Cross, 
 V. Bakken, C. Adamo, J. Jaramillo, R. Gomperts, R. E. Stratmann, 
 O. Yazyev, A. J. Austin, R. Cammi, C. Pomelli, J. W. Ochterski, 
 R. L. Martin, K. Morokuma, V. G. Zakrzewski, G. A. Voth, 
 P. Salvador, J. J. Dannenberg, S. Dapprich, A. D. Daniels, 
 O. Farkas, J. B. Foresman, J. V. Ortiz, J. Cioslowski, 
 and D. J. Fox, Gaussian, Inc., Wallingford CT, 2013.
 
 ******************************************
 Gaussian 09:  ES64L-G09RevD.01 24-Apr-2013
                10-Jan-2016 
 ******************************************
 ----------
 #P AM1 Opt
 ----------
 1/14=-1,18=20,19=15,26=1,38=1/1,3;
 2/9=110,12=2,17=6,18=5,40=1/2;
 3/5=2,16=1,25=1,41=700000,71=1/1,2,3;
 4/35=1/1;
 5/5=2,35=1,38=5/2;
 6/7=2,8=2,9=2,10=2,28=1/1;
 7//1,2,3,16;
 1/14=-1,18=20,19=15,26=1/3(2);
 2/9=110/2;
 99//99;
 2/9=110/2;
 3/5=2,16=1,25=1,41=700000,71=1,135=20/1,2,3;
 4/5=5,16=3,35=1/1;
 5/5=2,35=1,38=5/2;
 7//1,2,3,16;
 1/14=-1,18=20,19=15,26=1/3(-5);
 2/9=110/2;
 6/7=2,8=2,9=2,10=2,19=2,28=1/1;
 99/9=1/99;
 Leave Link    1 at Sun Jan 10 23:11:37 2016, MaxMem=           0 cpu:         0.0
 (Enter /opt/g09/g09/l101.exe)
 -----------------
 AM1-Reparam Input
 -----------------
 Symbolic Z-matrix:
 Charge =  0 Multiplicity = 1
 6                     0.95548  -0.71596   0. 
 6                    -0.34563  -1.09282   0. 
 16                   -1.15731   0.        0. 
 6                    -0.34563   1.09282   0. 
 6                     0.95548   0.71596   0. 
 1                     1.81044   1.36938   0. 
 1                    -0.84031   2.04688   0. 
 1                    -0.84031  -2.04688   0. 
 1                     1.81044  -1.36938   0. 
 
 NAtoms=      9 NQM=        9 NQMF=       0 NMMI=      0 NMMIF=      0
                NMic=       0 NMicF=      0.
                    Isotopes and Nuclear Properties:
 (Nuclear quadrupole moments (NQMom) in fm**2, nuclear magnetic moments (NMagM)
  in nuclear magnetons)

  Atom         1           2           3           4           5           6           7           8           9
 IAtWgt=          12          12          32          12          12           1           1           1           1
 AtmWgt=  12.0000000  12.0000000  31.9720718  12.0000000  12.0000000   1.0078250   1.0078250   1.0078250   1.0078250
 NucSpn=           0           0           0           0           0           1           1           1           1
 AtZEff=   0.0000000   0.0000000   0.0000000   0.0000000   0.0000000   0.0000000   0.0000000   0.0000000   0.0000000
 NQMom=    0.0000000   0.0000000   0.0000000   0.0000000   0.0000000   0.0000000   0.0000000   0.0000000   0.0000000
 NMagM=    0.0000000   0.0000000   0.0000000   0.0000000   0.0000000   2.7928460   2.7928460   2.7928460   2.7928460
 AtZNuc=   6.0000000   6.0000000  16.0000000   6.0000000   6.0000000   1.0000000   1.0000000   1.0000000   1.0000000
 Leave Link  101 at Sun Jan 10 23:11:37 2016, MaxMem=    33554432 cpu:         0.0
 (Enter /opt/g09/g09/l103.exe)

 GradGradGradGradGradGradGradGradGradGradGradGradGradGradGradGradGradGrad
 Berny optimization.
 Initialization pass.
                           ----------------------------
                           !    Initial Parameters    !
                           ! (Angstroms and Degrees)  !
 --------------------------                            --------------------------
 ! Name  Definition              Value          Derivative Info.                !
 --------------------------------------------------------------------------------
 ! R1    R(1,2)                  1.3546         estimate D2E/DX2                !
 ! R2    R(1,5)                  1.4319         estimate D2E/DX2                !
 ! R3    R(1,9)                  1.0761         estimate D2E/DX2                !
 ! R4    R(2,3)                  1.3613         estimate D2E/DX2                !
 ! R5    R(2,8)                  1.0747         estimate D2E/DX2                !
 ! R6    R(3,4)                  1.3613         estimate D2E/DX2                !
 ! R7    R(4,5)                  1.3546         estimate D2E/DX2                !
 ! R8    R(4,7)                  1.0747         estimate D2E/DX2                !
 ! R9    R(5,6)                  1.0761         estimate D2E/DX2                !
 ! A1    A(2,1,5)              106.1533         estimate D2E/DX2                !
 ! A2    A(2,1,9)              126.4573         estimate D2E/DX2                !
 ! A3    A(5,1,9)              127.3894         estimate D2E/DX2                !
 ! A4    A(1,2,3)              110.4494         estimate D2E/DX2                !
 ! A5    A(1,2,8)              133.5599         estimate D2E/DX2                !
 ! A6    A(3,2,8)              115.9907         estimate D2E/DX2                !
 ! A7    A(2,3,4)              106.7946         estimate D2E/DX2                !
 ! A8    A(3,4,5)              110.4494         estimate D2E/DX2                !
 ! A9    A(3,4,7)              115.9907         estimate D2E/DX2                !
 ! A10   A(5,4,7)              133.5599         estimate D2E/DX2                !
 ! A11   A(1,5,4)              106.1533         estimate D2E/DX2                !
 ! A12   A(1,5,6)              127.3894         estimate D2E/DX2                !
 ! A13   A(4,5,6)              126.4573         estimate D2E/DX2                !
 ! D1    D(5,1,2,3)              0.0            estimate D2E/DX2                !
 ! D2    D(5,1,2,8)            180.0            estimate D2E/DX2                !
 ! D3    D(9,1,2,3)            180.0            estimate D2E/DX2                !
 ! D4    D(9,1,2,8)              0.0            estimate D2E/DX2                !
 ! D5    D(2,1,5,4)              0.0            estimate D2E/DX2                !
 ! D6    D(2,1,5,6)            180.0            estimate D2E/DX2                !
 ! D7    D(9,1,5,4)            180.0            estimate D2E/DX2                !
 ! D8    D(9,1,5,6)              0.0            estimate D2E/DX2                !
 ! D9    D(1,2,3,4)              0.0            estimate D2E/DX2                !
 ! D10   D(8,2,3,4)            180.0            estimate D2E/DX2                !
 ! D11   D(2,3,4,5)              0.0            estimate D2E/DX2                !
 ! D12   D(2,3,4,7)            180.0            estimate D2E/DX2                !
 ! D13   D(3,4,5,1)              0.0            estimate D2E/DX2                !
 ! D14   D(3,4,5,6)            180.0            estimate D2E/DX2                !
 ! D15   D(7,4,5,1)            180.0            estimate D2E/DX2                !
 ! D16   D(7,4,5,6)              0.0            estimate D2E/DX2                !
 --------------------------------------------------------------------------------
 Trust Radius=3.00D-01 FncErr=1.00D-07 GrdErr=1.00D-07
 Number of steps in this run=     48 maximum allowed number of steps=    100.
 GradGradGradGradGradGradGradGradGradGradGradGradGradGradGradGradGradGrad

 Leave Link  103 at Sun Jan 10 23:11:37 2016, MaxMem=    33554432 cpu:         0.0
 (Enter /opt/g09/g09/l202.exe)
                          Input orientation:                          
 ---------------------------------------------------------------------
 Center     Atomic      Atomic             Coordinates (Angstroms)
 Number     Number       Type             X           Y           Z
 ---------------------------------------------------------------------
      1          6           0        0.955475   -0.715963    0.000000
      2          6           0       -0.345627   -1.092818    0.000000
      3         16           0       -1.157305    0.000000    0.000000
      4          6           0       -0.345627    1.092818    0.000000
      5          6           0        0.955475    0.715963    0.000000
      6          1           0        1.810438    1.369382    0.000000
      7          1           0       -0.840307    2.046884    0.000000
      8          1           0       -0.840307   -2.046884    0.000000
      9          1           0        1.810438   -1.369382    0.000000
 ---------------------------------------------------------------------
                    Distance matrix (angstroms):
                    1          2          3          4          5
     1  C    0.000000
     2  C    1.354580   0.000000
     3  S    2.230794   1.361276   0.000000
     4  C    2.228128   2.185636   1.361276   0.000000
     5  C    1.431926   2.228128   2.230794   1.354580   0.000000
     6  H    2.253802   3.272773   3.268441   2.173730   1.076066
     7  H    3.295172   3.178433   2.071285   1.074686   2.235214
     8  H    2.235214   1.074686   2.071285   3.178433   3.295172
     9  H    1.076066   2.173730   3.268441   3.272773   2.253802
                    6          7          8          9
     6  H    0.000000
     7  H    2.735957   0.000000
     8  H    4.324040   4.093768   0.000000
     9  H    2.738764   4.324040   2.735957   0.000000
 Stoichiometry    C4H4S
 Framework group  C2V[C2(S),SGV(C4H4)]
 Deg. of freedom     8
 Full point group                 C2V     NOp   4
 Largest Abelian subgroup         C2V     NOp   4
 Largest concise Abelian subgroup C2      NOp   2
                         Standard orientation:                         
 ---------------------------------------------------------------------
 Center     Atomic      Atomic             Coordinates (Angstroms)
 Number     Number       Type             X           Y           Z
 ---------------------------------------------------------------------
      1          6           0        0.000000    0.715963   -1.165894
      2          6           0        0.000000    1.092818    0.135208
      3         16           0        0.000000    0.000000    0.946886
      4          6           0        0.000000   -1.092818    0.135208
      5          6           0        0.000000   -0.715963   -1.165894
      6          1           0        0.000000   -1.369382   -2.020857
      7          1           0        0.000000   -2.046884    0.629888
      8          1           0        0.000000    2.046884    0.629888
      9          1           0        0.000000    1.369382   -2.020857
 ---------------------------------------------------------------------
 Rotational constants (GHZ):      9.5015164      7.1512017      4.0802504
 Leave Link  202 at Sun Jan 10 23:11:37 2016, MaxMem=    33554432 cpu:         0.0
 (Enter /opt/g09/g09/l301.exe)
 Standard basis: VSTO-6G (5D, 7F)
 Ernie: Thresh=  0.10000D-02 Tol=  0.10000D-05 Strict=F.
  NNHCO=     0 NNPyr=     0 NCTC=     0               EPep=         0.000000000
    EC=        67.702818059  ECS=         2.328056498   EG=         0.016737027
   EHC=         0.000000000  EAt=       -26.480868474  AtH=         1.527256635
 EPDDG=         0.000000000  ECC=        70.047611584 EAtT=        28.008125109
 There are    10 symmetry adapted cartesian basis functions of A1  symmetry.
 There are     2 symmetry adapted cartesian basis functions of A2  symmetry.
 There are     3 symmetry adapted cartesian basis functions of B1  symmetry.
 There are     9 symmetry adapted cartesian basis functions of B2  symmetry.
 There are    10 symmetry adapted basis functions of A1  symmetry.
 There are     2 symmetry adapted basis functions of A2  symmetry.
 There are     3 symmetry adapted basis functions of B1  symmetry.
 There are     9 symmetry adapted basis functions of B2  symmetry.
    24 basis functions,   144 primitive gaussians,    24 cartesian basis functions
    13 alpha electrons       13 beta electrons
       nuclear repulsion energy        98.0557366927 Hartrees.



 Warning!  S  atom    3 may be hypervalent but has no d functions.



 IExCor=    0 DFT=F Ex=HF Corr=None ExCW=0 ScaHFX=  1.000000
 ScaDFX=  1.000000  1.000000  1.000000  1.000000 ScalE2=  1.000000  1.000000
 IRadAn=      0 IRanWt=     -1 IRanGd=            0 ICorTp=0 IEmpDi=  4
 Integral buffers will be    131072 words long.
 Regular integral format.
 Two-electron integral symmetry is turned off.
 Leave Link  301 at Sun Jan 10 23:11:37 2016, MaxMem=    33554432 cpu:         0.0
 (Enter /opt/g09/g09/l302.exe)
 Do NDO integrals.
 NPDir=0 NMtPBC=     1 NCelOv=     1 NCel=       1 NClECP=     1 NCelD=      1
         NCelK=      1 NCelE2=     1 NClLst=     1 CellRange=     0.0.
 One-electron integrals computed using PRISM.
 NBasis=    24 RedAO= T EigKep=  1.00D+00  NBF=    10     2     3     9
 NBsUse=    24 1.00D-06 EigRej= -1.00D+00 NBFU=    10     2     3     9
 Leave Link  302 at Sun Jan 10 23:11:37 2016, MaxMem=    33554432 cpu:         0.0
 (Enter /opt/g09/g09/l303.exe)
 DipDrv:  MaxL=1.
 Leave Link  303 at Sun Jan 10 23:11:37 2016, MaxMem=    33554432 cpu:         0.0
 (Enter /opt/g09/g09/l401.exe)
 Simple Huckel Guess.
 JPrj=0 DoOrth=F DoCkMO=F.
 Initial guess orbital symmetries:
       Occupied  (A1) (B2) (A1) (B2) (A1) (A1) (B1) (B2) (A1) (B2)
                 (B1) (A2) (A1)
       Virtual   (A2) (B1) (B2) (A1) (B2) (A1) (B2) (A1) (B2) (B2)
                 (A1)
 The electronic state of the initial guess is 1-A1.
 Leave Link  401 at Sun Jan 10 23:11:37 2016, MaxMem=    33554432 cpu:         0.0
 (Enter /opt/g09/g09/l502.exe)
 Closed shell SCF:
 Using DIIS extrapolation, IDIIS=  1040.
 Overlap will be assumed to be unity.
 Two-electron integral symmetry not used.
 Keep J ints in memory in canonical form, NReq=888094.
 IVT=       79487 IEndB=       79487 NGot=    33554432 MDV=    33473461
 LenX=    33473461 LenY=    33472444
 Requested convergence on RMS density matrix=1.00D-08 within 128 cycles.
 Requested convergence on MAX density matrix=1.00D-06.
 Requested convergence on             energy=1.00D-06.
 No special actions if energy rises.
 FoFCou: FMM=F IPFlag=           0 FMFlag=           0 FMFlg1=           0
         NFxFlg=           0 DoJE=F BraDBF=F KetDBF=F FulRan=T
         wScrn=  0.000000 ICntrl=     600 IOpCl=  2 I1Cent=           0 NGrid=           0
         NMat0=    1 NMatS0=     54 NMatT0=    0 NMatD0=    1 NMtDS0=    0 NMtDT0=    0
 Symmetry not used in FoFCou.

 Cycle   1  Pass 1  IDiag  1:
 E= 0.457454401715609    
 DIIS: error= 3.57D-02 at cycle   1 NSaved=   1.
 NSaved= 1 IEnMin= 1 EnMin= 0.457454401715609     IErMin= 1 ErrMin= 3.57D-02
 ErrMax= 3.57D-02  0.00D+00 EMaxC= 1.00D-01 BMatC= 7.83D-02 BMatP= 7.83D-02
 IDIUse=3 WtCom= 6.43D-01 WtEn= 3.57D-01
 Coeff-Com:  0.100D+01
 Coeff-En:   0.100D+01
 Coeff:      0.100D+01
 GapD=    2.000 DampG=2.000 DampE=0.500 DampFc=1.0000 IDamp=-1.
 RMSDP=2.06D-02 MaxDP=1.43D-01              OVMax= 0.00D+00

 Cycle   2  Pass 1  IDiag  1:
 E= 0.230242610845821     Delta-E=       -0.227211790870 Rises=F Damp=F
 DIIS: error= 1.12D-02 at cycle   2 NSaved=   2.
 NSaved= 2 IEnMin= 2 EnMin= 0.230242610845821     IErMin= 2 ErrMin= 1.12D-02
 ErrMax= 1.12D-02  0.00D+00 EMaxC= 1.00D-01 BMatC= 7.28D-03 BMatP= 7.83D-02
 IDIUse=3 WtCom= 8.88D-01 WtEn= 1.12D-01
 Coeff-Com: -0.355D+00 0.135D+01
 Coeff-En:   0.000D+00 0.100D+01
 Coeff:     -0.315D+00 0.132D+01
 RMSDP=9.46D-03 MaxDP=1.04D-01 DE=-2.27D-01 OVMax= 0.00D+00

 Cycle   3  Pass 1  IDiag  3:
 E= 0.199600040810338     Delta-E=       -0.030642570035 Rises=F Damp=F
 DIIS: error= 3.68D-03 at cycle   3 NSaved=   3.
 NSaved= 3 IEnMin= 3 EnMin= 0.199600040810338     IErMin= 3 ErrMin= 3.68D-03
 ErrMax= 3.68D-03  0.00D+00 EMaxC= 1.00D-01 BMatC= 5.68D-04 BMatP= 7.28D-03
 IDIUse=3 WtCom= 9.63D-01 WtEn= 3.68D-02
 Coeff-Com:  0.160D+00-0.712D+00 0.155D+01
 Coeff-En:   0.000D+00 0.000D+00 0.100D+01
 Coeff:      0.154D+00-0.686D+00 0.153D+01
 Fock symm off for IB=2 I1=    2 I=   12 J=    6 Cut=1.00D-07 Err=4.20D-03
 Fock matrix is not symmetric: symmetry in diagonalization turned off.
 Gap=     0.352 Goal=   None    Shift=    0.000
 RMSDP=4.29D-03 MaxDP=5.16D-02 DE=-3.06D-02 OVMax= 5.81D-02

 Cycle   4  Pass 1  IDiag  3:
 E= 0.195066593649173     Delta-E=       -0.004533447161 Rises=F Damp=F
 DIIS: error= 1.43D-03 at cycle   4 NSaved=   4.
 NSaved= 4 IEnMin= 4 EnMin= 0.195066593649173     IErMin= 4 ErrMin= 1.43D-03
 ErrMax= 1.43D-03  0.00D+00 EMaxC= 1.00D-01 BMatC= 9.54D-05 BMatP= 5.68D-04
 IDIUse=3 WtCom= 9.86D-01 WtEn= 1.43D-02
 Coeff-Com: -0.539D-01 0.262D+00-0.102D+01 0.181D+01
 Coeff-En:   0.000D+00 0.000D+00 0.000D+00 0.100D+01
 Coeff:     -0.532D-01 0.258D+00-0.100D+01 0.180D+01
 Gap=     0.359 Goal=   None    Shift=    0.000
 RMSDP=2.50D-03 MaxDP=2.51D-02 DE=-4.53D-03 OVMax= 2.87D-02

 Cycle   5  Pass 1  IDiag  3:
 E= 0.194191766895557     Delta-E=       -0.000874826754 Rises=F Damp=F
 DIIS: error= 3.89D-04 at cycle   5 NSaved=   5.
 NSaved= 5 IEnMin= 5 EnMin= 0.194191766895557     IErMin= 5 ErrMin= 3.89D-04
 ErrMax= 3.89D-04  0.00D+00 EMaxC= 1.00D-01 BMatC= 4.88D-06 BMatP= 9.54D-05
 IDIUse=3 WtCom= 9.96D-01 WtEn= 3.89D-03
 Coeff-Com:  0.682D-02-0.415D-01 0.326D+00-0.824D+00 0.153D+01
 Coeff-En:   0.000D+00 0.000D+00 0.000D+00 0.000D+00 0.100D+01
 Coeff:      0.679D-02-0.414D-01 0.325D+00-0.821D+00 0.153D+01
 Gap=     0.359 Goal=   None    Shift=    0.000
 RMSDP=4.60D-04 MaxDP=3.42D-03 DE=-8.75D-04 OVMax= 4.86D-03

 Cycle   6  Pass 1  IDiag  3:
 E= 0.194152377460512     Delta-E=       -0.000039389435 Rises=F Damp=F
 DIIS: error= 1.17D-04 at cycle   6 NSaved=   6.
 NSaved= 6 IEnMin= 6 EnMin= 0.194152377460512     IErMin= 6 ErrMin= 1.17D-04
 ErrMax= 1.17D-04  0.00D+00 EMaxC= 1.00D-01 BMatC= 3.64D-07 BMatP= 4.88D-06
 IDIUse=3 WtCom= 9.99D-01 WtEn= 1.17D-03
 Coeff-Com: -0.131D-02 0.735D-02-0.977D-01 0.276D+00-0.734D+00 0.155D+01
 Coeff-En:   0.000D+00 0.000D+00 0.000D+00 0.000D+00 0.000D+00 0.100D+01
 Coeff:     -0.131D-02 0.734D-02-0.976D-01 0.276D+00-0.733D+00 0.155D+01
 Gap=     0.359 Goal=   None    Shift=    0.000
 RMSDP=1.50D-04 MaxDP=1.24D-03 DE=-3.94D-05 OVMax= 1.75D-03

 Cycle   7  Pass 1  IDiag  3:
 E= 0.194148814048873     Delta-E=       -0.000003563412 Rises=F Damp=F
 DIIS: error= 4.14D-05 at cycle   7 NSaved=   7.
 NSaved= 7 IEnMin= 7 EnMin= 0.194148814048873     IErMin= 7 ErrMin= 4.14D-05
 ErrMax= 4.14D-05  0.00D+00 EMaxC= 1.00D-01 BMatC= 2.89D-08 BMatP= 3.64D-07
 IDIUse=1 WtCom= 1.00D+00 WtEn= 0.00D+00
 Coeff-Com: -0.616D-03 0.320D-02 0.103D-01-0.473D-01 0.204D+00-0.718D+00
 Coeff-Com:  0.155D+01
 Coeff:     -0.616D-03 0.320D-02 0.103D-01-0.473D-01 0.204D+00-0.718D+00
 Coeff:      0.155D+01
 Gap=     0.359 Goal=   None    Shift=    0.000
 RMSDP=4.50D-05 MaxDP=3.18D-04 DE=-3.56D-06 OVMax= 4.96D-04

 Cycle   8  Pass 1  IDiag  3:
 E= 0.194148514915185     Delta-E=       -0.000000299134 Rises=F Damp=F
 DIIS: error= 1.13D-05 at cycle   8 NSaved=   8.
 NSaved= 8 IEnMin= 8 EnMin= 0.194148514915185     IErMin= 8 ErrMin= 1.13D-05
 ErrMax= 1.13D-05  0.00D+00 EMaxC= 1.00D-01 BMatC= 1.87D-09 BMatP= 2.89D-08
 IDIUse=1 WtCom= 1.00D+00 WtEn= 0.00D+00
 Coeff-Com:  0.318D-03-0.176D-02 0.117D-02 0.312D-02-0.426D-01 0.212D+00
 Coeff-Com: -0.696D+00 0.152D+01
 Coeff:      0.318D-03-0.176D-02 0.117D-02 0.312D-02-0.426D-01 0.212D+00
 Coeff:     -0.696D+00 0.152D+01
 Gap=     0.359 Goal=   None    Shift=    0.000
 RMSDP=1.28D-05 MaxDP=9.87D-05 DE=-2.99D-07 OVMax= 1.53D-04

 Cycle   9  Pass 1  IDiag  3:
 E= 0.194148495478260     Delta-E=       -0.000000019437 Rises=F Damp=F
 DIIS: error= 1.73D-06 at cycle   9 NSaved=   9.
 NSaved= 9 IEnMin= 9 EnMin= 0.194148495478260     IErMin= 9 ErrMin= 1.73D-06
 ErrMax= 1.73D-06  0.00D+00 EMaxC= 1.00D-01 BMatC= 6.94D-11 BMatP= 1.87D-09
 IDIUse=1 WtCom= 1.00D+00 WtEn= 0.00D+00
 Coeff-Com: -0.115D-03 0.650D-03-0.113D-02 0.119D-02 0.837D-02-0.551D-01
 Coeff-Com:  0.209D+00-0.596D+00 0.143D+01
 Coeff:     -0.115D-03 0.650D-03-0.113D-02 0.119D-02 0.837D-02-0.551D-01
 Coeff:      0.209D+00-0.596D+00 0.143D+01
 Gap=     0.359 Goal=   None    Shift=    0.000
 RMSDP=1.81D-06 MaxDP=1.23D-05 DE=-1.94D-08 OVMax= 2.04D-05

 Cycle  10  Pass 1  IDiag  3:
 E= 0.194148494941345     Delta-E=       -0.000000000537 Rises=F Damp=F
 DIIS: error= 2.98D-07 at cycle  10 NSaved=  10.
 NSaved=10 IEnMin=10 EnMin= 0.194148494941345     IErMin=10 ErrMin= 2.98D-07
 ErrMax= 2.98D-07  0.00D+00 EMaxC= 1.00D-01 BMatC= 3.69D-12 BMatP= 6.94D-11
 IDIUse=1 WtCom= 1.00D+00 WtEn= 0.00D+00
 Coeff-Com:  0.233D-04-0.146D-03 0.394D-03-0.821D-03-0.592D-03 0.956D-02
 Coeff-Com: -0.452D-01 0.163D+00-0.621D+00 0.149D+01
 Coeff:      0.233D-04-0.146D-03 0.394D-03-0.821D-03-0.592D-03 0.956D-02
 Coeff:     -0.452D-01 0.163D+00-0.621D+00 0.149D+01
 Gap=     0.359 Goal=   None    Shift=    0.000
 RMSDP=4.66D-07 MaxDP=2.76D-06 DE=-5.37D-10 OVMax= 5.52D-06

 Cycle  11  Pass 1  IDiag  3:
 E= 0.194148494912469     Delta-E=       -0.000000000029 Rises=F Damp=F
 DIIS: error= 3.14D-08 at cycle  11 NSaved=  11.
 NSaved=11 IEnMin=11 EnMin= 0.194148494912469     IErMin=11 ErrMin= 3.14D-08
 ErrMax= 3.14D-08  0.00D+00 EMaxC= 1.00D-01 BMatC= 8.46D-14 BMatP= 3.69D-12
 IDIUse=1 WtCom= 1.00D+00 WtEn= 0.00D+00
 Coeff-Com: -0.313D-05 0.241D-04-0.756D-04 0.202D-03 0.709D-05-0.159D-02
 Coeff-Com:  0.859D-02-0.359D-01 0.167D+00-0.509D+00 0.137D+01
 Coeff:     -0.313D-05 0.241D-04-0.756D-04 0.202D-03 0.709D-05-0.159D-02
 Coeff:      0.859D-02-0.359D-01 0.167D+00-0.509D+00 0.137D+01
 Gap=     0.359 Goal=   None    Shift=    0.000
 RMSDP=4.76D-08 MaxDP=2.67D-07 DE=-2.89D-11 OVMax= 3.66D-07

 Cycle  12  Pass 1  IDiag  3:
 E= 0.194148494911502     Delta-E=       -0.000000000001 Rises=F Damp=F
 DIIS: error= 6.57D-09 at cycle  12 NSaved=  12.
 NSaved=12 IEnMin=12 EnMin= 0.194148494911502     IErMin=12 ErrMin= 6.57D-09
 ErrMax= 6.57D-09  0.00D+00 EMaxC= 1.00D-01 BMatC= 2.91D-15 BMatP= 8.46D-14
 IDIUse=1 WtCom= 1.00D+00 WtEn= 0.00D+00
 Coeff-Com:  0.433D-06-0.429D-05 0.205D-04-0.654D-04 0.703D-04 0.117D-03
 Coeff-Com: -0.126D-02 0.708D-02-0.413D-01 0.137D+00-0.491D+00 0.139D+01
 Coeff:      0.433D-06-0.429D-05 0.205D-04-0.654D-04 0.703D-04 0.117D-03
 Coeff:     -0.126D-02 0.708D-02-0.413D-01 0.137D+00-0.491D+00 0.139D+01
 Gap=     0.359 Goal=   None    Shift=    0.000
 RMSDP=9.99D-09 MaxDP=6.38D-08 DE=-9.66D-13 OVMax= 9.64D-08

 Cycle  13  Pass 2  IDiag  1:
 SCF Done:  E(RAM1) =  0.194148494912     A.U. after   13 cycles
            NFock= 12  Conv=0.10D-07     -V/T= 1.0130
 KE=-1.489355999751D+01 PE=-1.630733411771D+02 EE= 8.010531297678D+01
 Leave Link  502 at Sun Jan 10 23:11:37 2016, MaxMem=    33554432 cpu:         0.0
 (Enter /opt/g09/g09/l601.exe)
 Copying SCF densities to generalized density rwf, IOpCl= 0 IROHF=0.

 **********************************************************************

            Population analysis using the SCF density.

 **********************************************************************

 Orbital symmetries:
       Occupied  (A1) (B2) (A1) (B2) (A1) (A1) (B1) (B2) (B2) (A1)
                 (A1) (A2) (B1)
       Virtual   (A1) (B1) (A2) (B2) (A1) (B2) (A1) (B2) (A1) (B2)
                 (B2)
 The electronic state is 1-A1.
 Alpha  occ. eigenvalues --   -1.49382  -1.16635  -0.97282  -0.79704  -0.67522
 Alpha  occ. eigenvalues --   -0.61635  -0.58163  -0.52006  -0.48911  -0.48036
 Alpha  occ. eigenvalues --   -0.38444  -0.37340  -0.32754
 Alpha virt. eigenvalues --    0.03135   0.03883   0.06471   0.06631   0.15506
 Alpha virt. eigenvalues --    0.15554   0.17718   0.17868   0.20211   0.20682
 Alpha virt. eigenvalues --    0.20897
          Condensed to atoms (all electrons):
               1          2          3          4          5          6
     1  C    4.173322   0.000000   0.000000   0.000000   0.000000   0.000000
     2  C    0.000000   4.882266   0.000000   0.000000   0.000000   0.000000
     3  S    0.000000   0.000000   4.575552   0.000000   0.000000   0.000000
     4  C    0.000000   0.000000   0.000000   4.882266   0.000000   0.000000
     5  C    0.000000   0.000000   0.000000   0.000000   4.173322   0.000000
     6  H    0.000000   0.000000   0.000000   0.000000   0.000000   0.845652
     7  H    0.000000   0.000000   0.000000   0.000000   0.000000   0.000000
     8  H    0.000000   0.000000   0.000000   0.000000   0.000000   0.000000
     9  H    0.000000   0.000000   0.000000   0.000000   0.000000   0.000000
               7          8          9
     1  C    0.000000   0.000000   0.000000
     2  C    0.000000   0.000000   0.000000
     3  S    0.000000   0.000000   0.000000
     4  C    0.000000   0.000000   0.000000
     5  C    0.000000   0.000000   0.000000
     6  H    0.000000   0.000000   0.000000
     7  H    0.810984   0.000000   0.000000
     8  H    0.000000   0.810984   0.000000
     9  H    0.000000   0.000000   0.845652
 Mulliken charges:
               1
     1  C   -0.173322
     2  C   -0.882266
     3  S    1.424448
     4  C   -0.882266
     5  C   -0.173322
     6  H    0.154348
     7  H    0.189016
     8  H    0.189016
     9  H    0.154348
 Sum of Mulliken charges =   0.00000
 Mulliken charges with hydrogens summed into heavy atoms:
               1
     1  C   -0.018974
     2  C   -0.693250
     3  S    1.424448
     4  C   -0.693250
     5  C   -0.018974
 Charge=              0.0000 electrons
 Dipole moment (field-independent basis, Debye):
    X=              0.0000    Y=              0.0000    Z=              2.3444  Tot=              2.3444
 N-N= 9.805573669270D+01 E-N=-1.630733412486D+02  KE=-1.489355999751D+01
 Symmetry A1   KE=-7.776402745970D+00
 Symmetry A2   KE=-6.182932092405D-01
 Symmetry B1   KE=-1.519519767772D+00
 Symmetry B2   KE=-4.979344274526D+00
 Leave Link  601 at Sun Jan 10 23:11:37 2016, MaxMem=    33554432 cpu:         0.0
 (Enter /opt/g09/g09/l701.exe)
 Compute integral first derivatives.
 ... and contract with generalized density number  0.
 Leave Link  701 at Sun Jan 10 23:11:37 2016, MaxMem=    33554432 cpu:         0.0
 (Enter /opt/g09/g09/l702.exe)
 L702 exits ... SP integral derivatives will be done elsewhere.
 Leave Link  702 at Sun Jan 10 23:11:37 2016, MaxMem=    33554432 cpu:         0.0
 (Enter /opt/g09/g09/l703.exe)
 Compute integral first derivatives, UseDBF=F ICtDFT=           0.
 Integral derivatives from FoFJK, PRISM(SPDF).
 Calling FoFJK, ICntrl=      2127 FMM=F ISym2X=1 I1Cent= 0 IOpClX= 0 NMat=1 NMatS=1 NMatT=0.
 FoFJK:  IHMeth= 8 ICntrl=    2127 DoSepK=F KAlg= 0 I1Cent=   0 FoldK=F
 IRaf=         0 NMat=   1 IRICut=       1 DoRegI=T DoRafI=F ISym2E= 1.
 FoFCou: FMM=F IPFlag=           0 FMFlag=      100000 FMFlg1=         800
         NFxFlg=           0 DoJE=F BraDBF=F KetDBF=F FulRan=T
         wScrn=  0.000000 ICntrl=    2127 IOpCl=  0 I1Cent=           0 NGrid=           0
         NMat0=    1 NMatS0=      1 NMatT0=    0 NMatD0=    1 NMtDS0=    0 NMtDT0=    0
 Symmetry not used in FoFCou.
 Leave Link  703 at Sun Jan 10 23:11:37 2016, MaxMem=    33554432 cpu:         0.0
 (Enter /opt/g09/g09/l716.exe)
 Dipole        =-2.34542501D-16-1.64313008D-14 9.22373981D-01
 ***** Axes restored to original set *****
 -------------------------------------------------------------------
 Center     Atomic                   Forces (Hartrees/Bohr)
 Number     Number              X              Y              Z
 -------------------------------------------------------------------
      1        6           0.115508513    0.015754626    0.000000000
      2        6           0.034371580   -0.186483875    0.000000000
      3       16          -0.340938761    0.000000000    0.000000000
      4        6           0.034371580    0.186483875    0.000000000
      5        6           0.115508513   -0.015754626    0.000000000
      6        1           0.010261767    0.001447740    0.000000000
      7        1           0.010327520    0.033879376    0.000000000
      8        1           0.010327520   -0.033879376    0.000000000
      9        1           0.010261767   -0.001447740    0.000000000
 -------------------------------------------------------------------
 Cartesian Forces:  Max     0.340938761 RMS     0.089868033
 Leave Link  716 at Sun Jan 10 23:11:37 2016, MaxMem=    33554432 cpu:         0.0
 (Enter /opt/g09/g09/l103.exe)

 GradGradGradGradGradGradGradGradGradGradGradGradGradGradGradGradGradGrad
 Berny optimization.
 FormGI is forming the generalized inverse of G from B-inverse, IUseBI=4.
 Internal  Forces:  Max     0.247027259 RMS     0.067379048
 Search for a local minimum.
 Step number   1 out of a maximum of   48
 All quantities printed in internal units (Hartrees-Bohrs-Radians)
 RMS Force = .67379D-01 SwitMx=.10000D-02 MixMth= 1
 Mixed Optimization -- RFO/linear search
 Second derivative matrix not updated -- first step.
 ITU=  0
     Eigenvalues ---    0.02048   0.02329   0.02522   0.03418   0.03589
     Eigenvalues ---    0.05086   0.16000   0.16000   0.16000   0.16000
     Eigenvalues ---    0.22000   0.22909   0.36474   0.36474   0.36644
     Eigenvalues ---    0.36644   0.39017   0.48016   0.53651   1.36328
     Eigenvalues ---    1.41614
 RFO step:  Lambda=-1.48773660D-01 EMin= 2.04817730D-02
 Linear search not attempted -- first point.
 Maximum step size (   0.300) exceeded in Quadratic search.
    -- Step size scaled by   0.736
 Iteration  1 RMS(Cart)=  0.05802842 RMS(Int)=  0.00157784
 Iteration  2 RMS(Cart)=  0.00185916 RMS(Int)=  0.00035819
 Iteration  3 RMS(Cart)=  0.00000166 RMS(Int)=  0.00035819
 Iteration  4 RMS(Cart)=  0.00000000 RMS(Int)=  0.00035819
 ITry= 1 IFail=0 DXMaxC= 2.19D-01 DCOld= 1.00D+10 DXMaxT= 3.00D-01 DXLimC= 3.00D+00 Rises=F
 ClnCor:  largest displacement from symmetrization is 1.21D-13 for atom     9.
 Variable       Old X    -DE/DX   Delta X   Delta X   Delta X     New X
                                 (Linear)    (Quad)   (Total)
    R1        2.55978   0.13173   0.00000   0.13341   0.13325   2.69303
    R2        2.70595   0.02496   0.00000   0.00068   0.00008   2.70603
    R3        2.03347   0.00903   0.00000   0.01295   0.01295   2.04642
    R4        2.57244   0.24703   0.00000   0.11935   0.11982   2.69226
    R5        2.03086   0.02532   0.00000   0.03618   0.03618   2.06705
    R6        2.57244   0.24703   0.00000   0.11935   0.11982   2.69226
    R7        2.55978   0.13173   0.00000   0.13341   0.13325   2.69303
    R8        2.03086   0.02532   0.00000   0.03618   0.03618   2.06705
    R9        2.03347   0.00903   0.00000   0.01295   0.01295   2.04642
    A1        1.85272   0.03389   0.00000   0.00213   0.00128   1.85401
    A2        2.20710  -0.01178   0.00000   0.01125   0.01168   2.21877
    A3        2.22337  -0.02211   0.00000  -0.01338  -0.01296   2.21041
    A4        1.92771   0.00903   0.00000   0.03249   0.03268   1.96039
    A5        2.33106  -0.02966   0.00000  -0.07620  -0.07629   2.25477
    A6        2.02442   0.02063   0.00000   0.04371   0.04361   2.06803
    A7        1.86392  -0.08586   0.00000  -0.06924  -0.06793   1.79598
    A8        1.92771   0.00903   0.00000   0.03249   0.03268   1.96039
    A9        2.02442   0.02063   0.00000   0.04371   0.04361   2.06803
   A10        2.33106  -0.02966   0.00000  -0.07620  -0.07629   2.25477
   A11        1.85272   0.03389   0.00000   0.00213   0.00128   1.85401
   A12        2.22337  -0.02211   0.00000  -0.01338  -0.01296   2.21041
   A13        2.20710  -0.01178   0.00000   0.01125   0.01168   2.21877
    D1        0.00000   0.00000   0.00000   0.00000   0.00000   0.00000
    D2        3.14159   0.00000   0.00000   0.00000   0.00000   3.14159
    D3        3.14159   0.00000   0.00000   0.00000   0.00000   3.14159
    D4        0.00000   0.00000   0.00000   0.00000   0.00000   0.00000
    D5        0.00000   0.00000   0.00000   0.00000   0.00000   0.00000
    D6        3.14159   0.00000   0.00000   0.00000   0.00000   3.14159
    D7        3.14159   0.00000   0.00000   0.00000   0.00000   3.14159
    D8        0.00000   0.00000   0.00000   0.00000   0.00000   0.00000
    D9        0.00000   0.00000   0.00000   0.00000   0.00000   0.00000
   D10        3.14159   0.00000   0.00000   0.00000   0.00000   3.14159
   D11        0.00000   0.00000   0.00000   0.00000   0.00000   0.00000
   D12        3.14159   0.00000   0.00000   0.00000   0.00000   3.14159
   D13        0.00000   0.00000   0.00000   0.00000   0.00000   0.00000
   D14        3.14159   0.00000   0.00000   0.00000   0.00000   3.14159
   D15        3.14159   0.00000   0.00000   0.00000   0.00000   3.14159
   D16        0.00000   0.00000   0.00000   0.00000   0.00000   0.00000
         Item               Value     Threshold  Converged?
 Maximum Force            0.247027     0.000450     NO 
 RMS     Force            0.067379     0.000300     NO 
 Maximum Displacement     0.218755     0.001800     NO 
 RMS     Displacement     0.057538     0.001200     NO 
 Predicted change in Energy=-7.575928D-02
 Lowest energy point so far.  Saving SCF results.
 GradGradGradGradGradGradGradGradGradGradGradGradGradGradGradGradGradGrad

 Leave Link  103 at Sun Jan 10 23:11:37 2016, MaxMem=    33554432 cpu:         0.0
 (Enter /opt/g09/g09/l202.exe)
                          Input orientation:                          
 ---------------------------------------------------------------------
 Center     Atomic      Atomic             Coordinates (Angstroms)
 Number     Number       Type             X           Y           Z
 ---------------------------------------------------------------------
      1          6           0        0.983091   -0.715984    0.000000
      2          6           0       -0.385228   -1.114212    0.000000
      3         16           0       -1.273065    0.000000    0.000000
      4          6           0       -0.385228    1.114212    0.000000
      5          6           0        0.983091    0.715984    0.000000
      6          1           0        1.851947    1.362359    0.000000
      7          1           0       -0.811951    2.121376    0.000000
      8          1           0       -0.811951   -2.121376    0.000000
      9          1           0        1.851947   -1.362359    0.000000
 ---------------------------------------------------------------------
                    Distance matrix (angstroms):
                    1          2          3          4          5
     1  C    0.000000
     2  C    1.425090   0.000000
     3  S    2.367038   1.424683   0.000000
     4  C    2.285150   2.228424   1.424683   0.000000
     5  C    1.431967   2.285150   2.367038   1.425090   0.000000
     6  H    2.252647   3.337417   3.409065   2.250895   1.082918
     7  H    3.357497   3.263606   2.170913   1.093834   2.279759
     8  H    2.279759   1.093834   2.170913   3.263606   3.357497
     9  H    1.082918   2.250895   3.409065   3.337417   2.252647
                    6          7          8          9
     6  H    0.000000
     7  H    2.769920   0.000000
     8  H    4.385517   4.242752   0.000000
     9  H    2.724718   4.385517   2.769920   0.000000
 Stoichiometry    C4H4S
 Framework group  C2V[C2(S),SGV(C4H4)]
 Deg. of freedom     8
 Full point group                 C2V     NOp   4
 RotChk:  IX=0 Diff= 2.21D-15
 Largest Abelian subgroup         C2V     NOp   4
 Largest concise Abelian subgroup C2      NOp   2
                         Standard orientation:                         
 ---------------------------------------------------------------------
 Center     Atomic      Atomic             Coordinates (Angstroms)
 Number     Number       Type             X           Y           Z
 ---------------------------------------------------------------------
      1          6           0        0.000000    0.715984   -1.235697
      2          6           0        0.000000    1.114212    0.132621
      3         16           0        0.000000    0.000000    1.020458
      4          6           0        0.000000   -1.114212    0.132621
      5          6           0        0.000000   -0.715984   -1.235697
      6          1           0        0.000000   -1.362359   -2.104554
      7          1           0        0.000000   -2.121376    0.559344
      8          1           0        0.000000    2.121376    0.559344
      9          1           0        0.000000    1.362359   -2.104554
 ---------------------------------------------------------------------
 Rotational constants (GHZ):      9.2037010      6.3322052      3.7512922
 Leave Link  202 at Sun Jan 10 23:11:37 2016, MaxMem=    33554432 cpu:         0.0
 (Enter /opt/g09/g09/l301.exe)
 Standard basis: VSTO-6G (5D, 7F)
 Ernie: Thresh=  0.10000D-02 Tol=  0.10000D-05 Strict=F.
  NNHCO=     0 NNPyr=     0 NCTC=     0               EPep=         0.000000000
    EC=        66.082692512  ECS=         2.015566113   EG=         0.058049419
   EHC=         0.000000000  EAt=       -26.480868474  AtH=         1.527256635
 EPDDG=         0.000000000  ECC=        68.156308044 EAtT=        28.008125109
 There are    10 symmetry adapted cartesian basis functions of A1  symmetry.
 There are     2 symmetry adapted cartesian basis functions of A2  symmetry.
 There are     3 symmetry adapted cartesian basis functions of B1  symmetry.
 There are     9 symmetry adapted cartesian basis functions of B2  symmetry.
 There are    10 symmetry adapted basis functions of A1  symmetry.
 There are     2 symmetry adapted basis functions of A2  symmetry.
 There are     3 symmetry adapted basis functions of B1  symmetry.
 There are     9 symmetry adapted basis functions of B2  symmetry.
    24 basis functions,   144 primitive gaussians,    24 cartesian basis functions
    13 alpha electrons       13 beta electrons
       nuclear repulsion energy        96.1644331532 Hartrees.



 Warning!  S  atom    3 may be hypervalent but has no d functions.



 IExCor=    0 DFT=F Ex=HF Corr=None ExCW=0 ScaHFX=  1.000000
 ScaDFX=  1.000000  1.000000  1.000000  1.000000 ScalE2=  1.000000  1.000000
 IRadAn=      0 IRanWt=     -1 IRanGd=            0 ICorTp=0 IEmpDi=  4
 Integral buffers will be    131072 words long.
 Regular integral format.
 Two-electron integral symmetry is turned off.
 Leave Link  301 at Sun Jan 10 23:11:37 2016, MaxMem=    33554432 cpu:         0.0
 (Enter /opt/g09/g09/l302.exe)
 Do NDO integrals.
 NPDir=0 NMtPBC=     1 NCelOv=     1 NCel=       1 NClECP=     1 NCelD=      1
         NCelK=      1 NCelE2=     1 NClLst=     1 CellRange=     0.0.
 One-electron integrals computed using PRISM.
 NBasis=    24 RedAO= T EigKep=  1.00D+00  NBF=    10     2     3     9
 NBsUse=    24 1.00D-06 EigRej= -1.00D+00 NBFU=    10     2     3     9
 Leave Link  302 at Sun Jan 10 23:11:37 2016, MaxMem=    33554432 cpu:         0.0
 (Enter /opt/g09/g09/l303.exe)
 DipDrv:  MaxL=1.
 Leave Link  303 at Sun Jan 10 23:11:37 2016, MaxMem=    33554432 cpu:         0.0
 (Enter /opt/g09/g09/l401.exe)
 Initial guess from the checkpoint file:  "/opt/g09/scratch/Gau-15287.chk"
 B after Tr=     0.000000    0.000000    0.000000
         Rot=    1.000000    0.000000    0.000000    0.000000 Ang=   0.00 deg.
 Guess basis will be translated and rotated to current coordinates.
 JPrj=0 DoOrth=T DoCkMO=T.
 Initial guess orbital symmetries:
       Occupied  (A1) (B2) (A1) (B2) (A1) (A1) (B1) (B2) (B2) (A1)
                 (A1) (A2) (B1)
       Virtual   (A1) (B1) (A2) (B2) (A1) (B2) (A1) (B2) (A1) (B2)
                 (B2)
 The electronic state of the initial guess is 1-A1.
 Leave Link  401 at Sun Jan 10 23:11:37 2016, MaxMem=    33554432 cpu:         0.0
 (Enter /opt/g09/g09/l502.exe)
 Closed shell SCF:
 Using DIIS extrapolation, IDIIS=  1040.
 Overlap will be assumed to be unity.
 Two-electron integral symmetry not used.
 Keep J ints in memory in canonical form, NReq=888094.
 IVT=       79487 IEndB=       79487 NGot=    33554432 MDV=    33473461
 LenX=    33473461 LenY=    33472444
 Requested convergence on RMS density matrix=1.00D-08 within 128 cycles.
 Requested convergence on MAX density matrix=1.00D-06.
 Requested convergence on             energy=1.00D-06.
 No special actions if energy rises.
 FoFCou: FMM=F IPFlag=           0 FMFlag=           0 FMFlg1=           0
         NFxFlg=           0 DoJE=F BraDBF=F KetDBF=F FulRan=T
         wScrn=  0.000000 ICntrl=     600 IOpCl=  2 I1Cent=           0 NGrid=           0
         NMat0=    1 NMatS0=     54 NMatT0=    0 NMatD0=    1 NMtDS0=    0 NMtDT0=    0
 Symmetry not used in FoFCou.

 Cycle   1  Pass 1  IDiag  1:
 E= 0.123035089364365    
 DIIS: error= 5.03D-03 at cycle   1 NSaved=   1.
 NSaved= 1 IEnMin= 1 EnMin= 0.123035089364365     IErMin= 1 ErrMin= 5.03D-03
 ErrMax= 5.03D-03  0.00D+00 EMaxC= 1.00D-01 BMatC= 1.72D-03 BMatP= 1.72D-03
 IDIUse=3 WtCom= 9.50D-01 WtEn= 5.03D-02
 Coeff-Com:  0.100D+01
 Coeff-En:   0.100D+01
 Coeff:      0.100D+01
 GapD=    2.000 DampG=2.000 DampE=1.000 DampFc=2.0000 IDamp=-1.
 RMSDP=3.12D-03 MaxDP=1.54D-02              OVMax= 0.00D+00

 Cycle   2  Pass 1  IDiag  3:
 E= 0.117370358359551     Delta-E=       -0.005664731005 Rises=F Damp=F
 DIIS: error= 1.92D-03 at cycle   2 NSaved=   2.
 NSaved= 2 IEnMin= 2 EnMin= 0.117370358359551     IErMin= 2 ErrMin= 1.92D-03
 ErrMax= 1.92D-03  0.00D+00 EMaxC= 1.00D-01 BMatC= 2.33D-04 BMatP= 1.72D-03
 IDIUse=3 WtCom= 9.81D-01 WtEn= 1.92D-02
 Coeff-Com: -0.457D+00 0.146D+01
 Coeff-En:   0.000D+00 0.100D+01
 Coeff:     -0.448D+00 0.145D+01
 Fock symm off for IB=2 I1=    1 I=   11 J=   10 Cut=1.00D-07 Err=1.05D-03
 Fock matrix is not symmetric: symmetry in diagonalization turned off.
 Gap=     0.360 Goal=   None    Shift=    0.000
 RMSDP=1.79D-03 MaxDP=8.77D-03 DE=-5.66D-03 OVMax= 1.28D-02

 Cycle   3  Pass 1  IDiag  3:
 E= 0.116277818222216     Delta-E=       -0.001092540137 Rises=F Damp=F
 DIIS: error= 5.24D-04 at cycle   3 NSaved=   3.
 NSaved= 3 IEnMin= 3 EnMin= 0.116277818222216     IErMin= 3 ErrMin= 5.24D-04
 ErrMax= 5.24D-04  0.00D+00 EMaxC= 1.00D-01 BMatC= 1.66D-05 BMatP= 2.33D-04
 IDIUse=3 WtCom= 9.95D-01 WtEn= 5.24D-03
 Coeff-Com:  0.245D+00-0.932D+00 0.169D+01
 Coeff-En:   0.000D+00 0.000D+00 0.100D+01
 Coeff:      0.244D+00-0.928D+00 0.168D+01
 Gap=     0.359 Goal=   None    Shift=    0.000
 RMSDP=6.75D-04 MaxDP=5.39D-03 DE=-1.09D-03 OVMax= 5.28D-03

 Cycle   4  Pass 1  IDiag  3:
 E= 0.116172142240075     Delta-E=       -0.000105675982 Rises=F Damp=F
 DIIS: error= 1.27D-04 at cycle   4 NSaved=   4.
 NSaved= 4 IEnMin= 4 EnMin= 0.116172142240075     IErMin= 4 ErrMin= 1.27D-04
 ErrMax= 1.27D-04  0.00D+00 EMaxC= 1.00D-01 BMatC= 9.93D-07 BMatP= 1.66D-05
 IDIUse=3 WtCom= 9.99D-01 WtEn= 1.27D-03
 Coeff-Com: -0.112D+00 0.440D+00-0.969D+00 0.164D+01
 Coeff-En:   0.000D+00 0.000D+00 0.000D+00 0.100D+01
 Coeff:     -0.112D+00 0.440D+00-0.968D+00 0.164D+01
 Gap=     0.359 Goal=   None    Shift=    0.000
 RMSDP=1.95D-04 MaxDP=1.57D-03 DE=-1.06D-04 OVMax= 1.71D-03

 Cycle   5  Pass 1  IDiag  3:
 E= 0.116164804313669     Delta-E=       -0.000007337926 Rises=F Damp=F
 DIIS: error= 4.22D-05 at cycle   5 NSaved=   5.
 NSaved= 5 IEnMin= 5 EnMin= 0.116164804313669     IErMin= 5 ErrMin= 4.22D-05
 ErrMax= 4.22D-05  0.00D+00 EMaxC= 1.00D-01 BMatC= 5.25D-08 BMatP= 9.93D-07
 IDIUse=1 WtCom= 1.00D+00 WtEn= 0.00D+00
 Coeff-Com:  0.335D-01-0.132D+00 0.306D+00-0.692D+00 0.148D+01
 Coeff:      0.335D-01-0.132D+00 0.306D+00-0.692D+00 0.148D+01
 Gap=     0.359 Goal=   None    Shift=    0.000
 RMSDP=5.10D-05 MaxDP=3.11D-04 DE=-7.34D-06 OVMax= 5.03D-04

 Cycle   6  Pass 1  IDiag  3:
 E= 0.116164333566360     Delta-E=       -0.000000470747 Rises=F Damp=F
 DIIS: error= 1.71D-05 at cycle   6 NSaved=   6.
 NSaved= 6 IEnMin= 6 EnMin= 0.116164333566360     IErMin= 6 ErrMin= 1.71D-05
 ErrMax= 1.71D-05  0.00D+00 EMaxC= 1.00D-01 BMatC= 4.77D-09 BMatP= 5.25D-08
 IDIUse=1 WtCom= 1.00D+00 WtEn= 0.00D+00
 Coeff-Com: -0.147D-01 0.582D-01-0.140D+00 0.360D+00-0.105D+01 0.178D+01
 Coeff:     -0.147D-01 0.582D-01-0.140D+00 0.360D+00-0.105D+01 0.178D+01
 Gap=     0.359 Goal=   None    Shift=    0.000
 RMSDP=2.09D-05 MaxDP=1.58D-04 DE=-4.71D-07 OVMax= 2.57D-04

 Cycle   7  Pass 1  IDiag  3:
 E= 0.116164277212434     Delta-E=       -0.000000056354 Rises=F Damp=F
 DIIS: error= 4.13D-06 at cycle   7 NSaved=   7.
 NSaved= 7 IEnMin= 7 EnMin= 0.116164277212434     IErMin= 7 ErrMin= 4.13D-06
 ErrMax= 4.13D-06  0.00D+00 EMaxC= 1.00D-01 BMatC= 2.88D-10 BMatP= 4.77D-09
 IDIUse=1 WtCom= 1.00D+00 WtEn= 0.00D+00
 Coeff-Com:  0.551D-02-0.219D-01 0.534D-01-0.146D+00 0.474D+00-0.995D+00
 Coeff-Com:  0.163D+01
 Coeff:      0.551D-02-0.219D-01 0.534D-01-0.146D+00 0.474D+00-0.995D+00
 Coeff:      0.163D+01
 Gap=     0.359 Goal=   None    Shift=    0.000
 RMSDP=5.11D-06 MaxDP=3.95D-05 DE=-5.64D-08 OVMax= 6.05D-05

 Cycle   8  Pass 1  IDiag  3:
 E= 0.116164273951540     Delta-E=       -0.000000003261 Rises=F Damp=F
 DIIS: error= 8.04D-07 at cycle   8 NSaved=   8.
 NSaved= 8 IEnMin= 8 EnMin= 0.116164273951540     IErMin= 8 ErrMin= 8.04D-07
 ErrMax= 8.04D-07  0.00D+00 EMaxC= 1.00D-01 BMatC= 1.58D-11 BMatP= 2.88D-10
 IDIUse=1 WtCom= 1.00D+00 WtEn= 0.00D+00
 Coeff-Com: -0.159D-02 0.633D-02-0.157D-01 0.459D-01-0.165D+00 0.380D+00
 Coeff-Com: -0.818D+00 0.157D+01
 Coeff:     -0.159D-02 0.633D-02-0.157D-01 0.459D-01-0.165D+00 0.380D+00
 Coeff:     -0.818D+00 0.157D+01
 Gap=     0.359 Goal=   None    Shift=    0.000
 RMSDP=1.08D-06 MaxDP=7.81D-06 DE=-3.26D-09 OVMax= 1.26D-05

 Cycle   9  Pass 1  IDiag  3:
 E= 0.116164273804102     Delta-E=       -0.000000000147 Rises=F Damp=F
 DIIS: error= 8.18D-08 at cycle   9 NSaved=   9.
 NSaved= 9 IEnMin= 9 EnMin= 0.116164273804102     IErMin= 9 ErrMin= 8.18D-08
 ErrMax= 8.18D-08  0.00D+00 EMaxC= 1.00D-01 BMatC= 5.37D-13 BMatP= 1.58D-11
 IDIUse=1 WtCom= 1.00D+00 WtEn= 0.00D+00
 Coeff-Com:  0.349D-03-0.139D-02 0.350D-02-0.112D-01 0.449D-01-0.112D+00
 Coeff-Com:  0.272D+00-0.659D+00 0.146D+01
 Coeff:      0.349D-03-0.139D-02 0.350D-02-0.112D-01 0.449D-01-0.112D+00
 Coeff:      0.272D+00-0.659D+00 0.146D+01
 Gap=     0.359 Goal=   None    Shift=    0.000
 RMSDP=1.49D-07 MaxDP=9.62D-07 DE=-1.47D-10 OVMax= 1.47D-06

 Cycle  10  Pass 1  IDiag  3:
 E= 0.116164273800308     Delta-E=       -0.000000000004 Rises=F Damp=F
 DIIS: error= 1.55D-08 at cycle  10 NSaved=  10.
 NSaved=10 IEnMin=10 EnMin= 0.116164273800308     IErMin=10 ErrMin= 1.55D-08
 ErrMax= 1.55D-08  0.00D+00 EMaxC= 1.00D-01 BMatC= 1.57D-14 BMatP= 5.37D-13
 IDIUse=1 WtCom= 1.00D+00 WtEn= 0.00D+00
 Coeff-Com: -0.312D-04 0.128D-03-0.362D-03 0.169D-02-0.888D-02 0.252D-01
 Coeff-Com: -0.701D-01 0.193D+00-0.561D+00 0.142D+01
 Coeff:     -0.312D-04 0.128D-03-0.362D-03 0.169D-02-0.888D-02 0.252D-01
 Coeff:     -0.701D-01 0.193D+00-0.561D+00 0.142D+01
 Gap=     0.359 Goal=   None    Shift=    0.000
 RMSDP=2.26D-08 MaxDP=1.05D-07 DE=-3.79D-12 OVMax= 1.98D-07

 Cycle  11  Pass 1  IDiag  3:
 E= 0.116164273800180     Delta-E=        0.000000000000 Rises=F Damp=F
 DIIS: error= 2.01D-09 at cycle  11 NSaved=  11.
 NSaved=11 IEnMin=11 EnMin= 0.116164273800180     IErMin=11 ErrMin= 2.01D-09
 ErrMax= 2.01D-09  0.00D+00 EMaxC= 1.00D-01 BMatC= 3.21D-16 BMatP= 1.57D-14
 IDIUse=1 WtCom= 1.00D+00 WtEn= 0.00D+00
 Coeff-Com:  0.263D-05-0.119D-04 0.470D-04-0.384D-03 0.247D-02-0.750D-02
 Coeff-Com:  0.221D-01-0.636D-01 0.198D+00-0.584D+00 0.143D+01
 Coeff:      0.263D-05-0.119D-04 0.470D-04-0.384D-03 0.247D-02-0.750D-02
 Coeff:      0.221D-01-0.636D-01 0.198D+00-0.584D+00 0.143D+01
 Gap=     0.359 Goal=   None    Shift=    0.000
 RMSDP=3.08D-09 MaxDP=1.50D-08 DE=-1.28D-13 OVMax= 3.01D-08

 Cycle  12  Pass 2  IDiag  1:
 SCF Done:  E(RAM1) =  0.116164273800     A.U. after   12 cycles
            NFock= 11  Conv=0.31D-08     -V/T= 1.0079
 KE=-1.473081598536D+01 PE=-1.600158604639D+02 EE= 7.869840756984D+01
 Leave Link  502 at Sun Jan 10 23:11:37 2016, MaxMem=    33554432 cpu:         0.0
 (Enter /opt/g09/g09/l701.exe)
 Compute integral first derivatives.
 ... and contract with generalized density number  0.
 Leave Link  701 at Sun Jan 10 23:11:37 2016, MaxMem=    33554432 cpu:         0.0
 (Enter /opt/g09/g09/l702.exe)
 L702 exits ... SP integral derivatives will be done elsewhere.
 Leave Link  702 at Sun Jan 10 23:11:37 2016, MaxMem=    33554432 cpu:         0.0
 (Enter /opt/g09/g09/l703.exe)
 Compute integral first derivatives, UseDBF=F ICtDFT=           0.
 Integral derivatives from FoFJK, PRISM(SPDF).
 Calling FoFJK, ICntrl=      2127 FMM=F ISym2X=1 I1Cent= 0 IOpClX= 0 NMat=1 NMatS=1 NMatT=0.
 FoFJK:  IHMeth= 8 ICntrl=    2127 DoSepK=F KAlg= 0 I1Cent=   0 FoldK=F
 IRaf=         0 NMat=   1 IRICut=       1 DoRegI=T DoRafI=F ISym2E= 1.
 FoFCou: FMM=F IPFlag=           0 FMFlag=      100000 FMFlg1=         800
         NFxFlg=           0 DoJE=F BraDBF=F KetDBF=F FulRan=T
         wScrn=  0.000000 ICntrl=    2127 IOpCl=  0 I1Cent=           0 NGrid=           0
         NMat0=    1 NMatS0=      1 NMatT0=    0 NMatD0=    1 NMtDS0=    0 NMtDT0=    0
 Symmetry not used in FoFCou.
 Leave Link  703 at Sun Jan 10 23:11:37 2016, MaxMem=    33554432 cpu:         0.0
 (Enter /opt/g09/g09/l716.exe)
 Dipole        = 3.83652161D-16-1.19904087D-14 8.32415447D-01
 ***** Axes restored to original set *****
 -------------------------------------------------------------------
 Center     Atomic                   Forces (Hartrees/Bohr)
 Number     Number              X              Y              Z
 -------------------------------------------------------------------
      1        6           0.010164625    0.019946718    0.000000000
      2        6           0.075210917   -0.119445912    0.000000000
      3       16          -0.203238626    0.000000000    0.000000000
      4        6           0.075210917    0.119445912    0.000000000
      5        6           0.010164625   -0.019946718    0.000000000
      6        1           0.000870368    0.000470012    0.000000000
      7        1           0.015373403    0.012113472    0.000000000
      8        1           0.015373403   -0.012113472    0.000000000
      9        1           0.000870368   -0.000470012    0.000000000
 -------------------------------------------------------------------
 Cartesian Forces:  Max     0.203238626 RMS     0.055419093
 Leave Link  716 at Sun Jan 10 23:11:37 2016, MaxMem=    33554432 cpu:         0.0
 (Enter /opt/g09/g09/l103.exe)

 GradGradGradGradGradGradGradGradGradGradGradGradGradGradGradGradGradGrad
 Berny optimization.
 Using GEDIIS/GDIIS optimizer.
 FormGI is forming the generalized inverse of G from B-inverse, IUseBI=4.
 Internal  Forces:  Max     0.153581302 RMS     0.037805389
 Search for a local minimum.
 Step number   2 out of a maximum of   48
 All quantities printed in internal units (Hartrees-Bohrs-Radians)
 RMS Force = .37805D-01 SwitMx=.10000D-02 MixMth= 1
 Mixed Optimization -- RFO/linear search
 Update second derivatives using D2CorX and points    1    2
 DE= -7.80D-02 DEPred=-7.58D-02 R= 1.03D+00
 TightC=F SS=  1.41D+00  RLast= 3.00D-01 DXNew= 5.0454D-01 8.9993D-01
 Trust test= 1.03D+00 RLast= 3.00D-01 DXMaxT set to 5.05D-01
 ITU=  1  0
 Use linear search instead of GDIIS.
     Eigenvalues ---    0.02061   0.02340   0.02526   0.03555   0.03727
     Eigenvalues ---    0.04992   0.15298   0.16000   0.16000   0.16073
     Eigenvalues ---    0.22000   0.23771   0.36474   0.36490   0.36644
     Eigenvalues ---    0.36818   0.38401   0.48145   0.79697   0.85103
     Eigenvalues ---    1.41096
 RFO step:  Lambda=-5.18240478D-02 EMin= 2.06067462D-02
 Quartic linear search produced a step of  1.02452.
 Iteration  1 RMS(Cart)=  0.12013424 RMS(Int)=  0.01410799
 Iteration  2 RMS(Cart)=  0.01330227 RMS(Int)=  0.00128276
 Iteration  3 RMS(Cart)=  0.00017855 RMS(Int)=  0.00127572
 Iteration  4 RMS(Cart)=  0.00000003 RMS(Int)=  0.00127572
 ITry= 1 IFail=0 DXMaxC= 3.77D-01 DCOld= 1.00D+10 DXMaxT= 5.05D-01 DXLimC= 3.00D+00 Rises=F
 ClnCor:  largest displacement from symmetrization is 5.39D-12 for atom     9.
 Variable       Old X    -DE/DX   Delta X   Delta X   Delta X     New X
                                 (Linear)    (Quad)   (Total)
    R1        2.69303   0.01511   0.13651  -0.08976   0.04608   2.73911
    R2        2.70603  -0.00332   0.00008  -0.08840  -0.09039   2.61563
    R3        2.04642   0.00098   0.01327  -0.00746   0.00580   2.05222
    R4        2.69226   0.15358   0.12276   0.10452   0.22884   2.92110
    R5        2.06705   0.00516   0.03707  -0.00934   0.02773   2.09478
    R6        2.69226   0.15358   0.12276   0.10452   0.22884   2.92110
    R7        2.69303   0.01511   0.13651  -0.08976   0.04608   2.73911
    R8        2.06705   0.00516   0.03707  -0.00934   0.02773   2.09478
    R9        2.04642   0.00098   0.01327  -0.00746   0.00580   2.05222
    A1        1.85401   0.02979   0.00131   0.04905   0.04735   1.90136
    A2        2.21877  -0.01475   0.01196  -0.03483  -0.02136   2.19741
    A3        2.21041  -0.01504  -0.01328  -0.01422  -0.02599   2.18441
    A4        1.96039  -0.00563   0.03349  -0.03462  -0.00056   1.95983
    A5        2.25477  -0.01670  -0.07816  -0.10997  -0.18842   2.06634
    A6        2.06803   0.02233   0.04468   0.14459   0.18898   2.25701
    A7        1.79598  -0.04831  -0.06960  -0.02886  -0.09360   1.70239
    A8        1.96039  -0.00563   0.03349  -0.03462  -0.00056   1.95983
    A9        2.06803   0.02233   0.04468   0.14459   0.18898   2.25701
   A10        2.25477  -0.01670  -0.07816  -0.10997  -0.18842   2.06634
   A11        1.85401   0.02979   0.00131   0.04905   0.04735   1.90136
   A12        2.21041  -0.01504  -0.01328  -0.01422  -0.02599   2.18441
   A13        2.21877  -0.01475   0.01196  -0.03483  -0.02136   2.19741
    D1        0.00000   0.00000   0.00000   0.00000   0.00000   0.00000
    D2        3.14159   0.00000   0.00000   0.00000   0.00000   3.14159
    D3        3.14159   0.00000   0.00000   0.00000   0.00000   3.14159
    D4        0.00000   0.00000   0.00000   0.00000   0.00000   0.00000
    D5        0.00000   0.00000   0.00000   0.00000   0.00000   0.00000
    D6        3.14159   0.00000   0.00000   0.00000   0.00000   3.14159
    D7        3.14159   0.00000   0.00000   0.00000   0.00000   3.14159
    D8        0.00000   0.00000   0.00000   0.00000   0.00000   0.00000
    D9        0.00000   0.00000   0.00000   0.00000   0.00000   0.00000
   D10        3.14159   0.00000   0.00000   0.00000   0.00000   3.14159
   D11        0.00000   0.00000   0.00000   0.00000   0.00000   0.00000
   D12        3.14159   0.00000   0.00000   0.00000   0.00000   3.14159
   D13        0.00000   0.00000   0.00000   0.00000   0.00000   0.00000
   D14        3.14159   0.00000   0.00000   0.00000   0.00000   3.14159
   D15        3.14159   0.00000   0.00000   0.00000   0.00000   3.14159
   D16        0.00000   0.00000   0.00000   0.00000   0.00000   0.00000
         Item               Value     Threshold  Converged?
 Maximum Force            0.153581     0.000450     NO 
 RMS     Force            0.037805     0.000300     NO 
 Maximum Displacement     0.376874     0.001800     NO 
 RMS     Displacement     0.124716     0.001200     NO 
 Predicted change in Energy=-4.257354D-02
 Lowest energy point so far.  Saving SCF results.
 GradGradGradGradGradGradGradGradGradGradGradGradGradGradGradGradGradGrad

 Leave Link  103 at Sun Jan 10 23:11:37 2016, MaxMem=    33554432 cpu:         0.0
 (Enter /opt/g09/g09/l202.exe)
                          Input orientation:                          
 ---------------------------------------------------------------------
 Center     Atomic      Atomic             Coordinates (Angstroms)
 Number     Number       Type             X           Y           Z
 ---------------------------------------------------------------------
      1          6           0        0.940534   -0.692067    0.000000
      2          6           0       -0.430463   -1.162532    0.000000
      3         16           0       -1.449266    0.000000    0.000000
      4          6           0       -0.430463    1.162532    0.000000
      5          6           0        0.940534    0.692067    0.000000
      6          1           0        1.828407    1.317410    0.000000
      7          1           0       -0.612518    2.255990    0.000000
      8          1           0       -0.612518   -2.255990    0.000000
      9          1           0        1.828407   -1.317410    0.000000
 ---------------------------------------------------------------------
                    Distance matrix (angstroms):
                    1          2          3          4          5
     1  C    0.000000
     2  C    1.449472   0.000000
     3  S    2.487991   1.545782   0.000000
     4  C    2.306332   2.325065   1.545782   0.000000
     5  C    1.384133   2.306332   2.487991   1.449472   0.000000
     6  H    2.196888   3.354491   3.532522   2.264173   1.085990
     7  H    3.332118   3.423367   2.406167   1.108510   2.204047
     8  H    2.204047   1.108510   2.406167   3.423367   3.332118
     9  H    1.085990   2.264173   3.532522   3.354491   2.196888
                    6          7          8          9
     6  H    0.000000
     7  H    2.615156   0.000000
     8  H    4.327505   4.511981   0.000000
     9  H    2.634821   4.327505   2.615156   0.000000
 Stoichiometry    C4H4S
 Framework group  C2V[C2(S),SGV(C4H4)]
 Deg. of freedom     8
 Full point group                 C2V     NOp   4
 RotChk:  IX=0 Diff= 9.60D-16
 Largest Abelian subgroup         C2V     NOp   4
 Largest concise Abelian subgroup C2      NOp   2
                         Standard orientation:                         
 ---------------------------------------------------------------------
 Center     Atomic      Atomic             Coordinates (Angstroms)
 Number     Number       Type             X           Y           Z
 ---------------------------------------------------------------------
      1          6           0        0.000000    0.692067   -1.273162
      2          6           0        0.000000    1.162532    0.097835
      3         16           0        0.000000    0.000000    1.116638
      4          6           0        0.000000   -1.162532    0.097835
      5          6           0        0.000000   -0.692067   -1.273162
      6          1           0        0.000000   -1.317410   -2.161035
      7          1           0        0.000000   -2.255990    0.279890
      8          1           0        0.000000    2.255990    0.279890
      9          1           0        0.000000    1.317410   -2.161035
 ---------------------------------------------------------------------
 Rotational constants (GHZ):      8.7606404      5.7165900      3.4592935
 Leave Link  202 at Sun Jan 10 23:11:37 2016, MaxMem=    33554432 cpu:         0.0
 (Enter /opt/g09/g09/l301.exe)
 Standard basis: VSTO-6G (5D, 7F)
 Ernie: Thresh=  0.10000D-02 Tol=  0.10000D-05 Strict=F.
  NNHCO=     0 NNPyr=     0 NCTC=     0               EPep=         0.000000000
    EC=        64.655334258  ECS=         1.760195757   EG=         0.112253274
   EHC=         0.000000000  EAt=       -26.480868474  AtH=         1.527256635
 EPDDG=         0.000000000  ECC=        66.527783289 EAtT=        28.008125109
 There are    10 symmetry adapted cartesian basis functions of A1  symmetry.
 There are     2 symmetry adapted cartesian basis functions of A2  symmetry.
 There are     3 symmetry adapted cartesian basis functions of B1  symmetry.
 There are     9 symmetry adapted cartesian basis functions of B2  symmetry.
 There are    10 symmetry adapted basis functions of A1  symmetry.
 There are     2 symmetry adapted basis functions of A2  symmetry.
 There are     3 symmetry adapted basis functions of B1  symmetry.
 There are     9 symmetry adapted basis functions of B2  symmetry.
    24 basis functions,   144 primitive gaussians,    24 cartesian basis functions
    13 alpha electrons       13 beta electrons
       nuclear repulsion energy        94.5359083978 Hartrees.



 Warning!  S  atom    3 may be hypervalent but has no d functions.



 IExCor=    0 DFT=F Ex=HF Corr=None ExCW=0 ScaHFX=  1.000000
 ScaDFX=  1.000000  1.000000  1.000000  1.000000 ScalE2=  1.000000  1.000000
 IRadAn=      0 IRanWt=     -1 IRanGd=            0 ICorTp=0 IEmpDi=  4
 Integral buffers will be    131072 words long.
 Regular integral format.
 Two-electron integral symmetry is turned off.
 Leave Link  301 at Sun Jan 10 23:11:37 2016, MaxMem=    33554432 cpu:         0.0
 (Enter /opt/g09/g09/l302.exe)
 Do NDO integrals.
 NPDir=0 NMtPBC=     1 NCelOv=     1 NCel=       1 NClECP=     1 NCelD=      1
         NCelK=      1 NCelE2=     1 NClLst=     1 CellRange=     0.0.
 One-electron integrals computed using PRISM.
 NBasis=    24 RedAO= T EigKep=  1.00D+00  NBF=    10     2     3     9
 NBsUse=    24 1.00D-06 EigRej= -1.00D+00 NBFU=    10     2     3     9
 Leave Link  302 at Sun Jan 10 23:11:37 2016, MaxMem=    33554432 cpu:         0.0
 (Enter /opt/g09/g09/l303.exe)
 DipDrv:  MaxL=1.
 Leave Link  303 at Sun Jan 10 23:11:37 2016, MaxMem=    33554432 cpu:         0.0
 (Enter /opt/g09/g09/l401.exe)
 Initial guess from the checkpoint file:  "/opt/g09/scratch/Gau-15287.chk"
 B after Tr=     0.000000    0.000000    0.000000
         Rot=    1.000000    0.000000    0.000000    0.000000 Ang=   0.00 deg.
 Guess basis will be translated and rotated to current coordinates.
 JPrj=0 DoOrth=T DoCkMO=T.
 Initial guess orbital symmetries:
       Occupied  (A1) (B2) (A1) (B2) (A1) (A1) (B1) (B2) (B2) (A1)
                 (A1) (A2) (B1)
       Virtual   (B1) (A1) (A2) (B2) (A1) (B2) (B2) (A1) (A1) (B2)
                 (B2)
 The electronic state of the initial guess is 1-A1.
 Leave Link  401 at Sun Jan 10 23:11:37 2016, MaxMem=    33554432 cpu:         0.0
 (Enter /opt/g09/g09/l502.exe)
 Closed shell SCF:
 Using DIIS extrapolation, IDIIS=  1040.
 Overlap will be assumed to be unity.
 Two-electron integral symmetry not used.
 Keep J ints in memory in canonical form, NReq=888094.
 IVT=       79487 IEndB=       79487 NGot=    33554432 MDV=    33473461
 LenX=    33473461 LenY=    33472444
 Requested convergence on RMS density matrix=1.00D-08 within 128 cycles.
 Requested convergence on MAX density matrix=1.00D-06.
 Requested convergence on             energy=1.00D-06.
 No special actions if energy rises.
 FoFCou: FMM=F IPFlag=           0 FMFlag=           0 FMFlg1=           0
         NFxFlg=           0 DoJE=F BraDBF=F KetDBF=F FulRan=T
         wScrn=  0.000000 ICntrl=     600 IOpCl=  2 I1Cent=           0 NGrid=           0
         NMat0=    1 NMatS0=     54 NMatT0=    0 NMatD0=    1 NMtDS0=    0 NMtDT0=    0
 Symmetry not used in FoFCou.

 Cycle   1  Pass 1  IDiag  1:
 E= 0.870375695204473E-01
 DIIS: error= 1.31D-02 at cycle   1 NSaved=   1.
 NSaved= 1 IEnMin= 1 EnMin= 0.870375695204473E-01 IErMin= 1 ErrMin= 1.31D-02
 ErrMax= 1.31D-02  0.00D+00 EMaxC= 1.00D-01 BMatC= 5.53D-03 BMatP= 5.53D-03
 IDIUse=3 WtCom= 8.69D-01 WtEn= 1.31D-01
 Coeff-Com:  0.100D+01
 Coeff-En:   0.100D+01
 Coeff:      0.100D+01
 GapD=    2.000 DampG=2.000 DampE=0.500 DampFc=1.0000 IDamp=-1.
 RMSDP=5.93D-03 MaxDP=3.57D-02              OVMax= 0.00D+00

 Cycle   2  Pass 1  IDiag  3:
 E= 0.671983689628490E-01 Delta-E=       -0.019839200558 Rises=F Damp=F
 DIIS: error= 5.19D-03 at cycle   2 NSaved=   2.
 NSaved= 2 IEnMin= 2 EnMin= 0.671983689628490E-01 IErMin= 2 ErrMin= 5.19D-03
 ErrMax= 5.19D-03  0.00D+00 EMaxC= 1.00D-01 BMatC= 8.40D-04 BMatP= 5.53D-03
 IDIUse=3 WtCom= 9.48D-01 WtEn= 5.19D-02
 Coeff-Com: -0.519D+00 0.152D+01
 Coeff-En:   0.000D+00 0.100D+01
 Coeff:     -0.492D+00 0.149D+01
 Fock symm off for IB=2 I1=    1 I=   11 J=    6 Cut=1.00D-07 Err=4.26D-03
 Fock matrix is not symmetric: symmetry in diagonalization turned off.
 Gap=     0.349 Goal=   None    Shift=    0.000
 RMSDP=3.74D-03 MaxDP=2.06D-02 DE=-1.98D-02 OVMax= 2.74D-02

 Cycle   3  Pass 1  IDiag  3:
 E= 0.629232783665259E-01 Delta-E=       -0.004275090596 Rises=F Damp=F
 DIIS: error= 8.31D-04 at cycle   3 NSaved=   3.
 NSaved= 3 IEnMin= 3 EnMin= 0.629232783665259E-01 IErMin= 3 ErrMin= 8.31D-04
 ErrMax= 8.31D-04  0.00D+00 EMaxC= 1.00D-01 BMatC= 4.93D-05 BMatP= 8.40D-04
 IDIUse=3 WtCom= 9.92D-01 WtEn= 8.31D-03
 Coeff-Com:  0.243D+00-0.861D+00 0.162D+01
 Coeff-En:   0.000D+00 0.000D+00 0.100D+01
 Coeff:      0.241D+00-0.853D+00 0.161D+01
 Gap=     0.349 Goal=   None    Shift=    0.000
 RMSDP=1.26D-03 MaxDP=8.26D-03 DE=-4.28D-03 OVMax= 8.97D-03

 Cycle   4  Pass 1  IDiag  3:
 E= 0.625803564548306E-01 Delta-E=       -0.000342921912 Rises=F Damp=F
 DIIS: error= 3.11D-04 at cycle   4 NSaved=   4.
 NSaved= 4 IEnMin= 4 EnMin= 0.625803564548306E-01 IErMin= 4 ErrMin= 3.11D-04
 ErrMax= 3.11D-04  0.00D+00 EMaxC= 1.00D-01 BMatC= 3.44D-06 BMatP= 4.93D-05
 IDIUse=3 WtCom= 9.97D-01 WtEn= 3.11D-03
 Coeff-Com: -0.914D-01 0.349D+00-0.865D+00 0.161D+01
 Coeff-En:   0.000D+00 0.000D+00 0.000D+00 0.100D+01
 Coeff:     -0.911D-01 0.348D+00-0.863D+00 0.161D+01
 Gap=     0.350 Goal=   None    Shift=    0.000
 RMSDP=4.13D-04 MaxDP=2.66D-03 DE=-3.43D-04 OVMax= 4.42D-03

 Cycle   5  Pass 1  IDiag  3:
 E= 0.625506054758773E-01 Delta-E=       -0.000029750979 Rises=F Damp=F
 DIIS: error= 1.13D-04 at cycle   5 NSaved=   5.
 NSaved= 5 IEnMin= 5 EnMin= 0.625506054758773E-01 IErMin= 5 ErrMin= 1.13D-04
 ErrMax= 1.13D-04  0.00D+00 EMaxC= 1.00D-01 BMatC= 2.33D-07 BMatP= 3.44D-06
 IDIUse=3 WtCom= 9.99D-01 WtEn= 1.13D-03
 Coeff-Com:  0.223D-01-0.887D-01 0.252D+00-0.703D+00 0.152D+01
 Coeff-En:   0.000D+00 0.000D+00 0.000D+00 0.000D+00 0.100D+01
 Coeff:      0.223D-01-0.886D-01 0.252D+00-0.702D+00 0.152D+01
 Gap=     0.350 Goal=   None    Shift=    0.000
 RMSDP=1.28D-04 MaxDP=9.22D-04 DE=-2.98D-05 OVMax= 1.47D-03

 Cycle   6  Pass 1  IDiag  3:
 E= 0.625481747329530E-01 Delta-E=       -0.000002430743 Rises=F Damp=F
 DIIS: error= 3.31D-05 at cycle   6 NSaved=   6.
 NSaved= 6 IEnMin= 6 EnMin= 0.625481747329530E-01 IErMin= 6 ErrMin= 3.31D-05
 ErrMax= 3.31D-05  0.00D+00 EMaxC= 1.00D-01 BMatC= 1.85D-08 BMatP= 2.33D-07
 IDIUse=1 WtCom= 1.00D+00 WtEn= 0.00D+00
 Coeff-Com: -0.135D-01 0.548D-01-0.163D+00 0.490D+00-0.125D+01 0.188D+01
 Coeff:     -0.135D-01 0.548D-01-0.163D+00 0.490D+00-0.125D+01 0.188D+01
 Gap=     0.350 Goal=   None    Shift=    0.000
 RMSDP=4.35D-05 MaxDP=3.28D-04 DE=-2.43D-06 OVMax= 5.15D-04

 Cycle   7  Pass 1  IDiag  3:
 E= 0.625479551198822E-01 Delta-E=       -0.000000219613 Rises=F Damp=F
 DIIS: error= 5.31D-06 at cycle   7 NSaved=   7.
 NSaved= 7 IEnMin= 7 EnMin= 0.625479551198822E-01 IErMin= 7 ErrMin= 5.31D-06
 ErrMax= 5.31D-06  0.00D+00 EMaxC= 1.00D-01 BMatC= 7.01D-10 BMatP= 1.85D-08
 IDIUse=1 WtCom= 1.00D+00 WtEn= 0.00D+00
 Coeff-Com:  0.497D-02-0.205D-01 0.627D-01-0.195D+00 0.519D+00-0.923D+00
 Coeff-Com:  0.155D+01
 Coeff:      0.497D-02-0.205D-01 0.627D-01-0.195D+00 0.519D+00-0.923D+00
 Coeff:      0.155D+01
 Gap=     0.350 Goal=   None    Shift=    0.000
 RMSDP=7.51D-06 MaxDP=5.42D-05 DE=-2.20D-07 OVMax= 8.96D-05

 Cycle   8  Pass 1  IDiag  3:
 E= 0.625479482659728E-01 Delta-E=       -0.000000006854 Rises=F Damp=F
 DIIS: error= 6.78D-07 at cycle   8 NSaved=   8.
 NSaved= 8 IEnMin= 8 EnMin= 0.625479482659728E-01 IErMin= 8 ErrMin= 6.78D-07
 ErrMax= 6.78D-07  0.00D+00 EMaxC= 1.00D-01 BMatC= 2.74D-11 BMatP= 7.01D-10
 IDIUse=1 WtCom= 1.00D+00 WtEn= 0.00D+00
 Coeff-Com: -0.996D-03 0.418D-02-0.131D-01 0.420D-01-0.116D+00 0.226D+00
 Coeff-Com: -0.519D+00 0.138D+01
 Coeff:     -0.996D-03 0.418D-02-0.131D-01 0.420D-01-0.116D+00 0.226D+00
 Coeff:     -0.519D+00 0.138D+01
 Gap=     0.350 Goal=   None    Shift=    0.000
 RMSDP=1.01D-06 MaxDP=5.75D-06 DE=-6.85D-09 OVMax= 9.36D-06

 Cycle   9  Pass 1  IDiag  3:
 E= 0.625479480671629E-01 Delta-E=       -0.000000000199 Rises=F Damp=F
 DIIS: error= 1.62D-07 at cycle   9 NSaved=   9.
 NSaved= 9 IEnMin= 9 EnMin= 0.625479480671629E-01 IErMin= 9 ErrMin= 1.62D-07
 ErrMax= 1.62D-07  0.00D+00 EMaxC= 1.00D-01 BMatC= 1.95D-12 BMatP= 2.74D-11
 IDIUse=1 WtCom= 1.00D+00 WtEn= 0.00D+00
 Coeff-Com:  0.136D-03-0.598D-03 0.195D-02-0.671D-02 0.199D-01-0.463D-01
 Coeff-Com:  0.145D+00-0.650D+00 0.154D+01
 Coeff:      0.136D-03-0.598D-03 0.195D-02-0.671D-02 0.199D-01-0.463D-01
 Coeff:      0.145D+00-0.650D+00 0.154D+01
 Gap=     0.350 Goal=   None    Shift=    0.000
 RMSDP=3.21D-07 MaxDP=2.08D-06 DE=-1.99D-10 OVMax= 3.39D-06

 Cycle  10  Pass 1  IDiag  3:
 E= 0.625479480520141E-01 Delta-E=       -0.000000000015 Rises=F Damp=F
 DIIS: error= 2.50D-08 at cycle  10 NSaved=  10.
 NSaved=10 IEnMin=10 EnMin= 0.625479480520141E-01 IErMin=10 ErrMin= 2.50D-08
 ErrMax= 2.50D-08  0.00D+00 EMaxC= 1.00D-01 BMatC= 3.74D-14 BMatP= 1.95D-12
 IDIUse=1 WtCom= 1.00D+00 WtEn= 0.00D+00
 Coeff-Com: -0.182D-04 0.937D-04-0.351D-03 0.142D-02-0.473D-02 0.131D-01
 Coeff-Com: -0.490D-01 0.252D+00-0.688D+00 0.148D+01
 Coeff:     -0.182D-04 0.937D-04-0.351D-03 0.142D-02-0.473D-02 0.131D-01
 Coeff:     -0.490D-01 0.252D+00-0.688D+00 0.148D+01
 Gap=     0.350 Goal=   None    Shift=    0.000
 RMSDP=3.30D-08 MaxDP=1.35D-07 DE=-1.51D-11 OVMax= 3.23D-07

 Cycle  11  Pass 1  IDiag  3:
 E= 0.625479480519573E-01 Delta-E=        0.000000000000 Rises=F Damp=F
 DIIS: error= 2.96D-09 at cycle  11 NSaved=  11.
 NSaved=11 IEnMin=11 EnMin= 0.625479480519573E-01 IErMin=11 ErrMin= 2.96D-09
 ErrMax= 2.96D-09  0.00D+00 EMaxC= 1.00D-01 BMatC= 5.49D-16 BMatP= 3.74D-14
 IDIUse=1 WtCom= 1.00D+00 WtEn= 0.00D+00
 Coeff-Com:  0.200D-05-0.145D-04 0.658D-04-0.312D-03 0.115D-02-0.361D-02
 Coeff-Com:  0.148D-01-0.806D-01 0.228D+00-0.553D+00 0.139D+01
 Coeff:      0.200D-05-0.145D-04 0.658D-04-0.312D-03 0.115D-02-0.361D-02
 Coeff:      0.148D-01-0.806D-01 0.228D+00-0.553D+00 0.139D+01
 Gap=     0.350 Goal=   None    Shift=    0.000
 RMSDP=3.59D-09 MaxDP=1.73D-08 DE=-5.68D-14 OVMax= 2.94D-08

 Cycle  12  Pass 2  IDiag  1:
 SCF Done:  E(RAM1) =  0.625479480520E-01 A.U. after   12 cycles
            NFock= 11  Conv=0.36D-08     -V/T= 1.0043
 KE=-1.460364979861D+01 PE=-1.572819937908D+02 EE= 7.741228313963D+01
 Leave Link  502 at Sun Jan 10 23:11:38 2016, MaxMem=    33554432 cpu:         0.0
 (Enter /opt/g09/g09/l701.exe)
 Compute integral first derivatives.
 ... and contract with generalized density number  0.
 Leave Link  701 at Sun Jan 10 23:11:38 2016, MaxMem=    33554432 cpu:         0.0
 (Enter /opt/g09/g09/l702.exe)
 L702 exits ... SP integral derivatives will be done elsewhere.
 Leave Link  702 at Sun Jan 10 23:11:38 2016, MaxMem=    33554432 cpu:         0.0
 (Enter /opt/g09/g09/l703.exe)
 Compute integral first derivatives, UseDBF=F ICtDFT=           0.
 Integral derivatives from FoFJK, PRISM(SPDF).
 Calling FoFJK, ICntrl=      2127 FMM=F ISym2X=1 I1Cent= 0 IOpClX= 0 NMat=1 NMatS=1 NMatT=0.
 FoFJK:  IHMeth= 8 ICntrl=    2127 DoSepK=F KAlg= 0 I1Cent=   0 FoldK=F
 IRaf=         0 NMat=   1 IRICut=       1 DoRegI=T DoRafI=F ISym2E= 1.
 FoFCou: FMM=F IPFlag=           0 FMFlag=      100000 FMFlg1=         800
         NFxFlg=           0 DoJE=F BraDBF=F KetDBF=F FulRan=T
         wScrn=  0.000000 ICntrl=    2127 IOpCl=  0 I1Cent=           0 NGrid=           0
         NMat0=    1 NMatS0=      1 NMatT0=    0 NMatD0=    1 NMtDS0=    0 NMtDT0=    0
 Symmetry not used in FoFCou.
 Leave Link  703 at Sun Jan 10 23:11:38 2016, MaxMem=    33554432 cpu:         0.0
 (Enter /opt/g09/g09/l716.exe)
 Dipole        = 1.28917896D-15 1.06581410D-14 5.64329399D-01
 ***** Axes restored to original set *****
 -------------------------------------------------------------------
 Center     Atomic                   Forces (Hartrees/Bohr)
 Number     Number              X              Y              Z
 -------------------------------------------------------------------
      1        6          -0.032638501   -0.024529367    0.000000000
      2        6           0.066686445   -0.047646349    0.000000000
      3       16          -0.063257614    0.000000000    0.000000000
      4        6           0.066686445    0.047646349    0.000000000
      5        6          -0.032638501    0.024529367    0.000000000
      6        1          -0.001038462    0.003589635    0.000000000
      7        1          -0.001380676   -0.012801253    0.000000000
      8        1          -0.001380676    0.012801253    0.000000000
      9        1          -0.001038462   -0.003589635    0.000000000
 -------------------------------------------------------------------
 Cartesian Forces:  Max     0.066686445 RMS     0.027974490
 Leave Link  716 at Sun Jan 10 23:11:38 2016, MaxMem=    33554432 cpu:         0.0
 (Enter /opt/g09/g09/l103.exe)

 GradGradGradGradGradGradGradGradGradGradGradGradGradGradGradGradGradGrad
 Berny optimization.
 Using GEDIIS/GDIIS optimizer.
 FormGI is forming the generalized inverse of G from B-inverse, IUseBI=4.
 Internal  Forces:  Max     0.047028015 RMS     0.014582813
 Search for a local minimum.
 Step number   3 out of a maximum of   48
 All quantities printed in internal units (Hartrees-Bohrs-Radians)
 RMS Force = .14583D-01 SwitMx=.10000D-02 MixMth= 1
 Mixed Optimization -- RFO/linear search
 Update second derivatives using D2CorX and points    2    3
 DE= -5.36D-02 DEPred=-4.26D-02 R= 1.26D+00
 TightC=F SS=  1.41D+00  RLast= 5.26D-01 DXNew= 8.4853D-01 1.5781D+00
 Trust test= 1.26D+00 RLast= 5.26D-01 DXMaxT set to 8.49D-01
 ITU=  1  1  0
 Use linear search instead of GDIIS.
     Eigenvalues ---    0.02068   0.02343   0.02491   0.04013   0.04167
     Eigenvalues ---    0.04794   0.15344   0.16000   0.16000   0.16272
     Eigenvalues ---    0.22000   0.23613   0.36404   0.36474   0.36644
     Eigenvalues ---    0.37218   0.41591   0.48477   0.54939   0.85286
     Eigenvalues ---    1.40393
 RFO step:  Lambda=-1.11493282D-02 EMin= 2.06832557D-02
 Quartic linear search produced a step of  0.20958.
 Iteration  1 RMS(Cart)=  0.03322252 RMS(Int)=  0.00034200
 Iteration  2 RMS(Cart)=  0.00038890 RMS(Int)=  0.00015569
 Iteration  3 RMS(Cart)=  0.00000006 RMS(Int)=  0.00015569
 ITry= 1 IFail=0 DXMaxC= 8.42D-02 DCOld= 1.00D+10 DXMaxT= 8.49D-01 DXLimC= 3.00D+00 Rises=F
 ClnCor:  largest displacement from symmetrization is 2.74D-13 for atom     6.
 Variable       Old X    -DE/DX   Delta X   Delta X   Delta X     New X
                                 (Linear)    (Quad)   (Total)
    R1        2.73911  -0.03184   0.00966  -0.04612  -0.03655   2.70255
    R2        2.61563   0.02815  -0.01895   0.07382   0.05463   2.67026
    R3        2.05222   0.00122   0.00122   0.00674   0.00795   2.06018
    R4        2.92110   0.04703   0.04796   0.04648   0.09463   3.01574
    R5        2.09478  -0.01240   0.00581  -0.03282  -0.02700   2.06778
    R6        2.92110   0.04703   0.04796   0.04648   0.09463   3.01574
    R7        2.73911  -0.03184   0.00966  -0.04612  -0.03655   2.70255
    R8        2.09478  -0.01240   0.00581  -0.03282  -0.02700   2.06778
    R9        2.05222   0.00122   0.00122   0.00674   0.00795   2.06018
    A1        1.90136   0.00945   0.00992   0.00801   0.01757   1.91893
    A2        2.19741  -0.00835  -0.00448  -0.02568  -0.02998   2.16743
    A3        2.18441  -0.00110  -0.00545   0.01767   0.01241   2.19682
    A4        1.95983  -0.00573  -0.00012  -0.01203  -0.01208   1.94775
    A5        2.06634   0.00649  -0.03949   0.02681  -0.01271   2.05363
    A6        2.25701  -0.00076   0.03961  -0.01478   0.02480   2.28180
    A7        1.70239  -0.00743  -0.01962   0.00804  -0.01098   1.69141
    A8        1.95983  -0.00573  -0.00012  -0.01203  -0.01208   1.94775
    A9        2.25701  -0.00076   0.03961  -0.01478   0.02480   2.28180
   A10        2.06634   0.00649  -0.03949   0.02681  -0.01271   2.05363
   A11        1.90136   0.00945   0.00992   0.00801   0.01757   1.91893
   A12        2.18441  -0.00110  -0.00545   0.01767   0.01241   2.19682
   A13        2.19741  -0.00835  -0.00448  -0.02568  -0.02998   2.16743
    D1        0.00000   0.00000   0.00000   0.00000   0.00000   0.00000
    D2        3.14159   0.00000   0.00000   0.00000   0.00000   3.14159
    D3        3.14159   0.00000   0.00000   0.00000   0.00000   3.14159
    D4        0.00000   0.00000   0.00000   0.00000   0.00000   0.00000
    D5        0.00000   0.00000   0.00000   0.00000   0.00000   0.00000
    D6        3.14159   0.00000   0.00000   0.00000   0.00000   3.14159
    D7        3.14159   0.00000   0.00000   0.00000   0.00000   3.14159
    D8        0.00000   0.00000   0.00000   0.00000   0.00000   0.00000
    D9        0.00000   0.00000   0.00000   0.00000   0.00000   0.00000
   D10        3.14159   0.00000   0.00000   0.00000   0.00000   3.14159
   D11        0.00000   0.00000   0.00000   0.00000   0.00000   0.00000
   D12        3.14159   0.00000   0.00000   0.00000   0.00000   3.14159
   D13        0.00000   0.00000   0.00000   0.00000   0.00000   0.00000
   D14        3.14159   0.00000   0.00000   0.00000   0.00000   3.14159
   D15        3.14159   0.00000   0.00000   0.00000   0.00000   3.14159
   D16        0.00000   0.00000   0.00000   0.00000   0.00000   0.00000
         Item               Value     Threshold  Converged?
 Maximum Force            0.047028     0.000450     NO 
 RMS     Force            0.014583     0.000300     NO 
 Maximum Displacement     0.084164     0.001800     NO 
 RMS     Displacement     0.033050     0.001200     NO 
 Predicted change in Energy=-7.022358D-03
 Lowest energy point so far.  Saving SCF results.
 GradGradGradGradGradGradGradGradGradGradGradGradGradGradGradGradGradGrad

 Leave Link  103 at Sun Jan 10 23:11:38 2016, MaxMem=    33554432 cpu:         0.0
 (Enter /opt/g09/g09/l202.exe)
                          Input orientation:                          
[...]
 Coeff:      0.135D-02-0.637D-02 0.282D-01-0.146D+00 0.554D+00-0.137D+01
 Coeff:      0.194D+01
 Gap=     0.348 Goal=   None    Shift=    0.000
 RMSDP=2.62D-08 MaxDP=2.28D-07 DE=-6.96D-13 OVMax= 3.30D-07

 Cycle   8  Pass 1  IDiag  3:
 E= 0.435975820362700E-01 Delta-E=        0.000000000000 Rises=F Damp=F
 DIIS: error= 2.31D-09 at cycle   8 NSaved=   8.
 NSaved= 8 IEnMin= 8 EnMin= 0.435975820362700E-01 IErMin= 8 ErrMin= 2.31D-09
 ErrMax= 2.31D-09  0.00D+00 EMaxC= 1.00D-01 BMatC= 2.09D-16 BMatP= 6.31D-15
 IDIUse=1 WtCom= 1.00D+00 WtEn= 0.00D+00
 Coeff-Com: -0.508D-03 0.242D-02-0.112D-01 0.592D-01-0.228D+00 0.584D+00
 Coeff-Com: -0.957D+00 0.155D+01
 Coeff:     -0.508D-03 0.242D-02-0.112D-01 0.592D-01-0.228D+00 0.584D+00
 Coeff:     -0.957D+00 0.155D+01
 Gap=     0.348 Goal=   None    Shift=    0.000
 RMSDP=4.31D-09 MaxDP=3.49D-08 DE=-2.27D-13 OVMax= 5.51D-08

 Cycle   9  Pass 2  IDiag  1:
 SCF Done:  E(RAM1) =  0.435975820363E-01 A.U. after    9 cycles
            NFock=  8  Conv=0.43D-08     -V/T= 1.0030
 KE=-1.454291572359D+01 PE=-1.556589825802D+02 EE= 7.655651149996D+01
 Leave Link  502 at Sun Jan 10 23:11:38 2016, MaxMem=    33554432 cpu:         0.0
 (Enter /opt/g09/g09/l701.exe)
 Compute integral first derivatives.
 ... and contract with generalized density number  0.
 Leave Link  701 at Sun Jan 10 23:11:38 2016, MaxMem=    33554432 cpu:         0.0
 (Enter /opt/g09/g09/l702.exe)
 L702 exits ... SP integral derivatives will be done elsewhere.
 Leave Link  702 at Sun Jan 10 23:11:38 2016, MaxMem=    33554432 cpu:         0.0
 (Enter /opt/g09/g09/l703.exe)
 Compute integral first derivatives, UseDBF=F ICtDFT=           0.
 Integral derivatives from FoFJK, PRISM(SPDF).
 Calling FoFJK, ICntrl=      2127 FMM=F ISym2X=1 I1Cent= 0 IOpClX= 0 NMat=1 NMatS=1 NMatT=0.
 FoFJK:  IHMeth= 8 ICntrl=    2127 DoSepK=F KAlg= 0 I1Cent=   0 FoldK=F
 IRaf=         0 NMat=   1 IRICut=       1 DoRegI=T DoRafI=F ISym2E= 1.
 FoFCou: FMM=F IPFlag=           0 FMFlag=      100000 FMFlg1=         800
         NFxFlg=           0 DoJE=F BraDBF=F KetDBF=F FulRan=T
         wScrn=  0.000000 ICntrl=    2127 IOpCl=  0 I1Cent=           0 NGrid=           0
         NMat0=    1 NMatS0=      1 NMatT0=    0 NMatD0=    1 NMtDS0=    0 NMtDT0=    0
 Symmetry not used in FoFCou.
 Leave Link  703 at Sun Jan 10 23:11:38 2016, MaxMem=    33554432 cpu:         0.0
 (Enter /opt/g09/g09/l716.exe)
 Dipole        = 2.00094457D-17 1.73194792D-14 1.35327678D-01
 ***** Axes restored to original set *****
 -------------------------------------------------------------------
 Center     Atomic                   Forces (Hartrees/Bohr)
 Number     Number              X              Y              Z
 -------------------------------------------------------------------
      1        6          -0.000137425   -0.000165530    0.000000000
      2        6           0.000021457    0.000124738    0.000000000
      3       16           0.000150473    0.000000000    0.000000000
      4        6           0.000021457   -0.000124738    0.000000000
      5        6          -0.000137425    0.000165530    0.000000000
      6        1           0.000006247   -0.000023757    0.000000000
      7        1           0.000034485   -0.000004525    0.000000000
      8        1           0.000034485    0.000004525    0.000000000
      9        1           0.000006247    0.000023757    0.000000000
 -------------------------------------------------------------------
 Cartesian Forces:  Max     0.000165530 RMS     0.000074754
 Leave Link  716 at Sun Jan 10 23:11:38 2016, MaxMem=    33554432 cpu:         0.0
 (Enter /opt/g09/g09/l103.exe)

 GradGradGradGradGradGradGradGradGradGradGradGradGradGradGradGradGradGrad
 Berny optimization.
 Using GEDIIS/GDIIS optimizer.
 FormGI is forming the generalized inverse of G from B-inverse, IUseBI=4.
 Internal  Forces:  Max     0.000150451 RMS     0.000043899
 Search for a local minimum.
 Step number   9 out of a maximum of   48
 All quantities printed in internal units (Hartrees-Bohrs-Radians)
 RMS Force = .43899D-04 SwitMx=.10000D-02 MixMth= 2
 Mixed Optimization -- En-DIIS/RFO-DIIS
 Swapping is turned off.
 Update second derivatives using D2CorX and points    3    4    5    6    7
                                                      8    9
 DE= -1.03D-06 DEPred=-8.20D-07 R= 1.25D+00
 TightC=F SS=  1.41D+00  RLast= 2.41D-03 DXNew= 1.4270D+00 7.2183D-03
 Trust test= 1.25D+00 RLast= 2.41D-03 DXMaxT set to 8.49D-01
 ITU=  1  1  1  1  1  1  1  1  0
     Eigenvalues ---    0.02070   0.02349   0.02456   0.03730   0.03868
     Eigenvalues ---    0.04738   0.08384   0.13245   0.16000   0.16000
     Eigenvalues ---    0.22000   0.24617   0.27324   0.36474   0.36644
     Eigenvalues ---    0.36788   0.38951   0.49026   0.53235   0.79027
     Eigenvalues ---    1.40336
 En-DIIS/RFO-DIIS IScMMF=        0 using points:     9    8    7
 RFO step:  Lambda=-1.13143357D-07.
 NNeg= 0 NP= 3 Switch=  2.50D-03 Rises=F DC=  2.71D-05 SmlDif=  1.00D-05
 RMS Error=  0.7363709379D-04 NUsed= 3 EDIIS=F
 DidBck=F Rises=F RFO-DIIS coefs:    1.37740   -0.39587    0.01847
 Iteration  1 RMS(Cart)=  0.00013907 RMS(Int)=  0.00000002
 Iteration  2 RMS(Cart)=  0.00000002 RMS(Int)=  0.00000001
 ITry= 1 IFail=0 DXMaxC= 3.65D-04 DCOld= 1.00D+10 DXMaxT= 8.49D-01 DXLimC= 3.00D+00 Rises=F
 ClnCor:  largest displacement from symmetrization is 3.77D-13 for atom     6.
 Variable       Old X    -DE/DX   Delta X   Delta X   Delta X     New X
                                 (Linear)    (Quad)   (Total)
    R1        2.60277  -0.00015  -0.00020   0.00001  -0.00019   2.60258
    R2        2.70614   0.00006   0.00011   0.00010   0.00021   2.70635
    R3        2.06268  -0.00001   0.00000  -0.00003  -0.00003   2.06264
    R4        3.16035  -0.00009  -0.00029  -0.00008  -0.00037   3.15999
    R5        2.05652  -0.00001   0.00002  -0.00001   0.00001   2.05653
    R6        3.16035  -0.00009  -0.00029  -0.00008  -0.00037   3.15999
    R7        2.60277  -0.00015  -0.00020   0.00001  -0.00019   2.60258
    R8        2.05652  -0.00001   0.00002  -0.00001   0.00001   2.05653
    R9        2.06268  -0.00001   0.00000  -0.00003  -0.00003   2.06264
    A1        1.94652  -0.00001  -0.00012   0.00003  -0.00009   1.94643
    A2        2.18757   0.00003   0.00023   0.00008   0.00030   2.18787
    A3        2.14910  -0.00002  -0.00011  -0.00011  -0.00022   2.14888
    A4        1.94705   0.00000   0.00016  -0.00012   0.00004   1.94709
    A5        2.19391  -0.00003  -0.00026  -0.00009  -0.00035   2.19356
    A6        2.14222   0.00004   0.00010   0.00021   0.00031   2.14253
    A7        1.63764   0.00002  -0.00009   0.00018   0.00009   1.63773
    A8        1.94705   0.00000   0.00016  -0.00012   0.00004   1.94709
    A9        2.14222   0.00004   0.00010   0.00021   0.00031   2.14253
   A10        2.19391  -0.00003  -0.00026  -0.00009  -0.00035   2.19356
   A11        1.94652  -0.00001  -0.00012   0.00003  -0.00009   1.94643
   A12        2.14910  -0.00002  -0.00011  -0.00011  -0.00022   2.14888
   A13        2.18757   0.00003   0.00023   0.00008   0.00030   2.18787
    D1        0.00000   0.00000   0.00000   0.00000   0.00000   0.00000
    D2        3.14159   0.00000   0.00000   0.00000   0.00000   3.14159
    D3        3.14159   0.00000   0.00000   0.00000   0.00000   3.14159
    D4        0.00000   0.00000   0.00000   0.00000   0.00000   0.00000
    D5        0.00000   0.00000   0.00000   0.00000   0.00000   0.00000
    D6        3.14159   0.00000   0.00000   0.00000   0.00000   3.14159
    D7        3.14159   0.00000   0.00000   0.00000   0.00000   3.14159
    D8        0.00000   0.00000   0.00000   0.00000   0.00000   0.00000
    D9        0.00000   0.00000   0.00000   0.00000   0.00000   0.00000
   D10        3.14159   0.00000   0.00000   0.00000   0.00000   3.14159
   D11        0.00000   0.00000   0.00000   0.00000   0.00000   0.00000
   D12        3.14159   0.00000   0.00000   0.00000   0.00000   3.14159
   D13        0.00000   0.00000   0.00000   0.00000   0.00000   0.00000
   D14        3.14159   0.00000   0.00000   0.00000   0.00000   3.14159
   D15        3.14159   0.00000   0.00000   0.00000   0.00000   3.14159
   D16        0.00000   0.00000   0.00000   0.00000   0.00000   0.00000
         Item               Value     Threshold  Converged?
 Maximum Force            0.000150     0.000450     YES
 RMS     Force            0.000044     0.000300     YES
 Maximum Displacement     0.000365     0.001800     YES
 RMS     Displacement     0.000139     0.001200     YES
 Predicted change in Energy=-1.029688D-07
 Optimization completed.
    -- Stationary point found.
                           ----------------------------
                           !   Optimized Parameters   !
                           ! (Angstroms and Degrees)  !
 --------------------------                            --------------------------
 ! Name  Definition              Value          Derivative Info.                !
 --------------------------------------------------------------------------------
 ! R1    R(1,2)                  1.3773         -DE/DX =   -0.0002              !
 ! R2    R(1,5)                  1.432          -DE/DX =    0.0001              !
 ! R3    R(1,9)                  1.0915         -DE/DX =    0.0                 !
 ! R4    R(2,3)                  1.6724         -DE/DX =   -0.0001              !
 ! R5    R(2,8)                  1.0883         -DE/DX =    0.0                 !
 ! R6    R(3,4)                  1.6724         -DE/DX =   -0.0001              !
 ! R7    R(4,5)                  1.3773         -DE/DX =   -0.0002              !
 ! R8    R(4,7)                  1.0883         -DE/DX =    0.0                 !
 ! R9    R(5,6)                  1.0915         -DE/DX =    0.0                 !
 ! A1    A(2,1,5)              111.5272         -DE/DX =    0.0                 !
 ! A2    A(2,1,9)              125.3386         -DE/DX =    0.0                 !
 ! A3    A(5,1,9)              123.1343         -DE/DX =    0.0                 !
 ! A4    A(1,2,3)              111.5579         -DE/DX =    0.0                 !
 ! A5    A(1,2,8)              125.7019         -DE/DX =    0.0                 !
 ! A6    A(3,2,8)              122.7402         -DE/DX =    0.0                 !
 ! A7    A(2,3,4)               93.8298         -DE/DX =    0.0                 !
 ! A8    A(3,4,5)              111.5579         -DE/DX =    0.0                 !
 ! A9    A(3,4,7)              122.7402         -DE/DX =    0.0                 !
 ! A10   A(5,4,7)              125.7019         -DE/DX =    0.0                 !
 ! A11   A(1,5,4)              111.5272         -DE/DX =    0.0                 !
 ! A12   A(1,5,6)              123.1343         -DE/DX =    0.0                 !
 ! A13   A(4,5,6)              125.3386         -DE/DX =    0.0                 !
 ! D1    D(5,1,2,3)              0.0            -DE/DX =    0.0                 !
 ! D2    D(5,1,2,8)            180.0            -DE/DX =    0.0                 !
 ! D3    D(9,1,2,3)            180.0            -DE/DX =    0.0                 !
 ! D4    D(9,1,2,8)              0.0            -DE/DX =    0.0                 !
 ! D5    D(2,1,5,4)              0.0            -DE/DX =    0.0                 !
 ! D6    D(2,1,5,6)            180.0            -DE/DX =    0.0                 !
 ! D7    D(9,1,5,4)            180.0            -DE/DX =    0.0                 !
 ! D8    D(9,1,5,6)              0.0            -DE/DX =    0.0                 !
 ! D9    D(1,2,3,4)              0.0            -DE/DX =    0.0                 !
 ! D10   D(8,2,3,4)            180.0            -DE/DX =    0.0                 !
 ! D11   D(2,3,4,5)              0.0            -DE/DX =    0.0                 !
 ! D12   D(2,3,4,7)            180.0            -DE/DX =    0.0                 !
 ! D13   D(3,4,5,1)              0.0            -DE/DX =    0.0                 !
 ! D14   D(3,4,5,6)            180.0            -DE/DX =    0.0                 !
 ! D15   D(7,4,5,1)            180.0            -DE/DX =    0.0                 !
 ! D16   D(7,4,5,6)              0.0            -DE/DX =    0.0                 !
 --------------------------------------------------------------------------------
 Lowest energy point so far.  Saving SCF results.
 GradGradGradGradGradGradGradGradGradGradGradGradGradGradGradGradGradGrad

 Largest change from initial coordinates is atom    7       0.163 Angstoms.
 Leave Link  103 at Sun Jan 10 23:11:38 2016, MaxMem=    33554432 cpu:         0.0
 (Enter /opt/g09/g09/l202.exe)
                          Input orientation:                          
 ---------------------------------------------------------------------
 Center     Atomic      Atomic             Coordinates (Angstroms)
 Number     Number       Type             X           Y           Z
 ---------------------------------------------------------------------
      1          6           0        0.917355   -0.716013    0.000000
      2          6           0       -0.363893   -1.221412    0.000000
      3         16           0       -1.506273    0.000000    0.000000
      4          6           0       -0.363893    1.221412    0.000000
      5          6           0        0.917355    0.716013    0.000000
      6          1           0        1.831387    1.312642    0.000000
      7          1           0       -0.630386    2.276541    0.000000
      8          1           0       -0.630386   -2.276541    0.000000
      9          1           0        1.831387   -1.312642    0.000000
 ---------------------------------------------------------------------
                    Distance matrix (angstroms):
                    1          2          3          4          5
     1  C    0.000000
     2  C    1.377324   0.000000
     3  S    2.527182   1.672388   0.000000
     4  C    2.322759   2.442824   1.672388   0.000000
     5  C    1.432026   2.322759   2.527182   1.377324   0.000000
     6  H    2.225061   3.352713   3.586503   2.197174   1.091522
     7  H    3.369107   3.508089   2.439224   1.088262   2.197896
     8  H    2.197896   1.088262   2.439224   3.508089   3.369107
     9  H    1.091522   2.197174   3.586503   3.352713   2.225061
                    6          7          8          9
     6  H    0.000000
     7  H    2.643752   0.000000
     8  H    4.352305   4.553081   0.000000
     9  H    2.625285   4.352305   2.643752   0.000000
 Stoichiometry    C4H4S
 Framework group  C2V[C2(S),SGV(C4H4)]
 Deg. of freedom     8
 Full point group                 C2V     NOp   4
 RotChk:  IX=0 Diff= 2.86D-16
 Largest Abelian subgroup         C2V     NOp   4
 Largest concise Abelian subgroup C2      NOp   2
                         Standard orientation:                         
 ---------------------------------------------------------------------
 Center     Atomic      Atomic             Coordinates (Angstroms)
 Number     Number       Type             X           Y           Z
 ---------------------------------------------------------------------
      1          6           0        0.000000    0.716013   -1.259555
      2          6           0        0.000000    1.221412    0.021692
      3         16           0        0.000000    0.000000    1.164073
      4          6           0        0.000000   -1.221412    0.021692
      5          6           0        0.000000   -0.716013   -1.259555
      6          1           0        0.000000   -1.312642   -2.173587
      7          1           0        0.000000   -2.276541    0.288185
      8          1           0        0.000000    2.276541    0.288185
      9          1           0        0.000000    1.312642   -2.173587
 ---------------------------------------------------------------------
 Rotational constants (GHZ):      8.1476026      5.5574268      3.3038751
 Leave Link  202 at Sun Jan 10 23:11:38 2016, MaxMem=    33554432 cpu:         0.0
 (Enter /opt/g09/g09/l601.exe)
 Copying SCF densities to generalized density rwf, IOpCl= 0 IROHF=0.

 **********************************************************************

            Population analysis using the SCF density.

 **********************************************************************

 Orbital symmetries:
       Occupied  (A1) (B2) (A1) (B2) (A1) (A1) (B1) (B2) (B2) (A1)
                 (A1) (A2) (B1)
       Virtual   (B1) (A1) (B2) (A2) (B2) (A1) (B2) (A1) (A1) (B2)
                 (B2)
 The electronic state is 1-A1.
 Alpha  occ. eigenvalues --   -1.38554  -1.09697  -0.91981  -0.75566  -0.67603
 Alpha  occ. eigenvalues --   -0.60205  -0.50813  -0.50809  -0.48991  -0.48354
 Alpha  occ. eigenvalues --   -0.42887  -0.35108  -0.33877
 Alpha virt. eigenvalues --    0.00874   0.03402   0.05000   0.06466   0.15129
 Alpha virt. eigenvalues --    0.15939   0.16889   0.17308   0.18590   0.19852
 Alpha virt. eigenvalues --    0.20645
          Condensed to atoms (all electrons):
               1          2          3          4          5          6
     1  C    4.156682   0.000000   0.000000   0.000000   0.000000   0.000000
     2  C    0.000000   4.439131   0.000000   0.000000   0.000000   0.000000
     3  S    0.000000   0.000000   5.452083   0.000000   0.000000   0.000000
     4  C    0.000000   0.000000   0.000000   4.439131   0.000000   0.000000
     5  C    0.000000   0.000000   0.000000   0.000000   4.156682   0.000000
     6  H    0.000000   0.000000   0.000000   0.000000   0.000000   0.847646
     7  H    0.000000   0.000000   0.000000   0.000000   0.000000   0.000000
     8  H    0.000000   0.000000   0.000000   0.000000   0.000000   0.000000
     9  H    0.000000   0.000000   0.000000   0.000000   0.000000   0.000000
               7          8          9
     1  C    0.000000   0.000000   0.000000
     2  C    0.000000   0.000000   0.000000
     3  S    0.000000   0.000000   0.000000
     4  C    0.000000   0.000000   0.000000
     5  C    0.000000   0.000000   0.000000
     6  H    0.000000   0.000000   0.000000
     7  H    0.830499   0.000000   0.000000
     8  H    0.000000   0.830499   0.000000
     9  H    0.000000   0.000000   0.847646
 Mulliken charges:
               1
     1  C   -0.156682
     2  C   -0.439131
     3  S    0.547917
     4  C   -0.439131
     5  C   -0.156682
     6  H    0.152354
     7  H    0.169501
     8  H    0.169501
     9  H    0.152354
 Sum of Mulliken charges =   0.00000
 Mulliken charges with hydrogens summed into heavy atoms:
               1
     1  C   -0.004328
     2  C   -0.269630
     3  S    0.547917
     4  C   -0.269630
     5  C   -0.004328
 Charge=              0.0000 electrons
 Dipole moment (field-independent basis, Debye):
    X=              0.0000    Y=              0.0000    Z=              0.3440  Tot=              0.3440
 N-N= 9.368898438586D+01 E-N=-1.556589826058D+02  KE=-1.454291572359D+01
 Symmetry A1   KE=-7.603787642854D+00
 Symmetry A2   KE=-6.271477490840D-01
 Symmetry B1   KE=-1.395204567905D+00
 Symmetry B2   KE=-4.916775763753D+00
 Leave Link  601 at Sun Jan 10 23:11:38 2016, MaxMem=    33554432 cpu:         0.0
 (Enter /opt/g09/g09/l9999.exe)
 1\1\GINC-LINUX-CBNE\FOpt\RAM1\ZDO\C4H4S1\DUSTIN\10-Jan-2016\0\\#P AM1 
 Opt\\AM1-Reparam Input\\0,1\C,0.9173547221,-0.7160132376,0.\C,-0.36389
 26225,-1.2214119598,0.\S,-1.5062731019,0.,0.\C,-0.3638926225,1.2214119
 598,0.\C,0.9173547221,0.7160132376,0.\H,1.8313866883,1.3126423847,0.\H
 ,-0.6303857369,2.2765405958,0.\H,-0.6303857369,-2.2765405958,0.\H,1.83
 13866883,-1.3126423847,0.\\Version=ES64L-G09RevD.01\State=1-A1\HF=0.04
 35976\RMSD=4.310e-09\RMSF=7.475e-05\Dipole=-0.1353277,0.,0.\PG=C02V [C
 2(S1),SGV(C4H4)]\\@


 ONE OF THE BENEFITS OF A COLLEGE EDUCATION
 IS TO SHOW THE BOY ITS LITTLE AVAIL 
                                    EMERSON IN 'CULTURE'
 Job cpu time:       0 days  0 hours  0 minutes  1.4 seconds.
 File lengths (MBytes):  RWF=      5 Int=      0 D2E=      0 Chk=      2 Scr=      1
 Normal termination of Gaussian 09 at Sun Jan 10 23:11:39 2016.
