 Entering Gaussian System, Link 0=g09
 Input=best_input1.com
 Output=best_input1.log
 Initial command:
 /home/Applications/g09/g09/l1.exe "/home/Applications/g09/scratch/Gau-14480.inp" -scrdir="/home/Applications/g09/scratch/"
 Entering Link 1 = /home/Applications/g09/g09/l1.exe PID=     14482.
  
 Copyright (c) 1988,1990,1992,1993,1995,1998,2003,2009,2013,
            Gaussian, Inc.  All Rights Reserved.
  
 This is part of the Gaussian(R) 09 program.  It is based on
 the Gaussian(R) 03 system (copyright 2003, Gaussian, Inc.),
 the Gaussian(R) 98 system (copyright 1998, Gaussian, Inc.),
 the Gaussian(R) 94 system (copyright 1995, Gaussian, Inc.),
 the Gaussian 92(TM) system (copyright 1992, Gaussian, Inc.),
 the Gaussian 90(TM) system (copyright 1990, Gaussian, Inc.),
 the Gaussian 88(TM) system (copyright 1988, Gaussian, Inc.),
 the Gaussian 86(TM) system (copyright 1986, Carnegie Mellon
 University), and the Gaussian 82(TM) system (copyright 1983,
 Carnegie Mellon University). Gaussian is a federally registered
 trademark of Gaussian, Inc.
  
 This software contains proprietary and confidential information,
 including trade secrets, belonging to Gaussian, Inc.
  
 This software is provided under written license and may be
 used, copied, transmitted, or stored only in accord with that
 written license.
  
 The following legend is applicable only to US Government
 contracts under FAR:
  
                    RESTRICTED RIGHTS LEGEND
  
 Use, reproduction and disclosure by the US Government is
 subject to restrictions as set forth in subparagraphs (a)
 and (c) of the Commercial Computer Software - Restricted
 Rights clause in FAR 52.227-19.
  
 Gaussian, Inc.
 340 Quinnipiac St., Bldg. 40, Wallingford CT 06492
  
  
 ---------------------------------------------------------------
 Warning -- This program may not be used in any manner that
 competes with the business of Gaussian, Inc. or will provide
 assistance to any competitor of Gaussian, Inc.  The licensee
 of this program is prohibited from giving any competitor of
 Gaussian, Inc. access to this program.  By using this program,
 the user acknowledges that Gaussian, Inc. is engaged in the
 business of creating and licensing software in the field of
 computational chemistry and represents and warrants to the
 licensee that it is not a competitor of Gaussian, Inc. and that
 it will not use this program in any manner prohibited above.
 ---------------------------------------------------------------
  

 Cite this work as:
 Gaussian 09, Revision D.01,
 M. J. Frisch, G. W. Trucks, H. B. Schlegel, G. E. Scuseria, 
 M. A. Robb, J. R. Cheeseman, G. Scalmani, V. Barone, B. Mennucci, 
 G. A. Petersson, H. Nakatsuji, M. Caricato, X. Li, H. P. Hratchian, 
 A. F. Izmaylov, J. Bloino, G. Zheng, J. L. Sonnenberg, M. Hada, 
 M. Ehara, K. Toyota, R. Fukuda, J. Hasegawa, M. Ishida, T. Nakajima, 
 Y. Honda, O. Kitao, H. Nakai, T. Vreven, J. A. Montgomery, Jr., 
 J. E. Peralta, F. Ogliaro, M. Bearpark, J. J. Heyd, E. Brothers, 
 K. N. Kudin, V. N. Staroverov, T. Keith, R. Kobayashi, J. Normand, 
 K. Raghavachari, A. Rendell, J. C. Burant, S. S. Iyengar, J. Tomasi, 
 M. Cossi, N. Rega, J. M. Millam, M. Klene, J. E. Knox, J. B. Cross, 
 V. Bakken, C. Adamo, J. Jaramillo, R. Gomperts, R. E. Stratmann, 
 O. Yazyev, A. J. Austin, R. Cammi, C. Pomelli, J. W. Ochterski, 
 R. L. Martin, K. Morokuma, V. G. Zakrzewski, G. A. Voth, 
 P. Salvador, J. J. Dannenberg, S. Dapprich, A. D. Daniels, 
 O. Farkas, J. B. Foresman, J. V. Ortiz, J. Cioslowski, 
 and D. J. Fox, Gaussian, Inc., Wallingford CT, 2013.
 
 ******************************************
 Gaussian 09:  ES64L-G09RevD.01 24-Apr-2013
                 6-Oct-2015 
 ******************************************
 ------------------------------------------------------------
 #P AM1(Input,print) CIS(Singlets,NStates=15) pop(full) force
 ------------------------------------------------------------
 1/10=7,30=1,38=1/1,3;
 2/12=2,17=6,18=5,40=1/2;
 3/5=2,16=1,25=1,41=700000,71=1,135=100,136=1/1,2,8,3;
 4/35=1/1;
 5/5=2,35=1,38=5/2;
 8/6=1,10=1,108=15/1;
 9/15=2,41=15,42=1,48=1,49=10/14;
 10/5=4/2;
 6/7=3,18=1/1;
 7/12=6,13=5,29=1/1,2,3,16;
 1/10=7,30=1/3;
 99//99;
 Leave Link    1 at Tue Oct  6 15:41:39 2015, MaxMem=           0 cpu:         0.0
 (Enter /home/Applications/g09/g09/l101.exe)
 -----------------
 AM1-Reparam Input
 -----------------
 Symbolic Z-matrix:
 Charge =  0 Multiplicity = 1
 6                     0.95548  -0.71596   0. 
 6                    -0.34563  -1.09282   0. 
 8                    -1.15731   0.        0. 
 6                    -0.34563   1.09282   0. 
 6                     0.95548   0.71596   0. 
 1                     1.81044   1.36938   0. 
 1                    -0.84031   2.04688   0. 
 1                    -0.84031  -2.04688   0. 
 1                     1.81044  -1.36938   0. 
 
 NAtoms=      9 NQM=        9 NQMF=       0 NMMI=      0 NMMIF=      0
                NMic=       0 NMicF=      0.
                    Isotopes and Nuclear Properties:
 (Nuclear quadrupole moments (NQMom) in fm**2, nuclear magnetic moments (NMagM)
  in nuclear magnetons)

  Atom         1           2           3           4           5           6           7           8           9
 IAtWgt=          12          12          16          12          12           1           1           1           1
 AtmWgt=  12.0000000  12.0000000  15.9949146  12.0000000  12.0000000   1.0078250   1.0078250   1.0078250   1.0078250
 NucSpn=           0           0           0           0           0           1           1           1           1
 AtZEff=   0.0000000   0.0000000   0.0000000   0.0000000   0.0000000   0.0000000   0.0000000   0.0000000   0.0000000
 NQMom=    0.0000000   0.0000000   0.0000000   0.0000000   0.0000000   0.0000000   0.0000000   0.0000000   0.0000000
 NMagM=    0.0000000   0.0000000   0.0000000   0.0000000   0.0000000   2.7928460   2.7928460   2.7928460   2.7928460
 AtZNuc=   6.0000000   6.0000000   8.0000000   6.0000000   6.0000000   1.0000000   1.0000000   1.0000000   1.0000000
 Leave Link  101 at Tue Oct  6 15:41:39 2015, MaxMem=    33554432 cpu:         0.0
 (Enter /home/Applications/g09/g09/l103.exe)

 GradGradGradGradGradGradGradGradGradGradGradGradGradGradGradGradGradGrad
 Berny optimization.
 Initialization pass.
 Trust Radius=3.00D-01 FncErr=1.00D-07 GrdErr=1.00D-07
 Number of steps in this run=      2 maximum allowed number of steps=      2.
 GradGradGradGradGradGradGradGradGradGradGradGradGradGradGradGradGradGrad

 Leave Link  103 at Tue Oct  6 15:41:39 2015, MaxMem=    33554432 cpu:         0.0
 (Enter /home/Applications/g09/g09/l202.exe)
                          Input orientation:                          
 ---------------------------------------------------------------------
 Center     Atomic      Atomic             Coordinates (Angstroms)
 Number     Number       Type             X           Y           Z
 ---------------------------------------------------------------------
      1          6           0        0.955475   -0.715963    0.000000
      2          6           0       -0.345627   -1.092818    0.000000
      3          8           0       -1.157305    0.000000    0.000000
      4          6           0       -0.345627    1.092818    0.000000
      5          6           0        0.955475    0.715963    0.000000
      6          1           0        1.810438    1.369382    0.000000
      7          1           0       -0.840307    2.046884    0.000000
      8          1           0       -0.840307   -2.046884    0.000000
      9          1           0        1.810438   -1.369382    0.000000
 ---------------------------------------------------------------------
                    Distance matrix (angstroms):
                    1          2          3          4          5
     1  C    0.000000
     2  C    1.354580   0.000000
     3  O    2.230794   1.361276   0.000000
     4  C    2.228128   2.185636   1.361276   0.000000
     5  C    1.431926   2.228128   2.230794   1.354580   0.000000
     6  H    2.253802   3.272773   3.268441   2.173730   1.076066
     7  H    3.295172   3.178433   2.071285   1.074686   2.235214
     8  H    2.235214   1.074686   2.071285   3.178433   3.295172
     9  H    1.076066   2.173730   3.268441   3.272773   2.253802
                    6          7          8          9
     6  H    0.000000
     7  H    2.735957   0.000000
     8  H    4.324040   4.093768   0.000000
     9  H    2.738764   4.324040   2.735957   0.000000
 Stoichiometry    C4H4O
 Framework group  C2V[C2(O),SGV(C4H4)]
 Deg. of freedom     8
 Full point group                 C2V     NOp   4
 Largest Abelian subgroup         C2V     NOp   4
 Largest concise Abelian subgroup C2      NOp   2
                         Standard orientation:                         
 ---------------------------------------------------------------------
 Center     Atomic      Atomic             Coordinates (Angstroms)
 Number     Number       Type             X           Y           Z
 ---------------------------------------------------------------------
      1          6           0        0.000000    0.715963   -0.955475
      2          6           0        0.000000    1.092818    0.345627
      3          8           0        0.000000    0.000000    1.157305
      4          6           0        0.000000   -1.092818    0.345627
      5          6           0        0.000000   -0.715963   -0.955475
      6          1           0        0.000000   -1.369382   -1.810438
      7          1           0        0.000000   -2.046884    0.840307
      8          1           0        0.000000    2.046884    0.840307
      9          1           0        0.000000    1.369382   -1.810438
 ---------------------------------------------------------------------
 Rotational constants (GHZ):      9.5015164      9.3284592      4.7070963
 Leave Link  202 at Tue Oct  6 15:41:39 2015, MaxMem=    33554432 cpu:         0.0
 (Enter /home/Applications/g09/g09/l301.exe)

 Semi-emprical parameters in input format:
 Method=8 CoreType=1 PeptideFC=0.0108753712 RIJScale=0.5545008777
 ****
 H       
 PQN=1 NValence=1 F0ss=0.4681300200 ZetaOverlap=1.1988483625 U=-0.4536567276
 Beta=-0.2315023460 CoreKO=1.0013357501 KON=0,0,0,1.0365782609 KON=1,0,1,1.0589979680
 KON=0,1,1,1.0154735653 KON=2,1,1,0.9690131094 EISol=-0.4188110042 EHeat=0.0830298228
 Alpha=1.4993411102
 GCore=0.0083535551,1.4309930313,2.2756273413
 GCore=0.0003534810,1.4173295986,3.3342676123
 GCore=-0.0011930630,0.5600570362,3.8643992624
 ****
 C       
 PQN=2,2 NValence=4 F0ss=0.4585464124 F0sp=0.4215147623 F0pp=0.3698297679 F2pp=0.1898715146
 G1sp=0.2685883725
 ZetaOverlap=1.7467394076,1.7223405171
 U=-1.8757284859,-1.4684466808
 Beta=-0.5684576096,-0.3124321142 DDN=0,1,0.8293553639 DDN=1,1,0.7505034070
 CoreKO=1.1539409445 KON=0,0,0,1.1124284736 KON=1,0,1,0.8388880312 KON=0,1,1,1.0642467389
 KON=2,1,1,0.8431849133 EISol=-4.4398989268 EHeat=0.2723305520 Alpha=1.4049747747
 DipHyp=1.6586153008
 GCore=0.0007765241,1.4035000367,3.1193971049
 GCore=0.0030303115,1.3403896588,3.3947388590
 GCore=-0.0014771364,1.4145657734,3.8062782427
 GCore=-0.0000875529,1.4002300967,5.4060354289
 ****
 O       
 PQN=2,2 NValence=6 F0ss=0.5819363257 F0sp=0.5321302318 F0pp=0.4711845118 F2pp=0.2474740885
 G1sp=0.4343770262
 ZetaOverlap=3.0881976383,2.3930566402
 U=-3.5951865036,-2.8577642296
 Beta=-1.0677740861,-1.0949978277 DDN=0,1,0.5061066821 DDN=1,1,0.4679233615
 CoreKO=0.8801897962 KON=0,0,0,0.8349884955 KON=1,0,1,0.4920305229 KON=0,1,1,0.8822957477
 KON=2,1,1,0.5438026448 EISol=-11.6164441184 EHeat=0.0949133088 Alpha=2.3318994329
 DipHyp=1.0121551307
 GCore=0.0206715795,1.3906077840,1.6165557870
 GCore=0.0056550009,2.0024321962,2.7307884326
 ****
 
 Standard basis: VSTO-6G (5D, 7F)
 Ernie: Thresh=  0.10000D-02 Tol=  0.10000D-05 Strict=F.
  NNHCO=     0 NNPyr=     0 NCTC=     0               EPep=         0.000000000
    EC=        68.424451439  ECS=         1.826205263   EG=         0.363756131
   EHC=         0.000000000  EAt=       -31.051283842  AtH=         1.516354808
 EPDDG=         0.000000000  ECC=        70.614412833 EAtT=        32.567638650
 There are    10 symmetry adapted cartesian basis functions of A1  symmetry.
 There are     2 symmetry adapted cartesian basis functions of A2  symmetry.
 There are     3 symmetry adapted cartesian basis functions of B1  symmetry.
 There are     9 symmetry adapted cartesian basis functions of B2  symmetry.
 There are    10 symmetry adapted basis functions of A1  symmetry.
 There are     2 symmetry adapted basis functions of A2  symmetry.
 There are     3 symmetry adapted basis functions of B1  symmetry.
 There are     9 symmetry adapted basis functions of B2  symmetry.
    24 basis functions,   144 primitive gaussians,    24 cartesian basis functions
    13 alpha electrons       13 beta electrons
       nuclear repulsion energy       103.1820514832 Hartrees.
 IExCor=    0 DFT=F Ex=HF Corr=None ExCW=0 ScaHFX=  1.000000
 ScaDFX=  1.000000  1.000000  1.000000  1.000000 ScalE2=  1.000000  1.000000
 IRadAn=      0 IRanWt=     -1 IRanGd=            0 ICorTp=0 IEmpDi=  4
 Integral buffers will be    131072 words long.
 Regular integral format.
 Two-electron integral symmetry is turned off.
 Leave Link  301 at Tue Oct  6 15:41:39 2015, MaxMem=    33554432 cpu:         0.0
 (Enter /home/Applications/g09/g09/l302.exe)
 Do NDO integrals.
 NPDir=0 NMtPBC=     1 NCelOv=     1 NCel=       1 NClECP=     1 NCelD=      1
         NCelK=      1 NCelE2=     1 NClLst=     1 CellRange=     0.0.
 One-electron integrals computed using PRISM.
 NBasis=    24 RedAO= T EigKep=  1.00D+00  NBF=    10     2     3     9
 NBsUse=    24 1.00D-06 EigRej= -1.00D+00 NBFU=    10     2     3     9
 Leave Link  302 at Tue Oct  6 15:41:39 2015, MaxMem=    33554432 cpu:         0.0
 (Enter /home/Applications/g09/g09/l308.exe)
 Leave Link  308 at Tue Oct  6 15:41:39 2015, MaxMem=    33554432 cpu:         0.0
 (Enter /home/Applications/g09/g09/l303.exe)
 DipDrv:  MaxL=1.
 Leave Link  303 at Tue Oct  6 15:41:39 2015, MaxMem=    33554432 cpu:         0.0
 (Enter /home/Applications/g09/g09/l401.exe)
 Simple Huckel Guess.
 JPrj=0 DoOrth=F DoCkMO=F.
 Initial guess orbital symmetries:
       Occupied  (A1) (A1) (B2) (B2) (A1) (A1) (B1) (B2) (A1) (B2)
                 (A1) (B1) (A2)
       Virtual   (B1) (A2) (B2) (B2) (A1) (A1) (B2) (B2) (A1) (A1)
                 (B2)
 The electronic state of the initial guess is 1-A1.
 Leave Link  401 at Tue Oct  6 15:41:39 2015, MaxMem=    33554432 cpu:         0.0
 (Enter /home/Applications/g09/g09/l502.exe)
 Closed shell SCF:
 Using DIIS extrapolation, IDIIS=  1040.
 Overlap will be assumed to be unity.
 Two-electron integral symmetry not used.
 Keep J ints in memory in canonical form, NReq=888094.
 IVT=       79487 IEndB=       79487 NGot=    33554432 MDV=    33473461
 LenX=    33473461 LenY=    33472444
 Requested convergence on RMS density matrix=1.00D-08 within 128 cycles.
 Requested convergence on MAX density matrix=1.00D-06.
 Requested convergence on             energy=1.00D-06.
 No special actions if energy rises.
 FoFCou: FMM=F IPFlag=           0 FMFlag=           0 FMFlg1=           0
         NFxFlg=           0 DoJE=F BraDBF=F KetDBF=F FulRan=T
         wScrn=  0.000000 ICntrl=     600 IOpCl=  2 I1Cent=           0 NGrid=           0
         NMat0=    1 NMatS0=     54 NMatT0=    0 NMatD0=    1 NMtDS0=    0 NMtDT0=    0
 Symmetry not used in FoFCou.

 Cycle   1  Pass 1  IDiag  1:
 E=-0.290281820023850    
 DIIS: error= 5.04D-02 at cycle   1 NSaved=   1.
 NSaved= 1 IEnMin= 1 EnMin=-0.290281820023850     IErMin= 1 ErrMin= 5.04D-02
 ErrMax= 5.04D-02  0.00D+00 EMaxC= 1.00D-01 BMatC= 7.99D-02 BMatP= 7.99D-02
 IDIUse=3 WtCom= 4.96D-01 WtEn= 5.04D-01
 Coeff-Com:  0.100D+01
 Coeff-En:   0.100D+01
 Coeff:      0.100D+01
 GapD=    2.000 DampG=2.000 DampE=0.500 DampFc=1.0000 IDamp=-1.
 RMSDP=1.62D-02 MaxDP=1.50D-01              OVMax= 0.00D+00

 Cycle   2  Pass 1  IDiag  1:
 E=-0.487259932562367     Delta-E=       -0.196978112539 Rises=F Damp=F
 DIIS: error= 1.92D-02 at cycle   2 NSaved=   2.
 NSaved= 2 IEnMin= 2 EnMin=-0.487259932562367     IErMin= 2 ErrMin= 1.92D-02
 ErrMax= 1.92D-02  0.00D+00 EMaxC= 1.00D-01 BMatC= 7.22D-03 BMatP= 7.99D-02
 IDIUse=3 WtCom= 8.08D-01 WtEn= 1.92D-01
 Coeff-Com: -0.360D+00 0.136D+01
 Coeff-En:   0.000D+00 0.100D+01
 Coeff:     -0.291D+00 0.129D+01
 RMSDP=7.14D-03 MaxDP=6.76D-02 DE=-1.97D-01 OVMax= 0.00D+00

 Cycle   3  Pass 1  IDiag  3:
 E=-0.510886718243896     Delta-E=       -0.023626785682 Rises=F Damp=F
 DIIS: error= 3.50D-03 at cycle   3 NSaved=   3.
 NSaved= 3 IEnMin= 3 EnMin=-0.510886718243896     IErMin= 3 ErrMin= 3.50D-03
 ErrMax= 3.50D-03  0.00D+00 EMaxC= 1.00D-01 BMatC= 3.22D-04 BMatP= 7.22D-03
 IDIUse=3 WtCom= 9.65D-01 WtEn= 3.50D-02
 Coeff-Com:  0.130D+00-0.604D+00 0.147D+01
 Coeff-En:   0.000D+00 0.000D+00 0.100D+01
 Coeff:      0.126D+00-0.583D+00 0.146D+01
 Fock symm off for IB=2 I1=    1 I=   11 J=    5 Cut=1.00D-07 Err=5.86D-03
 Fock matrix is not symmetric: symmetry in diagonalization turned off.
 Gap=     0.390 Goal=   None    Shift=    0.000
 RMSDP=2.27D-03 MaxDP=2.74D-02 DE=-2.36D-02 OVMax= 2.38D-02

 Cycle   4  Pass 1  IDiag  3:
 E=-0.512534216321839     Delta-E=       -0.001647498078 Rises=F Damp=F
 DIIS: error= 8.08D-04 at cycle   4 NSaved=   4.
 NSaved= 4 IEnMin= 4 EnMin=-0.512534216321839     IErMin= 4 ErrMin= 8.08D-04
 ErrMax= 8.08D-04  0.00D+00 EMaxC= 1.00D-01 BMatC= 1.68D-05 BMatP= 3.22D-04
 IDIUse=3 WtCom= 9.92D-01 WtEn= 8.08D-03
 Coeff-Com:  0.774D-02-0.141D-01-0.242D+00 0.125D+01
 Coeff-En:   0.000D+00 0.000D+00 0.000D+00 0.100D+01
 Coeff:      0.768D-02-0.140D-01-0.240D+00 0.125D+01
 Gap=     0.391 Goal=   None    Shift=    0.000
 RMSDP=5.99D-04 MaxDP=7.42D-03 DE=-1.65D-03 OVMax= 7.05D-03

 Cycle   5  Pass 1  IDiag  3:
 E=-0.512625276968493     Delta-E=       -0.000091060647 Rises=F Damp=F
 DIIS: error= 8.64D-05 at cycle   5 NSaved=   5.
 NSaved= 5 IEnMin= 5 EnMin=-0.512625276968493     IErMin= 5 ErrMin= 8.64D-05
 ErrMax= 8.64D-05  0.00D+00 EMaxC= 1.00D-01 BMatC= 6.08D-07 BMatP= 1.68D-05
 IDIUse=1 WtCom= 1.00D+00 WtEn= 0.00D+00
 Coeff-Com: -0.367D-02 0.106D-01 0.764D-01-0.528D+00 0.145D+01
 Coeff:     -0.367D-02 0.106D-01 0.764D-01-0.528D+00 0.145D+01
 Gap=     0.391 Goal=   None    Shift=    0.000
 RMSDP=1.05D-04 MaxDP=8.08D-04 DE=-9.11D-05 OVMax= 9.64D-04

 Cycle   6  Pass 1  IDiag  3:
 E=-0.512628216911807     Delta-E=       -0.000002939943 Rises=F Damp=F
 DIIS: error= 1.70D-05 at cycle   6 NSaved=   6.
 NSaved= 6 IEnMin= 6 EnMin=-0.512628216911807     IErMin= 6 ErrMin= 1.70D-05
 ErrMax= 1.70D-05  0.00D+00 EMaxC= 1.00D-01 BMatC= 1.94D-08 BMatP= 6.08D-07
 IDIUse=1 WtCom= 1.00D+00 WtEn= 0.00D+00
 Coeff-Com:  0.125D-02-0.376D-02-0.190D-01 0.150D+00-0.525D+00 0.140D+01
 Coeff:      0.125D-02-0.376D-02-0.190D-01 0.150D+00-0.525D+00 0.140D+01
 Gap=     0.391 Goal=   None    Shift=    0.000
 RMSDP=2.03D-05 MaxDP=9.48D-05 DE=-2.94D-06 OVMax= 2.45D-04

 Cycle   7  Pass 1  IDiag  3:
 E=-0.512628322786014     Delta-E=       -0.000000105874 Rises=F Damp=F
 DIIS: error= 6.13D-06 at cycle   7 NSaved=   7.
 NSaved= 7 IEnMin= 7 EnMin=-0.512628322786014     IErMin= 7 ErrMin= 6.13D-06
 ErrMax= 6.13D-06  0.00D+00 EMaxC= 1.00D-01 BMatC= 9.76D-10 BMatP= 1.94D-08
 IDIUse=1 WtCom= 1.00D+00 WtEn= 0.00D+00
 Coeff-Com: -0.179D-03 0.251D-03 0.549D-02-0.351D-01 0.127D+00-0.489D+00
 Coeff-Com:  0.139D+01
 Coeff:     -0.179D-03 0.251D-03 0.549D-02-0.351D-01 0.127D+00-0.489D+00
 Coeff:      0.139D+01
 Gap=     0.391 Goal=   None    Shift=    0.000
 RMSDP=5.09D-06 MaxDP=3.91D-05 DE=-1.06D-07 OVMax= 5.99D-05

 Cycle   8  Pass 1  IDiag  3:
 E=-0.512628328906175     Delta-E=       -0.000000006120 Rises=F Damp=F
 DIIS: error= 2.14D-06 at cycle   8 NSaved=   8.
 NSaved= 8 IEnMin= 8 EnMin=-0.512628328906175     IErMin= 8 ErrMin= 2.14D-06
 ErrMax= 2.14D-06  0.00D+00 EMaxC= 1.00D-01 BMatC= 5.72D-11 BMatP= 9.76D-10
 IDIUse=1 WtCom= 1.00D+00 WtEn= 0.00D+00
 Coeff-Com:  0.134D-04 0.150D-03-0.221D-02 0.115D-01-0.407D-01 0.176D+00
 Coeff-Com: -0.672D+00 0.153D+01
 Coeff:      0.134D-04 0.150D-03-0.221D-02 0.115D-01-0.407D-01 0.176D+00
 Coeff:     -0.672D+00 0.153D+01
 Gap=     0.391 Goal=   None    Shift=    0.000
 RMSDP=1.66D-06 MaxDP=1.60D-05 DE=-6.12D-09 OVMax= 2.06D-05

 Cycle   9  Pass 1  IDiag  3:
 E=-0.512628329417922     Delta-E=       -0.000000000512 Rises=F Damp=F
 DIIS: error= 6.27D-07 at cycle   9 NSaved=   9.
 NSaved= 9 IEnMin= 9 EnMin=-0.512628329417922     IErMin= 9 ErrMin= 6.27D-07
 ErrMax= 6.27D-07  0.00D+00 EMaxC= 1.00D-01 BMatC= 4.98D-12 BMatP= 5.72D-11
 IDIUse=1 WtCom= 1.00D+00 WtEn= 0.00D+00
 Coeff-Com:  0.882D-05-0.138D-03 0.103D-02-0.469D-02 0.165D-01-0.772D-01
 Coeff-Com:  0.338D+00-0.101D+01 0.173D+01
 Coeff:      0.882D-05-0.138D-03 0.103D-02-0.469D-02 0.165D-01-0.772D-01
 Coeff:      0.338D+00-0.101D+01 0.173D+01
 Gap=     0.391 Goal=   None    Shift=    0.000
 RMSDP=6.02D-07 MaxDP=5.88D-06 DE=-5.12D-10 OVMax= 8.04D-06

 Cycle  10  Pass 1  IDiag  3:
 E=-0.512628329467816     Delta-E=       -0.000000000050 Rises=F Damp=F
 DIIS: error= 8.22D-08 at cycle  10 NSaved=  10.
 NSaved=10 IEnMin=10 EnMin=-0.512628329467816     IErMin=10 ErrMin= 8.22D-08
 ErrMax= 8.22D-08  0.00D+00 EMaxC= 1.00D-01 BMatC= 1.90D-13 BMatP= 4.98D-12
 IDIUse=1 WtCom= 1.00D+00 WtEn= 0.00D+00
 Coeff-Com: -0.634D-05 0.584D-04-0.302D-03 0.122D-02-0.431D-02 0.225D-01
 Coeff-Com: -0.108D+00 0.352D+00-0.758D+00 0.149D+01
 Coeff:     -0.634D-05 0.584D-04-0.302D-03 0.122D-02-0.431D-02 0.225D-01
 Coeff:     -0.108D+00 0.352D+00-0.758D+00 0.149D+01
 Gap=     0.391 Goal=   None    Shift=    0.000
 RMSDP=1.00D-07 MaxDP=8.95D-07 DE=-4.99D-11 OVMax= 1.18D-06

 Cycle  11  Pass 1  IDiag  3:
 E=-0.512628329469024     Delta-E=       -0.000000000001 Rises=F Damp=F
 DIIS: error= 7.67D-09 at cycle  11 NSaved=  11.
 NSaved=11 IEnMin=11 EnMin=-0.512628329469024     IErMin=11 ErrMin= 7.67D-09
 ErrMax= 7.67D-09  0.00D+00 EMaxC= 1.00D-01 BMatC= 3.72D-15 BMatP= 1.90D-13
 IDIUse=1 WtCom= 1.00D+00 WtEn= 0.00D+00
 Coeff-Com:  0.175D-05-0.160D-04 0.810D-04-0.330D-03 0.114D-02-0.582D-02
 Coeff-Com:  0.278D-01-0.910D-01 0.201D+00-0.467D+00 0.133D+01
 Coeff:      0.175D-05-0.160D-04 0.810D-04-0.330D-03 0.114D-02-0.582D-02
 Coeff:      0.278D-01-0.910D-01 0.201D+00-0.467D+00 0.133D+01
 Gap=     0.391 Goal=   None    Shift=    0.000
 RMSDP=8.65D-09 MaxDP=4.71D-08 DE=-1.21D-12 OVMax= 8.18D-08

 Cycle  12  Pass 2  IDiag  1:
 SCF Done:  E(RAM1) = -0.512628329469     A.U. after   12 cycles
            NFock= 11  Conv=0.87D-08     -V/T= 0.9701
 KE=-1.712808482187D+01 PE=-1.708746151081D+02 EE= 8.430802011726D+01
 Leave Link  502 at Tue Oct  6 15:41:39 2015, MaxMem=    33554432 cpu:         0.0
 (Enter /home/Applications/g09/g09/l801.exe)
 Range of M.O.s used for correlation:     1    24
 NBasis=    24 NAE=    13 NBE=    13 NFC=     0 NFV=     0
 NROrb=     24 NOA=    13 NOB=    13 NVA=    11 NVB=    11
 Leave Link  801 at Tue Oct  6 15:41:39 2015, MaxMem=    33554432 cpu:         0.0
 (Enter /home/Applications/g09/g09/l914.exe)
 RHF ground state
 MDV=    33554432 DFT=F DoStab=F Mixed=F DoRPA=F DoScal=F NonHer=F
 Making orbital integer symmetry assigments:
 Orbital symmetries:
       Occupied  (A1) (A1) (B2) (B2) (A1) (A1) (B1) (B2) (A1) (B2)
                 (A1) (B1) (A2)
       Virtual   (B1) (A2) (A1) (B2) (A1) (B2) (A1) (B2) (A1) (B2)
                 (B2)
    60 initial guesses have been made.
 Convergence on wavefunction:    0.000001000000000
 Davidson Disk Diagonalization:  ConvIn= 1.00D-06 SkipCon=T Conv= 1.00D-06.
 Max sub-space:   240 roots to seek:    60 dimension of matrix:          286
 Iteration     1 Dimension    60 NMult     0 NNew     60
 CISAX will form    60 AO SS matrices at one time.
 NMat=    60 NSing=    60 JSym2X= 0.
 FoFJK:  IHMeth= 8 ICntrl=       0 DoSepK=F KAlg= 0 I1Cent=   0 FoldK=F
 IRaf=         1 NMat= 120 IRICut=       1 DoRegI=T DoRafI=F ISym2E= 0.
 FoFCou: FMM=F IPFlag=           0 FMFlag=      100000 FMFlg1=           0
         NFxFlg=           0 DoJE=F BraDBF=F KetDBF=F FulRan=T
         wScrn=  0.000000 ICntrl=       0 IOpCl=  0 I1Cent=           0 NGrid=           0
         NMat0=  120 NMatS0=     60 NMatT0=    0 NMatD0=  120 NMtDS0=    0 NMtDT0=    0
 Symmetry not used in FoFCou.
 New state      3 was old state      5
 New state      4 was old state      3
 New state      5 was old state      4
 New state      8 was old state     12
 New state      9 was old state     19
 New state     10 was old state     14
 New state     11 was old state      8
 New state     12 was old state     10
 New state     13 was old state      9
 New state     14 was old state     17
 New state     15 was old state     13
 Excitation Energies [eV] at current iteration:
 Root      1 :     4.696817914305471
 Root      2 :     5.343140375485082
 Root      3 :     5.919194107416999
 Root      4 :     6.687057593415238
 Root      5 :     6.726399986655480
 Root      6 :     7.197782151236194
 Root      7 :     7.293822652675746
 Root      8 :     7.484612265816904
 Root      9 :     7.562603085020420
 Root     10 :     7.823158238780684
 Root     11 :     7.876071646964681
 Root     12 :     7.981165960459898
 Root     13 :     8.109543623142720
 Root     14 :     8.280844303481260
 Root     15 :     8.463590781017094
 Root     16 :     8.562810191235169
 Root     17 :     8.857683814590295
 Root     18 :     8.879927667104941
 Root     19 :     9.104292017738164
 Root     20 :     9.335319337673013
 Root     21 :     9.588715735426323
 Root     22 :     9.654668328743783
 Root     23 :     9.813171459812459
 Root     24 :     9.851720311869954
 Root     25 :    10.158643621518430
 Root     26 :    10.208370322047440
 Root     27 :    10.291580918477350
 Root     28 :    10.382278025944540
 Root     29 :    10.426710577433270
 Root     30 :    10.622634270159060
 Root     31 :    10.638420222602890
 Root     32 :    10.909997864166890
 Root     33 :    10.964900838075510
 Root     34 :    10.979357539243060
 Root     35 :    11.127199984812630
 Root     36 :    11.265103413752260
 Root     37 :    11.296746335745860
 Root     38 :    11.348005245055110
 Root     39 :    11.566117222376770
 Root     40 :    11.566409148485480
 Root     41 :    12.002514992374560
 Root     42 :    12.308728128643220
 Root     43 :    12.373290958230430
 Root     44 :    12.392218796166850
 Root     45 :    12.683556063779390
 Root     46 :    12.734167624432480
 Root     47 :    12.876402054051090
 Root     48 :    12.959051487583960
 Root     49 :    13.071796040929350
 Root     50 :    13.402610672682640
 Root     51 :    13.456805531083320
 Root     52 :    13.796333275658340
 Root     53 :    13.827728249247820
 Root     54 :    13.840918523113720
 Root     55 :    14.201470853680190
 Root     56 :    14.277020434980300
 Root     57 :    14.404621177007710
 Root     58 :    14.404998806126630
 Root     59 :    14.807872055144620
 Root     60 :    15.129924259501280
 Iteration     2 Dimension   113 NMult    60 NNew     53
 CISAX will form    53 AO SS matrices at one time.
 NMat=    53 NSing=    53 JSym2X= 0.
 Root      1 not converged, maximum delta is    0.041317285722629
 Root      2 not converged, maximum delta is    0.007981866856813
 Root      3 not converged, maximum delta is    0.028365380714141
 Root      4 not converged, maximum delta is    0.033178611335294
 Root      5 not converged, maximum delta is    0.028184885759572
 New state      6 was old state      7
 Root      6 not converged, maximum delta is    0.139754165591444
 New state      7 was old state      6
 Root      7 not converged, maximum delta is    0.128061663782226
 Root      8 not converged, maximum delta is    0.088147213499447
 Root      9 not converged, maximum delta is    0.041456054880038
 Root     10 not converged, maximum delta is    0.199059795088852
 Root     11 not converged, maximum delta is    0.178948301217538
 Root     12 not converged, maximum delta is    0.094292509684935
 Root     13 not converged, maximum delta is    0.049529668734160
 Root     14 not converged, maximum delta is    0.054842888910867
 Root     15 not converged, maximum delta is    0.064038678415124
 Excitation Energies [eV] at current iteration:
 Root      1 :     4.634388764856490   Change is   -0.062429149448981
 Root      2 :     5.336866606017642   Change is   -0.006273769467441
 Root      3 :     5.888620396799226   Change is   -0.030573710617773
 Root      4 :     6.577341732907914   Change is   -0.109715860507324
 Root      5 :     6.679836391377376   Change is   -0.046563595278104
 Root      6 :     7.083086657699420   Change is   -0.210735994976326
 Root      7 :     7.143986568400094   Change is   -0.053795582836100
 Root      8 :     7.400801983356480   Change is   -0.083810282460424
 Root      9 :     7.439637427966399   Change is   -0.122965657054021
 Root     10 :     7.727337873396786   Change is   -0.095820365383898
 Root     11 :     7.775556535542964   Change is   -0.100515111421718
 Root     12 :     7.880030266843641   Change is   -0.101135693616257
 Root     13 :     8.066096795809180   Change is   -0.043446827333541
 Root     14 :     8.197050517213691   Change is   -0.083793786267570
 Root     15 :     8.355936209746835   Change is   -0.107654571270258
 Root     16 :     8.430529191720343   Change is   -0.132280999514825
 Root     17 :     8.757929676305171   Change is   -0.099754138285124
 Root     18 :     8.829967218813685   Change is   -0.049960448291254
 Root     19 :     9.056728521528848   Change is   -0.047563496209315
 Root     20 :     9.212894437350261   Change is   -0.122424900322752
 Root     21 :     9.293318205513671   Change is   -0.361350123230113
 Root     22 :     9.460170841196685   Change is   -0.128544894229637
 Root     23 :     9.613518005660696   Change is   -0.238202306209257
 Root     24 :     9.778264185874709   Change is   -0.513316732602635
 Root     25 :     9.796616186301286   Change is   -0.016555273511174
 Root     26 :    10.059065835373050   Change is   -0.149304486674392
 Root     27 :    10.121713887995110   Change is   -0.516706334607776
 Root     28 :    10.137421555261140   Change is   -0.021222066257285
 Root     29 :    10.249062996557810   Change is   -0.730294542685256
 Root     30 :    10.298257247183010   Change is   -0.084020778761523
 Root     31 :    10.353148302356120   Change is   -0.073562275077154
 Root     32 :    10.401829672196560   Change is   -0.725370312616071
 Root     33 :    10.542284846074510   Change is   -0.367713018092379
 Root     34 :    10.580027774651130   Change is   -0.042606495507931
 Root     35 :    10.721832931748150   Change is   -0.243067906327358
 Root     36 :    10.808979477699600   Change is   -0.757137744677166
 Root     37 :    10.897177350224320   Change is   -0.450827894830789
 Root     38 :    10.916446451232050   Change is   -0.348656962520207
 Root     39 :    11.086956160194370   Change is   -0.479452988291118
 Root     40 :    11.220681890429730   Change is   -0.076064445316126
 Root     41 :    11.625579425098060   Change is   -0.747711533132375
 Root     42 :    11.831805843411110   Change is   -0.170709148963447
 Root     43 :    11.916480643824070   Change is   -0.392247484819156
 Root     44 :    12.101994620698230   Change is   -0.290224175468624
 Root     45 :    12.284844629333540   Change is   -0.398711434445843
 Root     46 :    12.384317607204900
 Root     47 :    12.433871125507930   Change is   -0.300296498924550
 Root     48 :    12.710908861656320   Change is   -0.165493192394773
 Root     49 :    12.780975418850020   Change is   -0.178076068733937
 Root     50 :    12.848950589566960   Change is   -0.222845451362380
 Root     51 :    13.036465952457780   Change is   -0.420339578625538
 Root     52 :    13.162760066019490   Change is   -0.239850606663160
 Root     53 :    13.493878666583030   Change is   -0.333849582664789
 Root     54 :    13.607284878811280   Change is   -0.189048396847061
 Root     55 :    13.738123186769560   Change is   -0.463347666910632
 Root     56 :    13.784825229578120   Change is   -0.056093293535604
 Root     57 :    13.943358003622300   Change is   -0.333662431357995
 Root     58 :    13.997604442902650   Change is   -0.407394363223976
 Root     59 :    14.222189513490260
 Root     60 :    14.222361471988990   Change is   -0.182259705018722
 Iteration     3 Dimension   117 NMult   113 NNew      4
 CISAX will form     4 AO SS matrices at one time.
 NMat=     4 NSing=     4 JSym2X= 0.
 Root      1 not converged, maximum delta is    0.002108785220434
 Root      2 not converged, maximum delta is    0.000521964757368
 Root      3 has converged.
 Root      4 not converged, maximum delta is    0.001831539591878
 Root      5 not converged, maximum delta is    0.001577935405951
 Root      6 has converged.
 Root      7 has converged.
 Root      8 has converged.
 Root      9 has converged.
 Root     10 has converged.
 Root     11 has converged.
 Root     12 has converged.
 Root     13 has converged.
 Root     14 has converged.
 Root     15 has converged.
 Excitation Energies [eV] at current iteration:
 Root      1 :     4.633828092347472   Change is   -0.000560672509018
 Root      2 :     5.336824819206145   Change is   -0.000041786811497
 Root      3 :     5.888620396799250   Change is    0.000000000000024
 Root      4 :     6.576483474107095   Change is   -0.000858258800820
 Root      5 :     6.679555091808325   Change is   -0.000281299569051
 Root      6 :     7.083086657699456   Change is    0.000000000000036
 Root      7 :     7.143986568400094   Change is    0.000000000000000
 Root      8 :     7.400801983356504   Change is    0.000000000000024
 Root      9 :     7.439637427966406   Change is    0.000000000000006
 Root     10 :     7.727337873396817   Change is    0.000000000000030
 Root     11 :     7.775556535542981   Change is    0.000000000000018
 Root     12 :     7.880030266843630   Change is   -0.000000000000012
 Root     13 :     8.066096795809168   Change is   -0.000000000000012
 Root     14 :     8.197050517213661   Change is   -0.000000000000030
 Root     15 :     8.355936209746835   Change is    0.000000000000000
 Iteration     4 Dimension   121 NMult   117 NNew      4
 CISAX will form     4 AO SS matrices at one time.
 NMat=     4 NSing=     4 JSym2X= 0.
 Root      1 not converged, maximum delta is    0.000097753822680
 Root      2 not converged, maximum delta is    0.000027689584315
 Root      3 has converged.
 Root      4 not converged, maximum delta is    0.000274420055875
 Root      5 not converged, maximum delta is    0.000131323556955
 Root      6 has converged.
 Root      7 has converged.
 Root      8 has converged.
 Root      9 has converged.
 Root     10 has converged.
 Root     11 has converged.
 Root     12 has converged.
 Root     13 has converged.
 Root     14 has converged.
 Root     15 has converged.
 Excitation Energies [eV] at current iteration:
 Root      1 :     4.633825532773360   Change is   -0.000002559574112
 Root      2 :     5.336824561361990   Change is   -0.000000257844155
 Root      3 :     5.888620396799226   Change is   -0.000000000000024
 Root      4 :     6.576474183029529   Change is   -0.000009291077565
 Root      5 :     6.679552118785787   Change is   -0.000002973022538
 Root      6 :     7.083086657699414   Change is   -0.000000000000042
 Root      7 :     7.143986568400064   Change is   -0.000000000000030
 Root      8 :     7.400801983356498   Change is   -0.000000000000006
 Root      9 :     7.439637427966399   Change is   -0.000000000000006
 Root     10 :     7.727337873396810   Change is   -0.000000000000006
 Root     11 :     7.775556535542964   Change is   -0.000000000000018
 Root     12 :     7.880030266843635   Change is    0.000000000000006
 Root     13 :     8.066096795809180   Change is    0.000000000000012
 Root     14 :     8.197050517213667   Change is    0.000000000000006
 Root     15 :     8.355936209746835   Change is    0.000000000000000
 Iteration     5 Dimension   125 NMult   121 NNew      4
 CISAX will form     4 AO SS matrices at one time.
 NMat=     4 NSing=     4 JSym2X= 0.
 Root      1 not converged, maximum delta is    0.000006611980703
 Root      2 not converged, maximum delta is    0.000002061897361
 Root      3 has converged.
 Root      4 not converged, maximum delta is    0.000019050047902
 Root      5 not converged, maximum delta is    0.000015563684883
 Root      6 has converged.
 Root      7 has converged.
 Root      8 has converged.
 Root      9 has converged.
 Root     10 has converged.
 Root     11 has converged.
 Root     12 has converged.
 Root     13 has converged.
 Root     14 has converged.
 Root     15 has converged.
 Excitation Energies [eV] at current iteration:
 Root      1 :     4.633825524571305   Change is   -0.000000008202055
 Root      2 :     5.336824560376353   Change is   -0.000000000985636
 Root      3 :     5.888620396799250   Change is    0.000000000000024
 Root      4 :     6.576474080157911   Change is   -0.000000102871619
 Root      5 :     6.679552082533835   Change is   -0.000000036251952
 Root      6 :     7.083086657699480   Change is    0.000000000000066
 Root      7 :     7.143986568400082   Change is    0.000000000000018
 Root      8 :     7.400801983356486   Change is   -0.000000000000012
 Root      9 :     7.439637427966393   Change is   -0.000000000000006
 Root     10 :     7.727337873396786   Change is   -0.000000000000024
 Root     11 :     7.775556535542964   Change is    0.000000000000000
 Root     12 :     7.880030266843635   Change is    0.000000000000000
 Root     13 :     8.066096795809173   Change is   -0.000000000000006
 Root     14 :     8.197050517213679   Change is    0.000000000000012
 Root     15 :     8.355936209746847   Change is    0.000000000000012
 Iteration     6 Dimension   129 NMult   125 NNew      4
 CISAX will form     4 AO SS matrices at one time.
 NMat=     4 NSing=     4 JSym2X= 0.
 Root      1 has converged.
 Root      2 has converged.
 Root      3 has converged.
 Root      4 not converged, maximum delta is    0.000001401227255
 Root      5 not converged, maximum delta is    0.000001525436198
 Root      6 has converged.
 Root      7 has converged.
 Root      8 has converged.
 Root      9 has converged.
 Root     10 has converged.
 Root     11 has converged.
 Root     12 has converged.
 Root     13 has converged.
 Root     14 has converged.
 Root     15 has converged.
 Excitation Energies [eV] at current iteration:
 Root      1 :     4.633825524533807   Change is   -0.000000000037498
 Root      2 :     5.336824560368046   Change is   -0.000000000008308
 Root      3 :     5.888620396799262   Change is    0.000000000000012
 Root      4 :     6.576474079776953   Change is   -0.000000000380957
 Root      5 :     6.679552082116939   Change is   -0.000000000416896
 Root      6 :     7.083086657699468   Change is   -0.000000000000012
 Root      7 :     7.143986568400137   Change is    0.000000000000054
 Root      8 :     7.400801983356455   Change is   -0.000000000000030
 Root      9 :     7.439637427966382   Change is   -0.000000000000012
 Root     10 :     7.727337873396804   Change is    0.000000000000018
 Root     11 :     7.775556535542964   Change is    0.000000000000000
 Root     12 :     7.880030266843647   Change is    0.000000000000012
 Root     13 :     8.066096795809203   Change is    0.000000000000030
 Root     14 :     8.197050517213674   Change is   -0.000000000000006
 Root     15 :     8.355936209746842   Change is   -0.000000000000006
 Iteration     7 Dimension   131 NMult   129 NNew      2
 CISAX will form     2 AO SS matrices at one time.
 NMat=     2 NSing=     2 JSym2X= 0.
 Root      1 has converged.
 Root      2 has converged.
 Root      3 has converged.
 Root      4 has converged.
 Root      5 has converged.
 Root      6 has converged.
 Root      7 has converged.
 Root      8 has converged.
 Root      9 has converged.
 Root     10 has converged.
 Root     11 has converged.
 Root     12 has converged.
 Root     13 has converged.
 Root     14 has converged.
 Root     15 has converged.
 Excitation Energies [eV] at current iteration:
 Root      1 :     4.633825524533831   Change is    0.000000000000024
 Root      2 :     5.336824560368040   Change is   -0.000000000000006
 Root      3 :     5.888620396799244   Change is   -0.000000000000018
 Root      4 :     6.576474079774681   Change is   -0.000000000002272
 Root      5 :     6.679552082113145   Change is   -0.000000000003794
 Root      6 :     7.083086657699480   Change is    0.000000000000012
 Root      7 :     7.143986568400076   Change is   -0.000000000000060
 Root      8 :     7.400801983356486   Change is    0.000000000000030
 Root      9 :     7.439637427966406   Change is    0.000000000000024
 Root     10 :     7.727337873396804   Change is    0.000000000000000
 Root     11 :     7.775556535542951   Change is   -0.000000000000012
 Root     12 :     7.880030266843653   Change is    0.000000000000006
 Root     13 :     8.066096795809168   Change is   -0.000000000000036
 Root     14 :     8.197050517213674   Change is    0.000000000000000
 Root     15 :     8.355936209746842   Change is    0.000000000000000
 Convergence achieved on expansion vectors.
 ***********************************************************************
 Excited states from <AA,BB:AA,BB> singles matrix:
 ***********************************************************************
 
 1PDM for each excited state written to RWF  633
 Ground to excited state transition densities written to RWF  633
 Ground to excited state transition electric dipole moments (Au):
       state          X           Y           Z        Dip. S.      Osc.
         1         0.0000     -0.8851      0.0000      0.7834      0.0889
         2         0.0000      0.0000      0.3007      0.0904      0.0118
         3         0.0000      0.0000      0.0000      0.0000      0.0000
         4         0.0000      0.0000     -1.7841      3.1831      0.5129
         5         0.0000     -1.0730      0.0000      1.1513      0.1884
         6        -0.0872      0.0000      0.0000      0.0076      0.0013
         7         0.0255      0.0000      0.0000      0.0007      0.0001
         8        -0.0035      0.0000      0.0000      0.0000      0.0000
         9         0.0000      0.0000      0.0000      0.0000      0.0000
        10         0.0000      0.0000      0.0000      0.0000      0.0000
        11         0.0000      0.0000      0.0000      0.0000      0.0000
        12         0.2516      0.0000      0.0000      0.0633      0.0122
        13         0.1018      0.0000      0.0000      0.0104      0.0020
        14         0.0000      0.0000      0.0000      0.0000      0.0000
        15         0.0000      0.0000      0.0000      0.0000      0.0000
 Ground to excited state transition velocity dipole moments (Au):
       state          X           Y           Z        Dip. S.      Osc.
         1         0.0000      0.0402      0.0000      0.0016      0.0063
         2         0.0000      0.0000     -0.0118      0.0001      0.0005
         3         0.0000      0.0000      0.0000      0.0000      0.0000
         4         0.0000      0.0000      0.3612      0.1305      0.3599
         5         0.0000      0.1699      0.0000      0.0289      0.0784
         6         0.0761      0.0000      0.0000      0.0058      0.0148
         7        -0.1567      0.0000      0.0000      0.0245      0.0623
         8        -0.0126      0.0000      0.0000      0.0002      0.0004
         9         0.0000      0.0000      0.0000      0.0000      0.0000
        10         0.0000      0.0000      0.0000      0.0000      0.0000
        11         0.0000      0.0000      0.0000      0.0000      0.0000
        12        -0.0190      0.0000      0.0000      0.0004      0.0008
        13         0.0515      0.0000      0.0000      0.0027      0.0060
        14         0.0000      0.0000      0.0000      0.0000      0.0000
        15         0.0000      0.0000      0.0000      0.0000      0.0000
 Ground to excited state transition magnetic dipole moments (Au):
       state          X           Y           Z
         1         0.6274      0.0000      0.0000
         2         0.0000      0.0000      0.0000
         3         0.0000      0.0000     -0.5907
         4         0.0000      0.0000      0.0000
         5         0.1301      0.0000      0.0000
         6         0.0000     -0.3819      0.0000
         7         0.0000      0.0526      0.0000
         8         0.0000     -1.1319      0.0000
         9         0.0000      0.0000     -0.2501
        10         0.0000      0.0000      0.9980
        11         0.0000      0.0000     -0.5395
        12         0.0000     -1.2571      0.0000
        13         0.0000      0.0688      0.0000
        14         0.0000      0.0000     -0.7137
        15         0.0000      0.0000      0.0856
 Ground to excited state transition velocity quadrupole moments (Au):
       state          XX          YY          ZZ          XY          XZ          YZ
         1         0.0000      0.0000      0.0000      0.0000      0.0000      0.5256
         2        -0.0753     -0.1179      0.1337      0.0000      0.0000      0.0000
         3         0.0000      0.0000      0.0000     -0.2332      0.0000      0.0000
         4        -0.0361      0.4948     -0.3247      0.0000      0.0000      0.0000
         5         0.0000      0.0000      0.0000      0.0000      0.0000     -0.5315
         6         0.0000      0.0000      0.0000      0.0000      0.0256      0.0000
         7         0.0000      0.0000      0.0000      0.0000     -0.2354      0.0000
         8         0.0000      0.0000      0.0000      0.0000      0.2467      0.0000
         9         0.0000      0.0000      0.0000     -0.2030      0.0000      0.0000
        10         0.0000      0.0000      0.0000     -0.0451      0.0000      0.0000
        11         0.0000      0.0000      0.0000      0.2447      0.0000      0.0000
        12         0.0000      0.0000      0.0000      0.0000     -0.0919      0.0000
        13         0.0000      0.0000      0.0000      0.0000      0.0165      0.0000
        14         0.0000      0.0000      0.0000     -0.1658      0.0000      0.0000
        15         0.0000      0.0000      0.0000      0.1499      0.0000      0.0000
 <0|del|b> * <b|rxdel|0> + <0|del|b> * <b|delr+rdel|0>
 Rotatory Strengths (R) in cgs (10**-40 erg-esu-cm/Gauss)
       state          XX          YY          ZZ    R(velocity)    E-M Angle
         1         0.0000      0.0000      0.0000      0.0000       90.00
         2         0.0000      0.0000      0.0000      0.0000       90.00
         3         0.0000      0.0000      0.0000      0.0000       90.00
         4         0.0000      0.0000      0.0000      0.0000       90.00
         5         0.0000      0.0000      0.0000      0.0000       90.00
         6         0.0000      0.0000      0.0000      0.0000       90.00
         7         0.0000      0.0000      0.0000      0.0000       90.00
         8         0.0000      0.0000      0.0000      0.0000       90.00
         9         0.0000      0.0000      0.0000      0.0000       90.00
        10         0.0000      0.0000      0.0000      0.0000       90.00
        11         0.0000      0.0000      0.0000      0.0000       90.00
        12         0.0000      0.0000      0.0000      0.0000       90.00
        13         0.0000      0.0000      0.0000      0.0000       90.00
        14         0.0000      0.0000      0.0000      0.0000       90.00
        15         0.0000      0.0000      0.0000      0.0000       90.00
 1/2[<0|r|b>*<b|rxdel|0> + (<0|rxdel|b>*<b|r|0>)*]
 Rotatory Strengths (R) in cgs (10**-40 erg-esu-cm/Gauss)
       state          XX          YY          ZZ     R(length)
         1         0.0000      0.0000      0.0000      0.0000
         2         0.0000      0.0000      0.0000      0.0000
         3         0.0000      0.0000      0.0000      0.0000
         4         0.0000      0.0000      0.0000      0.0000
         5         0.0000      0.0000      0.0000      0.0000
         6         0.0000      0.0000      0.0000      0.0000
         7         0.0000      0.0000      0.0000      0.0000
         8         0.0000      0.0000      0.0000      0.0000
         9         0.0000      0.0000      0.0000      0.0000
        10         0.0000      0.0000      0.0000      0.0000
        11         0.0000      0.0000      0.0000      0.0000
        12         0.0000      0.0000      0.0000      0.0000
        13         0.0000      0.0000      0.0000      0.0000
        14         0.0000      0.0000      0.0000      0.0000
        15         0.0000      0.0000      0.0000      0.0000
  1/2[<0|del|b>*<b|r|0> + (<0|r|b>*<b|del|0>)*] (Au)
       state          X           Y           Z        Dip. S.   Osc.(frdel)
         1         0.0000     -0.0356      0.0000      0.0356      0.0237
         2         0.0000      0.0000     -0.0035      0.0035      0.0024
         3         0.0000      0.0000      0.0000      0.0000      0.0000
         4         0.0000      0.0000     -0.6444      0.6444      0.4296
         5         0.0000     -0.1823      0.0000      0.1823      0.1216
         6        -0.0066      0.0000      0.0000      0.0066      0.0044
         7        -0.0040      0.0000      0.0000      0.0040      0.0027
         8         0.0000      0.0000      0.0000      0.0000      0.0000
         9         0.0000      0.0000      0.0000      0.0000      0.0000
        10         0.0000      0.0000      0.0000      0.0000      0.0000
        11         0.0000      0.0000      0.0000      0.0000      0.0000
        12        -0.0048      0.0000      0.0000      0.0048      0.0032
        13         0.0052      0.0000      0.0000     -0.0052     -0.0035
        14         0.0000      0.0000      0.0000      0.0000      0.0000
        15         0.0000      0.0000      0.0000      0.0000      0.0000

 Excitation energies and oscillator strengths:
 
 Excited State   1:      Singlet-B2     4.6338 eV  267.56 nm  f=0.0889  <S**2>=0.000
      12 -> 15        -0.24868
      13 -> 14         0.65575
 This state for optimization and/or second-order correction.
 Total Energy, E(CIS) = -0.342338367434    
 Copying the excited state density for this state as the 1-particle RhoCI density.
 
 Excited State   2:      Singlet-A1     5.3368 eV  232.32 nm  f=0.0118  <S**2>=0.000
      12 -> 14         0.39401
      13 -> 15         0.58413
 
 Excited State   3:      Singlet-A2     5.8886 eV  210.55 nm  f=0.0000  <S**2>=0.000
      13 -> 16         0.68615
      13 -> 20        -0.12567
 
 Excited State   4:      Singlet-A1     6.5765 eV  188.53 nm  f=0.5129  <S**2>=0.000
      12 -> 14         0.56903
      13 -> 15        -0.37967
 
 Excited State   5:      Singlet-B2     6.6796 eV  185.62 nm  f=0.1884  <S**2>=0.000
      12 -> 15         0.65492
      13 -> 14         0.24169
 
 Excited State   6:      Singlet-B1     7.0831 eV  175.04 nm  f=0.0013  <S**2>=0.000
       7 -> 16        -0.12661
      12 -> 16         0.65461
      12 -> 18         0.12767
      12 -> 20        -0.10188
      13 -> 24         0.10937
 
 Excited State   7:      Singlet-B1     7.1440 eV  173.55 nm  f=0.0001  <S**2>=0.000
      12 -> 22         0.12974
      13 -> 17         0.62549
      13 -> 19         0.18961
      13 -> 21         0.16654
 
 Excited State   8:      Singlet-B1     7.4008 eV  167.53 nm  f=0.0000  <S**2>=0.000
       9 -> 14         0.39861
      10 -> 15        -0.32755
      11 -> 14         0.35285
      12 -> 22        -0.10393
      13 -> 17         0.15233
      13 -> 19        -0.16461
      13 -> 24        -0.15365
 
 Excited State   9:      Singlet-A2     7.4396 eV  166.65 nm  f=0.0000  <S**2>=0.000
       9 -> 15         0.10065
      10 -> 14        -0.32242
      11 -> 15         0.20951
      12 -> 19         0.12801
      12 -> 21         0.15549
      12 -> 24         0.13761
      13 -> 18         0.33242
      13 -> 22         0.39366
 
 Excited State  10:      Singlet-A2     7.7273 eV  160.45 nm  f=0.0000  <S**2>=0.000
       9 -> 15        -0.11147
      10 -> 14         0.42342
      11 -> 15        -0.27137
      12 -> 17         0.19166
      12 -> 19         0.11381
      12 -> 21         0.16287
      13 -> 20         0.11162
      13 -> 22         0.34764
 
 Excited State  11:      Singlet-A2     7.7756 eV  159.45 nm  f=0.0000  <S**2>=0.000
      10 -> 14         0.20683
      12 -> 17        -0.39939
      12 -> 19        -0.11555
      13 -> 18         0.48125
      13 -> 22        -0.10520
 
 Excited State  12:      Singlet-B1     7.8800 eV  157.34 nm  f=0.0122  <S**2>=0.000
       9 -> 14         0.26036
      10 -> 15        -0.15649
      12 -> 16        -0.13734
      12 -> 18         0.19515
      12 -> 22         0.25416
      13 -> 17        -0.16655
      13 -> 19         0.29977
      13 -> 21         0.25686
      13 -> 24         0.29184
 
 Excited State  13:      Singlet-B1     8.0661 eV  153.71 nm  f=0.0020  <S**2>=0.000
       8 -> 15         0.12014
       9 -> 14        -0.36921
      11 -> 14         0.56247
      13 -> 17        -0.11166
 
 Excited State  14:      Singlet-A2     8.1971 eV  151.25 nm  f=0.0000  <S**2>=0.000
       8 -> 14         0.11229
       9 -> 15        -0.30968
      10 -> 14         0.23930
      11 -> 15         0.53425
      13 -> 20         0.14442
 
 Excited State  15:      Singlet-A2     8.3559 eV  148.38 nm  f=0.0000  <S**2>=0.000
      12 -> 17        -0.21567
      12 -> 19        -0.31179
      12 -> 21        -0.14788
      12 -> 23         0.10999
      12 -> 24         0.13976
      13 -> 18        -0.11652
      13 -> 20         0.47535
      13 -> 22         0.18657
 SavETr:  write IOETrn=   770 NScale= 10 NData=  16 NLR=1 NState=   15 LETran=     280.
 The selected state is a singlet
 CISAX will form     1 AO SS matrices at one time.
 NMat=     1 NSing=     1 JSym2X= 0.
 Leave Link  914 at Tue Oct  6 15:41:39 2015, MaxMem=    33554432 cpu:         0.1
 (Enter /home/Applications/g09/g09/l1002.exe)
 Minotr:  Closed shell wavefunction.
          Computing CIS/TD-HF/TD-KS derivatives.
          Using Z-Vector for PSCF gradient.
          Skipping F1 and S1 gradient terms here.
          IDoAtm=111111111
          Direct CPHF calculation.
          Differentiating once with respect to electric field.
                with respect to dipole field.
          Differentiating once with respect to nuclear coordinates.
          Electric field/nuclear overlap derivatives assumed to be zero.
          Requested convergence is 1.0D-10 RMS, and 1.0D-09 maximum.
          NewPWx=T KeepS1=F KeepF1=F KeepIn=T MapXYZ=F SortEE=F KeepMc=T.
          MDV=      33495423 using IRadAn=       0.
 Keep J ints in memory in canonical form, NReq=871758.
 FoFCou: FMM=F IPFlag=           0 FMFlag=           0 FMFlg1=           0
         NFxFlg=           0 DoJE=F BraDBF=F KetDBF=F FulRan=T
         wScrn=  0.000000 ICntrl=     600 IOpCl=  2 I1Cent=           0 NGrid=           0
         NMat0=    1 NMatS0=     54 NMatT0=    0 NMatD0=    1 NMtDS0=    0 NMtDT0=    0
 Symmetry not used in FoFCou.
          Solving linear equations separately, MaxMat=       0.
          There are     1 degrees of freedom in the 1st order CPHF.  IDoFFX=0 NUNeed=     1.
 LinEq1:  Iter=  0 NonCon=     1 RMS=9.85D-03 Max=7.87D-02 NDo=     1
 AX will form     1 AO Fock derivatives at one time.
 LinEq1:  Iter=  1 NonCon=     1 RMS=1.64D-03 Max=1.21D-02 NDo=     1
 LinEq1:  Iter=  2 NonCon=     1 RMS=2.39D-04 Max=1.73D-03 NDo=     1
 LinEq1:  Iter=  3 NonCon=     1 RMS=2.62D-05 Max=1.26D-04 NDo=     1
 LinEq1:  Iter=  4 NonCon=     1 RMS=1.99D-06 Max=7.95D-06 NDo=     1
 LinEq1:  Iter=  5 NonCon=     1 RMS=1.99D-07 Max=7.83D-07 NDo=     1
 LinEq1:  Iter=  6 NonCon=     1 RMS=1.84D-08 Max=9.97D-08 NDo=     1
 LinEq1:  Iter=  7 NonCon=     1 RMS=1.86D-09 Max=8.24D-09 NDo=     1
 LinEq1:  Iter=  8 NonCon=     1 RMS=1.81D-10 Max=8.08D-10 NDo=     1
 LinEq1:  Iter=  9 NonCon=     0 RMS=1.22D-11 Max=5.18D-11 NDo=     1
 Linear equations converged to 1.000D-10 1.000D-09 after     9 iterations.
 End of Minotr F.D. properties file   721 does not exist.
 End of Minotr F.D. properties file   722 does not exist.
 End of Minotr F.D. properties file   788 does not exist.
 Leave Link 1002 at Tue Oct  6 15:41:39 2015, MaxMem=    33554432 cpu:         0.0
 (Enter /home/Applications/g09/g09/l601.exe)
 Copying SCF densities to generalized density rwf, IOpCl= 0 IROHF=0.

 **********************************************************************

            Population analysis using the SCF density.

 **********************************************************************

 Orbital symmetries:
       Occupied  (A1) (A1) (B2) (B2) (A1) (A1) (B1) (B2) (A1) (B2)
                 (A1) (B1) (A2)
       Virtual   (B1) (A2) (A1) (B2) (A1) (B2) (A1) (B2) (A1) (B2)
                 (B2)
 The electronic state is 1-A1.
 Alpha  occ. eigenvalues --   -1.54709  -1.19128  -1.07845  -0.83308  -0.78849
 Alpha  occ. eigenvalues --   -0.71760  -0.64171  -0.57461  -0.52466  -0.51702
 Alpha  occ. eigenvalues --   -0.51135  -0.40744  -0.36056
 Alpha virt. eigenvalues --    0.03022   0.06293   0.11877   0.15443   0.16655
 Alpha virt. eigenvalues --    0.18294   0.19514   0.20528   0.22353   0.24106
 Alpha virt. eigenvalues --    0.24488
     Molecular Orbital Coefficients:
                           1         2         3         4         5
                        (A1)--O   (A1)--O   (B2)--O   (B2)--O   (A1)--O
     Eigenvalues --    -1.54709  -1.19128  -1.07845  -0.83308  -0.78849
   1 1   C  1S          0.28442  -0.45845   0.25289  -0.34087  -0.24209
   2        1PX         0.00000   0.00000   0.00000   0.00000   0.00000
   3        1PY        -0.06792   0.08407   0.14272  -0.21266   0.19573
   4        1PZ         0.11480  -0.03213   0.11657  -0.00343   0.30382
   5 2   C  1S          0.36859  -0.11503   0.50202   0.02775   0.35847
   6        1PX         0.00000   0.00000   0.00000   0.00000   0.00000
   7        1PY        -0.19024  -0.05900   0.00574  -0.11216   0.14177
   8        1PZ         0.01164   0.24693   0.01934   0.37623   0.00265
   9 3   O  1S          0.61918   0.59646   0.00000   0.00000  -0.29265
  10        1PX         0.00000   0.00000   0.00000   0.00000   0.00000
  11        1PY         0.00000   0.00000   0.42542   0.51023   0.00000
  12        1PZ        -0.23163   0.03855   0.00000   0.00000  -0.20718
  13 4   C  1S          0.36859  -0.11503  -0.50202  -0.02775   0.35847
  14        1PX         0.00000   0.00000   0.00000   0.00000   0.00000
  15        1PY         0.19024   0.05900   0.00574  -0.11216  -0.14177
  16        1PZ         0.01164   0.24693  -0.01934  -0.37623   0.00265
  17 5   C  1S          0.28442  -0.45845  -0.25289   0.34087  -0.24209
  18        1PX         0.00000   0.00000   0.00000   0.00000   0.00000
  19        1PY         0.06792  -0.08407   0.14272  -0.21266  -0.19573
  20        1PZ         0.11480  -0.03213  -0.11657   0.00343   0.30382
  21 6   H  1S          0.06302  -0.15710  -0.10467   0.22536  -0.18671
  22 7   H  1S          0.08148  -0.02707  -0.21957  -0.05213   0.25104
  23 8   H  1S          0.08148  -0.02707   0.21957   0.05213   0.25104
  24 9   H  1S          0.06302  -0.15710   0.10467  -0.22536  -0.18671
                           6         7         8         9        10
                        (A1)--O   (B1)--O   (B2)--O   (A1)--O   (B2)--O
     Eigenvalues --    -0.71760  -0.64171  -0.57461  -0.52466  -0.51702
   1 1   C  1S          0.08502   0.00000  -0.18320   0.04655  -0.01853
   2        1PX         0.00000   0.20985   0.00000   0.00000   0.00000
   3        1PY         0.19338   0.00000  -0.08742  -0.16695  -0.07157
   4        1PZ        -0.19984   0.00000   0.15488   0.34477   0.42929
   5 2   C  1S          0.11242   0.00000   0.14559  -0.03576   0.10197
   6        1PX         0.00000   0.37919   0.00000   0.00000   0.00000
   7        1PY         0.36793   0.00000   0.40333   0.08034  -0.24865
   8        1PZ         0.09100   0.00000  -0.02781  -0.26230  -0.30053
   9 3   O  1S          0.19716   0.00000   0.00000   0.19188   0.00000
  10        1PX         0.00000   0.79016   0.00000   0.00000   0.00000
  11        1PY         0.00000   0.00000  -0.39366   0.00000   0.00767
  12        1PZ         0.49278   0.00000   0.00000   0.60507   0.00000
  13 4   C  1S          0.11242   0.00000  -0.14559  -0.03576  -0.10197
  14        1PX         0.00000   0.37919   0.00000   0.00000   0.00000
  15        1PY        -0.36793   0.00000   0.40333  -0.08034  -0.24865
  16        1PZ         0.09100   0.00000   0.02781  -0.26230   0.30053
  17 5   C  1S          0.08502   0.00000   0.18320   0.04655   0.01853
  18        1PX         0.00000   0.20985   0.00000   0.00000   0.00000
  19        1PY        -0.19338   0.00000  -0.08742   0.16695  -0.07157
  20        1PZ        -0.19984   0.00000  -0.15488   0.34477  -0.42929
  21 6   H  1S          0.20611   0.00000   0.23902  -0.26192   0.31771
  22 7   H  1S          0.27534   0.00000  -0.33992  -0.06703   0.21618
  23 8   H  1S          0.27534   0.00000   0.33992  -0.06703  -0.21618
  24 9   H  1S          0.20611   0.00000  -0.23902  -0.26192  -0.31771
                          11        12        13        14        15
                        (A1)--O   (B1)--O   (A2)--O   (B1)--V   (A2)--V
     Eigenvalues --    -0.51135  -0.40744  -0.36056   0.03022   0.06293
   1 1   C  1S         -0.01374   0.00000   0.00000   0.00000   0.00000
   2        1PX         0.00000   0.59193   0.38069  -0.32494   0.59588
   3        1PY         0.54365   0.00000   0.00000   0.00000   0.00000
   4        1PZ         0.10614   0.00000   0.00000   0.00000   0.00000
   5 2   C  1S         -0.04091   0.00000   0.00000   0.00000   0.00000
   6        1PX         0.00000   0.17825   0.59588   0.56960  -0.38069
   7        1PY        -0.11313   0.00000   0.00000   0.00000   0.00000
   8        1PZ        -0.29327   0.00000   0.00000   0.00000   0.00000
   9 3   O  1S          0.11451   0.00000   0.00000   0.00000   0.00000
  10        1PX         0.00000  -0.48548   0.00000  -0.37410   0.00000
  11        1PY         0.00000   0.00000   0.00000   0.00000   0.00000
  12        1PZ         0.02093   0.00000   0.00000   0.00000   0.00000
  13 4   C  1S         -0.04091   0.00000   0.00000   0.00000   0.00000
  14        1PX         0.00000   0.17825  -0.59588   0.56960   0.38069
  15        1PY         0.11313   0.00000   0.00000   0.00000   0.00000
  16        1PZ        -0.29327   0.00000   0.00000   0.00000   0.00000
  17 5   C  1S         -0.01374   0.00000   0.00000   0.00000   0.00000
  18        1PX         0.00000   0.59193  -0.38069  -0.32494  -0.59588
  19        1PY        -0.54365   0.00000   0.00000   0.00000   0.00000
  20        1PZ         0.10614   0.00000   0.00000   0.00000   0.00000
  21 6   H  1S          0.18046   0.00000   0.00000   0.00000   0.00000
  22 7   H  1S         -0.23057   0.00000   0.00000   0.00000   0.00000
  23 8   H  1S         -0.23057   0.00000   0.00000   0.00000   0.00000
  24 9   H  1S          0.18046   0.00000   0.00000   0.00000   0.00000
                          16        17        18        19        20
                        (A1)--V   (B2)--V   (A1)--V   (B2)--V   (A1)--V
     Eigenvalues --     0.11877   0.15443   0.16655   0.18294   0.19514
   1 1   C  1S         -0.02319  -0.06931  -0.06436   0.23513  -0.19376
   2        1PX         0.00000   0.00000   0.00000   0.00000   0.00000
   3        1PY         0.01180   0.29186  -0.04338   0.31641  -0.23548
   4        1PZ         0.12016   0.00069   0.27262  -0.08242   0.22151
   5 2   C  1S          0.24605   0.09071  -0.26905  -0.29735   0.03152
   6        1PX         0.00000   0.00000   0.00000   0.00000   0.00000
   7        1PY        -0.23110   0.40131  -0.27229  -0.02302   0.33552
   8        1PZ         0.38069   0.08644   0.01433  -0.02050  -0.04138
   9 3   O  1S         -0.26428   0.00000  -0.03611   0.00000   0.11280
  10        1PX         0.00000   0.00000   0.00000   0.00000   0.00000
  11        1PY         0.00000   0.17737   0.00000   0.21752   0.00000
  12        1PZ         0.45265   0.00000   0.09355   0.00000  -0.20633
  13 4   C  1S          0.24605  -0.09071  -0.26905   0.29735   0.03152
  14        1PX         0.00000   0.00000   0.00000   0.00000   0.00000
  15        1PY         0.23110   0.40131   0.27229  -0.02302  -0.33552
  16        1PZ         0.38069  -0.08644   0.01433   0.02050  -0.04138
  17 5   C  1S         -0.02319   0.06931  -0.06436  -0.23513  -0.19376
  18        1PX         0.00000   0.00000   0.00000   0.00000   0.00000
  19        1PY        -0.01180   0.29186   0.04338   0.31641   0.23548
  20        1PZ         0.12016  -0.00069   0.27262   0.08242   0.22151
  21 6   H  1S          0.15231   0.11841   0.30101   0.41172   0.40708
  22 7   H  1S         -0.25583   0.45112   0.42105  -0.23509  -0.22204
  23 8   H  1S         -0.25583  -0.45112   0.42105   0.23509  -0.22204
  24 9   H  1S          0.15231  -0.11841   0.30101  -0.41172   0.40708
                          21        22        23        24
                        (B2)--V   (A1)--V   (B2)--V   (B2)--V
     Eigenvalues --     0.20528   0.22353   0.24106   0.24488
   1 1   C  1S         -0.26136   0.31388   0.17447   0.35653
   2        1PX         0.00000   0.00000   0.00000   0.00000
   3        1PY         0.29298   0.17808  -0.37262  -0.10801
   4        1PZ         0.39950   0.29255   0.07829   0.32496
   5 2   C  1S         -0.24372  -0.26999  -0.21934  -0.10703
   6        1PX         0.00000   0.00000   0.00000   0.00000
   7        1PY         0.01462   0.21327   0.31631   0.03214
   8        1PZ        -0.00022   0.35910  -0.22525   0.45646
   9 3   O  1S          0.00000   0.05026   0.00000   0.00000
  10        1PX         0.00000   0.00000   0.00000   0.00000
  11        1PY         0.16879   0.00000   0.48859  -0.24015
  12        1PZ         0.00000  -0.19064   0.00000   0.00000
  13 4   C  1S          0.24372  -0.26999   0.21934   0.10703
  14        1PX         0.00000   0.00000   0.00000   0.00000
  15        1PY         0.01462  -0.21327   0.31631   0.03214
  16        1PZ         0.00022   0.35910   0.22525  -0.45646
  17 5   C  1S          0.26136   0.31388  -0.17447  -0.35653
  18        1PX         0.00000   0.00000   0.00000   0.00000
  19        1PY         0.29298  -0.17808  -0.37262  -0.10801
  20        1PZ        -0.39950   0.29255  -0.07829  -0.32496
  21 6   H  1S         -0.30055  -0.11538  -0.07950  -0.00088
  22 7   H  1S         -0.14856  -0.06410  -0.00155   0.07707
  23 8   H  1S          0.14856  -0.06410   0.00155  -0.07707
  24 9   H  1S          0.30055  -0.11538   0.07950   0.00088
     Density Matrix:
                           1         2         3         4         5
   1 1   C  1S          1.14662
   2        1PX         0.00000   1.07869
   3        1PY         0.04377   0.00000   0.97835
   4        1PZ        -0.06850   0.00000  -0.03285   0.99693
   5 2   C  1S          0.33635   0.00000   0.17331   0.48107   1.15514
   6        1PX         0.00000   0.82386   0.00000   0.00000   0.00000
   7        1PY        -0.10882   0.00000   0.07831  -0.15586   0.12748
   8        1PZ        -0.44734   0.00000  -0.26174  -0.55579  -0.01219
   9 3   O  1S         -0.00475   0.00000   0.03832   0.00383   0.13065
  10        1PX         0.00000  -0.24312   0.00000   0.00000   0.00000
  11        1PY         0.01128   0.00000  -0.02785  -0.01968   0.34239
  12        1PZ         0.07275   0.00000  -0.03184   0.04316  -0.26234
  13 4   C  1S         -0.01939   0.00000  -0.00959  -0.01793   0.01760
  14        1PX         0.00000  -0.08353   0.00000   0.00000   0.00000
  15        1PY        -0.00957   0.00000  -0.04947  -0.01702   0.00506
  16        1PZ         0.00342   0.00000  -0.04851  -0.02636   0.04597
  17 5   C  1S          0.29042   0.00000  -0.45993  -0.04579  -0.01939
  18        1PX         0.00000   0.49898   0.00000   0.00000   0.00000
  19        1PY         0.45993   0.00000  -0.66492  -0.07473   0.00959
  20        1PZ        -0.04579   0.00000   0.07473   0.10942  -0.01793
  21 6   H  1S         -0.02993   0.00000   0.04234   0.00730   0.04086
  22 7   H  1S          0.03754   0.00000  -0.05119  -0.00274   0.05360
  23 8   H  1S         -0.04449   0.00000  -0.02716  -0.06170   0.61009
  24 9   H  1S          0.58192   0.00000   0.46832  -0.63443  -0.04276
                           6         7         8         9        10
   6        1PX         1.06127
   7        1PY         0.00000   0.90303
   8        1PZ         0.00000   0.10120   0.91445
   9 3   O  1S          0.00000  -0.23894   0.17549   1.82720
  10        1PX         0.42617   0.00000   0.00000   0.00000   1.72010
  11        1PY         0.00000  -0.43094   0.41768   0.00000   0.00000
  12        1PZ         0.00000   0.47993  -0.22748   0.31172   0.00000
  13 4   C  1S          0.00000  -0.00506   0.04597   0.13065   0.00000
  14        1PX        -0.35903   0.00000   0.00000   0.00000   0.42617
  15        1PY         0.00000   0.04544  -0.01552   0.23894   0.00000
  16        1PZ         0.00000   0.01552  -0.01762   0.17549   0.00000
  17 5   C  1S          0.00000   0.00957   0.00342  -0.00475   0.00000
  18        1PX        -0.08353   0.00000   0.00000   0.00000  -0.24312
  19        1PY         0.00000  -0.04947   0.04851  -0.03832   0.00000
  20        1PZ         0.00000   0.01702  -0.02636   0.00383   0.00000
  21 6   H  1S          0.00000  -0.00658  -0.04677   0.02201   0.00000
  22 7   H  1S          0.00000  -0.08515   0.05162  -0.04828   0.00000
  23 8   H  1S          0.00000   0.65992   0.36913  -0.04828   0.00000
  24 9   H  1S          0.00000   0.02732   0.03069   0.02201   0.00000
                          11        12        13        14        15
  11        1PY         1.19268
  12        1PZ         0.00000   1.41488
  13 4   C  1S         -0.34239  -0.26234   1.15514
  14        1PX         0.00000   0.00000   0.00000   1.06127
  15        1PY        -0.43094  -0.47993  -0.12748   0.00000   0.90303
  16        1PZ        -0.41768  -0.22748  -0.01219   0.00000  -0.10120
  17 5   C  1S         -0.01128   0.07275   0.33635   0.00000   0.10882
  18        1PX         0.00000   0.00000   0.00000   0.82386   0.00000
  19        1PY        -0.02785   0.03184  -0.17331   0.00000   0.07831
  20        1PZ         0.01968   0.04316   0.48107   0.00000   0.15586
  21 6   H  1S         -0.04240  -0.07022  -0.04276   0.00000  -0.02732
  22 7   H  1S          0.03093   0.03675   0.61009   0.00000  -0.65992
  23 8   H  1S         -0.03093   0.03675   0.05360   0.00000   0.08515
  24 9   H  1S          0.04240  -0.07022   0.04086   0.00000   0.00658
                          16        17        18        19        20
  16        1PZ         0.91445
  17 5   C  1S         -0.44734   1.14662
  18        1PX         0.00000   0.00000   1.07869
  19        1PY         0.26174  -0.04377   0.00000   0.97835
  20        1PZ        -0.55579  -0.06850   0.00000   0.03285   0.99693
  21 6   H  1S          0.03069   0.58192   0.00000  -0.46832  -0.63443
  22 7   H  1S          0.36913  -0.04449   0.00000   0.02716  -0.06170
  23 8   H  1S          0.05162   0.03754   0.00000   0.05119  -0.00274
  24 9   H  1S         -0.04677  -0.02993   0.00000  -0.04234   0.00730
                          21        22        23        24
  21 6   H  1S          0.85396
  22 7   H  1S         -0.01223   0.83415
  23 8   H  1S         -0.00691  -0.01870   0.83415
  24 9   H  1S         -0.02530  -0.00691  -0.01223   0.85396
    Full Mulliken population analysis:
                           1         2         3         4         5
   1 1   C  1S          1.14662
   2        1PX         0.00000   1.07869
   3        1PY         0.00000   0.00000   0.97835
   4        1PZ         0.00000   0.00000   0.00000   0.99693
   5 2   C  1S          0.00000   0.00000   0.00000   0.00000   1.15514
   6        1PX         0.00000   0.00000   0.00000   0.00000   0.00000
   7        1PY         0.00000   0.00000   0.00000   0.00000   0.00000
   8        1PZ         0.00000   0.00000   0.00000   0.00000   0.00000
   9 3   O  1S          0.00000   0.00000   0.00000   0.00000   0.00000
  10        1PX         0.00000   0.00000   0.00000   0.00000   0.00000
  11        1PY         0.00000   0.00000   0.00000   0.00000   0.00000
  12        1PZ         0.00000   0.00000   0.00000   0.00000   0.00000
  13 4   C  1S          0.00000   0.00000   0.00000   0.00000   0.00000
  14        1PX         0.00000   0.00000   0.00000   0.00000   0.00000
  15        1PY         0.00000   0.00000   0.00000   0.00000   0.00000
  16        1PZ         0.00000   0.00000   0.00000   0.00000   0.00000
  17 5   C  1S          0.00000   0.00000   0.00000   0.00000   0.00000
  18        1PX         0.00000   0.00000   0.00000   0.00000   0.00000
  19        1PY         0.00000   0.00000   0.00000   0.00000   0.00000
  20        1PZ         0.00000   0.00000   0.00000   0.00000   0.00000
  21 6   H  1S          0.00000   0.00000   0.00000   0.00000   0.00000
  22 7   H  1S          0.00000   0.00000   0.00000   0.00000   0.00000
  23 8   H  1S          0.00000   0.00000   0.00000   0.00000   0.00000
  24 9   H  1S          0.00000   0.00000   0.00000   0.00000   0.00000
                           6         7         8         9        10
   6        1PX         1.06127
   7        1PY         0.00000   0.90303
   8        1PZ         0.00000   0.00000   0.91445
   9 3   O  1S          0.00000   0.00000   0.00000   1.82720
  10        1PX         0.00000   0.00000   0.00000   0.00000   1.72010
  11        1PY         0.00000   0.00000   0.00000   0.00000   0.00000
  12        1PZ         0.00000   0.00000   0.00000   0.00000   0.00000
  13 4   C  1S          0.00000   0.00000   0.00000   0.00000   0.00000
  14        1PX         0.00000   0.00000   0.00000   0.00000   0.00000
  15        1PY         0.00000   0.00000   0.00000   0.00000   0.00000
  16        1PZ         0.00000   0.00000   0.00000   0.00000   0.00000
  17 5   C  1S          0.00000   0.00000   0.00000   0.00000   0.00000
  18        1PX         0.00000   0.00000   0.00000   0.00000   0.00000
  19        1PY         0.00000   0.00000   0.00000   0.00000   0.00000
  20        1PZ         0.00000   0.00000   0.00000   0.00000   0.00000
  21 6   H  1S          0.00000   0.00000   0.00000   0.00000   0.00000
  22 7   H  1S          0.00000   0.00000   0.00000   0.00000   0.00000
  23 8   H  1S          0.00000   0.00000   0.00000   0.00000   0.00000
  24 9   H  1S          0.00000   0.00000   0.00000   0.00000   0.00000
                          11        12        13        14        15
  11        1PY         1.19268
  12        1PZ         0.00000   1.41488
  13 4   C  1S          0.00000   0.00000   1.15514
  14        1PX         0.00000   0.00000   0.00000   1.06127
  15        1PY         0.00000   0.00000   0.00000   0.00000   0.90303
  16        1PZ         0.00000   0.00000   0.00000   0.00000   0.00000
  17 5   C  1S          0.00000   0.00000   0.00000   0.00000   0.00000
  18        1PX         0.00000   0.00000   0.00000   0.00000   0.00000
  19        1PY         0.00000   0.00000   0.00000   0.00000   0.00000
  20        1PZ         0.00000   0.00000   0.00000   0.00000   0.00000
  21 6   H  1S          0.00000   0.00000   0.00000   0.00000   0.00000
  22 7   H  1S          0.00000   0.00000   0.00000   0.00000   0.00000
  23 8   H  1S          0.00000   0.00000   0.00000   0.00000   0.00000
  24 9   H  1S          0.00000   0.00000   0.00000   0.00000   0.00000
                          16        17        18        19        20
  16        1PZ         0.91445
  17 5   C  1S          0.00000   1.14662
  18        1PX         0.00000   0.00000   1.07869
  19        1PY         0.00000   0.00000   0.00000   0.97835
  20        1PZ         0.00000   0.00000   0.00000   0.00000   0.99693
  21 6   H  1S          0.00000   0.00000   0.00000   0.00000   0.00000
  22 7   H  1S          0.00000   0.00000   0.00000   0.00000   0.00000
  23 8   H  1S          0.00000   0.00000   0.00000   0.00000   0.00000
  24 9   H  1S          0.00000   0.00000   0.00000   0.00000   0.00000
                          21        22        23        24
  21 6   H  1S          0.85396
  22 7   H  1S          0.00000   0.83415
  23 8   H  1S          0.00000   0.00000   0.83415
  24 9   H  1S          0.00000   0.00000   0.00000   0.85396
     Gross orbital populations:
                           1
   1 1   C  1S          1.14662
   2        1PX         1.07869
   3        1PY         0.97835
   4        1PZ         0.99693
   5 2   C  1S          1.15514
   6        1PX         1.06127
   7        1PY         0.90303
   8        1PZ         0.91445
   9 3   O  1S          1.82720
  10        1PX         1.72010
  11        1PY         1.19268
  12        1PZ         1.41488
  13 4   C  1S          1.15514
  14        1PX         1.06127
  15        1PY         0.90303
  16        1PZ         0.91445
  17 5   C  1S          1.14662
  18        1PX         1.07869
  19        1PY         0.97835
  20        1PZ         0.99693
  21 6   H  1S          0.85396
  22 7   H  1S          0.83415
  23 8   H  1S          0.83415
  24 9   H  1S          0.85396
          Condensed to atoms (all electrons):
               1          2          3          4          5          6
     1  C    4.200579   0.000000   0.000000   0.000000   0.000000   0.000000
     2  C    0.000000   4.033882   0.000000   0.000000   0.000000   0.000000
     3  O    0.000000   0.000000   6.154862   0.000000   0.000000   0.000000
     4  C    0.000000   0.000000   0.000000   4.033882   0.000000   0.000000
     5  C    0.000000   0.000000   0.000000   0.000000   4.200579   0.000000
     6  H    0.000000   0.000000   0.000000   0.000000   0.000000   0.853960
     7  H    0.000000   0.000000   0.000000   0.000000   0.000000   0.000000
     8  H    0.000000   0.000000   0.000000   0.000000   0.000000   0.000000
     9  H    0.000000   0.000000   0.000000   0.000000   0.000000   0.000000
               7          8          9
     1  C    0.000000   0.000000   0.000000
     2  C    0.000000   0.000000   0.000000
     3  O    0.000000   0.000000   0.000000
     4  C    0.000000   0.000000   0.000000
     5  C    0.000000   0.000000   0.000000
     6  H    0.000000   0.000000   0.000000
     7  H    0.834148   0.000000   0.000000
     8  H    0.000000   0.834148   0.000000
     9  H    0.000000   0.000000   0.853960
 Mulliken charges:
               1
     1  C   -0.200579
     2  C   -0.033882
     3  O   -0.154862
     4  C   -0.033882
     5  C   -0.200579
     6  H    0.146040
     7  H    0.165852
     8  H    0.165852
     9  H    0.146040
 Sum of Mulliken charges =   0.00000
 Mulliken charges with hydrogens summed into heavy atoms:
               1
     1  C   -0.054540
     2  C    0.131970
     3  O   -0.154862
     4  C    0.131970
     5  C   -0.054540
 Charge=              0.0000 electrons
 Dipole moment (field-independent basis, Debye):
    X=              0.0000    Y=              0.0000    Z=             -0.4549  Tot=              0.4549
 N-N= 1.031820514832D+02 E-N=-1.708746151627D+02  KE=-1.712808482187D+01
 Symmetry A1   KE=-9.259937250036D+00
 Symmetry A2   KE=-6.709728419750D-01
 Symmetry B1   KE=-1.825005653402D+00
 Symmetry B2   KE=-5.372169076454D+00
 Orbital energies and kinetic energies (alpha):
                                 1                 2
   1         (A1)--O          -1.547090         -1.326238
   2         (A1)--O          -1.191284         -1.034292
   3         (B2)--O          -1.078447         -0.957470
   4         (B2)--O          -0.833085         -0.724243
   5         (A1)--O          -0.788490         -0.719984
   6         (A1)--O          -0.717596         -0.650174
   7         (B1)--O          -0.641711         -0.542591
   8         (B2)--O          -0.574608         -0.538552
   9         (A1)--O          -0.524655         -0.451186
  10         (B2)--O          -0.517022         -0.465820
  11         (A1)--O          -0.511346         -0.448095
  12         (B1)--O          -0.407441         -0.369912
  13         (A2)--O          -0.360556         -0.335486
  14         (B1)--V           0.030220         -0.208274
  15         (A2)--V           0.062932         -0.205629
  16         (A1)--V           0.118772         -0.185080
  17         (B2)--V           0.154426         -0.215690
  18         (A1)--V           0.166548         -0.237453
  19         (B2)--V           0.182936         -0.225919
  20         (A1)--V           0.195137         -0.196584
  21         (B2)--V           0.205275         -0.165472
  22         (A1)--V           0.223527         -0.113849
  23         (B2)--V           0.241059         -0.066311
  24         (B2)--V           0.244883         -0.090076
 Total kinetic energy from orbitals=-1.712808482187D+01
 Leave Link  601 at Tue Oct  6 15:41:39 2015, MaxMem=    33554432 cpu:         0.0
 (Enter /home/Applications/g09/g09/l701.exe)
 Compute integral first derivatives.
 ... and contract with generalized density number  6.
 Leave Link  701 at Tue Oct  6 15:41:39 2015, MaxMem=    33554432 cpu:         0.0
 (Enter /home/Applications/g09/g09/l702.exe)
 L702 exits ... SP integral derivatives will be done elsewhere.
 Leave Link  702 at Tue Oct  6 15:41:39 2015, MaxMem=    33554432 cpu:         0.0
 (Enter /home/Applications/g09/g09/l703.exe)
 Compute integral first derivatives, UseDBF=F ICtDFT=           0.
 Integral derivatives from FoFJK, PRISM(SPDF).
 Calling FoFJK, ICntrl=  10005127 FMM=F ISym2X=1 I1Cent= 0 IOpClX= 0 NMat=1 NMatS=1 NMatT=0.
 FoFJK:  IHMeth= 8 ICntrl=10005127 DoSepK=F KAlg= 0 I1Cent=   0 FoldK=F
 IRaf=         0 NMat=   1 IRICut=       1 DoRegI=T DoRafI=F ISym2E= 1.
 FoFCou: FMM=F IPFlag=           0 FMFlag=      100000 FMFlg1=         800
         NFxFlg=           0 DoJE=F BraDBF=F KetDBF=F FulRan=T
         wScrn=  0.000000 ICntrl=10005127 IOpCl=  0 I1Cent=           0 NGrid=           0
         NMat0=    1 NMatS0=      1 NMatT0=    0 NMatD0=    1 NMtDS0=    0 NMtDT0=    0
 Symmetry not used in FoFCou.
 Leave Link  703 at Tue Oct  6 15:41:39 2015, MaxMem=    33554432 cpu:         0.0
 (Enter /home/Applications/g09/g09/l716.exe)
 Dipole        = 1.00764345D-15-8.39328607D-14-2.93299209D-01
 ***** Axes restored to original set *****
 -------------------------------------------------------------------
 Center     Atomic                   Forces (Hartrees/Bohr)
 Number     Number              X              Y              Z
 -------------------------------------------------------------------
      1        6           0.059411669    0.045129296    0.000000000
      2        6          -0.027806924   -0.033616641    0.000000000
      3        8          -0.063789734    0.000000000    0.000000000
      4        6          -0.027806924    0.033616641    0.000000000
      5        6           0.059411669   -0.045129296    0.000000000
      6        1           0.001137312   -0.003996025    0.000000000
      7        1          -0.000847189    0.000425184    0.000000000
      8        1          -0.000847189   -0.000425184    0.000000000
      9        1           0.001137312    0.003996025    0.000000000
 -------------------------------------------------------------------
 Cartesian Forces:  Max     0.063789734 RMS     0.026558710
 Z-matrix is all fixed cartesians, so copy forces.
 Force constants in Cartesian coordinates: 
                1             2             3             4             5 
      1  0.924213D+00
      2 -0.280496D-01  0.794695D+00
      3  0.000000D+00  0.000000D+00  0.206887D+00
      4 -0.512400D+00 -0.107252D+00  0.000000D+00  0.940723D+00
      5 -0.840374D-01 -0.216108D+00  0.000000D+00  0.222648D-01  0.891463D+00
      6  0.000000D+00  0.000000D+00 -0.105153D+00  0.000000D+00  0.000000D+00
      7 -0.847936D-02  0.292752D-01  0.000000D+00 -0.289302D+00  0.168432D+00
      8 -0.629794D-02  0.217438D-01  0.000000D+00  0.212644D+00 -0.374940D+00
      9  0.000000D+00  0.000000D+00  0.744560D-02  0.000000D+00  0.000000D+00
     10  0.100412D-01  0.000000D+00  0.000000D+00  0.243474D-01  0.180838D-01
     11  0.346676D-01  0.000000D+00  0.000000D+00 -0.180838D-01 -0.134315D-01
     12  0.000000D+00  0.000000D+00 -0.114437D-02  0.000000D+00  0.000000D+00
     13 -0.167385D+00  0.115645D-01  0.000000D+00  0.100412D-01 -0.346676D-01
     14 -0.115645D-01 -0.407138D+00  0.000000D+00  0.000000D+00  0.000000D+00
     15  0.000000D+00  0.000000D+00 -0.812287D-01  0.000000D+00  0.000000D+00
     16  0.176569D-01  0.000000D+00  0.000000D+00  0.000000D+00  0.000000D+00
     17 -0.231031D-01  0.000000D+00  0.000000D+00  0.000000D+00  0.000000D+00
     18  0.000000D+00  0.000000D+00  0.180027D-01  0.000000D+00  0.000000D+00
     19  0.000000D+00  0.000000D+00  0.000000D+00  0.000000D+00  0.000000D+00
     20  0.000000D+00  0.000000D+00  0.000000D+00  0.000000D+00  0.000000D+00
     21  0.000000D+00  0.000000D+00  0.703148D-02  0.000000D+00  0.000000D+00
     22  0.760156D-02 -0.262446D-01  0.000000D+00 -0.168217D+00 -0.108004D+00
     23 -0.394138D-02  0.136077D-01  0.000000D+00 -0.102778D+00 -0.310441D+00
     24  0.000000D+00  0.000000D+00  0.295845D-01  0.000000D+00  0.000000D+00
     25 -0.271249D+00  0.120707D+00  0.000000D+00 -0.519280D-02  0.179283D-01
     26  0.122326D+00 -0.206800D+00  0.000000D+00 -0.679449D-02  0.234582D-01
     27  0.000000D+00  0.000000D+00 -0.814255D-01  0.000000D+00  0.000000D+00
                6             7             8             9            10 
      6  0.197193D+00
      7  0.000000D+00  0.551909D+00
      8  0.000000D+00  0.000000D+00  0.723204D+00
      9 -0.472115D-01  0.000000D+00  0.000000D+00  0.567211D-01
     10  0.000000D+00 -0.289302D+00 -0.212644D+00  0.000000D+00  0.940723D+00
     11  0.000000D+00 -0.168432D+00 -0.374940D+00  0.000000D+00 -0.222648D-01
     12 -0.169673D-02  0.000000D+00  0.000000D+00 -0.472115D-01  0.000000D+00
     13  0.000000D+00 -0.847936D-02  0.629794D-02  0.000000D+00 -0.512400D+00
     14  0.000000D+00 -0.292752D-01  0.217438D-01  0.000000D+00  0.107252D+00
     15 -0.114437D-02  0.000000D+00  0.000000D+00  0.744560D-02  0.000000D+00
     16  0.000000D+00  0.000000D+00  0.000000D+00  0.000000D+00 -0.519280D-02
     17  0.000000D+00  0.000000D+00  0.000000D+00  0.000000D+00  0.679449D-02
     18  0.419500D-02  0.000000D+00  0.000000D+00  0.682264D-02  0.000000D+00
     19  0.000000D+00  0.218269D-01 -0.162117D-01  0.000000D+00 -0.168217D+00
     20  0.000000D+00  0.113172D-01 -0.840572D-02  0.000000D+00  0.102778D+00
     21  0.490261D-02  0.000000D+00  0.000000D+00  0.458270D-02  0.000000D+00
     22  0.000000D+00  0.218269D-01  0.162117D-01  0.000000D+00  0.000000D+00
     23  0.000000D+00 -0.113172D-01 -0.840572D-02  0.000000D+00  0.000000D+00
     24 -0.772883D-01  0.000000D+00  0.000000D+00  0.458270D-02  0.000000D+00
     25  0.000000D+00  0.000000D+00  0.000000D+00  0.000000D+00  0.000000D+00
     26  0.000000D+00  0.000000D+00  0.000000D+00  0.000000D+00  0.000000D+00
     27  0.262030D-01  0.000000D+00  0.000000D+00  0.682264D-02  0.000000D+00
               11            12            13            14            15 
     11  0.891463D+00
     12  0.000000D+00  0.197193D+00
     13  0.840374D-01  0.000000D+00  0.924213D+00
     14 -0.216108D+00  0.000000D+00  0.280496D-01  0.794695D+00
     15  0.000000D+00 -0.105153D+00  0.000000D+00  0.000000D+00  0.206887D+00
     16 -0.179283D-01  0.000000D+00 -0.271249D+00 -0.120707D+00  0.000000D+00
     17  0.234582D-01  0.000000D+00 -0.122326D+00 -0.206800D+00  0.000000D+00
     18  0.000000D+00  0.262030D-01  0.000000D+00  0.000000D+00 -0.814255D-01
     19  0.108004D+00  0.000000D+00  0.760156D-02  0.262446D-01  0.000000D+00
     20 -0.310441D+00  0.000000D+00  0.394138D-02  0.136077D-01  0.000000D+00
     21  0.000000D+00 -0.772883D-01  0.000000D+00  0.000000D+00  0.295845D-01
     22  0.000000D+00  0.000000D+00  0.000000D+00  0.000000D+00  0.000000D+00
     23  0.000000D+00  0.000000D+00  0.000000D+00  0.000000D+00  0.000000D+00
     24  0.000000D+00  0.490261D-02  0.000000D+00  0.000000D+00  0.703148D-02
     25  0.000000D+00  0.000000D+00  0.176569D-01  0.000000D+00  0.000000D+00
     26  0.000000D+00  0.000000D+00  0.231031D-01  0.000000D+00  0.000000D+00
     27  0.000000D+00  0.419500D-02  0.000000D+00  0.000000D+00  0.180027D-01
               16            17            18            19            20 
     16  0.258784D+00
     17  0.138635D+00  0.183342D+00
     18  0.000000D+00  0.000000D+00  0.437604D-01
     19  0.000000D+00  0.000000D+00  0.000000D+00  0.138789D+00
     20  0.000000D+00  0.000000D+00  0.000000D+00 -0.118037D+00  0.305239D+00
     21  0.000000D+00  0.000000D+00 -0.111742D-01  0.000000D+00  0.000000D+00
     22  0.000000D+00  0.000000D+00  0.000000D+00  0.000000D+00  0.000000D+00
     23  0.000000D+00  0.000000D+00  0.000000D+00  0.000000D+00  0.000000D+00
     24  0.000000D+00  0.000000D+00  0.000000D+00  0.000000D+00  0.000000D+00
     25  0.000000D+00  0.000000D+00  0.000000D+00  0.000000D+00  0.000000D+00
     26  0.000000D+00  0.000000D+00  0.000000D+00  0.000000D+00  0.000000D+00
     27  0.000000D+00  0.000000D+00 -0.638405D-02  0.000000D+00  0.000000D+00
               21            22            23            24            25 
     21  0.423613D-01
     22  0.000000D+00  0.138789D+00
     23  0.000000D+00  0.118037D+00  0.305239D+00
     24  0.000000D+00  0.000000D+00  0.000000D+00  0.423613D-01
     25  0.000000D+00  0.000000D+00  0.000000D+00  0.000000D+00  0.258784D+00
     26  0.000000D+00  0.000000D+00  0.000000D+00  0.000000D+00 -0.138635D+00
     27  0.000000D+00  0.000000D+00  0.000000D+00 -0.111742D-01  0.000000D+00
               26            27 
     26  0.183342D+00
     27  0.000000D+00  0.437604D-01
 Leave Link  716 at Tue Oct  6 15:41:39 2015, MaxMem=    33554432 cpu:         0.0
 (Enter /home/Applications/g09/g09/l103.exe)

 GradGradGradGradGradGradGradGradGradGradGradGradGradGradGradGradGradGrad
 Berny optimization.
 Search for a local minimum.
 Step number   1 out of a maximum of    2
 All quantities printed in internal units (Hartrees-Bohrs-Radians)
 Second derivative matrix not updated -- first step.
 ITU=  0
     Eigenvalues ---    0.01909   0.03141   0.07126   0.07691   0.07808
     Eigenvalues ---    0.08747   0.13104   0.14637   0.16226   0.24533
     Eigenvalues ---    0.26538   0.31677   0.39564   0.44355   0.64083
     Eigenvalues ---    0.84260   1.09116   1.36585   1.42549   1.55968
     Eigenvalues ---    1.63590
 Angle between quadratic step and forces=  49.57 degrees.
 ClnCor:  largest displacement from symmetrization is 6.40D-15 for atom     8.
 Linear search not attempted -- first point.
 ClnCor:  largest displacement from symmetrization is 4.44D-16 for atom     5.
 TrRot= -0.015413  0.000000  0.000000  0.000000  0.000000  0.000000
 Variable       Old X    -DE/DX   Delta X   Delta X   Delta X     New X
                                 (Linear)    (Quad)   (Total)
    X1        1.80559   0.05941   0.00000   0.07462   0.05921   1.86480
    Y1       -1.35297   0.04513   0.00000   0.04567   0.04567  -1.30730
    Z1        0.00000   0.00000   0.00000   0.00000   0.00000   0.00000
    X2       -0.65314  -0.02781   0.00000  -0.03182  -0.04724  -0.70038
    Y2       -2.06513  -0.03362   0.00000   0.00439   0.00439  -2.06073
    Z2        0.00000   0.00000   0.00000   0.00000   0.00000   0.00000
    X3       -2.18699  -0.06379   0.00000  -0.15476  -0.17017  -2.35716
    Y3        0.00000   0.00000   0.00000   0.00000   0.00000   0.00000
    Z3        0.00000   0.00000   0.00000   0.00000   0.00000   0.00000
    X4       -0.65314  -0.02781   0.00000  -0.03182  -0.04724  -0.70038
    Y4        2.06513   0.03362   0.00000  -0.00439  -0.00439   2.06073
    Z4        0.00000   0.00000   0.00000   0.00000   0.00000   0.00000
    X5        1.80559   0.05941   0.00000   0.07462   0.05921   1.86480
    Y5        1.35297  -0.04513   0.00000  -0.04567  -0.04567   1.30730
    Z5        0.00000   0.00000   0.00000   0.00000   0.00000   0.00000
    X6        3.42123   0.00114   0.00000   0.10406   0.08864   3.50988
    Y6        2.58776  -0.00400   0.00000  -0.09106  -0.09106   2.49670
    Z6        0.00000   0.00000   0.00000   0.00000   0.00000   0.00000
    X7       -1.58795  -0.00085   0.00000  -0.00012  -0.01553  -1.60348
    Y7        3.86805   0.00043   0.00000   0.01441   0.01441   3.88246
    Z7        0.00000   0.00000   0.00000   0.00000   0.00000   0.00000
    X8       -1.58795  -0.00085   0.00000  -0.00012  -0.01553  -1.60348
    Y8       -3.86805  -0.00043   0.00000  -0.01441  -0.01441  -3.88246
    Z8        0.00000   0.00000   0.00000   0.00000   0.00000   0.00000
    X9        3.42123   0.00114   0.00000   0.10406   0.08864   3.50988
    Y9       -2.58776   0.00400   0.00000   0.09106   0.09106  -2.49670
    Z9        0.00000   0.00000   0.00000   0.00000   0.00000   0.00000
         Item               Value     Threshold  Converged?
 Maximum Force            0.063790     0.000450     NO 
 RMS     Force            0.026559     0.000300     NO 
 Maximum Displacement     0.170171     0.001800     NO 
 RMS     Displacement     0.053693     0.001200     NO 
 Predicted change in Energy=-1.265624D-02
 GradGradGradGradGradGradGradGradGradGradGradGradGradGradGradGradGradGrad

 Leave Link  103 at Tue Oct  6 15:41:39 2015, MaxMem=    33554432 cpu:         0.0
 (Enter /home/Applications/g09/g09/l9999.exe)
 1\1\GINC-DUSTIN-DESKTOP\Force\RAM1-FC\STO-3G\C4H4O1\DUSTIN\06-Oct-2015
 \0\\#P AM1(Input,print) CIS(Singlets,NStates=15) pop(full) force\\AM1-
 Reparam Input\\0,1\C,0.955475,-0.715963,0.\C,-0.345627,-1.092818,0.\O,
 -1.157305,0.,0.\C,-0.345627,1.092818,0.\C,0.955475,0.715963,0.\H,1.810
 438,1.369382,0.\H,-0.840307,2.046884,0.\H,-0.840307,-2.046884,0.\H,1.8
 10438,-1.369382,0.\\Version=ES64L-G09RevD.01\State=1-A1\HF=-0.5126283\
 RMSD=8.653e-09\RMSF=2.656e-02\Dipole=0.2932992,0.,0.\PG=C02V [C2(O1),S
 GV(C4H4)]\\@


 I WANT TO KNOW HOW GOD CREATED THE WORLD.  I AM NOT INTERESTED IN
 THIS OR THAT PHENOMENON, IN THE SPECTRUM OF THIS OR THAT ELEMENT.
 I WANT TO KNOW HIS THOUGHTS, THE REST ARE DETAILS.
     -- ALBERT EINSTEIN
 Job cpu time:       0 days  0 hours  0 minutes  0.4 seconds.
 File lengths (MBytes):  RWF=      7 Int=      0 D2E=      0 Chk=      2 Scr=      1
 Normal termination of Gaussian 09 at Tue Oct  6 15:41:39 2015.
