 Entering Gaussian System, Link 0=g09
 Input=best_input0.com
 Output=best_input0.log
 Initial command:
 /home/Applications/g09/g09/l1.exe "/home/Applications/g09/scratch/Gau-15533.inp" -scrdir="/home/Applications/g09/scratch/"
 Entering Link 1 = /home/Applications/g09/g09/l1.exe PID=     15535.
  
 Copyright (c) 1988,1990,1992,1993,1995,1998,2003,2009,2013,
            Gaussian, Inc.  All Rights Reserved.
  
 This is part of the Gaussian(R) 09 program.  It is based on
 the Gaussian(R) 03 system (copyright 2003, Gaussian, Inc.),
 the Gaussian(R) 98 system (copyright 1998, Gaussian, Inc.),
 the Gaussian(R) 94 system (copyright 1995, Gaussian, Inc.),
 the Gaussian 92(TM) system (copyright 1992, Gaussian, Inc.),
 the Gaussian 90(TM) system (copyright 1990, Gaussian, Inc.),
 the Gaussian 88(TM) system (copyright 1988, Gaussian, Inc.),
 the Gaussian 86(TM) system (copyright 1986, Carnegie Mellon
 University), and the Gaussian 82(TM) system (copyright 1983,
 Carnegie Mellon University). Gaussian is a federally registered
 trademark of Gaussian, Inc.
  
 This software contains proprietary and confidential information,
 including trade secrets, belonging to Gaussian, Inc.
  
 This software is provided under written license and may be
 used, copied, transmitted, or stored only in accord with that
 written license.
  
 The following legend is applicable only to US Government
 contracts under FAR:
  
                    RESTRICTED RIGHTS LEGEND
  
 Use, reproduction and disclosure by the US Government is
 subject to restrictions as set forth in subparagraphs (a)
 and (c) of the Commercial Computer Software - Restricted
 Rights clause in FAR 52.227-19.
  
 Gaussian, Inc.
 340 Quinnipiac St., Bldg. 40, Wallingford CT 06492
  
  
 ---------------------------------------------------------------
 Warning -- This program may not be used in any manner that
 competes with the business of Gaussian, Inc. or will provide
 assistance to any competitor of Gaussian, Inc.  The licensee
 of this program is prohibited from giving any competitor of
 Gaussian, Inc. access to this program.  By using this program,
 the user acknowledges that Gaussian, Inc. is engaged in the
 business of creating and licensing software in the field of
 computational chemistry and represents and warrants to the
 licensee that it is not a competitor of Gaussian, Inc. and that
 it will not use this program in any manner prohibited above.
 ---------------------------------------------------------------
  

 Cite this work as:
 Gaussian 09, Revision D.01,
 M. J. Frisch, G. W. Trucks, H. B. Schlegel, G. E. Scuseria, 
 M. A. Robb, J. R. Cheeseman, G. Scalmani, V. Barone, B. Mennucci, 
 G. A. Petersson, H. Nakatsuji, M. Caricato, X. Li, H. P. Hratchian, 
 A. F. Izmaylov, J. Bloino, G. Zheng, J. L. Sonnenberg, M. Hada, 
 M. Ehara, K. Toyota, R. Fukuda, J. Hasegawa, M. Ishida, T. Nakajima, 
 Y. Honda, O. Kitao, H. Nakai, T. Vreven, J. A. Montgomery, Jr., 
 J. E. Peralta, F. Ogliaro, M. Bearpark, J. J. Heyd, E. Brothers, 
 K. N. Kudin, V. N. Staroverov, T. Keith, R. Kobayashi, J. Normand, 
 K. Raghavachari, A. Rendell, J. C. Burant, S. S. Iyengar, J. Tomasi, 
 M. Cossi, N. Rega, J. M. Millam, M. Klene, J. E. Knox, J. B. Cross, 
 V. Bakken, C. Adamo, J. Jaramillo, R. Gomperts, R. E. Stratmann, 
 O. Yazyev, A. J. Austin, R. Cammi, C. Pomelli, J. W. Ochterski, 
 R. L. Martin, K. Morokuma, V. G. Zakrzewski, G. A. Voth, 
 P. Salvador, J. J. Dannenberg, S. Dapprich, A. D. Daniels, 
 O. Farkas, J. B. Foresman, J. V. Ortiz, J. Cioslowski, 
 and D. J. Fox, Gaussian, Inc., Wallingford CT, 2013.
 
 ******************************************
 Gaussian 09:  ES64L-G09RevD.01 24-Apr-2013
                 6-Oct-2015 
 ******************************************
 -----------------------
 #P AM1(Input,print) opt
 -----------------------
 1/14=-1,18=20,19=15,26=1,38=1/1,3;
 2/9=110,12=2,17=6,18=5,40=1/2;
 3/5=2,16=1,25=1,41=700000,71=1,135=100,136=1/1,2,3;
 4/35=1/1;
 5/5=2,35=1,38=5/2;
 6/7=2,8=2,9=2,10=2,28=1/1;
 7//1,2,3,16;
 1/14=-1,18=20,19=15,26=1/3(2);
 2/9=110/2;
 99//99;
 2/9=110/2;
 3/5=2,16=1,25=1,41=700000,71=1,135=20,136=1/1,2,3;
 4/5=5,16=3,35=1/1;
 5/5=2,35=1,38=5/2;
 7//1,2,3,16;
 1/14=-1,18=20,19=15,26=1/3(-5);
 2/9=110/2;
 6/7=2,8=2,9=2,10=2,19=2,28=1/1;
 99/9=1/99;
 Leave Link    1 at Tue Oct  6 15:45:31 2015, MaxMem=           0 cpu:         0.0
 (Enter /home/Applications/g09/g09/l101.exe)
 -----------------
 AM1-Reparam Input
 -----------------
 Symbolic Z-matrix:
 Charge =  0 Multiplicity = 1
 6                     0.95548  -0.71596   0. 
 6                    -0.34563  -1.09282   0. 
 8                    -1.15731   0.        0. 
 6                    -0.34563   1.09282   0. 
 6                     0.95548   0.71596   0. 
 1                     1.81044   1.36938   0. 
 1                    -0.84031   2.04688   0. 
 1                    -0.84031  -2.04688   0. 
 1                     1.81044  -1.36938   0. 
 
 NAtoms=      9 NQM=        9 NQMF=       0 NMMI=      0 NMMIF=      0
                NMic=       0 NMicF=      0.
                    Isotopes and Nuclear Properties:
 (Nuclear quadrupole moments (NQMom) in fm**2, nuclear magnetic moments (NMagM)
  in nuclear magnetons)

  Atom         1           2           3           4           5           6           7           8           9
 IAtWgt=          12          12          16          12          12           1           1           1           1
 AtmWgt=  12.0000000  12.0000000  15.9949146  12.0000000  12.0000000   1.0078250   1.0078250   1.0078250   1.0078250
 NucSpn=           0           0           0           0           0           1           1           1           1
 AtZEff=   0.0000000   0.0000000   0.0000000   0.0000000   0.0000000   0.0000000   0.0000000   0.0000000   0.0000000
 NQMom=    0.0000000   0.0000000   0.0000000   0.0000000   0.0000000   0.0000000   0.0000000   0.0000000   0.0000000
 NMagM=    0.0000000   0.0000000   0.0000000   0.0000000   0.0000000   2.7928460   2.7928460   2.7928460   2.7928460
 AtZNuc=   6.0000000   6.0000000   8.0000000   6.0000000   6.0000000   1.0000000   1.0000000   1.0000000   1.0000000
 Leave Link  101 at Tue Oct  6 15:45:31 2015, MaxMem=    33554432 cpu:         0.0
 (Enter /home/Applications/g09/g09/l103.exe)

 GradGradGradGradGradGradGradGradGradGradGradGradGradGradGradGradGradGrad
 Berny optimization.
 Initialization pass.
                           ----------------------------
                           !    Initial Parameters    !
                           ! (Angstroms and Degrees)  !
 --------------------------                            --------------------------
 ! Name  Definition              Value          Derivative Info.                !
 --------------------------------------------------------------------------------
 ! R1    R(1,2)                  1.3546         estimate D2E/DX2                !
 ! R2    R(1,5)                  1.4319         estimate D2E/DX2                !
 ! R3    R(1,9)                  1.0761         estimate D2E/DX2                !
 ! R4    R(2,3)                  1.3613         estimate D2E/DX2                !
 ! R5    R(2,8)                  1.0747         estimate D2E/DX2                !
 ! R6    R(3,4)                  1.3613         estimate D2E/DX2                !
 ! R7    R(4,5)                  1.3546         estimate D2E/DX2                !
 ! R8    R(4,7)                  1.0747         estimate D2E/DX2                !
 ! R9    R(5,6)                  1.0761         estimate D2E/DX2                !
 ! A1    A(2,1,5)              106.1533         estimate D2E/DX2                !
 ! A2    A(2,1,9)              126.4573         estimate D2E/DX2                !
 ! A3    A(5,1,9)              127.3894         estimate D2E/DX2                !
 ! A4    A(1,2,3)              110.4494         estimate D2E/DX2                !
 ! A5    A(1,2,8)              133.5599         estimate D2E/DX2                !
 ! A6    A(3,2,8)              115.9907         estimate D2E/DX2                !
 ! A7    A(2,3,4)              106.7946         estimate D2E/DX2                !
 ! A8    A(3,4,5)              110.4494         estimate D2E/DX2                !
 ! A9    A(3,4,7)              115.9907         estimate D2E/DX2                !
 ! A10   A(5,4,7)              133.5599         estimate D2E/DX2                !
 ! A11   A(1,5,4)              106.1533         estimate D2E/DX2                !
 ! A12   A(1,5,6)              127.3894         estimate D2E/DX2                !
 ! A13   A(4,5,6)              126.4573         estimate D2E/DX2                !
 ! D1    D(5,1,2,3)              0.0            estimate D2E/DX2                !
 ! D2    D(5,1,2,8)            180.0            estimate D2E/DX2                !
 ! D3    D(9,1,2,3)            180.0            estimate D2E/DX2                !
 ! D4    D(9,1,2,8)              0.0            estimate D2E/DX2                !
 ! D5    D(2,1,5,4)              0.0            estimate D2E/DX2                !
 ! D6    D(2,1,5,6)            180.0            estimate D2E/DX2                !
 ! D7    D(9,1,5,4)            180.0            estimate D2E/DX2                !
 ! D8    D(9,1,5,6)              0.0            estimate D2E/DX2                !
 ! D9    D(1,2,3,4)              0.0            estimate D2E/DX2                !
 ! D10   D(8,2,3,4)            180.0            estimate D2E/DX2                !
 ! D11   D(2,3,4,5)              0.0            estimate D2E/DX2                !
 ! D12   D(2,3,4,7)            180.0            estimate D2E/DX2                !
 ! D13   D(3,4,5,1)              0.0            estimate D2E/DX2                !
 ! D14   D(3,4,5,6)            180.0            estimate D2E/DX2                !
 ! D15   D(7,4,5,1)            180.0            estimate D2E/DX2                !
 ! D16   D(7,4,5,6)              0.0            estimate D2E/DX2                !
 --------------------------------------------------------------------------------
 Trust Radius=3.00D-01 FncErr=1.00D-07 GrdErr=1.00D-07
 Number of steps in this run=     48 maximum allowed number of steps=    100.
 GradGradGradGradGradGradGradGradGradGradGradGradGradGradGradGradGradGrad

 Leave Link  103 at Tue Oct  6 15:45:31 2015, MaxMem=    33554432 cpu:         0.0
 (Enter /home/Applications/g09/g09/l202.exe)
                          Input orientation:                          
 ---------------------------------------------------------------------
 Center     Atomic      Atomic             Coordinates (Angstroms)
 Number     Number       Type             X           Y           Z
 ---------------------------------------------------------------------
      1          6           0        0.955475   -0.715963    0.000000
      2          6           0       -0.345627   -1.092818    0.000000
      3          8           0       -1.157305    0.000000    0.000000
      4          6           0       -0.345627    1.092818    0.000000
      5          6           0        0.955475    0.715963    0.000000
      6          1           0        1.810438    1.369382    0.000000
      7          1           0       -0.840307    2.046884    0.000000
      8          1           0       -0.840307   -2.046884    0.000000
      9          1           0        1.810438   -1.369382    0.000000
 ---------------------------------------------------------------------
                    Distance matrix (angstroms):
                    1          2          3          4          5
     1  C    0.000000
     2  C    1.354580   0.000000
     3  O    2.230794   1.361276   0.000000
     4  C    2.228128   2.185636   1.361276   0.000000
     5  C    1.431926   2.228128   2.230794   1.354580   0.000000
     6  H    2.253802   3.272773   3.268441   2.173730   1.076066
     7  H    3.295172   3.178433   2.071285   1.074686   2.235214
     8  H    2.235214   1.074686   2.071285   3.178433   3.295172
     9  H    1.076066   2.173730   3.268441   3.272773   2.253802
                    6          7          8          9
     6  H    0.000000
     7  H    2.735957   0.000000
     8  H    4.324040   4.093768   0.000000
     9  H    2.738764   4.324040   2.735957   0.000000
 Stoichiometry    C4H4O
 Framework group  C2V[C2(O),SGV(C4H4)]
 Deg. of freedom     8
 Full point group                 C2V     NOp   4
 Largest Abelian subgroup         C2V     NOp   4
 Largest concise Abelian subgroup C2      NOp   2
                         Standard orientation:                         
 ---------------------------------------------------------------------
 Center     Atomic      Atomic             Coordinates (Angstroms)
 Number     Number       Type             X           Y           Z
 ---------------------------------------------------------------------
      1          6           0        0.000000    0.715963   -0.955475
      2          6           0        0.000000    1.092818    0.345627
      3          8           0        0.000000    0.000000    1.157305
      4          6           0        0.000000   -1.092818    0.345627
      5          6           0        0.000000   -0.715963   -0.955475
      6          1           0        0.000000   -1.369382   -1.810438
      7          1           0        0.000000   -2.046884    0.840307
      8          1           0        0.000000    2.046884    0.840307
      9          1           0        0.000000    1.369382   -1.810438
 ---------------------------------------------------------------------
 Rotational constants (GHZ):      9.5015164      9.3284592      4.7070963
 Leave Link  202 at Tue Oct  6 15:45:31 2015, MaxMem=    33554432 cpu:         0.0
 (Enter /home/Applications/g09/g09/l301.exe)

 Semi-emprical parameters in input format:
 Method=8 CoreType=1 PeptideFC=0.0114505045 RIJScale=0.5291772086
 ****
 H       
 PQN=1 NValence=1 F0ss=0.4910802479 ZetaOverlap=1.1716084924 U=-0.4158349538
 Beta=-0.2218027015 CoreKO=1.0700961987 KON=0,0,0,1.0589197790 KON=1,0,1,1.0235463973
 KON=0,1,1,1.0530114284 KON=2,1,1,1.0583964043 EISol=-0.4188110042 EHeat=0.0830298228
 Alpha=1.5252601686
 GCore=0.0086720163,1.4301527614,2.2676713595
 GCore=0.0003372405,1.4275218050,3.4015070392
 GCore=-0.0012891467,0.5674994555,3.9684248791
 ****
 C       
 PQN=2,2 NValence=4 F0ss=0.4544161778 F0sp=0.4376528444 F0pp=0.3672039097 F2pp=0.1969752096
 G1sp=0.2763840092
 ZetaOverlap=1.7999833390,1.6458107732
 U=-1.9120180828,-1.4557965594
 Beta=-0.5959868680,-0.2914914995 DDN=0,1,0.8601398383 DDN=1,1,0.7268015000
 CoreKO=1.0956204192 KON=0,0,0,1.0734248343 KON=1,0,1,0.8059902852 KON=0,1,1,1.0594821711
 KON=2,1,1,0.7783928119 EISol=-4.4398989268 EHeat=0.2723305520 Alpha=1.4288981777
 DipHyp=1.7201807075
 GCore=0.0007903914,1.4534868302,2.9019268393
 GCore=0.0032506043,1.4403750411,3.7047921174
 GCore=-0.0013844768,1.4190794252,3.8830527880
 GCore=-0.0000875022,1.4121890676,4.6114749156
 ****
 O       
 PQN=2,2 NValence=6 F0ss=0.5558840537 F0sp=0.5321302318 F0pp=0.4958708974 F2pp=0.2241807199
 G1sp=0.4257938433
 ZetaOverlap=3.1873394913,2.5240390000
 U=-3.5951865036,-2.8760896690
 Beta=-1.0757546603,-1.1441833655 DDN=0,1,0.4935393666 DDN=1,1,0.5182723685
 CoreKO=0.8830543963 KON=0,0,0,0.8822957477 KON=1,0,1,0.5019543089 KON=0,1,1,0.8657108495
 KON=2,1,1,0.5698124379 EISol=-11.6164441184 EHeat=0.0949133088 Alpha=2.3962490047
 DipHyp=0.9870219456
 GCore=0.0195117322,1.4001425905,1.6023328031
 GCore=0.0058337642,1.8606393420,2.7307884326
 ****
 
 Standard basis: VSTO-6G (5D, 7F)
 Ernie: Thresh=  0.10000D-02 Tol=  0.10000D-05 Strict=F.
  NNHCO=     0 NNPyr=     0 NCTC=     0               EPep=         0.000000000
    EC=        69.003354237  ECS=         1.733232602   EG=         0.363968802
   EHC=         0.000000000  EAt=       -31.051283842  AtH=         1.516354808
 EPDDG=         0.000000000  ECC=        71.100555641 EAtT=        32.567638650
 There are    10 symmetry adapted cartesian basis functions of A1  symmetry.
 There are     2 symmetry adapted cartesian basis functions of A2  symmetry.
 There are     3 symmetry adapted cartesian basis functions of B1  symmetry.
 There are     9 symmetry adapted cartesian basis functions of B2  symmetry.
 There are    10 symmetry adapted basis functions of A1  symmetry.
 There are     2 symmetry adapted basis functions of A2  symmetry.
 There are     3 symmetry adapted basis functions of B1  symmetry.
 There are     9 symmetry adapted basis functions of B2  symmetry.
    24 basis functions,   144 primitive gaussians,    24 cartesian basis functions
    13 alpha electrons       13 beta electrons
       nuclear repulsion energy       103.6681942919 Hartrees.
 IExCor=    0 DFT=F Ex=HF Corr=None ExCW=0 ScaHFX=  1.000000
 ScaDFX=  1.000000  1.000000  1.000000  1.000000 ScalE2=  1.000000  1.000000
 IRadAn=      0 IRanWt=     -1 IRanGd=            0 ICorTp=0 IEmpDi=  4
 Integral buffers will be    131072 words long.
 Regular integral format.
 Two-electron integral symmetry is turned off.
 Leave Link  301 at Tue Oct  6 15:45:31 2015, MaxMem=    33554432 cpu:         0.0
 (Enter /home/Applications/g09/g09/l302.exe)
 Do NDO integrals.
 NPDir=0 NMtPBC=     1 NCelOv=     1 NCel=       1 NClECP=     1 NCelD=      1
         NCelK=      1 NCelE2=     1 NClLst=     1 CellRange=     0.0.
 One-electron integrals computed using PRISM.
 NBasis=    24 RedAO= T EigKep=  1.00D+00  NBF=    10     2     3     9
 NBsUse=    24 1.00D-06 EigRej= -1.00D+00 NBFU=    10     2     3     9
 Leave Link  302 at Tue Oct  6 15:45:31 2015, MaxMem=    33554432 cpu:         0.0
 (Enter /home/Applications/g09/g09/l303.exe)
 DipDrv:  MaxL=1.
 Leave Link  303 at Tue Oct  6 15:45:31 2015, MaxMem=    33554432 cpu:         0.0
 (Enter /home/Applications/g09/g09/l401.exe)
 Simple Huckel Guess.
 JPrj=0 DoOrth=F DoCkMO=F.
 Initial guess orbital symmetries:
       Occupied  (A1) (A1) (B2) (B2) (A1) (A1) (B1) (B2) (A1) (B2)
                 (A1) (B1) (A2)
       Virtual   (B1) (A2) (B2) (B2) (A1) (A1) (B2) (B2) (A1) (A1)
                 (B2)
 The electronic state of the initial guess is 1-A1.
 Leave Link  401 at Tue Oct  6 15:45:31 2015, MaxMem=    33554432 cpu:         0.0
 (Enter /home/Applications/g09/g09/l502.exe)
 Closed shell SCF:
 Using DIIS extrapolation, IDIIS=  1040.
 Overlap will be assumed to be unity.
 Two-electron integral symmetry not used.
 Keep J ints in memory in canonical form, NReq=888094.
 IVT=       79487 IEndB=       79487 NGot=    33554432 MDV=    33473461
 LenX=    33473461 LenY=    33472444
 Requested convergence on RMS density matrix=1.00D-08 within 128 cycles.
 Requested convergence on MAX density matrix=1.00D-06.
 Requested convergence on             energy=1.00D-06.
 No special actions if energy rises.
 FoFCou: FMM=F IPFlag=           0 FMFlag=           0 FMFlg1=           0
         NFxFlg=           0 DoJE=F BraDBF=F KetDBF=F FulRan=T
         wScrn=  0.000000 ICntrl=     600 IOpCl=  2 I1Cent=           0 NGrid=           0
         NMat0=    1 NMatS0=     54 NMatT0=    0 NMatD0=    1 NMtDS0=    0 NMtDT0=    0
 Symmetry not used in FoFCou.

 Cycle   1  Pass 1  IDiag  1:
 E= 0.294236254809306E-01
 DIIS: error= 5.52D-02 at cycle   1 NSaved=   1.
 NSaved= 1 IEnMin= 1 EnMin= 0.294236254809306E-01 IErMin= 1 ErrMin= 5.52D-02
 ErrMax= 5.52D-02  0.00D+00 EMaxC= 1.00D-01 BMatC= 9.87D-02 BMatP= 9.87D-02
 IDIUse=3 WtCom= 4.48D-01 WtEn= 5.52D-01
 Coeff-Com:  0.100D+01
 Coeff-En:   0.100D+01
 Coeff:      0.100D+01
 GapD=    2.000 DampG=2.000 DampE=0.500 DampFc=1.0000 IDamp=-1.
 RMSDP=1.87D-02 MaxDP=1.64D-01              OVMax= 0.00D+00

 Cycle   2  Pass 1  IDiag  1:
 E=-0.226199163173249     Delta-E=       -0.255622788654 Rises=F Damp=F
 DIIS: error= 2.23D-02 at cycle   2 NSaved=   2.
 NSaved= 2 IEnMin= 2 EnMin=-0.226199163173249     IErMin= 2 ErrMin= 2.23D-02
 ErrMax= 2.23D-02  0.00D+00 EMaxC= 1.00D-01 BMatC= 9.37D-03 BMatP= 9.87D-02
 IDIUse=3 WtCom= 7.77D-01 WtEn= 2.23D-01
 Coeff-Com: -0.378D+00 0.138D+01
 Coeff-En:   0.000D+00 0.100D+01
 Coeff:     -0.294D+00 0.129D+01
 RMSDP=8.22D-03 MaxDP=8.33D-02 DE=-2.56D-01 OVMax= 0.00D+00

 Cycle   3  Pass 1  IDiag  1:
 E=-0.257019817197445     Delta-E=       -0.030820654024 Rises=F Damp=F
 DIIS: error= 3.64D-03 at cycle   3 NSaved=   3.
 NSaved= 3 IEnMin= 3 EnMin=-0.257019817197445     IErMin= 3 ErrMin= 3.64D-03
 ErrMax= 3.64D-03  0.00D+00 EMaxC= 1.00D-01 BMatC= 4.29D-04 BMatP= 9.37D-03
 IDIUse=3 WtCom= 9.64D-01 WtEn= 3.64D-02
 Coeff-Com:  0.180D+00-0.752D+00 0.157D+01
 Coeff-En:   0.000D+00 0.000D+00 0.100D+01
 Coeff:      0.173D+00-0.724D+00 0.155D+01
 RMSDP=2.79D-03 MaxDP=3.42D-02 DE=-3.08D-02 OVMax= 0.00D+00

 Cycle   4  Pass 1  IDiag  3:
 E=-0.259358000926227     Delta-E=       -0.002338183729 Rises=F Damp=F
 DIIS: error= 1.07D-03 at cycle   4 NSaved=   4.
 NSaved= 4 IEnMin= 4 EnMin=-0.259358000926227     IErMin= 4 ErrMin= 1.07D-03
 ErrMax= 1.07D-03  0.00D+00 EMaxC= 1.00D-01 BMatC= 2.55D-05 BMatP= 4.29D-04
 IDIUse=3 WtCom= 9.89D-01 WtEn= 1.07D-02
 Coeff-Com:  0.202D-01-0.837D-01-0.777D-01 0.114D+01
 Coeff-En:   0.000D+00 0.000D+00 0.000D+00 0.100D+01
 Coeff:      0.200D-01-0.828D-01-0.769D-01 0.114D+01
 Fock symm off for IB=2 I1=    1 I=   11 J=    6 Cut=1.00D-07 Err=2.45D-03
 Fock matrix is not symmetric: symmetry in diagonalization turned off.
 Gap=     0.396 Goal=   None    Shift=    0.000
 RMSDP=7.20D-04 MaxDP=9.60D-03 DE=-2.34D-03 OVMax= 9.88D-03

 Cycle   5  Pass 1  IDiag  3:
 E=-0.259497665238243     Delta-E=       -0.000139664312 Rises=F Damp=F
 DIIS: error= 1.82D-04 at cycle   5 NSaved=   5.
 NSaved= 5 IEnMin= 5 EnMin=-0.259497665238243     IErMin= 5 ErrMin= 1.82D-04
 ErrMax= 1.82D-04  0.00D+00 EMaxC= 1.00D-01 BMatC= 1.47D-06 BMatP= 2.55D-05
 IDIUse=3 WtCom= 9.98D-01 WtEn= 1.82D-03
 Coeff-Com: -0.965D-02 0.410D-01-0.732D-02-0.457D+00 0.143D+01
 Coeff-En:   0.000D+00 0.000D+00 0.000D+00 0.000D+00 0.100D+01
 Coeff:     -0.963D-02 0.409D-01-0.731D-02-0.456D+00 0.143D+01
 Gap=     0.395 Goal=   None    Shift=    0.000
 RMSDP=1.93D-04 MaxDP=1.72D-03 DE=-1.40D-04 OVMax= 1.99D-03

 Cycle   6  Pass 1  IDiag  3:
 E=-0.259506775483345     Delta-E=       -0.000009110245 Rises=F Damp=F
 DIIS: error= 5.92D-05 at cycle   6 NSaved=   6.
 NSaved= 6 IEnMin= 6 EnMin=-0.259506775483345     IErMin= 6 ErrMin= 5.92D-05
 ErrMax= 5.92D-05  0.00D+00 EMaxC= 1.00D-01 BMatC= 1.02D-07 BMatP= 1.47D-06
 IDIUse=1 WtCom= 1.00D+00 WtEn= 0.00D+00
 Coeff-Com:  0.183D-02-0.725D-02 0.288D-02 0.963D-01-0.499D+00 0.141D+01
 Coeff:      0.183D-02-0.725D-02 0.288D-02 0.963D-01-0.499D+00 0.141D+01
 Gap=     0.396 Goal=   None    Shift=    0.000
 RMSDP=5.94D-05 MaxDP=4.35D-04 DE=-9.11D-06 OVMax= 8.29D-04

 Cycle   7  Pass 1  IDiag  3:
 E=-0.259507553172526     Delta-E=       -0.000000777689 Rises=F Damp=F
 DIIS: error= 2.52D-05 at cycle   7 NSaved=   7.
 NSaved= 7 IEnMin= 7 EnMin=-0.259507553172526     IErMin= 7 ErrMin= 2.52D-05
 ErrMax= 2.52D-05  0.00D+00 EMaxC= 1.00D-01 BMatC= 9.51D-09 BMatP= 1.02D-07
 IDIUse=1 WtCom= 1.00D+00 WtEn= 0.00D+00
 Coeff-Com: -0.196D-03 0.281D-03 0.121D-02-0.221D-01 0.143D+00-0.664D+00
 Coeff-Com:  0.154D+01
 Coeff:     -0.196D-03 0.281D-03 0.121D-02-0.221D-01 0.143D+00-0.664D+00
 Coeff:      0.154D+01
 Gap=     0.396 Goal=   None    Shift=    0.000
 RMSDP=2.23D-05 MaxDP=2.05D-04 DE=-7.78D-07 OVMax= 2.80D-04

 Cycle   8  Pass 1  IDiag  3:
 E=-0.259507639026126     Delta-E=       -0.000000085854 Rises=F Damp=F
 DIIS: error= 6.64D-06 at cycle   8 NSaved=   8.
 NSaved= 8 IEnMin= 8 EnMin=-0.259507639026126     IErMin= 8 ErrMin= 6.64D-06
 ErrMax= 6.64D-06  0.00D+00 EMaxC= 1.00D-01 BMatC= 6.83D-10 BMatP= 9.51D-09
 IDIUse=1 WtCom= 1.00D+00 WtEn= 0.00D+00
 Coeff-Com:  0.806D-05 0.340D-03-0.179D-02 0.135D-01-0.776D-01 0.385D+00
 Coeff-Com: -0.108D+01 0.176D+01
 Coeff:      0.806D-05 0.340D-03-0.179D-02 0.135D-01-0.776D-01 0.385D+00
 Coeff:     -0.108D+01 0.176D+01
 Gap=     0.396 Goal=   None    Shift=    0.000
 RMSDP=7.03D-06 MaxDP=6.66D-05 DE=-8.59D-08 OVMax= 9.21D-05

 Cycle   9  Pass 1  IDiag  3:
 E=-0.259507645588442     Delta-E=       -0.000000006562 Rises=F Damp=F
 DIIS: error= 6.59D-07 at cycle   9 NSaved=   9.
 NSaved= 9 IEnMin= 9 EnMin=-0.259507645588442     IErMin= 9 ErrMin= 6.59D-07
 ErrMax= 6.59D-07  0.00D+00 EMaxC= 1.00D-01 BMatC= 2.13D-11 BMatP= 6.83D-10
 IDIUse=1 WtCom= 1.00D+00 WtEn= 0.00D+00
 Coeff-Com:  0.296D-04-0.280D-03 0.840D-03-0.442D-02 0.258D-01-0.141D+00
 Coeff-Com:  0.425D+00-0.812D+00 0.151D+01
 Coeff:      0.296D-04-0.280D-03 0.840D-03-0.442D-02 0.258D-01-0.141D+00
 Coeff:      0.425D+00-0.812D+00 0.151D+01
 Gap=     0.396 Goal=   None    Shift=    0.000
 RMSDP=9.36D-07 MaxDP=7.45D-06 DE=-6.56D-09 OVMax= 1.22D-05

 Cycle  10  Pass 1  IDiag  3:
 E=-0.259507645727013     Delta-E=       -0.000000000139 Rises=F Damp=F
 DIIS: error= 8.80D-08 at cycle  10 NSaved=  10.
 NSaved=10 IEnMin=10 EnMin=-0.259507645727013     IErMin=10 ErrMin= 8.80D-08
 ErrMax= 8.80D-08  0.00D+00 EMaxC= 1.00D-01 BMatC= 5.32D-13 BMatP= 2.13D-11
 IDIUse=1 WtCom= 1.00D+00 WtEn= 0.00D+00
 Coeff-Com: -0.113D-04 0.902D-04-0.240D-03 0.112D-02-0.633D-02 0.358D-01
 Coeff-Com: -0.110D+00 0.217D+00-0.493D+00 0.136D+01
 Coeff:     -0.113D-04 0.902D-04-0.240D-03 0.112D-02-0.633D-02 0.358D-01
 Coeff:     -0.110D+00 0.217D+00-0.493D+00 0.136D+01
 Gap=     0.396 Goal=   None    Shift=    0.000
 RMSDP=9.97D-08 MaxDP=4.84D-07 DE=-1.39D-10 OVMax= 7.53D-07

 Cycle  11  Pass 1  IDiag  3:
 E=-0.259507645729528     Delta-E=       -0.000000000003 Rises=F Damp=F
 DIIS: error= 2.03D-08 at cycle  11 NSaved=  11.
 NSaved=11 IEnMin=11 EnMin=-0.259507645729528     IErMin=11 ErrMin= 2.03D-08
 ErrMax= 2.03D-08  0.00D+00 EMaxC= 1.00D-01 BMatC= 1.68D-14 BMatP= 5.32D-13
 IDIUse=1 WtCom= 1.00D+00 WtEn= 0.00D+00
 Coeff-Com:  0.286D-05-0.230D-04 0.606D-04-0.287D-03 0.155D-02-0.875D-02
 Coeff-Com:  0.269D-01-0.525D-01 0.126D+00-0.454D+00 0.136D+01
 Coeff:      0.286D-05-0.230D-04 0.606D-04-0.287D-03 0.155D-02-0.875D-02
 Coeff:      0.269D-01-0.525D-01 0.126D+00-0.454D+00 0.136D+01
 Gap=     0.396 Goal=   None    Shift=    0.000
 RMSDP=1.61D-08 MaxDP=1.07D-07 DE=-2.52D-12 OVMax= 9.31D-08

 Cycle  12  Pass 1  IDiag  3:
 E=-0.259507645729656     Delta-E=        0.000000000000 Rises=F Damp=F
 DIIS: error= 4.63D-09 at cycle  12 NSaved=  12.
 NSaved=12 IEnMin=12 EnMin=-0.259507645729656     IErMin=12 ErrMin= 4.63D-09
 ErrMax= 4.63D-09  0.00D+00 EMaxC= 1.00D-01 BMatC= 7.21D-16 BMatP= 1.68D-14
 IDIUse=1 WtCom= 1.00D+00 WtEn= 0.00D+00
 Coeff-Com: -0.427D-06 0.363D-05-0.876D-05 0.429D-04-0.230D-03 0.134D-02
 Coeff-Com: -0.412D-02 0.779D-02-0.190D-01 0.841D-01-0.413D+00 0.134D+01
 Coeff:     -0.427D-06 0.363D-05-0.876D-05 0.429D-04-0.230D-03 0.134D-02
 Coeff:     -0.412D-02 0.779D-02-0.190D-01 0.841D-01-0.413D+00 0.134D+01
 Gap=     0.396 Goal=   None    Shift=    0.000
 RMSDP=3.60D-09 MaxDP=2.44D-08 DE=-1.28D-13 OVMax= 2.49D-08

 Cycle  13  Pass 2  IDiag  1:
 SCF Done:  E(RAM1) = -0.259507645730     A.U. after   13 cycles
            NFock= 12  Conv=0.36D-08     -V/T= 0.9841
 KE=-1.633043346289D+01 PE=-1.724638697806D+02 EE= 8.486660130586D+01
 Leave Link  502 at Tue Oct  6 15:45:31 2015, MaxMem=    33554432 cpu:         0.0
 (Enter /home/Applications/g09/g09/l601.exe)
 Copying SCF densities to generalized density rwf, IOpCl= 0 IROHF=0.

 **********************************************************************

            Population analysis using the SCF density.

 **********************************************************************

 Orbital symmetries:
       Occupied  (A1) (A1) (B2) (B2) (A1) (A1) (B1) (B2) (A1) (B2)
                 (A1) (B1) (A2)
       Virtual   (B1) (A2) (A1) (B2) (A1) (B2) (A1) (B2) (A1) (B2)
                 (B2)
 The electronic state is 1-A1.
 Alpha  occ. eigenvalues --   -1.55945  -1.22370  -1.07600  -0.81970  -0.79625
 Alpha  occ. eigenvalues --   -0.68677  -0.60933  -0.54763  -0.49958  -0.49198
 Alpha  occ. eigenvalues --   -0.48838  -0.38792  -0.34386
 Alpha virt. eigenvalues --    0.05170   0.08450   0.12737   0.17597   0.19727
 Alpha virt. eigenvalues --    0.20607   0.21802   0.23041   0.24489   0.25546
 Alpha virt. eigenvalues --    0.26234
          Condensed to atoms (all electrons):
               1          2          3          4          5          6
     1  C    4.221811   0.000000   0.000000   0.000000   0.000000   0.000000
     2  C    0.000000   4.150293   0.000000   0.000000   0.000000   0.000000
     3  O    0.000000   0.000000   5.991117   0.000000   0.000000   0.000000
     4  C    0.000000   0.000000   0.000000   4.150293   0.000000   0.000000
     5  C    0.000000   0.000000   0.000000   0.000000   4.221811   0.000000
     6  H    0.000000   0.000000   0.000000   0.000000   0.000000   0.828729
     7  H    0.000000   0.000000   0.000000   0.000000   0.000000   0.000000
     8  H    0.000000   0.000000   0.000000   0.000000   0.000000   0.000000
     9  H    0.000000   0.000000   0.000000   0.000000   0.000000   0.000000
               7          8          9
     1  C    0.000000   0.000000   0.000000
     2  C    0.000000   0.000000   0.000000
     3  O    0.000000   0.000000   0.000000
     4  C    0.000000   0.000000   0.000000
     5  C    0.000000   0.000000   0.000000
     6  H    0.000000   0.000000   0.000000
     7  H    0.803609   0.000000   0.000000
     8  H    0.000000   0.803609   0.000000
     9  H    0.000000   0.000000   0.828729
 Mulliken charges:
               1
     1  C   -0.221811
     2  C   -0.150293
     3  O    0.008883
     4  C   -0.150293
     5  C   -0.221811
     6  H    0.171271
     7  H    0.196391
     8  H    0.196391
     9  H    0.171271
 Sum of Mulliken charges =   0.00000
 Mulliken charges with hydrogens summed into heavy atoms:
               1
     1  C   -0.050540
     2  C    0.046098
     3  O    0.008883
     4  C    0.046098
     5  C   -0.050540
 Charge=              0.0000 electrons
 Dipole moment (field-independent basis, Debye):
    X=              0.0000    Y=              0.0000    Z=             -0.0535  Tot=              0.0535
 N-N= 1.036681942919D+02 E-N=-1.724638697403D+02  KE=-1.633043346289D+01
 Symmetry A1   KE=-8.985923521386D+00
 Symmetry A2   KE=-5.836666893651D-01
 Symmetry B1   KE=-1.645193885674D+00
 Symmetry B2   KE=-5.115649366465D+00
 Leave Link  601 at Tue Oct  6 15:45:31 2015, MaxMem=    33554432 cpu:         0.0
 (Enter /home/Applications/g09/g09/l701.exe)
 Compute integral first derivatives.
 ... and contract with generalized density number  0.
 Leave Link  701 at Tue Oct  6 15:45:31 2015, MaxMem=    33554432 cpu:         0.0
 (Enter /home/Applications/g09/g09/l702.exe)
 L702 exits ... SP integral derivatives will be done elsewhere.
 Leave Link  702 at Tue Oct  6 15:45:31 2015, MaxMem=    33554432 cpu:         0.0
 (Enter /home/Applications/g09/g09/l703.exe)
 Compute integral first derivatives, UseDBF=F ICtDFT=           0.
 Integral derivatives from FoFJK, PRISM(SPDF).
 Calling FoFJK, ICntrl=      2127 FMM=F ISym2X=1 I1Cent= 0 IOpClX= 0 NMat=1 NMatS=1 NMatT=0.
 FoFJK:  IHMeth= 8 ICntrl=    2127 DoSepK=F KAlg= 0 I1Cent=   0 FoldK=F
 IRaf=         0 NMat=   1 IRICut=       1 DoRegI=T DoRafI=F ISym2E= 1.
 FoFCou: FMM=F IPFlag=           0 FMFlag=      100000 FMFlg1=         800
         NFxFlg=           0 DoJE=F BraDBF=F KetDBF=F FulRan=T
         wScrn=  0.000000 ICntrl=    2127 IOpCl=  0 I1Cent=           0 NGrid=           0
         NMat0=    1 NMatS0=      1 NMatT0=    0 NMatD0=    1 NMtDS0=    0 NMtDT0=    0
 Symmetry not used in FoFCou.
 Leave Link  703 at Tue Oct  6 15:45:31 2015, MaxMem=    33554432 cpu:         0.0
 (Enter /home/Applications/g09/g09/l716.exe)
 Dipole        = 1.75159972D-15-9.32587341D-15-2.10619147D-02
 ***** Axes restored to original set *****
 -------------------------------------------------------------------
 Center     Atomic                   Forces (Hartrees/Bohr)
 Number     Number              X              Y              Z
 -------------------------------------------------------------------
      1        6           0.011278154    0.007271829    0.000000000
      2        6           0.002076061   -0.006876464    0.000000000
      3        8          -0.025439530    0.000000000    0.000000000
      4        6           0.002076061    0.006876464    0.000000000
      5        6           0.011278154   -0.007271829    0.000000000
      6        1           0.000863490   -0.003596778    0.000000000
      7        1          -0.001497941   -0.000847754    0.000000000
      8        1          -0.001497941    0.000847754    0.000000000
      9        1           0.000863490    0.003596778    0.000000000
 -------------------------------------------------------------------
 Cartesian Forces:  Max     0.025439530 RMS     0.006508694
 Leave Link  716 at Tue Oct  6 15:45:31 2015, MaxMem=    33554432 cpu:         0.0
 (Enter /home/Applications/g09/g09/l103.exe)

 GradGradGradGradGradGradGradGradGradGradGradGradGradGradGradGradGradGrad
 Berny optimization.
 FormGI is forming the generalized inverse of G from B-inverse, IUseBI=4.
 Internal  Forces:  Max     0.011940347 RMS     0.004824013
 Search for a local minimum.
 Step number   1 out of a maximum of   48
 All quantities printed in internal units (Hartrees-Bohrs-Radians)
 RMS Force = .48240D-02 SwitMx=.10000D-02 MixMth= 1
 Mixed Optimization -- RFO/linear search
 Second derivative matrix not updated -- first step.
 ITU=  0
     Eigenvalues ---    0.02003   0.02184   0.02261   0.02433   0.02573
     Eigenvalues ---    0.02596   0.16000   0.16000   0.16000   0.16000
     Eigenvalues ---    0.22000   0.22905   0.36474   0.36474   0.36644
     Eigenvalues ---    0.36644   0.38782   0.46057   0.49743   0.53112
     Eigenvalues ---    0.53949
 RFO step:  Lambda=-2.31045802D-03 EMin= 2.00300667D-02
 Linear search not attempted -- first point.
 Iteration  1 RMS(Cart)=  0.01807960 RMS(Int)=  0.00015937
 Iteration  2 RMS(Cart)=  0.00017238 RMS(Int)=  0.00005324
 Iteration  3 RMS(Cart)=  0.00000001 RMS(Int)=  0.00005324
 ITry= 1 IFail=0 DXMaxC= 5.91D-02 DCOld= 1.00D+10 DXMaxT= 3.00D-01 DXLimC= 3.00D+00 Rises=F
 ClnCor:  largest displacement from symmetrization is 6.19D-12 for atom     6.
 Variable       Old X    -DE/DX   Delta X   Delta X   Delta X     New X
                                 (Linear)    (Quad)   (Total)
    R1        2.55978   0.01194   0.00000   0.02155   0.02153   2.58131
    R2        2.70595  -0.00987   0.00000  -0.02620  -0.02630   2.67965
    R3        2.03347  -0.00150   0.00000  -0.00408  -0.00408   2.02939
    R4        2.57244   0.01162   0.00000   0.02326   0.02334   2.59578
    R5        2.03086  -0.00006   0.00000  -0.00017  -0.00017   2.03069
    R6        2.57244   0.01162   0.00000   0.02326   0.02334   2.59578
    R7        2.55978   0.01194   0.00000   0.02155   0.02153   2.58131
    R8        2.03086  -0.00006   0.00000  -0.00017  -0.00017   2.03069
    R9        2.03347  -0.00150   0.00000  -0.00408  -0.00408   2.02939
    A1        1.85272   0.00115   0.00000  -0.00084  -0.00096   1.85176
    A2        2.20710   0.00286   0.00000   0.02160   0.02167   2.22876
    A3        2.22337  -0.00401   0.00000  -0.02077  -0.02070   2.20266
    A4        1.92771   0.00415   0.00000   0.01899   0.01901   1.94672
    A5        2.33106  -0.00033   0.00000   0.00127   0.00125   2.33231
    A6        2.02442  -0.00382   0.00000  -0.02025  -0.02027   2.00415
    A7        1.86392  -0.01059   0.00000  -0.03630  -0.03611   1.82781
    A8        1.92771   0.00415   0.00000   0.01899   0.01901   1.94672
    A9        2.02442  -0.00382   0.00000  -0.02025  -0.02027   2.00415
   A10        2.33106  -0.00033   0.00000   0.00127   0.00125   2.33231
   A11        1.85272   0.00115   0.00000  -0.00084  -0.00096   1.85176
   A12        2.22337  -0.00401   0.00000  -0.02077  -0.02070   2.20266
   A13        2.20710   0.00286   0.00000   0.02160   0.02167   2.22876
    D1        0.00000   0.00000   0.00000   0.00000   0.00000   0.00000
    D2        3.14159   0.00000   0.00000   0.00000   0.00000   3.14159
    D3        3.14159   0.00000   0.00000   0.00000   0.00000   3.14159
    D4        0.00000   0.00000   0.00000   0.00000   0.00000   0.00000
    D5        0.00000   0.00000   0.00000   0.00000   0.00000   0.00000
    D6        3.14159   0.00000   0.00000   0.00000   0.00000   3.14159
    D7        3.14159   0.00000   0.00000   0.00000   0.00000   3.14159
    D8        0.00000   0.00000   0.00000   0.00000   0.00000   0.00000
    D9        0.00000   0.00000   0.00000   0.00000   0.00000   0.00000
   D10        3.14159   0.00000   0.00000   0.00000   0.00000   3.14159
   D11        0.00000   0.00000   0.00000   0.00000   0.00000   0.00000
   D12        3.14159   0.00000   0.00000   0.00000   0.00000   3.14159
   D13        0.00000   0.00000   0.00000   0.00000   0.00000   0.00000
   D14        3.14159   0.00000   0.00000   0.00000   0.00000   3.14159
   D15        3.14159   0.00000   0.00000   0.00000   0.00000   3.14159
   D16        0.00000   0.00000   0.00000   0.00000   0.00000   0.00000
         Item               Value     Threshold  Converged?
 Maximum Force            0.011940     0.000450     NO 
 RMS     Force            0.004824     0.000300     NO 
 Maximum Displacement     0.059082     0.001800     NO 
 RMS     Displacement     0.018089     0.001200     NO 
 Predicted change in Energy=-1.162773D-03
 Lowest energy point so far.  Saving SCF results.
 GradGradGradGradGradGradGradGradGradGradGradGradGradGradGradGradGradGrad

 Leave Link  103 at Tue Oct  6 15:45:31 2015, MaxMem=    33554432 cpu:         0.0
 (Enter /home/Applications/g09/g09/l202.exe)
                          Input orientation:                          
 ---------------------------------------------------------------------
 Center     Atomic      Atomic             Coordinates (Angstroms)
 Number     Number       Type             X           Y           Z
 ---------------------------------------------------------------------
      1          6           0        0.962654   -0.709005    0.000000
      2          6           0       -0.349755   -1.087768    0.000000
      3          8           0       -1.188570    0.000000    0.000000
      4          6           0       -0.349755    1.087768    0.000000
      5          6           0        0.962654    0.709005    0.000000
      6          1           0        1.829219    1.343308    0.000000
      7          1           0       -0.846506    2.040655    0.000000
      8          1           0       -0.846506   -2.040655    0.000000
      9          1           0        1.829219   -1.343308    0.000000
 ---------------------------------------------------------------------
                    Distance matrix (angstroms):
                    1          2          3          4          5
     1  C    0.000000
     2  C    1.365972   0.000000
     3  O    2.265050   1.373626   0.000000
     4  C    2.225042   2.175535   1.373626   0.000000
     5  C    1.418011   2.225042   2.265050   1.365972   0.000000
     6  H    2.227763   3.264668   3.303260   2.193907   1.073906
     7  H    3.291457   3.167616   2.069126   1.074596   2.246408
     8  H    2.246408   1.074596   2.069126   3.167616   3.291457
     9  H    1.073906   2.193907   3.303260   3.264668   2.227763
                    6          7          8          9
     6  H    0.000000
     7  H    2.765103   0.000000
     8  H    4.314013   4.081310   0.000000
     9  H    2.686616   4.314013   2.765103   0.000000
 Stoichiometry    C4H4O
 Framework group  C2V[C2(O),SGV(C4H4)]
 Deg. of freedom     8
 Full point group                 C2V     NOp   4
 RotChk:  IX=0 Diff= 5.30D-33
 Largest Abelian subgroup         C2V     NOp   4
 Largest concise Abelian subgroup C2      NOp   2
                         Standard orientation:                         
 ---------------------------------------------------------------------
 Center     Atomic      Atomic             Coordinates (Angstroms)
 Number     Number       Type             X           Y           Z
 ---------------------------------------------------------------------
      1          6           0        0.000000    0.709005   -0.967886
      2          6           0        0.000000    1.087768    0.344523
      3          8           0        0.000000    0.000000    1.183338
      4          6           0        0.000000   -1.087768    0.344523
      5          6           0        0.000000   -0.709005   -0.967886
      6          1           0        0.000000   -1.343308   -1.834451
      7          1           0        0.000000   -2.040655    0.841274
      8          1           0        0.000000    2.040655    0.841274
      9          1           0        0.000000    1.343308   -1.834451
 ---------------------------------------------------------------------
 Rotational constants (GHZ):      9.6275213      9.0436210      4.6632205
 Leave Link  202 at Tue Oct  6 15:45:31 2015, MaxMem=    33554432 cpu:         0.0
 (Enter /home/Applications/g09/g09/l301.exe)

 Semi-emprical parameters in input format:
 Method=8 CoreType=1 PeptideFC=0.0114505045 RIJScale=0.5291772086
 ****
 H       
 PQN=1 NValence=1 F0ss=0.4910802479 ZetaOverlap=1.1716084924 U=-0.4158349538
 Beta=-0.2218027015 CoreKO=1.0700961987 KON=0,0,0,1.0589197790 KON=1,0,1,1.0235463973
 KON=0,1,1,1.0530114284 KON=2,1,1,1.0583964043 EISol=-0.4188110042 EHeat=0.0830298228
 Alpha=1.5252601686
 GCore=0.0086720163,1.4301527614,2.2676713595
 GCore=0.0003372405,1.4275218050,3.4015070392
 GCore=-0.0012891467,0.5674994555,3.9684248791
 ****
 C       
 PQN=2,2 NValence=4 F0ss=0.4544161778 F0sp=0.4376528444 F0pp=0.3672039097 F2pp=0.1969752096
 G1sp=0.2763840092
 ZetaOverlap=1.7999833390,1.6458107732
 U=-1.9120180828,-1.4557965594
 Beta=-0.5959868680,-0.2914914995 DDN=0,1,0.8601398383 DDN=1,1,0.7268015000
 CoreKO=1.0956204192 KON=0,0,0,1.0734248343 KON=1,0,1,0.8059902852 KON=0,1,1,1.0594821711
 KON=2,1,1,0.7783928119 EISol=-4.4398989268 EHeat=0.2723305520 Alpha=1.4288981777
 DipHyp=1.7201807075
 GCore=0.0007903914,1.4534868302,2.9019268393
 GCore=0.0032506043,1.4403750411,3.7047921174
 GCore=-0.0013844768,1.4190794252,3.8830527880
 GCore=-0.0000875022,1.4121890676,4.6114749156
 ****
 O       
 PQN=2,2 NValence=6 F0ss=0.5558840537 F0sp=0.5321302318 F0pp=0.4958708974 F2pp=0.2241807199
 G1sp=0.4257938433
 ZetaOverlap=3.1873394913,2.5240390000
 U=-3.5951865036,-2.8760896690
 Beta=-1.0757546603,-1.1441833655 DDN=0,1,0.4935393666 DDN=1,1,0.5182723685
 CoreKO=0.8830543963 KON=0,0,0,0.8822957477 KON=1,0,1,0.5019543089 KON=0,1,1,0.8657108495
 KON=2,1,1,0.5698124379 EISol=-11.6164441184 EHeat=0.0949133088 Alpha=2.3962490047
 DipHyp=0.9870219456
 GCore=0.0195117322,1.4001425905,1.6023328031
 GCore=0.0058337642,1.8606393420,2.7307884326
 ****
 
 Standard basis: VSTO-6G (5D, 7F)
 Ernie: Thresh=  0.10000D-02 Tol=  0.10000D-05 Strict=F.
  NNHCO=     0 NNPyr=     0 NCTC=     0               EPep=         0.000000000
    EC=        68.783832937  ECS=         1.708597839   EG=         0.356715473
   EHC=         0.000000000  EAt=       -31.051283842  AtH=         1.516354808
 EPDDG=         0.000000000  ECC=        70.849146249 EAtT=        32.567638650
 There are    10 symmetry adapted cartesian basis functions of A1  symmetry.
 There are     2 symmetry adapted cartesian basis functions of A2  symmetry.
 There are     3 symmetry adapted cartesian basis functions of B1  symmetry.
 There are     9 symmetry adapted cartesian basis functions of B2  symmetry.
 There are    10 symmetry adapted basis functions of A1  symmetry.
 There are     2 symmetry adapted basis functions of A2  symmetry.
 There are     3 symmetry adapted basis functions of B1  symmetry.
 There are     9 symmetry adapted basis functions of B2  symmetry.
    24 basis functions,   144 primitive gaussians,    24 cartesian basis functions
    13 alpha electrons       13 beta electrons
       nuclear repulsion energy       103.4167848996 Hartrees.
 IExCor=    0 DFT=F Ex=HF Corr=None ExCW=0 ScaHFX=  1.000000
 ScaDFX=  1.000000  1.000000  1.000000  1.000000 ScalE2=  1.000000  1.000000
 IRadAn=      0 IRanWt=     -1 IRanGd=            0 ICorTp=0 IEmpDi=  4
 Integral buffers will be    131072 words long.
 Regular integral format.
 Two-electron integral symmetry is turned off.
 Leave Link  301 at Tue Oct  6 15:45:31 2015, MaxMem=    33554432 cpu:         0.0
 (Enter /home/Applications/g09/g09/l302.exe)
 Do NDO integrals.
 NPDir=0 NMtPBC=     1 NCelOv=     1 NCel=       1 NClECP=     1 NCelD=      1
         NCelK=      1 NCelE2=     1 NClLst=     1 CellRange=     0.0.
 One-electron integrals computed using PRISM.
 NBasis=    24 RedAO= T EigKep=  1.00D+00  NBF=    10     2     3     9
 NBsUse=    24 1.00D-06 EigRej= -1.00D+00 NBFU=    10     2     3     9
 Leave Link  302 at Tue Oct  6 15:45:31 2015, MaxMem=    33554432 cpu:         0.0
 (Enter /home/Applications/g09/g09/l303.exe)
 DipDrv:  MaxL=1.
 Leave Link  303 at Tue Oct  6 15:45:31 2015, MaxMem=    33554432 cpu:         0.0
 (Enter /home/Applications/g09/g09/l401.exe)
 Initial guess from the checkpoint file:  "/home/Applications/g09/scratch/Gau-15535.chk"
 B after Tr=     0.000000    0.000000    0.000000
         Rot=    1.000000    0.000000    0.000000    0.000000 Ang=   0.00 deg.
 Guess basis will be translated and rotated to current coordinates.
 JPrj=0 DoOrth=T DoCkMO=T.
 Initial guess orbital symmetries:
       Occupied  (A1) (A1) (B2) (B2) (A1) (A1) (B1) (B2) (A1) (B2)
                 (A1) (B1) (A2)
       Virtual   (B1) (A2) (A1) (B2) (A1) (B2) (A1) (B2) (A1) (B2)
                 (B2)
 The electronic state of the initial guess is 1-A1.
 Leave Link  401 at Tue Oct  6 15:45:31 2015, MaxMem=    33554432 cpu:         0.0
 (Enter /home/Applications/g09/g09/l502.exe)
 Closed shell SCF:
 Using DIIS extrapolation, IDIIS=  1040.
 Overlap will be assumed to be unity.
 Two-electron integral symmetry not used.
 Keep J ints in memory in canonical form, NReq=888094.
 IVT=       79487 IEndB=       79487 NGot=    33554432 MDV=    33473461
 LenX=    33473461 LenY=    33472444
 Requested convergence on RMS density matrix=1.00D-08 within 128 cycles.
 Requested convergence on MAX density matrix=1.00D-06.
 Requested convergence on             energy=1.00D-06.
 No special actions if energy rises.
 FoFCou: FMM=F IPFlag=           0 FMFlag=           0 FMFlg1=           0
         NFxFlg=           0 DoJE=F BraDBF=F KetDBF=F FulRan=T
         wScrn=  0.000000 ICntrl=     600 IOpCl=  2 I1Cent=           0 NGrid=           0
         NMat0=    1 NMatS0=     54 NMatT0=    0 NMatD0=    1 NMtDS0=    0 NMtDT0=    0
 Symmetry not used in FoFCou.

 Cycle   1  Pass 1  IDiag  1:
 E=-0.259702218830824    
 DIIS: error= 2.30D-03 at cycle   1 NSaved=   1.
 NSaved= 1 IEnMin= 1 EnMin=-0.259702218830824     IErMin= 1 ErrMin= 2.30D-03
 ErrMax= 2.30D-03  0.00D+00 EMaxC= 1.00D-01 BMatC= 1.40D-04 BMatP= 1.40D-04
 IDIUse=3 WtCom= 9.77D-01 WtEn= 2.30D-02
 Coeff-Com:  0.100D+01
 Coeff-En:   0.100D+01
 Coeff:      0.100D+01
 GapD=    2.000 DampG=2.000 DampE=1.000 DampFc=2.0000 IDamp=-1.
 RMSDP=7.46D-04 MaxDP=4.50D-03              OVMax= 0.00D+00

 Cycle   2  Pass 1  IDiag  3:
 E=-0.260074236449640     Delta-E=       -0.000372017619 Rises=F Damp=F
 DIIS: error= 6.61D-04 at cycle   2 NSaved=   2.
 NSaved= 2 IEnMin= 2 EnMin=-0.260074236449640     IErMin= 2 ErrMin= 6.61D-04
 ErrMax= 6.61D-04  0.00D+00 EMaxC= 1.00D-01 BMatC= 1.40D-05 BMatP= 1.40D-04
 IDIUse=3 WtCom= 9.93D-01 WtEn= 6.61D-03
 Coeff-Com: -0.368D+00 0.137D+01
 Coeff-En:   0.000D+00 0.100D+01
 Coeff:     -0.365D+00 0.137D+01
 Fock symm off for IB=2 I1=    1 I=   11 J=    6 Cut=1.00D-07 Err=9.53D-04
 Fock matrix is not symmetric: symmetry in diagonalization turned off.
 Gap=     0.388 Goal=   None    Shift=    0.000
 RMSDP=3.67D-04 MaxDP=2.98D-03 DE=-3.72D-04 OVMax= 3.31D-03

 Cycle   3  Pass 1  IDiag  3:
 E=-0.260126593595288     Delta-E=       -0.000052357146 Rises=F Damp=F
 DIIS: error= 8.15D-05 at cycle   3 NSaved=   3.
 NSaved= 3 IEnMin= 3 EnMin=-0.260126593595288     IErMin= 3 ErrMin= 8.15D-05
 ErrMax= 8.15D-05  0.00D+00 EMaxC= 1.00D-01 BMatC= 4.65D-07 BMatP= 1.40D-05
 IDIUse=1 WtCom= 1.00D+00 WtEn= 0.00D+00
 Coeff-Com:  0.543D-01-0.329D+00 0.127D+01
 Coeff:      0.543D-01-0.329D+00 0.127D+01
 Gap=     0.388 Goal=   None    Shift=    0.000
 RMSDP=8.41D-05 MaxDP=6.45D-04 DE=-5.24D-05 OVMax= 6.10D-04

 Cycle   4  Pass 1  IDiag  3:
 E=-0.260128772537030     Delta-E=       -0.000002178942 Rises=F Damp=F
 DIIS: error= 2.22D-05 at cycle   4 NSaved=   4.
 NSaved= 4 IEnMin= 4 EnMin=-0.260128772537030     IErMin= 4 ErrMin= 2.22D-05
 ErrMax= 2.22D-05  0.00D+00 EMaxC= 1.00D-01 BMatC= 1.76D-08 BMatP= 4.65D-07
 IDIUse=1 WtCom= 1.00D+00 WtEn= 0.00D+00
 Coeff-Com:  0.108D-01-0.166D-01-0.202D+00 0.121D+01
 Coeff:      0.108D-01-0.166D-01-0.202D+00 0.121D+01
 Gap=     0.388 Goal=   None    Shift=    0.000
 RMSDP=1.84D-05 MaxDP=1.43D-04 DE=-2.18D-06 OVMax= 1.79D-04

 Cycle   5  Pass 1  IDiag  3:
 E=-0.260128866006824     Delta-E=       -0.000000093470 Rises=F Damp=F
 DIIS: error= 7.37D-06 at cycle   5 NSaved=   5.
 NSaved= 5 IEnMin= 5 EnMin=-0.260128866006824     IErMin= 5 ErrMin= 7.37D-06
 ErrMax= 7.37D-06  0.00D+00 EMaxC= 1.00D-01 BMatC= 1.10D-09 BMatP= 1.76D-08
 IDIUse=1 WtCom= 1.00D+00 WtEn= 0.00D+00
 Coeff-Com: -0.626D-02 0.134D-01 0.914D-01-0.719D+00 0.162D+01
 Coeff:     -0.626D-02 0.134D-01 0.914D-01-0.719D+00 0.162D+01
 Gap=     0.388 Goal=   None    Shift=    0.000
 RMSDP=6.66D-06 MaxDP=5.55D-05 DE=-9.35D-08 OVMax= 9.19D-05

 Cycle   6  Pass 1  IDiag  3:
 E=-0.260128874448512     Delta-E=       -0.000000008442 Rises=F Damp=F
 DIIS: error= 1.92D-06 at cycle   6 NSaved=   6.
 NSaved= 6 IEnMin= 6 EnMin=-0.260128874448512     IErMin= 6 ErrMin= 1.92D-06
 ErrMax= 1.92D-06  0.00D+00 EMaxC= 1.00D-01 BMatC= 5.75D-11 BMatP= 1.10D-09
 IDIUse=1 WtCom= 1.00D+00 WtEn= 0.00D+00
 Coeff-Com:  0.362D-02-0.807D-02-0.482D-01 0.398D+00-0.100D+01 0.166D+01
 Coeff:      0.362D-02-0.807D-02-0.482D-01 0.398D+00-0.100D+01 0.166D+01
 Gap=     0.388 Goal=   None    Shift=    0.000
 RMSDP=1.76D-06 MaxDP=1.63D-05 DE=-8.44D-09 OVMax= 2.29D-05

 Cycle   7  Pass 1  IDiag  3:
 E=-0.260128874975138     Delta-E=       -0.000000000527 Rises=F Damp=F
 DIIS: error= 4.40D-07 at cycle   7 NSaved=   7.
 NSaved= 7 IEnMin= 7 EnMin=-0.260128874975138     IErMin= 7 ErrMin= 4.40D-07
 ErrMax= 4.40D-07  0.00D+00 EMaxC= 1.00D-01 BMatC= 4.40D-12 BMatP= 5.75D-11
 IDIUse=1 WtCom= 1.00D+00 WtEn= 0.00D+00
 Coeff-Com: -0.196D-02 0.460D-02 0.233D-01-0.202D+00 0.528D+00-0.106D+01
 Coeff-Com:  0.170D+01
 Coeff:     -0.196D-02 0.460D-02 0.233D-01-0.202D+00 0.528D+00-0.106D+01
 Coeff:      0.170D+01
 Gap=     0.388 Goal=   None    Shift=    0.000
 RMSDP=5.13D-07 MaxDP=4.50D-06 DE=-5.27D-10 OVMax= 6.12D-06

 Cycle   8  Pass 1  IDiag  3:
 E=-0.260128875014871     Delta-E=       -0.000000000040 Rises=F Damp=F
 DIIS: error= 6.49D-08 at cycle   8 NSaved=   8.
 NSaved= 8 IEnMin= 8 EnMin=-0.260128875014871     IErMin= 8 ErrMin= 6.49D-08
 ErrMax= 6.49D-08  0.00D+00 EMaxC= 1.00D-01 BMatC= 2.07D-13 BMatP= 4.40D-12
 IDIUse=1 WtCom= 1.00D+00 WtEn= 0.00D+00
 Coeff-Com:  0.717D-03-0.165D-02-0.889D-02 0.759D-01-0.199D+00 0.414D+00
 Coeff-Com: -0.825D+00 0.154D+01
 Coeff:      0.717D-03-0.165D-02-0.889D-02 0.759D-01-0.199D+00 0.414D+00
 Coeff:     -0.825D+00 0.154D+01
 Gap=     0.388 Goal=   None    Shift=    0.000
 RMSDP=9.79D-08 MaxDP=7.39D-07 DE=-3.97D-11 OVMax= 1.19D-06

 Cycle   9  Pass 1  IDiag  3:
 E=-0.260128875016363     Delta-E=       -0.000000000001 Rises=F Damp=F
 DIIS: error= 1.19D-08 at cycle   9 NSaved=   9.
 NSaved= 9 IEnMin= 9 EnMin=-0.260128875016363     IErMin= 9 ErrMin= 1.19D-08
 ErrMax= 1.19D-08  0.00D+00 EMaxC= 1.00D-01 BMatC= 7.38D-15 BMatP= 2.07D-13
 IDIUse=1 WtCom= 1.00D+00 WtEn= 0.00D+00
 Coeff-Com: -0.290D-03 0.667D-03 0.359D-02-0.306D-01 0.799D-01-0.167D+00
 Coeff-Com:  0.348D+00-0.767D+00 0.153D+01
 Coeff:     -0.290D-03 0.667D-03 0.359D-02-0.306D-01 0.799D-01-0.167D+00
 Coeff:      0.348D+00-0.767D+00 0.153D+01
 Gap=     0.388 Goal=   None    Shift=    0.000
 RMSDP=1.43D-08 MaxDP=9.02D-08 DE=-1.49D-12 OVMax= 1.48D-07

 Cycle  10  Pass 1  IDiag  3:
 E=-0.260128875016292     Delta-E=        0.000000000000 Rises=F Damp=F
 DIIS: error= 2.72D-09 at cycle  10 NSaved=  10.
 NSaved=10 IEnMin= 9 EnMin=-0.260128875016363     IErMin=10 ErrMin= 2.72D-09
 ErrMax= 2.72D-09  0.00D+00 EMaxC= 1.00D-01 BMatC= 2.36D-16 BMatP= 7.38D-15
 IDIUse=1 WtCom= 1.00D+00 WtEn= 0.00D+00
 Coeff-Com:  0.713D-04-0.162D-03-0.896D-03 0.756D-02-0.197D-01 0.412D-01
 Coeff-Com: -0.870D-01 0.200D+00-0.531D+00 0.139D+01
 Coeff:      0.713D-04-0.162D-03-0.896D-03 0.756D-02-0.197D-01 0.412D-01
 Coeff:     -0.870D-01 0.200D+00-0.531D+00 0.139D+01
 Gap=     0.388 Goal=   None    Shift=    0.000
 RMSDP=2.37D-09 MaxDP=1.47D-08 DE= 7.11D-14 OVMax= 2.00D-08

 Cycle  11  Pass 2  IDiag  1:
 SCF Done:  E(RAM1) = -0.260128875016     A.U. after   11 cycles
            NFock= 10  Conv=0.24D-08     -V/T= 0.9840
 KE=-1.630085443862D+01 PE=-1.720432398280D+02 EE= 8.466718049200D+01
 Leave Link  502 at Tue Oct  6 15:45:31 2015, MaxMem=    33554432 cpu:         0.0
 (Enter /home/Applications/g09/g09/l701.exe)
 Compute integral first derivatives.
 ... and contract with generalized density number  0.
 Leave Link  701 at Tue Oct  6 15:45:31 2015, MaxMem=    33554432 cpu:         0.0
 (Enter /home/Applications/g09/g09/l702.exe)
 L702 exits ... SP integral derivatives will be done elsewhere.
 Leave Link  702 at Tue Oct  6 15:45:31 2015, MaxMem=    33554432 cpu:         0.0
 (Enter /home/Applications/g09/g09/l703.exe)
 Compute integral first derivatives, UseDBF=F ICtDFT=           0.
 Integral derivatives from FoFJK, PRISM(SPDF).
 Calling FoFJK, ICntrl=      2127 FMM=F ISym2X=1 I1Cent= 0 IOpClX= 0 NMat=1 NMatS=1 NMatT=0.
 FoFJK:  IHMeth= 8 ICntrl=    2127 DoSepK=F KAlg= 0 I1Cent=   0 FoldK=F
 IRaf=         0 NMat=   1 IRICut=       1 DoRegI=T DoRafI=F ISym2E= 1.
 FoFCou: FMM=F IPFlag=           0 FMFlag=      100000 FMFlg1=         800
         NFxFlg=           0 DoJE=F BraDBF=F KetDBF=F FulRan=T
         wScrn=  0.000000 ICntrl=    2127 IOpCl=  0 I1Cent=           0 NGrid=           0
         NMat0=    1 NMatS0=      1 NMatT0=    0 NMatD0=    1 NMtDS0=    0 NMtDT0=    0
 Symmetry not used in FoFCou.
 Leave Link  703 at Tue Oct  6 15:45:31 2015, MaxMem=    33554432 cpu:         0.0
 (Enter /home/Applications/g09/g09/l716.exe)
 Dipole        =-2.27895755D-16-7.54951657D-15-5.05148163D-02
 ***** Axes restored to original set *****
 -------------------------------------------------------------------
 Center     Atomic                   Forces (Hartrees/Bohr)
 Number     Number              X              Y              Z
 -------------------------------------------------------------------
      1        6          -0.007468515   -0.002407904    0.000000000
      2        6           0.000728274   -0.000129219    0.000000000
      3        8           0.013257978    0.000000000    0.000000000
      4        6           0.000728274    0.000129219    0.000000000
      5        6          -0.007468515    0.002407904    0.000000000
      6        1           0.000074471   -0.000052122    0.000000000
      7        1           0.000036781   -0.000057518    0.000000000
      8        1           0.000036781    0.000057518    0.000000000
      9        1           0.000074471    0.000052122    0.000000000
 -------------------------------------------------------------------
 Cartesian Forces:  Max     0.013257978 RMS     0.003333597
 Leave Link  716 at Tue Oct  6 15:45:31 2015, MaxMem=    33554432 cpu:         0.0
 (Enter /home/Applications/g09/g09/l103.exe)

 GradGradGradGradGradGradGradGradGradGradGradGradGradGradGradGradGradGrad
 Berny optimization.
 Using GEDIIS/GDIIS optimizer.
 FormGI is forming the generalized inverse of G from B-inverse, IUseBI=4.
 Internal  Forces:  Max     0.006900455 RMS     0.002511775
 Search for a local minimum.
 Step number   2 out of a maximum of   48
 All quantities printed in internal units (Hartrees-Bohrs-Radians)
 RMS Force = .25118D-02 SwitMx=.10000D-02 MixMth= 1
 Mixed Optimization -- RFO/linear search
 Update second derivatives using D2CorX and points    1    2
 DE= -6.21D-04 DEPred=-1.16D-03 R= 5.34D-01
 TightC=F SS=  1.41D+00  RLast= 8.60D-02 DXNew= 5.0454D-01 2.5791D-01
 Trust test= 5.34D-01 RLast= 8.60D-02 DXMaxT set to 3.00D-01
 ITU=  1  0
 Use linear search instead of GDIIS.
     Eigenvalues ---    0.02016   0.02194   0.02270   0.02441   0.02575
     Eigenvalues ---    0.02597   0.15075   0.16000   0.16000   0.16000
     Eigenvalues ---    0.22000   0.26620   0.36427   0.36474   0.36643
     Eigenvalues ---    0.36644   0.39924   0.45896   0.50046   0.53124
     Eigenvalues ---    0.70015
 RFO step:  Lambda=-9.07222438D-05 EMin= 2.01581871D-02
 Quartic linear search produced a step of -0.31595.
 Iteration  1 RMS(Cart)=  0.00490785 RMS(Int)=  0.00002403
 Iteration  2 RMS(Cart)=  0.00002651 RMS(Int)=  0.00001082
 Iteration  3 RMS(Cart)=  0.00000000 RMS(Int)=  0.00001082
 ITry= 1 IFail=0 DXMaxC= 2.24D-02 DCOld= 1.00D+10 DXMaxT= 3.00D-01 DXLimC= 3.00D+00 Rises=F
 ClnCor:  largest displacement from symmetrization is 1.60D-12 for atom     9.
 Variable       Old X    -DE/DX   Delta X   Delta X   Delta X     New X
                                 (Linear)    (Quad)   (Total)
    R1        2.58131  -0.00690  -0.00680  -0.00105  -0.00784   2.57347
    R2        2.67965   0.00309   0.00831  -0.00384   0.00449   2.68414
    R3        2.02939   0.00003   0.00129  -0.00139  -0.00010   2.02929
    R4        2.59578  -0.00457  -0.00737   0.00215  -0.00524   2.59054
    R5        2.03069  -0.00007   0.00005  -0.00019  -0.00013   2.03056
    R6        2.59578  -0.00457  -0.00737   0.00215  -0.00524   2.59054
    R7        2.58131  -0.00690  -0.00680  -0.00105  -0.00784   2.57347
    R8        2.03069  -0.00007   0.00005  -0.00019  -0.00013   2.03056
    R9        2.02939   0.00003   0.00129  -0.00139  -0.00010   2.02929
    A1        1.85176   0.00077   0.00030   0.00313   0.00345   1.85522
    A2        2.22876  -0.00030  -0.00685   0.00625  -0.00061   2.22816
    A3        2.20266  -0.00047   0.00654  -0.00938  -0.00285   2.19981
    A4        1.94672  -0.00403  -0.00601  -0.00555  -0.01156   1.93516
    A5        2.33231   0.00201  -0.00040   0.00653   0.00614   2.33845
    A6        2.00415   0.00202   0.00640  -0.00098   0.00543   2.00958
    A7        1.82781   0.00652   0.01141   0.00485   0.01621   1.84403
    A8        1.94672  -0.00403  -0.00601  -0.00555  -0.01156   1.93516
    A9        2.00415   0.00202   0.00640  -0.00098   0.00543   2.00958
   A10        2.33231   0.00201  -0.00040   0.00653   0.00614   2.33845
   A11        1.85176   0.00077   0.00030   0.00313   0.00345   1.85522
   A12        2.20266  -0.00047   0.00654  -0.00938  -0.00285   2.19981
   A13        2.22876  -0.00030  -0.00685   0.00625  -0.00061   2.22816
    D1        0.00000   0.00000   0.00000   0.00000   0.00000   0.00000
    D2        3.14159   0.00000   0.00000   0.00000   0.00000   3.14159
    D3        3.14159   0.00000   0.00000   0.00000   0.00000   3.14159
    D4        0.00000   0.00000   0.00000   0.00000   0.00000   0.00000
    D5        0.00000   0.00000   0.00000   0.00000   0.00000   0.00000
    D6        3.14159   0.00000   0.00000   0.00000   0.00000   3.14159
    D7        3.14159   0.00000   0.00000   0.00000   0.00000   3.14159
    D8        0.00000   0.00000   0.00000   0.00000   0.00000   0.00000
    D9        0.00000   0.00000   0.00000   0.00000   0.00000   0.00000
   D10        3.14159   0.00000   0.00000   0.00000   0.00000   3.14159
   D11        0.00000   0.00000   0.00000   0.00000   0.00000   0.00000
   D12        3.14159   0.00000   0.00000   0.00000   0.00000   3.14159
   D13        0.00000   0.00000   0.00000   0.00000   0.00000   0.00000
   D14        3.14159   0.00000   0.00000   0.00000   0.00000   3.14159
   D15        3.14159   0.00000   0.00000   0.00000   0.00000   3.14159
   D16        0.00000   0.00000   0.00000   0.00000   0.00000   0.00000
         Item               Value     Threshold  Converged?
 Maximum Force            0.006900     0.000450     NO 
 RMS     Force            0.002512     0.000300     NO 
 Maximum Displacement     0.022442     0.001800     NO 
 RMS     Displacement     0.004903     0.001200     NO 
 Predicted change in Energy=-2.107939D-04
 Lowest energy point so far.  Saving SCF results.
 GradGradGradGradGradGradGradGradGradGradGradGradGradGradGradGradGradGrad

 Leave Link  103 at Tue Oct  6 15:45:31 2015, MaxMem=    33554432 cpu:         0.0
 (Enter /home/Applications/g09/g09/l202.exe)
                          Input orientation:                          
 ---------------------------------------------------------------------
 Center     Atomic      Atomic             Coordinates (Angstroms)
 Number     Number       Type             X           Y           Z
 ---------------------------------------------------------------------
      1          6           0        0.958709   -0.710194    0.000000
      2          6           0       -0.348401   -1.092323    0.000000
      3          8           0       -1.176694    0.000000    0.000000
      4          6           0       -0.348401    1.092323    0.000000
      5          6           0        0.958709    0.710194    0.000000
      6          1           0        1.827036    1.341994    0.000000
      7          1           0       -0.847671    2.043813    0.000000
      8          1           0       -0.847671   -2.043813    0.000000
      9          1           0        1.827036   -1.341994    0.000000
 ---------------------------------------------------------------------
                    Distance matrix (angstroms):
                    1          2          3          4          5
     1  C    0.000000
     2  C    1.361822   0.000000
     3  O    2.250405   1.370854   0.000000
     4  C    2.226567   2.184646   1.370854   0.000000
     5  C    1.420387   2.226567   2.250405   1.361822   0.000000
     6  H    2.228332   3.264724   3.289884   2.189717   1.073854
     7  H    3.293564   3.175629   2.070128   1.074525   2.245339
     8  H    2.245339   1.074525   2.070128   3.175629   3.293564
     9  H    1.073854   2.189717   3.289884   3.264724   2.228332
                    6          7          8          9
     6  H    0.000000
     7  H    2.765249   0.000000
     8  H    4.314828   4.087626   0.000000
     9  H    2.683988   4.314828   2.765249   0.000000
 Stoichiometry    C4H4O
 Framework group  C2V[C2(O),SGV(C4H4)]
 Deg. of freedom     8
 Full point group                 C2V     NOp   4
 RotChk:  IX=0 Diff= 5.30D-33
 Largest Abelian subgroup         C2V     NOp   4
 Largest concise Abelian subgroup C2      NOp   2
                         Standard orientation:                         
 ---------------------------------------------------------------------
 Center     Atomic      Atomic             Coordinates (Angstroms)
 Number     Number       Type             X           Y           Z
 ---------------------------------------------------------------------
      1          6           0        0.000000    0.710194   -0.962351
      2          6           0        0.000000    1.092323    0.344758
      3          8           0        0.000000    0.000000    1.173052
      4          6           0        0.000000   -1.092323    0.344758
      5          6           0        0.000000   -0.710194   -0.962351
      6          1           0        0.000000   -1.341994   -1.830678
      7          1           0        0.000000   -2.043813    0.844028
      8          1           0        0.000000    2.043813    0.844028
      9          1           0        0.000000    1.341994   -1.830678
 ---------------------------------------------------------------------
 Rotational constants (GHZ):      9.5732272      9.1513702      4.6787733
 Leave Link  202 at Tue Oct  6 15:45:31 2015, MaxMem=    33554432 cpu:         0.0
 (Enter /home/Applications/g09/g09/l301.exe)

 Semi-emprical parameters in input format:
 Method=8 CoreType=1 PeptideFC=0.0114505045 RIJScale=0.5291772086
 ****
 H       
 PQN=1 NValence=1 F0ss=0.4910802479 ZetaOverlap=1.1716084924 U=-0.4158349538
 Beta=-0.2218027015 CoreKO=1.0700961987 KON=0,0,0,1.0589197790 KON=1,0,1,1.0235463973
 KON=0,1,1,1.0530114284 KON=2,1,1,1.0583964043 EISol=-0.4188110042 EHeat=0.0830298228
 Alpha=1.5252601686
 GCore=0.0086720163,1.4301527614,2.2676713595
 GCore=0.0003372405,1.4275218050,3.4015070392
 GCore=-0.0012891467,0.5674994555,3.9684248791
 ****
 C       
 PQN=2,2 NValence=4 F0ss=0.4544161778 F0sp=0.4376528444 F0pp=0.3672039097 F2pp=0.1969752096
 G1sp=0.2763840092
 ZetaOverlap=1.7999833390,1.6458107732
 U=-1.9120180828,-1.4557965594
 Beta=-0.5959868680,-0.2914914995 DDN=0,1,0.8601398383 DDN=1,1,0.7268015000
 CoreKO=1.0956204192 KON=0,0,0,1.0734248343 KON=1,0,1,0.8059902852 KON=0,1,1,1.0594821711
 KON=2,1,1,0.7783928119 EISol=-4.4398989268 EHeat=0.2723305520 Alpha=1.4288981777
 DipHyp=1.7201807075
 GCore=0.0007903914,1.4534868302,2.9019268393
 GCore=0.0032506043,1.4403750411,3.7047921174
 GCore=-0.0013844768,1.4190794252,3.8830527880
 GCore=-0.0000875022,1.4121890676,4.6114749156
 ****
 O       
 PQN=2,2 NValence=6 F0ss=0.5558840537 F0sp=0.5321302318 F0pp=0.4958708974 F2pp=0.2241807199
 G1sp=0.4257938433
 ZetaOverlap=3.1873394913,2.5240390000
 U=-3.5951865036,-2.8760896690
 Beta=-1.0757546603,-1.1441833655 DDN=0,1,0.4935393666 DDN=1,1,0.5182723685
 CoreKO=0.8830543963 KON=0,0,0,0.8822957477 KON=1,0,1,0.5019543089 KON=0,1,1,0.8657108495
 KON=2,1,1,0.5698124379 EISol=-11.6164441184 EHeat=0.0949133088 Alpha=2.3962490047
 DipHyp=0.9870219456
 GCore=0.0195117322,1.4001425905,1.6023328031
 GCore=0.0058337642,1.8606393420,2.7307884326
 ****
 
 Standard basis: VSTO-6G (5D, 7F)
 Ernie: Thresh=  0.10000D-02 Tol=  0.10000D-05 Strict=F.
  NNHCO=     0 NNPyr=     0 NCTC=     0               EPep=         0.000000000
    EC=        68.859499122  ECS=         1.717424501   EG=         0.358281923
   EHC=         0.000000000  EAt=       -31.051283842  AtH=         1.516354808
 EPDDG=         0.000000000  ECC=        70.935205545 EAtT=        32.567638650
 There are    10 symmetry adapted cartesian basis functions of A1  symmetry.
 There are     2 symmetry adapted cartesian basis functions of A2  symmetry.
 There are     3 symmetry adapted cartesian basis functions of B1  symmetry.
 There are     9 symmetry adapted cartesian basis functions of B2  symmetry.
 There are    10 symmetry adapted basis functions of A1  symmetry.
 There are     2 symmetry adapted basis functions of A2  symmetry.
 There are     3 symmetry adapted basis functions of B1  symmetry.
 There are     9 symmetry adapted basis functions of B2  symmetry.
    24 basis functions,   144 primitive gaussians,    24 cartesian basis functions
    13 alpha electrons       13 beta electrons
       nuclear repulsion energy       103.5028441956 Hartrees.
 IExCor=    0 DFT=F Ex=HF Corr=None ExCW=0 ScaHFX=  1.000000
 ScaDFX=  1.000000  1.000000  1.000000  1.000000 ScalE2=  1.000000  1.000000
 IRadAn=      0 IRanWt=     -1 IRanGd=            0 ICorTp=0 IEmpDi=  4
 Integral buffers will be    131072 words long.
 Regular integral format.
 Two-electron integral symmetry is turned off.
 Leave Link  301 at Tue Oct  6 15:45:31 2015, MaxMem=    33554432 cpu:         0.0
 (Enter /home/Applications/g09/g09/l302.exe)
 Do NDO integrals.
 NPDir=0 NMtPBC=     1 NCelOv=     1 NCel=       1 NClECP=     1 NCelD=      1
         NCelK=      1 NCelE2=     1 NClLst=     1 CellRange=     0.0.
 One-electron integrals computed using PRISM.
 NBasis=    24 RedAO= T EigKep=  1.00D+00  NBF=    10     2     3     9
 NBsUse=    24 1.00D-06 EigRej= -1.00D+00 NBFU=    10     2     3     9
 Leave Link  302 at Tue Oct  6 15:45:31 2015, MaxMem=    33554432 cpu:         0.0
 (Enter /home/Applications/g09/g09/l303.exe)
 DipDrv:  MaxL=1.
 Leave Link  303 at Tue Oct  6 15:45:31 2015, MaxMem=    33554432 cpu:         0.0
 (Enter /home/Applications/g09/g09/l401.exe)
 Initial guess from the checkpoint file:  "/home/Applications/g09/scratch/Gau-15535.chk"
 B after Tr=     0.000000    0.000000    0.000000
         Rot=    1.000000    0.000000    0.000000    0.000000 Ang=   0.00 deg.
 Guess basis will be translated and rotated to current coordinates.
 JPrj=0 DoOrth=T DoCkMO=T.
 Initial guess orbital symmetries:
       Occupied  (A1) (A1) (B2) (B2) (A1) (A1) (B1) (B2) (A1) (B2)
                 (A1) (B1) (A2)
       Virtual   (B1) (A2) (A1) (B2) (A1) (B2) (A1) (B2) (A1) (B2)
                 (B2)
 The electronic state of the initial guess is 1-A1.
 Leave Link  401 at Tue Oct  6 15:45:31 2015, MaxMem=    33554432 cpu:         0.0
 (Enter /home/Applications/g09/g09/l502.exe)
 Closed shell SCF:
 Using DIIS extrapolation, IDIIS=  1040.
 Overlap will be assumed to be unity.
 Two-electron integral symmetry not used.
 Keep J ints in memory in canonical form, NReq=888094.
 IVT=       79487 IEndB=       79487 NGot=    33554432 MDV=    33473461
 LenX=    33473461 LenY=    33472444
 Requested convergence on RMS density matrix=1.00D-08 within 128 cycles.
 Requested convergence on MAX density matrix=1.00D-06.
 Requested convergence on             energy=1.00D-06.
 No special actions if energy rises.
 FoFCou: FMM=F IPFlag=           0 FMFlag=           0 FMFlg1=           0
         NFxFlg=           0 DoJE=F BraDBF=F KetDBF=F FulRan=T
         wScrn=  0.000000 ICntrl=     600 IOpCl=  2 I1Cent=           0 NGrid=           0
         NMat0=    1 NMatS0=     54 NMatT0=    0 NMatD0=    1 NMtDS0=    0 NMtDT0=    0
 Symmetry not used in FoFCou.

 Cycle   1  Pass 1  IDiag  1:
 E=-0.260274542038147    
 DIIS: error= 7.00D-04 at cycle   1 NSaved=   1.
 NSaved= 1 IEnMin= 1 EnMin=-0.260274542038147     IErMin= 1 ErrMin= 7.00D-04
 ErrMax= 7.00D-04  0.00D+00 EMaxC= 1.00D-01 BMatC= 2.07D-05 BMatP= 2.07D-05
 IDIUse=3 WtCom= 9.93D-01 WtEn= 7.00D-03
 Coeff-Com:  0.100D+01
 Coeff-En:   0.100D+01
 Coeff:      0.100D+01
 RMSDP=3.05D-04 MaxDP=2.10D-03              OVMax= 0.00D+00

 Cycle   2  Pass 1  IDiag  3:
 E=-0.260335639671240     Delta-E=       -0.000061097633 Rises=F Damp=F
 DIIS: error= 2.20D-04 at cycle   2 NSaved=   2.
 NSaved= 2 IEnMin= 2 EnMin=-0.260335639671240     IErMin= 2 ErrMin= 2.20D-04
 ErrMax= 2.20D-04  0.00D+00 EMaxC= 1.00D-01 BMatC= 2.54D-06 BMatP= 2.07D-05
 IDIUse=3 WtCom= 9.98D-01 WtEn= 2.20D-03
 Coeff-Com: -0.456D+00 0.146D+01
 Coeff-En:   0.000D+00 0.100D+01
 Coeff:     -0.455D+00 0.146D+01
 Fock symm off for IB=2 I1=    1 I=   11 J=    6 Cut=1.00D-07 Err=2.58D-04
 Fock matrix is not symmetric: symmetry in diagonalization turned off.
 Gap=     0.390 Goal=   None    Shift=    0.000
 RMSDP=1.73D-04 MaxDP=1.33D-03 DE=-6.11D-05 OVMax= 1.38D-03

 Cycle   3  Pass 1  IDiag  3:
 E=-0.260345983943438     Delta-E=       -0.000010344272 Rises=F Damp=F
 DIIS: error= 2.74D-05 at cycle   3 NSaved=   3.
 NSaved= 3 IEnMin= 3 EnMin=-0.260345983943438     IErMin= 3 ErrMin= 2.74D-05
 ErrMax= 2.74D-05  0.00D+00 EMaxC= 1.00D-01 BMatC= 7.03D-08 BMatP= 2.54D-06
 IDIUse=1 WtCom= 1.00D+00 WtEn= 0.00D+00
 Coeff-Com:  0.136D+00-0.528D+00 0.139D+01
 Coeff:      0.136D+00-0.528D+00 0.139D+01
 Gap=     0.390 Goal=   None    Shift=    0.000
 RMSDP=3.53D-05 MaxDP=2.41D-04 DE=-1.03D-05 OVMax= 3.51D-04

 Cycle   4  Pass 1  IDiag  3:
 E=-0.260346326726307     Delta-E=       -0.000000342783 Rises=F Damp=F
 DIIS: error= 4.07D-06 at cycle   4 NSaved=   4.
 NSaved= 4 IEnMin= 4 EnMin=-0.260346326726307     IErMin= 4 ErrMin= 4.07D-06
 ErrMax= 4.07D-06  0.00D+00 EMaxC= 1.00D-01 BMatC= 1.63D-09 BMatP= 7.03D-08
 IDIUse=1 WtCom= 1.00D+00 WtEn= 0.00D+00
 Coeff-Com:  0.156D-02 0.856D-02-0.169D+00 0.116D+01
 Coeff:      0.156D-02 0.856D-02-0.169D+00 0.116D+01
 Gap=     0.390 Goal=   None    Shift=    0.000
 RMSDP=5.18D-06 MaxDP=3.59D-05 DE=-3.43D-07 OVMax= 5.37D-05

 Cycle   5  Pass 1  IDiag  3:
 E=-0.260346334731750     Delta-E=       -0.000000008005 Rises=F Damp=F
 DIIS: error= 1.18D-06 at cycle   5 NSaved=   5.
 NSaved= 5 IEnMin= 5 EnMin=-0.260346334731750     IErMin= 5 ErrMin= 1.18D-06
 ErrMax= 1.18D-06  0.00D+00 EMaxC= 1.00D-01 BMatC= 9.44D-11 BMatP= 1.63D-09
 IDIUse=1 WtCom= 1.00D+00 WtEn= 0.00D+00
 Coeff-Com: -0.371D-02 0.983D-02 0.230D-01-0.440D+00 0.141D+01
 Coeff:     -0.371D-02 0.983D-02 0.230D-01-0.440D+00 0.141D+01
 Gap=     0.390 Goal=   None    Shift=    0.000
 RMSDP=1.47D-06 MaxDP=8.89D-06 DE=-8.01D-09 OVMax= 1.62D-05

 Cycle   6  Pass 1  IDiag  3:
 E=-0.260346335268949     Delta-E=       -0.000000000537 Rises=F Damp=F
 DIIS: error= 3.20D-07 at cycle   6 NSaved=   6.
 NSaved= 6 IEnMin= 6 EnMin=-0.260346335268949     IErMin= 6 ErrMin= 3.20D-07
 ErrMax= 3.20D-07  0.00D+00 EMaxC= 1.00D-01 BMatC= 4.96D-12 BMatP= 9.44D-11
 IDIUse=1 WtCom= 1.00D+00 WtEn= 0.00D+00
 Coeff-Com:  0.270D-02-0.826D-02-0.106D-02 0.198D+00-0.796D+00 0.160D+01
 Coeff:      0.270D-02-0.826D-02-0.106D-02 0.198D+00-0.796D+00 0.160D+01
 Gap=     0.390 Goal=   None    Shift=    0.000
 RMSDP=3.78D-07 MaxDP=2.42D-06 DE=-5.37D-10 OVMax= 4.39D-06

 Cycle   7  Pass 1  IDiag  3:
 E=-0.260346335298863     Delta-E=       -0.000000000030 Rises=F Damp=F
 DIIS: error= 7.04D-08 at cycle   7 NSaved=   7.
 NSaved= 7 IEnMin= 7 EnMin=-0.260346335298863     IErMin= 7 ErrMin= 7.04D-08
 ErrMax= 7.04D-08  0.00D+00 EMaxC= 1.00D-01 BMatC= 1.50D-13 BMatP= 4.96D-12
 IDIUse=1 WtCom= 1.00D+00 WtEn= 0.00D+00
 Coeff-Com: -0.115D-02 0.358D-02-0.332D-03-0.787D-01 0.333D+00-0.764D+00
 Coeff-Com:  0.151D+01
 Coeff:     -0.115D-02 0.358D-02-0.332D-03-0.787D-01 0.333D+00-0.764D+00
 Coeff:      0.151D+01
 Gap=     0.390 Goal=   None    Shift=    0.000
 RMSDP=6.93D-08 MaxDP=5.41D-07 DE=-2.99D-11 OVMax= 7.82D-07

 Cycle   8  Pass 1  IDiag  3:
 E=-0.260346335300184     Delta-E=       -0.000000000001 Rises=F Damp=F
 DIIS: error= 2.12D-08 at cycle   8 NSaved=   8.
 NSaved= 8 IEnMin= 8 EnMin=-0.260346335300184     IErMin= 8 ErrMin= 2.12D-08
 ErrMax= 2.12D-08  0.00D+00 EMaxC= 1.00D-01 BMatC= 9.40D-15 BMatP= 1.50D-13
 IDIUse=1 WtCom= 1.00D+00 WtEn= 0.00D+00
 Coeff-Com:  0.521D-03-0.161D-02 0.727D-04 0.361D-01-0.153D+00 0.359D+00
 Coeff-Com: -0.861D+00 0.162D+01
 Coeff:      0.521D-03-0.161D-02 0.727D-04 0.361D-01-0.153D+00 0.359D+00
 Coeff:     -0.861D+00 0.162D+01
 Gap=     0.390 Goal=   None    Shift=    0.000
 RMSDP=2.15D-08 MaxDP=1.89D-07 DE=-1.32D-12 OVMax= 2.43D-07

 Cycle   9  Pass 1  IDiag  3:
 E=-0.260346335300014     Delta-E=        0.000000000000 Rises=F Damp=F
 DIIS: error= 5.78D-09 at cycle   9 NSaved=   9.
 NSaved= 9 IEnMin= 8 EnMin=-0.260346335300184     IErMin= 9 ErrMin= 5.78D-09
 ErrMax= 5.78D-09  0.00D+00 EMaxC= 1.00D-01 BMatC= 7.18D-16 BMatP= 9.40D-15
 IDIUse=1 WtCom= 1.00D+00 WtEn= 0.00D+00
 Coeff-Com: -0.328D-03 0.102D-02-0.993D-04-0.223D-01 0.951D-01-0.225D+00
 Coeff-Com:  0.561D+00-0.124D+01 0.183D+01
 Coeff:     -0.328D-03 0.102D-02-0.993D-04-0.223D-01 0.951D-01-0.225D+00
 Coeff:      0.561D+00-0.124D+01 0.183D+01
 Gap=     0.390 Goal=   None    Shift=    0.000
 RMSDP=6.91D-09 MaxDP=5.98D-08 DE= 1.71D-13 OVMax= 8.47D-08

 Cycle  10  Pass 2  IDiag  1:
 SCF Done:  E(RAM1) = -0.260346335300     A.U. after   10 cycles
            NFock=  9  Conv=0.69D-08     -V/T= 0.9840
 KE=-1.631058296430D+01 PE=-1.721908502014D+02 EE= 8.473824263481D+01
 Leave Link  502 at Tue Oct  6 15:45:31 2015, MaxMem=    33554432 cpu:         0.0
 (Enter /home/Applications/g09/g09/l701.exe)
 Compute integral first derivatives.
 ... and contract with generalized density number  0.
 Leave Link  701 at Tue Oct  6 15:45:31 2015, MaxMem=    33554432 cpu:         0.0
 (Enter /home/Applications/g09/g09/l702.exe)
 L702 exits ... SP integral derivatives will be done elsewhere.
 Leave Link  702 at Tue Oct  6 15:45:31 2015, MaxMem=    33554432 cpu:         0.0
 (Enter /home/Applications/g09/g09/l703.exe)
 Compute integral first derivatives, UseDBF=F ICtDFT=           0.
 Integral derivatives from FoFJK, PRISM(SPDF).
 Calling FoFJK, ICntrl=      2127 FMM=F ISym2X=1 I1Cent= 0 IOpClX= 0 NMat=1 NMatS=1 NMatT=0.
 FoFJK:  IHMeth= 8 ICntrl=    2127 DoSepK=F KAlg= 0 I1Cent=   0 FoldK=F
 IRaf=         0 NMat=   1 IRICut=       1 DoRegI=T DoRafI=F ISym2E= 1.
 FoFCou: FMM=F IPFlag=           0 FMFlag=      100000 FMFlg1=         800
         NFxFlg=           0 DoJE=F BraDBF=F KetDBF=F FulRan=T
         wScrn=  0.000000 ICntrl=    2127 IOpCl=  0 I1Cent=           0 NGrid=           0
         NMat0=    1 NMatS0=      1 NMatT0=    0 NMatD0=    1 NMtDS0=    0 NMtDT0=    0
 Symmetry not used in FoFCou.
 Leave Link  703 at Tue Oct  6 15:45:31 2015, MaxMem=    33554432 cpu:         0.0
 (Enter /home/Applications/g09/g09/l716.exe)
 Dipole        =-1.06817305D-15-2.35367281D-14-4.24276711D-02
 ***** Axes restored to original set *****
 -------------------------------------------------------------------
 Center     Atomic                   Forces (Hartrees/Bohr)
 Number     Number              X              Y              Z
 -------------------------------------------------------------------
      1        6          -0.000856417   -0.001338103    0.000000000
      2        6           0.000653055    0.000340626    0.000000000
      3        8          -0.000020442    0.000000000    0.000000000
      4        6           0.000653055   -0.000340626    0.000000000
      5        6          -0.000856417    0.001338103    0.000000000
      6        1           0.000446920   -0.000152417    0.000000000
      7        1          -0.000233337   -0.000342455    0.000000000
      8        1          -0.000233337    0.000342455    0.000000000
      9        1           0.000446920    0.000152417    0.000000000
 -------------------------------------------------------------------
 Cartesian Forces:  Max     0.001338103 RMS     0.000506358
 Leave Link  716 at Tue Oct  6 15:45:31 2015, MaxMem=    33554432 cpu:         0.0
 (Enter /home/Applications/g09/g09/l103.exe)

 GradGradGradGradGradGradGradGradGradGradGradGradGradGradGradGradGradGrad
 Berny optimization.
 Using GEDIIS/GDIIS optimizer.
 FormGI is forming the generalized inverse of G from B-inverse, IUseBI=4.
 Internal  Forces:  Max     0.000847132 RMS     0.000276789
 Search for a local minimum.
 Step number   3 out of a maximum of   48
 All quantities printed in internal units (Hartrees-Bohrs-Radians)
 RMS Force = .27679D-03 SwitMx=.10000D-02 MixMth= 2
 Mixed Optimization -- En-DIIS/RFO-DIIS
 Update second derivatives using D2CorX and points    1    2    3
 DE= -2.17D-04 DEPred=-2.11D-04 R= 1.03D+00
 TightC=F SS=  1.41D+00  RLast= 3.01D-02 DXNew= 5.0454D-01 9.0170D-02
 Trust test= 1.03D+00 RLast= 3.01D-02 DXMaxT set to 3.00D-01
 ITU=  1  1  0
 Use linear search instead of GDIIS.
     Eigenvalues ---    0.02015   0.02195   0.02267   0.02439   0.02575
     Eigenvalues ---    0.02598   0.13855   0.16000   0.16000   0.16014
     Eigenvalues ---    0.22000   0.29315   0.36474   0.36523   0.36644
     Eigenvalues ---    0.36676   0.39344   0.45983   0.49979   0.53119
     Eigenvalues ---    0.66285
 RFO step:  Lambda=-1.21722061D-05 EMin= 2.01545723D-02
 Quartic linear search produced a step of  0.02372.
 Iteration  1 RMS(Cart)=  0.00166242 RMS(Int)=  0.00000244
 Iteration  2 RMS(Cart)=  0.00000249 RMS(Int)=  0.00000018
 Iteration  3 RMS(Cart)=  0.00000000 RMS(Int)=  0.00000018
 ITry= 1 IFail=0 DXMaxC= 4.31D-03 DCOld= 1.00D+10 DXMaxT= 3.00D-01 DXLimC= 3.00D+00 Rises=F
 ClnCor:  largest displacement from symmetrization is 4.55D-14 for atom     9.
 Variable       Old X    -DE/DX   Delta X   Delta X   Delta X     New X
                                 (Linear)    (Quad)   (Total)
    R1        2.57347  -0.00049  -0.00019  -0.00083  -0.00102   2.57245
    R2        2.68414   0.00085   0.00011   0.00208   0.00218   2.68633
    R3        2.02929   0.00027   0.00000   0.00073   0.00072   2.03002
    R4        2.59054  -0.00027  -0.00012  -0.00045  -0.00057   2.58997
    R5        2.03056  -0.00019   0.00000  -0.00056  -0.00056   2.03000
    R6        2.59054  -0.00027  -0.00012  -0.00045  -0.00057   2.58997
    R7        2.57347  -0.00049  -0.00019  -0.00083  -0.00102   2.57245
[...]
 NSaved= 7 IEnMin= 7 EnMin=-0.260355235741514     IErMin= 7 ErrMin= 7.23D-09
 ErrMax= 7.23D-09  0.00D+00 EMaxC= 1.00D-01 BMatC= 4.08D-15 BMatP= 7.45D-13
 IDIUse=1 WtCom= 1.00D+00 WtEn= 0.00D+00
 Coeff-Com: -0.209D-02 0.598D-02 0.134D-01-0.117D+00 0.273D+00-0.497D+00
 Coeff-Com:  0.132D+01
 Coeff:     -0.209D-02 0.598D-02 0.134D-01-0.117D+00 0.273D+00-0.497D+00
 Coeff:      0.132D+01
 Gap=     0.391 Goal=   None    Shift=    0.000
 RMSDP=7.55D-09 MaxDP=3.82D-08 DE=-5.19D-12 OVMax= 5.74D-08

 Cycle   8  Pass 2  IDiag  1:
 SCF Done:  E(RAM1) = -0.260355235742     A.U. after    8 cycles
            NFock=  7  Conv=0.75D-08     -V/T= 0.9840
 KE=-1.631047358475D+01 PE=-1.721926311997D+02 EE= 8.473933560569D+01
 Leave Link  502 at Tue Oct  6 15:45:31 2015, MaxMem=    33554432 cpu:         0.0
 (Enter /home/Applications/g09/g09/l701.exe)
 Compute integral first derivatives.
 ... and contract with generalized density number  0.
 Leave Link  701 at Tue Oct  6 15:45:31 2015, MaxMem=    33554432 cpu:         0.0
 (Enter /home/Applications/g09/g09/l702.exe)
 L702 exits ... SP integral derivatives will be done elsewhere.
 Leave Link  702 at Tue Oct  6 15:45:31 2015, MaxMem=    33554432 cpu:         0.0
 (Enter /home/Applications/g09/g09/l703.exe)
 Compute integral first derivatives, UseDBF=F ICtDFT=           0.
 Integral derivatives from FoFJK, PRISM(SPDF).
 Calling FoFJK, ICntrl=      2127 FMM=F ISym2X=1 I1Cent= 0 IOpClX= 0 NMat=1 NMatS=1 NMatT=0.
 FoFJK:  IHMeth= 8 ICntrl=    2127 DoSepK=F KAlg= 0 I1Cent=   0 FoldK=F
 IRaf=         0 NMat=   1 IRICut=       1 DoRegI=T DoRafI=F ISym2E= 1.
 FoFCou: FMM=F IPFlag=           0 FMFlag=      100000 FMFlg1=         800
         NFxFlg=           0 DoJE=F BraDBF=F KetDBF=F FulRan=T
         wScrn=  0.000000 ICntrl=    2127 IOpCl=  0 I1Cent=           0 NGrid=           0
         NMat0=    1 NMatS0=      1 NMatT0=    0 NMatD0=    1 NMtDS0=    0 NMtDT0=    0
 Symmetry not used in FoFCou.
 Leave Link  703 at Tue Oct  6 15:45:31 2015, MaxMem=    33554432 cpu:         0.0
 (Enter /home/Applications/g09/g09/l716.exe)
 Dipole        = 4.87430673D-16 7.10542736D-15-4.30526775D-02
 ***** Axes restored to original set *****
 -------------------------------------------------------------------
 Center     Atomic                   Forces (Hartrees/Bohr)
 Number     Number              X              Y              Z
 -------------------------------------------------------------------
      1        6          -0.000020676   -0.000013468    0.000000000
      2        6           0.000056600    0.000059170    0.000000000
      3        8          -0.000079361    0.000000000    0.000000000
      4        6           0.000056600   -0.000059170    0.000000000
      5        6          -0.000020676    0.000013468    0.000000000
      6        1          -0.000011165   -0.000019424    0.000000000
      7        1           0.000014921   -0.000006911    0.000000000
      8        1           0.000014921    0.000006911    0.000000000
      9        1          -0.000011165    0.000019424    0.000000000
 -------------------------------------------------------------------
 Cartesian Forces:  Max     0.000079361 RMS     0.000028848
 Leave Link  716 at Tue Oct  6 15:45:31 2015, MaxMem=    33554432 cpu:         0.0
 (Enter /home/Applications/g09/g09/l103.exe)

 GradGradGradGradGradGradGradGradGradGradGradGradGradGradGradGradGradGrad
 Berny optimization.
 Using GEDIIS/GDIIS optimizer.
 FormGI is forming the generalized inverse of G from B-inverse, IUseBI=4.
 Internal  Forces:  Max     0.000068452 RMS     0.000021441
 Search for a local minimum.
 Step number   5 out of a maximum of   48
 All quantities printed in internal units (Hartrees-Bohrs-Radians)
 RMS Force = .21441D-04 SwitMx=.10000D-02 MixMth= 2
 Mixed Optimization -- En-DIIS/RFO-DIIS
 Swapping is turned off.
 Update second derivatives using D2CorX and points    1    2    3    4    5
 DE= -1.31D-06 DEPred=-1.31D-06 R= 1.00D+00
 TightC=F SS=  1.41D+00  RLast= 4.91D-03 DXNew= 5.0454D-01 1.4741D-02
 Trust test= 1.00D+00 RLast= 4.91D-03 DXMaxT set to 3.00D-01
 ITU=  1  1  1  1  0
     Eigenvalues ---    0.02018   0.02197   0.02268   0.02440   0.02576
     Eigenvalues ---    0.02599   0.09019   0.16000   0.16000   0.16367
     Eigenvalues ---    0.22000   0.29504   0.36474   0.36644   0.36661
     Eigenvalues ---    0.39301   0.40425   0.45988   0.51464   0.53119
     Eigenvalues ---    0.67304
 En-DIIS/RFO-DIIS IScMMF=        0 using points:     5    4    3
 RFO step:  Lambda=-3.02979201D-08.
 NNeg= 0 NP= 3 Switch=  2.50D-03 Rises=F DC=  7.59D-06 SmlDif=  1.00D-05
 RMS Error=  0.3760755257D-04 NUsed= 3 EDIIS=F
 DidBck=F Rises=F RFO-DIIS coefs:    0.99458    0.01341   -0.00799
 Iteration  1 RMS(Cart)=  0.00008506 RMS(Int)=  0.00000000
 Iteration  2 RMS(Cart)=  0.00000001 RMS(Int)=  0.00000000
 ITry= 1 IFail=0 DXMaxC= 2.05D-04 DCOld= 1.00D+10 DXMaxT= 3.00D-01 DXLimC= 3.00D+00 Rises=F
 ClnCor:  largest displacement from symmetrization is 6.51D-13 for atom     9.
 Variable       Old X    -DE/DX   Delta X   Delta X   Delta X     New X
                                 (Linear)    (Quad)   (Total)
    R1        2.57193  -0.00004  -0.00001  -0.00011  -0.00011   2.57182
    R2        2.68725  -0.00005   0.00001  -0.00011  -0.00010   2.68715
    R3        2.02991  -0.00002   0.00001  -0.00006  -0.00006   2.02985
    R4        2.59063   0.00001  -0.00001   0.00002   0.00001   2.59064
    R5        2.03039  -0.00001  -0.00001  -0.00002  -0.00003   2.03037
    R6        2.59063   0.00001  -0.00001   0.00002   0.00001   2.59064
    R7        2.57193  -0.00004  -0.00001  -0.00011  -0.00011   2.57182
    R8        2.03039  -0.00001  -0.00001  -0.00002  -0.00003   2.03037
    R9        2.02991  -0.00002   0.00001  -0.00006  -0.00006   2.02985
    A1        1.85487   0.00000   0.00000  -0.00003  -0.00003   1.85484
    A2        2.23320   0.00001   0.00001   0.00009   0.00010   2.23330
    A3        2.19511  -0.00001  -0.00001  -0.00006  -0.00007   2.19504
    A4        1.93539   0.00004   0.00000   0.00013   0.00013   1.93552
    A5        2.34194  -0.00003   0.00001  -0.00013  -0.00012   2.34182
    A6        2.00586  -0.00001  -0.00002   0.00000  -0.00001   2.00585
    A7        1.84426  -0.00007   0.00000  -0.00021  -0.00021   1.84406
    A8        1.93539   0.00004   0.00000   0.00013   0.00013   1.93552
    A9        2.00586  -0.00001  -0.00002   0.00000  -0.00001   2.00585
   A10        2.34194  -0.00003   0.00001  -0.00013  -0.00012   2.34182
   A11        1.85487   0.00000   0.00000  -0.00003  -0.00003   1.85484
   A12        2.19511  -0.00001  -0.00001  -0.00006  -0.00007   2.19504
   A13        2.23320   0.00001   0.00001   0.00009   0.00010   2.23330
    D1        0.00000   0.00000   0.00000   0.00000   0.00000   0.00000
    D2        3.14159   0.00000   0.00000   0.00000   0.00000   3.14159
    D3        3.14159   0.00000   0.00000   0.00000   0.00000   3.14159
    D4        0.00000   0.00000   0.00000   0.00000   0.00000   0.00000
    D5        0.00000   0.00000   0.00000   0.00000   0.00000   0.00000
    D6        3.14159   0.00000   0.00000   0.00000   0.00000   3.14159
    D7        3.14159   0.00000   0.00000   0.00000   0.00000   3.14159
    D8        0.00000   0.00000   0.00000   0.00000   0.00000   0.00000
    D9        0.00000   0.00000   0.00000   0.00000   0.00000   0.00000
   D10        3.14159   0.00000   0.00000   0.00000   0.00000   3.14159
   D11        0.00000   0.00000   0.00000   0.00000   0.00000   0.00000
   D12        3.14159   0.00000   0.00000   0.00000   0.00000   3.14159
   D13        0.00000   0.00000   0.00000   0.00000   0.00000   0.00000
   D14        3.14159   0.00000   0.00000   0.00000   0.00000   3.14159
   D15        3.14159   0.00000   0.00000   0.00000   0.00000   3.14159
   D16        0.00000   0.00000   0.00000   0.00000   0.00000   0.00000
         Item               Value     Threshold  Converged?
 Maximum Force            0.000068     0.000450     YES
 RMS     Force            0.000021     0.000300     YES
 Maximum Displacement     0.000205     0.001800     YES
 RMS     Displacement     0.000085     0.001200     YES
 Predicted change in Energy=-2.686921D-08
 Optimization completed.
    -- Stationary point found.
                           ----------------------------
                           !   Optimized Parameters   !
                           ! (Angstroms and Degrees)  !
 --------------------------                            --------------------------
 ! Name  Definition              Value          Derivative Info.                !
 --------------------------------------------------------------------------------
 ! R1    R(1,2)                  1.361          -DE/DX =    0.0                 !
 ! R2    R(1,5)                  1.422          -DE/DX =    0.0                 !
 ! R3    R(1,9)                  1.0742         -DE/DX =    0.0                 !
 ! R4    R(2,3)                  1.3709         -DE/DX =    0.0                 !
 ! R5    R(2,8)                  1.0744         -DE/DX =    0.0                 !
 ! R6    R(3,4)                  1.3709         -DE/DX =    0.0                 !
 ! R7    R(4,5)                  1.361          -DE/DX =    0.0                 !
 ! R8    R(4,7)                  1.0744         -DE/DX =    0.0                 !
 ! R9    R(5,6)                  1.0742         -DE/DX =    0.0                 !
 ! A1    A(2,1,5)              106.2762         -DE/DX =    0.0                 !
 ! A2    A(2,1,9)              127.953          -DE/DX =    0.0                 !
 ! A3    A(5,1,9)              125.7708         -DE/DX =    0.0                 !
 ! A4    A(1,2,3)              110.8895         -DE/DX =    0.0                 !
 ! A5    A(1,2,8)              134.1831         -DE/DX =    0.0                 !
 ! A6    A(3,2,8)              114.9274         -DE/DX =    0.0                 !
 ! A7    A(2,3,4)              105.6686         -DE/DX =   -0.0001              !
 ! A8    A(3,4,5)              110.8895         -DE/DX =    0.0                 !
 ! A9    A(3,4,7)              114.9274         -DE/DX =    0.0                 !
 ! A10   A(5,4,7)              134.1831         -DE/DX =    0.0                 !
 ! A11   A(1,5,4)              106.2762         -DE/DX =    0.0                 !
 ! A12   A(1,5,6)              125.7708         -DE/DX =    0.0                 !
 ! A13   A(4,5,6)              127.953          -DE/DX =    0.0                 !
 ! D1    D(5,1,2,3)              0.0            -DE/DX =    0.0                 !
 ! D2    D(5,1,2,8)            180.0            -DE/DX =    0.0                 !
 ! D3    D(9,1,2,3)            180.0            -DE/DX =    0.0                 !
 ! D4    D(9,1,2,8)              0.0            -DE/DX =    0.0                 !
 ! D5    D(2,1,5,4)              0.0            -DE/DX =    0.0                 !
 ! D6    D(2,1,5,6)            180.0            -DE/DX =    0.0                 !
 ! D7    D(9,1,5,4)            180.0            -DE/DX =    0.0                 !
 ! D8    D(9,1,5,6)              0.0            -DE/DX =    0.0                 !
 ! D9    D(1,2,3,4)              0.0            -DE/DX =    0.0                 !
 ! D10   D(8,2,3,4)            180.0            -DE/DX =    0.0                 !
 ! D11   D(2,3,4,5)              0.0            -DE/DX =    0.0                 !
 ! D12   D(2,3,4,7)            180.0            -DE/DX =    0.0                 !
 ! D13   D(3,4,5,1)              0.0            -DE/DX =    0.0                 !
 ! D14   D(3,4,5,6)            180.0            -DE/DX =    0.0                 !
 ! D15   D(7,4,5,1)            180.0            -DE/DX =    0.0                 !
 ! D16   D(7,4,5,6)              0.0            -DE/DX =    0.0                 !
 --------------------------------------------------------------------------------
 Lowest energy point so far.  Saving SCF results.
 GradGradGradGradGradGradGradGradGradGradGradGradGradGradGradGradGradGrad

 Largest change from initial coordinates is atom    6       0.038 Angstoms.
 Leave Link  103 at Tue Oct  6 15:45:32 2015, MaxMem=    33554432 cpu:         0.0
 (Enter /home/Applications/g09/g09/l202.exe)
                          Input orientation:                          
 ---------------------------------------------------------------------
 Center     Atomic      Atomic             Coordinates (Angstroms)
 Number     Number       Type             X           Y           Z
 ---------------------------------------------------------------------
      1          6           0        0.958421   -0.711016    0.000000
      2          6           0       -0.348038   -1.092462    0.000000
      3          8           0       -1.176232    0.000000    0.000000
      4          6           0       -0.348038    1.092462    0.000000
      5          6           0        0.958421    0.711016    0.000000
      6          1           0        1.829972    1.338923    0.000000
      7          1           0       -0.850913    2.041953    0.000000
      8          1           0       -0.850913   -2.041953    0.000000
      9          1           0        1.829972   -1.338923    0.000000
 ---------------------------------------------------------------------
                    Distance matrix (angstroms):
                    1          2          3          4          5
     1  C    0.000000
     2  C    1.361005   0.000000
     3  O    2.249953   1.370905   0.000000
     4  C    2.226964   2.184925   1.370905   0.000000
     5  C    1.422033   2.226964   2.249953   1.361005   0.000000
     6  H    2.227522   3.264255   3.290893   2.191910   1.074183
     7  H    3.294318   3.174499   2.067705   1.074437   2.246126
     8  H    2.246126   1.074437   2.067705   3.174499   3.294318
     9  H    1.074183   2.191910   3.290893   3.264255   2.227522
                    6          7          8          9
     6  H    0.000000
     7  H    2.771533   0.000000
     8  H    4.314796   4.083906   0.000000
     9  H    2.677847   4.314796   2.771533   0.000000
 Stoichiometry    C4H4O
 Framework group  C2V[C2(O),SGV(C4H4)]
 Deg. of freedom     8
 Full point group                 C2V     NOp   4
 RotChk:  IX=0 Diff= 5.30D-33
 Largest Abelian subgroup         C2V     NOp   4
 Largest concise Abelian subgroup C2      NOp   2
                         Standard orientation:                         
 ---------------------------------------------------------------------
 Center     Atomic      Atomic             Coordinates (Angstroms)
 Number     Number       Type             X           Y           Z
 ---------------------------------------------------------------------
      1          6           0        0.000000    0.711016   -0.961953
      2          6           0        0.000000    1.092462    0.344506
      3          8           0        0.000000    0.000000    1.172700
      4          6           0        0.000000   -1.092462    0.344506
      5          6           0        0.000000   -0.711016   -0.961953
      6          1           0        0.000000   -1.338923   -1.833504
      7          1           0        0.000000   -2.041953    0.847381
      8          1           0        0.000000    2.041953    0.847381
      9          1           0        0.000000    1.338923   -1.833504
 ---------------------------------------------------------------------
 Rotational constants (GHZ):      9.5726013      9.1519355      4.6787715
 Leave Link  202 at Tue Oct  6 15:45:32 2015, MaxMem=    33554432 cpu:         0.0
 (Enter /home/Applications/g09/g09/l601.exe)
 Copying SCF densities to generalized density rwf, IOpCl= 0 IROHF=0.

 **********************************************************************

            Population analysis using the SCF density.

 **********************************************************************

 Orbital symmetries:
       Occupied  (A1) (A1) (B2) (B2) (A1) (A1) (B1) (B2) (A1) (B2)
                 (A1) (B1) (A2)
       Virtual   (B1) (A2) (A1) (B2) (A1) (B2) (A1) (B2) (A1) (B2)
                 (B2)
 The electronic state is 1-A1.
 Alpha  occ. eigenvalues --   -1.55065  -1.22597  -1.06870  -0.81537  -0.80152
 Alpha  occ. eigenvalues --   -0.68421  -0.60503  -0.54552  -0.50487  -0.49156
 Alpha  occ. eigenvalues --   -0.48732  -0.38979  -0.34171
 Alpha virt. eigenvalues --    0.04909   0.08454   0.12915   0.17545   0.19720
 Alpha virt. eigenvalues --    0.20419   0.21787   0.23208   0.24266   0.25247
 Alpha virt. eigenvalues --    0.26248
          Condensed to atoms (all electrons):
               1          2          3          4          5          6
     1  C    4.219132   0.000000   0.000000   0.000000   0.000000   0.000000
     2  C    0.000000   4.149865   0.000000   0.000000   0.000000   0.000000
     3  O    0.000000   0.000000   5.995447   0.000000   0.000000   0.000000
     4  C    0.000000   0.000000   0.000000   4.149865   0.000000   0.000000
     5  C    0.000000   0.000000   0.000000   0.000000   4.219132   0.000000
     6  H    0.000000   0.000000   0.000000   0.000000   0.000000   0.828321
     7  H    0.000000   0.000000   0.000000   0.000000   0.000000   0.000000
     8  H    0.000000   0.000000   0.000000   0.000000   0.000000   0.000000
     9  H    0.000000   0.000000   0.000000   0.000000   0.000000   0.000000
               7          8          9
     1  C    0.000000   0.000000   0.000000
     2  C    0.000000   0.000000   0.000000
     3  O    0.000000   0.000000   0.000000
     4  C    0.000000   0.000000   0.000000
     5  C    0.000000   0.000000   0.000000
     6  H    0.000000   0.000000   0.000000
     7  H    0.804959   0.000000   0.000000
     8  H    0.000000   0.804959   0.000000
     9  H    0.000000   0.000000   0.828321
 Mulliken charges:
               1
     1  C   -0.219132
     2  C   -0.149865
     3  O    0.004553
     4  C   -0.149865
     5  C   -0.219132
     6  H    0.171679
     7  H    0.195041
     8  H    0.195041
     9  H    0.171679
 Sum of Mulliken charges =   0.00000
 Mulliken charges with hydrogens summed into heavy atoms:
               1
     1  C   -0.047453
     2  C    0.045176
     3  O    0.004553
     4  C    0.045176
     5  C   -0.047453
 Charge=              0.0000 electrons
 Dipole moment (field-independent basis, Debye):
    X=              0.0000    Y=              0.0000    Z=             -0.1094  Tot=              0.1094
 N-N= 1.035034139430D+02 E-N=-1.721926312477D+02  KE=-1.631047358475D+01
 Symmetry A1   KE=-8.989729102814D+00
 Symmetry A2   KE=-5.812733558301D-01
 Symmetry B1   KE=-1.642146422060D+00
 Symmetry B2   KE=-5.097324704042D+00
 Leave Link  601 at Tue Oct  6 15:45:32 2015, MaxMem=    33554432 cpu:         0.0
 (Enter /home/Applications/g09/g09/l9999.exe)
 1\1\GINC-DUSTIN-DESKTOP\FOpt\RAM1\ZDO\C4H4O1\DUSTIN\06-Oct-2015\0\\#P 
 AM1(Input,print) opt\\AM1-Reparam Input\\0,1\C,0.9584209806,-0.7110163
 736,0.\C,-0.3480377063,-1.0924623281,0.\O,-1.176231842,0.,0.\C,-0.3480
 377063,1.0924623281,0.\C,0.9584209806,0.7110163736,0.\H,1.8299719771,1
 .3389233635,0.\H,-0.8509128304,2.0419529417,0.\H,-0.8509128304,-2.0419
 529417,0.\H,1.8299719771,-1.3389233635,0.\\Version=ES64L-G09RevD.01\St
 ate=1-A1\HF=-0.2603552\RMSD=7.548e-09\RMSF=2.885e-05\Dipole=0.0430527,
 0.,0.\PG=C02V [C2(O1),SGV(C4H4)]\\@


 IT WAS A GAME, A VERY INTERESTING GAME ONE COULD
 PLAY.  WHENEVER ONE SOLVED ONE OF THE LITTLE PROBLEMS,
 ONE COULD WRITE A PAPER ABOUT IT.  IT WAS VERY EASY IN
 THOSE DAYS FOR ANY SECOND-RATE PHYSICIST TO DO
 FIRST-RATE WORK.  THERE HAS NOT BEEN SUCH A GLORIOUS
 TIME SINCE.  IT IS VERY DIFFICULT NOW FOR A FIRST-RATE
 PHYSICIST TO DO SECOND-RATE WORK.
     P.A.M. DIRAC, ON THE EARLY DAYS OF QUANTUM MECHANICS
                   DIRECTIONS IN PHYSICS, 1978, P. 7
 Job cpu time:       0 days  0 hours  0 minutes  0.9 seconds.
 File lengths (MBytes):  RWF=      5 Int=      0 D2E=      0 Chk=      2 Scr=      1
 Normal termination of Gaussian 09 at Tue Oct  6 15:45:32 2015.
