 Entering Gaussian System, Link 0=g09
 Input=FuranAM1_3.com
 Output=FuranAM1_3.log
 Initial command:
 /home/Applications/g09/g09/l1.exe "/home/Applications/g09/scratch/Gau-7558.inp" -scrdir="/home/Applications/g09/scratch/"
 Entering Link 1 = /home/Applications/g09/g09/l1.exe PID=      7562.
  
 Copyright (c) 1988,1990,1992,1993,1995,1998,2003,2009,2013,
            Gaussian, Inc.  All Rights Reserved.
  
 This is part of the Gaussian(R) 09 program.  It is based on
 the Gaussian(R) 03 system (copyright 2003, Gaussian, Inc.),
 the Gaussian(R) 98 system (copyright 1998, Gaussian, Inc.),
 the Gaussian(R) 94 system (copyright 1995, Gaussian, Inc.),
 the Gaussian 92(TM) system (copyright 1992, Gaussian, Inc.),
 the Gaussian 90(TM) system (copyright 1990, Gaussian, Inc.),
 the Gaussian 88(TM) system (copyright 1988, Gaussian, Inc.),
 the Gaussian 86(TM) system (copyright 1986, Carnegie Mellon
 University), and the Gaussian 82(TM) system (copyright 1983,
 Carnegie Mellon University). Gaussian is a federally registered
 trademark of Gaussian, Inc.
  
 This software contains proprietary and confidential information,
 including trade secrets, belonging to Gaussian, Inc.
  
 This software is provided under written license and may be
 used, copied, transmitted, or stored only in accord with that
 written license.
  
 The following legend is applicable only to US Government
 contracts under FAR:
  
                    RESTRICTED RIGHTS LEGEND
  
 Use, reproduction and disclosure by the US Government is
 subject to restrictions as set forth in subparagraphs (a)
 and (c) of the Commercial Computer Software - Restricted
 Rights clause in FAR 52.227-19.
  
 Gaussian, Inc.
 340 Quinnipiac St., Bldg. 40, Wallingford CT 06492
  
  
 ---------------------------------------------------------------
 Warning -- This program may not be used in any manner that
 competes with the business of Gaussian, Inc. or will provide
 assistance to any competitor of Gaussian, Inc.  The licensee
 of this program is prohibited from giving any competitor of
 Gaussian, Inc. access to this program.  By using this program,
 the user acknowledges that Gaussian, Inc. is engaged in the
 business of creating and licensing software in the field of
 computational chemistry and represents and warrants to the
 licensee that it is not a competitor of Gaussian, Inc. and that
 it will not use this program in any manner prohibited above.
 ---------------------------------------------------------------
  

 Cite this work as:
 Gaussian 09, Revision D.01,
 M. J. Frisch, G. W. Trucks, H. B. Schlegel, G. E. Scuseria, 
 M. A. Robb, J. R. Cheeseman, G. Scalmani, V. Barone, B. Mennucci, 
 G. A. Petersson, H. Nakatsuji, M. Caricato, X. Li, H. P. Hratchian, 
 A. F. Izmaylov, J. Bloino, G. Zheng, J. L. Sonnenberg, M. Hada, 
 M. Ehara, K. Toyota, R. Fukuda, J. Hasegawa, M. Ishida, T. Nakajima, 
 Y. Honda, O. Kitao, H. Nakai, T. Vreven, J. A. Montgomery, Jr., 
 J. E. Peralta, F. Ogliaro, M. Bearpark, J. J. Heyd, E. Brothers, 
 K. N. Kudin, V. N. Staroverov, T. Keith, R. Kobayashi, J. Normand, 
 K. Raghavachari, A. Rendell, J. C. Burant, S. S. Iyengar, J. Tomasi, 
 M. Cossi, N. Rega, J. M. Millam, M. Klene, J. E. Knox, J. B. Cross, 
 V. Bakken, C. Adamo, J. Jaramillo, R. Gomperts, R. E. Stratmann, 
 O. Yazyev, A. J. Austin, R. Cammi, C. Pomelli, J. W. Ochterski, 
 R. L. Martin, K. Morokuma, V. G. Zakrzewski, G. A. Voth, 
 P. Salvador, J. J. Dannenberg, S. Dapprich, A. D. Daniels, 
 O. Farkas, J. B. Foresman, J. V. Ortiz, J. Cioslowski, 
 and D. J. Fox, Gaussian, Inc., Wallingford CT, 2013.
 
 ******************************************
 Gaussian 09:  ES64L-G09RevD.01 24-Apr-2013
                14-Nov-2015 
 ******************************************
 ------------------------------------------------------------
 #P AM1(Input,print) CIS(Singlets,NStates=15) pop(full) force
 ------------------------------------------------------------
 1/10=7,30=1,38=1/1,3;
 2/12=2,17=6,18=5,40=1/2;
 3/5=2,16=1,25=1,41=700000,71=1,135=100,136=1/1,2,8,3;
 4/35=1/1;
 5/5=2,35=1,38=5/2;
 8/6=1,10=1,108=15/1;
 9/15=2,41=15,42=1,48=1,49=10/14;
 10/5=4/2;
 6/7=3,18=1/1;
 7/12=6,13=5,29=1/1,2,3,16;
 1/10=7,30=1/3;
 99//99;
 Leave Link    1 at Sat Nov 14 17:36:38 2015, MaxMem=           0 cpu:         0.0
 (Enter /home/Applications/g09/g09/l101.exe)
 -----------------
 AM1-Reparam Input
 -----------------
 Symbolic Z-matrix:
 Charge =  0 Multiplicity = 1
 6                     0.97044  -0.69222  -0.0252 
 6                    -0.36033  -1.05789   0.04579 
 8                    -1.19022   0.03377   0.00783 
 6                    -0.3667    1.08112  -0.04019 
 6                     0.99024   0.72824  -0.03026 
 1                     1.77365   1.33067  -0.02576 
 1                    -0.80997   2.04178   0.03159 
 1                    -0.84185  -2.02155   0.02277 
 1                     1.82316  -1.4152    0.03984 
 
 NAtoms=      9 NQM=        9 NQMF=       0 NMMI=      0 NMMIF=      0
                NMic=       0 NMicF=      0.
                    Isotopes and Nuclear Properties:
 (Nuclear quadrupole moments (NQMom) in fm**2, nuclear magnetic moments (NMagM)
  in nuclear magnetons)

  Atom         1           2           3           4           5           6           7           8           9
 IAtWgt=          12          12          16          12          12           1           1           1           1
 AtmWgt=  12.0000000  12.0000000  15.9949146  12.0000000  12.0000000   1.0078250   1.0078250   1.0078250   1.0078250
 NucSpn=           0           0           0           0           0           1           1           1           1
 AtZEff=   0.0000000   0.0000000   0.0000000   0.0000000   0.0000000   0.0000000   0.0000000   0.0000000   0.0000000
 NQMom=    0.0000000   0.0000000   0.0000000   0.0000000   0.0000000   0.0000000   0.0000000   0.0000000   0.0000000
 NMagM=    0.0000000   0.0000000   0.0000000   0.0000000   0.0000000   2.7928460   2.7928460   2.7928460   2.7928460
 AtZNuc=   6.0000000   6.0000000   8.0000000   6.0000000   6.0000000   1.0000000   1.0000000   1.0000000   1.0000000
 Leave Link  101 at Sat Nov 14 17:36:38 2015, MaxMem=    33554432 cpu:         0.0
 (Enter /home/Applications/g09/g09/l103.exe)

 GradGradGradGradGradGradGradGradGradGradGradGradGradGradGradGradGradGrad
 Berny optimization.
 Initialization pass.
 Trust Radius=3.00D-01 FncErr=1.00D-07 GrdErr=1.00D-07
 Number of steps in this run=      2 maximum allowed number of steps=      2.
 GradGradGradGradGradGradGradGradGradGradGradGradGradGradGradGradGradGrad

 Leave Link  103 at Sat Nov 14 17:36:38 2015, MaxMem=    33554432 cpu:         0.0
 (Enter /home/Applications/g09/g09/l202.exe)
                          Input orientation:                          
 ---------------------------------------------------------------------
 Center     Atomic      Atomic             Coordinates (Angstroms)
 Number     Number       Type             X           Y           Z
 ---------------------------------------------------------------------
      1          6           0        0.970435   -0.692215   -0.025203
      2          6           0       -0.360329   -1.057893    0.045792
      3          8           0       -1.190221    0.033766    0.007832
      4          6           0       -0.366696    1.081124   -0.040192
      5          6           0        0.990244    0.728244   -0.030257
      6          1           0        1.773649    1.330670   -0.025760
      7          1           0       -0.809965    2.041776    0.031586
      8          1           0       -0.841852   -2.021548    0.022765
      9          1           0        1.823155   -1.415198    0.039836
 ---------------------------------------------------------------------
                    Distance matrix (angstroms):
                    1          2          3          4          5
     1  C    0.000000
     2  C    1.381917   0.000000
     3  O    2.279600   1.371817   0.000000
     4  C    2.221008   2.140754   1.333214   0.000000
     5  C    1.420606   2.240562   2.288707   1.402109   0.000000
     6  H    2.176515   3.203781   3.235369   2.154892   0.988261
     7  H    3.263090   3.132143   2.043835   1.060421   2.229337
     8  H    2.248068   1.077509   2.084682   3.139476   3.304655
     9  H    1.119851   2.212534   3.343794   3.321668   2.300652
                    6          7          8          9
     6  H    0.000000
     7  H    2.680303   0.000000
     8  H    4.252125   4.063459   0.000000
     9  H    2.747098   4.345579   2.733169   0.000000
 Stoichiometry    C4H4O
 Framework group  C1[X(C4H4O)]
 Deg. of freedom    21
 Full point group                 C1      NOp   1
 Largest Abelian subgroup         C1      NOp   1
 Largest concise Abelian subgroup C1      NOp   1
                         Standard orientation:                         
 ---------------------------------------------------------------------
 Center     Atomic      Atomic             Coordinates (Angstroms)
 Number     Number       Type             X           Y           Z
 ---------------------------------------------------------------------
      1          6           0        1.183146   -0.228693   -0.021820
      2          6           0        0.131479   -1.124025    0.023699
      3          8           0       -1.081956   -0.484701   -0.003147
      4          6           0       -0.778228    0.813362   -0.018620
      5          6           0        0.600632    1.066765    0.002432
      6          1           0        1.055902    1.943485    0.029827
      7          1           0       -1.586302    1.494695    0.066785
      8          1           0        0.102560   -2.200021   -0.025526
      9          1           0        2.261317   -0.525000    0.039941
 ---------------------------------------------------------------------
 Rotational constants (GHZ):      9.7716672      8.9008438      4.6600028
 Leave Link  202 at Sat Nov 14 17:36:38 2015, MaxMem=    33554432 cpu:         0.0
 (Enter /home/Applications/g09/g09/l301.exe)

 Semi-emprical parameters in input format:
 Method=8 CoreType=1 PeptideFC=0.0122090000 RIJScale=0.5468900000
 ****
 H       
 PQN=1 NValence=1 F0ss=0.4721550000 ZetaOverlap=1.1880780000 U=-0.4188110000
 Beta=-0.2268830000 CoreKO=1.0589200000 KON=0,0,0,1.0589200000 KON=1,0,1,1.0134760000
 KON=0,1,1,1.0966630000 KON=2,1,1,1.0119420000 EISol=-0.4188110042 EHeat=0.0830298228
 Alpha=1.5738520000
 GCore=0.0087750000,1.4001430000,2.2676710000
 GCore=0.0003520000,1.4001430000,3.3276430000
 GCore=-0.0012790000,0.5600570000,3.9684250000
 ****
 C       
 PQN=2,2 NValence=4 F0ss=0.4438530000 F0sp=0.4215150000 F0pp=0.3768030000 F2pp=0.1945840000
 G1sp=0.2593170000
 ZetaOverlap=1.8653810000,1.6348450000
 U=-1.9120180000,-1.4557970000
 Beta=-0.5775440000,-0.2836780000 DDN=0,1,0.8089650000 DDN=1,1,0.7268010000
 CoreKO=1.0609520000 KON=0,0,0,1.0601090000 KON=1,0,1,0.8219700000 KON=0,1,1,1.1533730000
 KON=2,1,1,0.7783930000 EISol=-4.4398989268 EHeat=0.2723305520 Alpha=1.4014060000
 DipHyp=1.6178369191
 GCore=0.0007890000,1.3805470000,3.0235620000
 GCore=0.0033250000,1.4216810000,3.4959930000
 GCore=-0.0014550000,1.4001430000,3.8739390000
 GCore=-0.0000880000,1.4350720000,4.8722690000
 ****
 O       
 PQN=2,2 NValence=6 F0ss=0.5666750000 F0sp=0.4945650000 F0pp=0.5168790000 F2pp=0.2274000000
 G1sp=0.4343770000
 ZetaOverlap=3.1080320000,2.3843230000
 U=-3.6897790000,-2.8760900000
 Beta=-1.0383190000,-1.1289140000 DDN=0,1,0.5087790000 DDN=1,1,0.4852320000
 CoreKO=0.8822960000 KON=0,0,0,0.8746140000 KON=1,0,1,0.5019540000 KON=0,1,1,0.8533610000
 KON=2,1,1,0.5515580000 EISol=-11.6164441184 EHeat=0.0949133088 Alpha=2.3576810000
 DipHyp=1.0174994590
 GCore=0.0195120000,1.4829330000,1.6324510000
 GCore=0.0057800000,1.9602000000,3.0363380000
 ****
 
 Standard basis: VSTO-6G (5D, 7F)
 Ernie: Thresh=  0.10000D-02 Tol=  0.10000D-05 Strict=F.
  NNHCO=     0 NNPyr=     0 NCTC=     0               EPep=         0.000000000
    EC=        69.327236670  ECS=         1.829604274   EG=         0.339894691
   EHC=         0.000000000  EAt=       -31.051283842  AtH=         1.516354808
 EPDDG=         0.000000000  ECC=        71.496735635 EAtT=        32.567638650
 There are    24 symmetry adapted cartesian basis functions of A   symmetry.
 There are    24 symmetry adapted basis functions of A   symmetry.
    24 basis functions,   144 primitive gaussians,    24 cartesian basis functions
    13 alpha electrons       13 beta electrons
       nuclear repulsion energy       104.0643742850 Hartrees.
 IExCor=    0 DFT=F Ex=HF Corr=None ExCW=0 ScaHFX=  1.000000
 ScaDFX=  1.000000  1.000000  1.000000  1.000000 ScalE2=  1.000000  1.000000
 IRadAn=      0 IRanWt=     -1 IRanGd=            0 ICorTp=0 IEmpDi=  4
 Integral buffers will be    131072 words long.
 Regular integral format.
 Two-electron integral symmetry is turned off.
 Leave Link  301 at Sat Nov 14 17:36:38 2015, MaxMem=    33554432 cpu:         0.0
 (Enter /home/Applications/g09/g09/l302.exe)
 Do NDO integrals.
 NPDir=0 NMtPBC=     1 NCelOv=     1 NCel=       1 NClECP=     1 NCelD=      1
         NCelK=      1 NCelE2=     1 NClLst=     1 CellRange=     0.0.
 One-electron integrals computed using PRISM.
 NBasis=    24 RedAO= F EigKep=  0.00D+00  NBF=    24
 NBsUse=    24 1.00D-04 EigRej=  0.00D+00 NBFU=    24
 Leave Link  302 at Sat Nov 14 17:36:38 2015, MaxMem=    33554432 cpu:         0.0
 (Enter /home/Applications/g09/g09/l308.exe)
 Leave Link  308 at Sat Nov 14 17:36:38 2015, MaxMem=    33554432 cpu:         0.0
 (Enter /home/Applications/g09/g09/l303.exe)
 DipDrv:  MaxL=1.
 Leave Link  303 at Sat Nov 14 17:36:38 2015, MaxMem=    33554432 cpu:         0.0
 (Enter /home/Applications/g09/g09/l401.exe)
 Simple Huckel Guess.
 JPrj=0 DoOrth=F DoCkMO=F.
 Leave Link  401 at Sat Nov 14 17:36:38 2015, MaxMem=    33554432 cpu:         0.0
 (Enter /home/Applications/g09/g09/l502.exe)
 Closed shell SCF:
 Using DIIS extrapolation, IDIIS=  1040.
 Overlap will be assumed to be unity.
 Two-electron integral symmetry not used.
 Keep J ints in memory in canonical form, NReq=888082.
 IVT=       79475 IEndB=       79475 NGot=    33554432 MDV=    33473473
 LenX=    33473473 LenY=    33472456
 Requested convergence on RMS density matrix=1.00D-08 within 128 cycles.
 Requested convergence on MAX density matrix=1.00D-06.
 Requested convergence on             energy=1.00D-06.
 No special actions if energy rises.
 FoFCou: FMM=F IPFlag=           0 FMFlag=           0 FMFlg1=           0
         NFxFlg=           0 DoJE=F BraDBF=F KetDBF=F FulRan=T
         wScrn=  0.000000 ICntrl=     600 IOpCl=  2 I1Cent=           0 NGrid=           0
         NMat0=    1 NMatS0=     54 NMatT0=    0 NMatD0=    1 NMtDS0=    0 NMtDT0=    0
 Symmetry not used in FoFCou.

 Cycle   1  Pass 1  IDiag  1:
 E= 0.118736124962595E-01
 DIIS: error= 1.10D-01 at cycle   1 NSaved=   1.
 NSaved= 1 IEnMin= 1 EnMin= 0.118736124962595E-01 IErMin= 1 ErrMin= 1.10D-01
 ErrMax= 1.10D-01  0.00D+00 EMaxC= 1.00D-01 BMatC= 2.03D-01 BMatP= 2.03D-01
 IDIUse=3 WtCom= 0.00D+00 WtEn= 1.00D+00
 Coeff-Com:  0.100D+01
 Coeff-En:   0.100D+01
 Coeff:      0.100D+01
 GapD=    2.000 DampG=2.000 DampE=0.250 DampFc=0.5000 IDamp=-1.
 Damping current iteration by 5.00D-01
 RMSDP=2.36D-02 MaxDP=2.14D-01              OVMax= 0.00D+00

 Cycle   2  Pass 1  IDiag  1:
 E=-0.184317719235366     Delta-E=       -0.196191331732 Rises=F Damp=T
 DIIS: error= 6.53D-02 at cycle   2 NSaved=   2.
 NSaved= 2 IEnMin= 2 EnMin=-0.184317719235366     IErMin= 2 ErrMin= 6.53D-02
 ErrMax= 6.53D-02  0.00D+00 EMaxC= 1.00D-01 BMatC= 7.61D-02 BMatP= 2.03D-01
 IDIUse=3 WtCom= 3.47D-01 WtEn= 6.53D-01
 Coeff-Com: -0.153D+01 0.253D+01
 Coeff-En:   0.000D+00 0.100D+01
 Coeff:     -0.531D+00 0.153D+01
 RMSDP=1.62D-02 MaxDP=1.30D-01 DE=-1.96D-01 OVMax= 0.00D+00

 Cycle   3  Pass 1  IDiag  1:
 E=-0.449207043802133     Delta-E=       -0.264889324567 Rises=F Damp=F
 DIIS: error= 9.16D-03 at cycle   3 NSaved=   3.
 NSaved= 3 IEnMin= 3 EnMin=-0.449207043802133     IErMin= 3 ErrMin= 9.16D-03
 ErrMax= 9.16D-03  0.00D+00 EMaxC= 1.00D-01 BMatC= 2.17D-03 BMatP= 7.61D-02
 IDIUse=3 WtCom= 9.08D-01 WtEn= 9.16D-02
 Coeff-Com:  0.131D+01-0.243D+01 0.213D+01
 Coeff-En:   0.000D+00 0.000D+00 0.100D+01
 Coeff:      0.119D+01-0.221D+01 0.202D+01
 RMSDP=4.50D-03 MaxDP=3.86D-02 DE=-2.65D-01 OVMax= 0.00D+00

 Cycle   4  Pass 1  IDiag  3:
 E=-0.456527058094508     Delta-E=       -0.007320014292 Rises=F Damp=F
 DIIS: error= 1.16D-03 at cycle   4 NSaved=   4.
 NSaved= 4 IEnMin= 4 EnMin=-0.456527058094508     IErMin= 4 ErrMin= 1.16D-03
 ErrMax= 1.16D-03  0.00D+00 EMaxC= 1.00D-01 BMatC= 3.12D-05 BMatP= 2.17D-03
 IDIUse=3 WtCom= 9.88D-01 WtEn= 1.16D-02
 Coeff-Com: -0.121D+00 0.247D+00-0.420D+00 0.129D+01
 Coeff-En:   0.000D+00 0.000D+00 0.000D+00 0.100D+01
 Coeff:     -0.119D+00 0.244D+00-0.415D+00 0.129D+01
 Gap=     0.375 Goal=   None    Shift=    0.000
 RMSDP=8.12D-04 MaxDP=7.52D-03 DE=-7.32D-03 OVMax= 8.67D-03

 Cycle   5  Pass 1  IDiag  3:
 E=-0.456696574699038     Delta-E=       -0.000169516605 Rises=F Damp=F
 DIIS: error= 1.73D-04 at cycle   5 NSaved=   5.
 NSaved= 5 IEnMin= 5 EnMin=-0.456696574699038     IErMin= 5 ErrMin= 1.73D-04
 ErrMax= 1.73D-04  0.00D+00 EMaxC= 1.00D-01 BMatC= 1.19D-06 BMatP= 3.12D-05
 IDIUse=3 WtCom= 9.98D-01 WtEn= 1.73D-03
 Coeff-Com:  0.408D-01-0.839D-01 0.154D+00-0.571D+00 0.146D+01
 Coeff-En:   0.000D+00 0.000D+00 0.000D+00 0.000D+00 0.100D+01
 Coeff:      0.407D-01-0.838D-01 0.154D+00-0.570D+00 0.146D+01
 Gap=     0.375 Goal=   None    Shift=    0.000
 RMSDP=1.87D-04 MaxDP=1.31D-03 DE=-1.70D-04 OVMax= 2.10D-03

 Cycle   6  Pass 1  IDiag  3:
 E=-0.456705273387286     Delta-E=       -0.000008698688 Rises=F Damp=F
 DIIS: error= 8.82D-05 at cycle   6 NSaved=   6.
 NSaved= 6 IEnMin= 6 EnMin=-0.456705273387286     IErMin= 6 ErrMin= 8.82D-05
 ErrMax= 8.82D-05  0.00D+00 EMaxC= 1.00D-01 BMatC= 1.29D-07 BMatP= 1.19D-06
 IDIUse=1 WtCom= 1.00D+00 WtEn= 0.00D+00
 Coeff-Com: -0.495D-02 0.104D-01-0.219D-01 0.918D-01-0.525D+00 0.145D+01
 Coeff:     -0.495D-02 0.104D-01-0.219D-01 0.918D-01-0.525D+00 0.145D+01
 Gap=     0.375 Goal=   None    Shift=    0.000
 RMSDP=8.25D-05 MaxDP=6.92D-04 DE=-8.70D-06 OVMax= 9.77D-04

 Cycle   7  Pass 1  IDiag  3:
 E=-0.456706503425068     Delta-E=       -0.000001230038 Rises=F Damp=F
 DIIS: error= 3.08D-05 at cycle   7 NSaved=   7.
 NSaved= 7 IEnMin= 7 EnMin=-0.456706503425068     IErMin= 7 ErrMin= 3.08D-05
 ErrMax= 3.08D-05  0.00D+00 EMaxC= 1.00D-01 BMatC= 1.19D-08 BMatP= 1.29D-07
 IDIUse=1 WtCom= 1.00D+00 WtEn= 0.00D+00
 Coeff-Com: -0.274D-02 0.533D-02-0.757D-02 0.233D-01 0.604D-01-0.612D+00
 Coeff-Com:  0.153D+01
 Coeff:     -0.274D-02 0.533D-02-0.757D-02 0.233D-01 0.604D-01-0.612D+00
 Coeff:      0.153D+01
 Gap=     0.375 Goal=   None    Shift=    0.000
 RMSDP=3.01D-05 MaxDP=2.79D-04 DE=-1.23D-06 OVMax= 3.54D-04

 Cycle   8  Pass 1  IDiag  3:
 E=-0.456706622486664     Delta-E=       -0.000000119062 Rises=F Damp=F
 DIIS: error= 4.70D-06 at cycle   8 NSaved=   8.
 NSaved= 8 IEnMin= 8 EnMin=-0.456706622486664     IErMin= 8 ErrMin= 4.70D-06
 ErrMax= 4.70D-06  0.00D+00 EMaxC= 1.00D-01 BMatC= 4.09D-10 BMatP= 1.19D-08
 IDIUse=1 WtCom= 1.00D+00 WtEn= 0.00D+00
 Coeff-Com:  0.680D-03-0.138D-02 0.250D-02-0.894D-02-0.142D-01 0.200D+00
 Coeff-Com: -0.613D+00 0.144D+01
 Coeff:      0.680D-03-0.138D-02 0.250D-02-0.894D-02-0.142D-01 0.200D+00
 Coeff:     -0.613D+00 0.144D+01
 Gap=     0.375 Goal=   None    Shift=    0.000
 RMSDP=4.36D-06 MaxDP=3.96D-05 DE=-1.19D-07 OVMax= 5.78D-05

 Cycle   9  Pass 1  IDiag  3:
 E=-0.456706625532704     Delta-E=       -0.000000003046 Rises=F Damp=F
 DIIS: error= 5.96D-07 at cycle   9 NSaved=   9.
 NSaved= 9 IEnMin= 9 EnMin=-0.456706625532704     IErMin= 9 ErrMin= 5.96D-07
 ErrMax= 5.96D-07  0.00D+00 EMaxC= 1.00D-01 BMatC= 1.91D-11 BMatP= 4.09D-10
 IDIUse=1 WtCom= 1.00D+00 WtEn= 0.00D+00
 Coeff-Com: -0.142D-03 0.304D-03-0.634D-03 0.218D-02-0.284D-02-0.129D-01
 Coeff-Com:  0.674D-01-0.329D+00 0.128D+01
 Coeff:     -0.142D-03 0.304D-03-0.634D-03 0.218D-02-0.284D-02-0.129D-01
 Coeff:      0.674D-01-0.329D+00 0.128D+01
 Gap=     0.375 Goal=   None    Shift=    0.000
 RMSDP=7.46D-07 MaxDP=5.45D-06 DE=-3.05D-09 OVMax= 9.03D-06

 Cycle  10  Pass 1  IDiag  3:
 E=-0.456706625650241     Delta-E=       -0.000000000118 Rises=F Damp=F
 DIIS: error= 1.79D-07 at cycle  10 NSaved=  10.
 NSaved=10 IEnMin=10 EnMin=-0.456706625650241     IErMin=10 ErrMin= 1.79D-07
 ErrMax= 1.79D-07  0.00D+00 EMaxC= 1.00D-01 BMatC= 1.47D-12 BMatP= 1.91D-11
 IDIUse=1 WtCom= 1.00D+00 WtEn= 0.00D+00
 Coeff-Com:  0.285D-04-0.600D-04 0.979D-04-0.175D-03 0.123D-02-0.530D-02
 Coeff-Com:  0.955D-02 0.277D-01-0.410D+00 0.138D+01
 Coeff:      0.285D-04-0.600D-04 0.979D-04-0.175D-03 0.123D-02-0.530D-02
 Coeff:      0.955D-02 0.277D-01-0.410D+00 0.138D+01
 Gap=     0.375 Goal=   None    Shift=    0.000
 RMSDP=2.14D-07 MaxDP=1.43D-06 DE=-1.18D-10 OVMax= 2.35D-06

 Cycle  11  Pass 1  IDiag  3:
 E=-0.456706625660473     Delta-E=       -0.000000000010 Rises=F Damp=F
 DIIS: error= 3.72D-08 at cycle  11 NSaved=  11.
 NSaved=11 IEnMin=11 EnMin=-0.456706625660473     IErMin=11 ErrMin= 3.72D-08
 ErrMax= 3.72D-08  0.00D+00 EMaxC= 1.00D-01 BMatC= 1.22D-13 BMatP= 1.47D-12
 IDIUse=1 WtCom= 1.00D+00 WtEn= 0.00D+00
 Coeff-Com: -0.129D-04 0.253D-04-0.244D-04-0.271D-04-0.616D-03 0.442D-02
 Coeff-Com: -0.116D-01 0.154D-01 0.837D-01-0.618D+00 0.153D+01
 Coeff:     -0.129D-04 0.253D-04-0.244D-04-0.271D-04-0.616D-03 0.442D-02
 Coeff:     -0.116D-01 0.154D-01 0.837D-01-0.618D+00 0.153D+01
 Gap=     0.375 Goal=   None    Shift=    0.000
 RMSDP=7.27D-08 MaxDP=4.04D-07 DE=-1.02D-11 OVMax= 7.58D-07

 Cycle  12  Pass 1  IDiag  3:
 E=-0.456706625661269     Delta-E=       -0.000000000001 Rises=F Damp=F
 DIIS: error= 9.70D-09 at cycle  12 NSaved=  12.
 NSaved=12 IEnMin=12 EnMin=-0.456706625661269     IErMin=12 ErrMin= 9.70D-09
 ErrMax= 9.70D-09  0.00D+00 EMaxC= 1.00D-01 BMatC= 5.80D-15 BMatP= 1.22D-13
 IDIUse=1 WtCom= 1.00D+00 WtEn= 0.00D+00
 Coeff-Com:  0.183D-05-0.348D-05-0.120D-05 0.472D-04 0.252D-03-0.226D-02
 Coeff-Com:  0.639D-02-0.120D-01-0.121D-01 0.221D+00-0.739D+00 0.154D+01
 Coeff:      0.183D-05-0.348D-05-0.120D-05 0.472D-04 0.252D-03-0.226D-02
 Coeff:      0.639D-02-0.120D-01-0.121D-01 0.221D+00-0.739D+00 0.154D+01
 Gap=     0.375 Goal=   None    Shift=    0.000
 RMSDP=1.67D-08 MaxDP=8.39D-08 DE=-7.96D-13 OVMax= 2.38D-07

 Cycle  13  Pass 1  IDiag  3:
 E=-0.456706625661212     Delta-E=        0.000000000000 Rises=F Damp=F
 DIIS: error= 2.33D-09 at cycle  13 NSaved=  13.
 NSaved=13 IEnMin=12 EnMin=-0.456706625661269     IErMin=13 ErrMin= 2.33D-09
 ErrMax= 2.33D-09  0.00D+00 EMaxC= 1.00D-01 BMatC= 3.48D-16 BMatP= 5.80D-15
 IDIUse=1 WtCom= 1.00D+00 WtEn= 0.00D+00
 Coeff-Com:  0.314D-06-0.684D-06 0.392D-05-0.316D-04-0.978D-04 0.105D-02
 Coeff-Com: -0.310D-02 0.632D-02 0.110D-02-0.906D-01 0.339D+00-0.884D+00
 Coeff-Com:  0.163D+01
 Coeff:      0.314D-06-0.684D-06 0.392D-05-0.316D-04-0.978D-04 0.105D-02
 Coeff:     -0.310D-02 0.632D-02 0.110D-02-0.906D-01 0.339D+00-0.884D+00
 Coeff:      0.163D+01
 Gap=     0.375 Goal=   None    Shift=    0.000
 RMSDP=4.36D-09 MaxDP=2.15D-08 DE= 5.68D-14 OVMax= 6.47D-08

 Cycle  14  Pass 2  IDiag  1:
 SCF Done:  E(RAM1) = -0.456706625661     A.U. after   14 cycles
            NFock= 13  Conv=0.44D-08     -V/T= 0.9736
 KE=-1.729238129775D+01 PE=-1.710076756690D+02 EE= 8.377897605603D+01
 Leave Link  502 at Sat Nov 14 17:36:38 2015, MaxMem=    33554432 cpu:         0.0
 (Enter /home/Applications/g09/g09/l801.exe)
 Range of M.O.s used for correlation:     1    24
 NBasis=    24 NAE=    13 NBE=    13 NFC=     0 NFV=     0
 NROrb=     24 NOA=    13 NOB=    13 NVA=    11 NVB=    11
 Leave Link  801 at Sat Nov 14 17:36:38 2015, MaxMem=    33554432 cpu:         0.0
 (Enter /home/Applications/g09/g09/l914.exe)
 RHF ground state
 MDV=    33554432 DFT=F DoStab=F Mixed=F DoRPA=F DoScal=F NonHer=F
 Making orbital integer symmetry assigments:
 Orbital symmetries:
       Occupied  (A) (A) (A) (A) (A) (A) (A) (A) (A) (A) (A) (A)
                 (A)
       Virtual   (A) (A) (A) (A) (A) (A) (A) (A) (A) (A) (A)
    60 initial guesses have been made.
 Convergence on wavefunction:    0.000001000000000
 Davidson Disk Diagonalization:  ConvIn= 1.00D-06 SkipCon=T Conv= 1.00D-06.
 Max sub-space:   240 roots to seek:    60 dimension of matrix:          286
 Iteration     1 Dimension    60 NMult     0 NNew     60
 CISAX will form    60 AO SS matrices at one time.
 NMat=    60 NSing=    60 JSym2X= 0.
 FoFJK:  IHMeth= 8 ICntrl=       0 DoSepK=F KAlg= 0 I1Cent=   0 FoldK=F
 IRaf=         1 NMat= 120 IRICut=       1 DoRegI=T DoRafI=F ISym2E= 0.
 FoFCou: FMM=F IPFlag=           0 FMFlag=      100000 FMFlg1=           0
         NFxFlg=           0 DoJE=F BraDBF=F KetDBF=F FulRan=T
         wScrn=  0.000000 ICntrl=       0 IOpCl=  0 I1Cent=           0 NGrid=           0
         NMat0=  120 NMatS0=     60 NMatT0=    0 NMatD0=  120 NMtDS0=    0 NMtDT0=    0
 Symmetry not used in FoFCou.
 New state      1 was old state      3
 New state      2 was old state      1
 New state      3 was old state      2
 New state      4 was old state      6
 New state      5 was old state      7
 New state      6 was old state      8
 New state      7 was old state      9
 New state      8 was old state      4
 New state      9 was old state      5
 New state     10 was old state     13
 New state     11 was old state     10
 New state     12 was old state     11
 New state     13 was old state     12
 New state     14 was old state     16
 Excitation Energies [eV] at current iteration:
 Root      1 :     4.604060881673463
 Root      2 :     4.696140196888050
 Root      3 :     5.067983916117016
 Root      4 :     5.271599827705862
 Root      5 :     5.514510472074748
 Root      6 :     6.237820621341688
 Root      7 :     6.490028372254502
 Root      8 :     6.603265107344686
 Root      9 :     6.700188834790672
 Root     10 :     6.928484377618211
 Root     11 :     7.180372908469719
 Root     12 :     7.303895934303221
 Root     13 :     7.525644203013513
 Root     14 :     7.586303375212580
 Root     15 :     7.623960475522720
 Root     16 :     7.757910784617574
 Root     17 :     8.011292491687030
 Root     18 :     8.329974728061259
 Root     19 :     8.368999479966140
 Root     20 :     8.599074704095537
 Root     21 :     8.766823814313499
 Root     22 :     9.111943897069455
 Root     23 :     9.156804544145828
 Root     24 :     9.239160026121070
 Root     25 :     9.276259554647893
 Root     26 :     9.396208421839404
 Root     27 :     9.456664685111834
 Root     28 :     9.783551889557410
 Root     29 :     9.827264564398673
 Root     30 :     9.881117979483330
 Root     31 :     9.937713878423526
 Root     32 :    10.058915152494170
 Root     33 :    10.224254515614130
 Root     34 :    10.395056406207980
 Root     35 :    10.447177814924190
 Root     36 :    10.622303664124380
 Root     37 :    10.660231933903530
 Root     38 :    10.802461815750230
 Root     39 :    10.853736450907740
 Root     40 :    11.155585003567790
 Root     41 :    11.218615455140040
 Root     42 :    11.318851357085110
 Root     43 :    11.407660157684060
 Root     44 :    11.614188066122760
 Root     45 :    11.856018904253550
 Root     46 :    11.936792348285010
 Root     47 :    12.041463010910770
 Root     48 :    12.192746340904220
 Root     49 :    12.312394872793440
 Root     50 :    12.438890107771030
 Root     51 :    12.933590249763180
 Root     52 :    13.125471587159010
 Root     53 :    13.194232552086460
 Root     54 :    13.281373663273280
 Root     55 :    13.337419111044290
 Root     56 :    13.611858663459150
 Root     57 :    13.726766711643530
 Root     58 :    13.882510938050780
 Root     59 :    13.918158067176670
 Root     60 :    14.150682563293230
 Iteration     2 Dimension   120 NMult    60 NNew     60
 CISAX will form    60 AO SS matrices at one time.
 NMat=    60 NSing=    60 JSym2X= 0.
 Root      1 not converged, maximum delta is    0.276806711778450
 Root      2 not converged, maximum delta is    0.277518307817292
 Root      3 not converged, maximum delta is    0.017293283035610
 Root      4 not converged, maximum delta is    0.035456285188167
 Root      5 not converged, maximum delta is    0.034637291764994
 New state      6 was old state      7
 Root      6 not converged, maximum delta is    0.159797588028314
 New state      7 was old state      6
 Root      7 not converged, maximum delta is    0.151349939106074
 Root      8 not converged, maximum delta is    0.159526493583080
 Root      9 not converged, maximum delta is    0.127790631166412
 Root     10 not converged, maximum delta is    0.034670495614390
 Root     11 not converged, maximum delta is    0.048426701642990
 Root     12 not converged, maximum delta is    0.036758983922263
 Root     13 not converged, maximum delta is    0.047088851103766
 Root     14 not converged, maximum delta is    0.074377840205247
 Root     15 not converged, maximum delta is    0.058403749084484
 Excitation Energies [eV] at current iteration:
 Root      1 :     4.554261355493091   Change is   -0.049799526180371
 Root      2 :     4.615247134384719   Change is   -0.080893062503331
 Root      3 :     5.050956363367602   Change is   -0.017027552749414
 Root      4 :     5.200047296631385   Change is   -0.071552531074477
 Root      5 :     5.427227954386865   Change is   -0.087282517687883
 Root      6 :     6.181895630996731   Change is   -0.308132741257772
 Root      7 :     6.206005971933239   Change is   -0.031814649408448
 Root      8 :     6.452641239743379   Change is   -0.150623867601308
 Root      9 :     6.635248839033602   Change is   -0.064939995757069
 Root     10 :     6.859383191205204   Change is   -0.069101186413007
 Root     11 :     7.106209081418380   Change is   -0.074163827051339
 Root     12 :     7.252525014195348   Change is   -0.051370920107873
 Root     13 :     7.435219188384440   Change is   -0.090425014629074
 Root     14 :     7.488148934508731   Change is   -0.098154440703849
 Root     15 :     7.543066969007143   Change is   -0.080893506515577
 Root     16 :     7.680202350641822   Change is   -0.077708433975752
 Root     17 :     7.943974507548252   Change is   -0.067317984138779
 Root     18 :     8.259561269243504   Change is   -0.070413458817754
 Root     19 :     8.295596908335128   Change is   -0.073402571631013
 Root     20 :     8.524384803930479   Change is   -0.074689900165058
 Root     21 :     8.665757769929531   Change is   -0.101066044383969
 Root     22 :     8.766813477190164   Change is   -0.345130419879292
 Root     23 :     8.944403987880172   Change is   -0.294756038240898
 Root     24 :     8.979079959474699   Change is   -0.177724584671130
 Root     25 :     9.059706737362133   Change is   -0.336501684477271
 Root     26 :     9.207958043014997   Change is   -0.068301511632896
 Root     27 :     9.303431967688246   Change is   -0.153232717423588
 Root     28 :     9.454444617947669   Change is   -0.372819946451005
 Root     29 :     9.562319094914338   Change is   -0.375394783509187
 Root     30 :     9.698928720132566   Change is   -0.084623169424845
 Root     31 :     9.821018574207480   Change is   -0.060099405275849
 Root     32 :     9.861548471787287   Change is   -0.362706043826844
 Root     33 :     9.975401431078708   Change is   -0.083513721415466
 Root     34 :    10.124222149413300   Change is   -0.270834256794680
 Root     35 :    10.136424769911890   Change is   -0.523807163991644
 Root     36 :    10.220377502194000   Change is   -0.401926161930385
 Root     37 :    10.321253837408510   Change is   -0.125923977515684
 Root     38 :    10.326089854359120   Change is   -0.527646596548613
 Root     39 :    10.484360252746110   Change is   -0.318101563004123
 Root     40 :    10.669515907371430   Change is   -0.549099547768602
 Root     41 :    10.938271206051500   Change is   -0.217313797516287
 Root     42 :    11.104068413099580   Change is   -0.303591744584479
 Root     43 :    11.203932965496190   Change is   -0.114918391588921
 Root     44 :    11.270177927643850   Change is   -0.344010138478916
 Root     45 :    11.340609138717690   Change is   -0.700853872193078
 Root     46 :    11.534896195876200   Change is   -0.321122708377347
 Root     47 :    11.620773023333040   Change is   -0.316019324951970
 Root     48 :    11.742980895764700   Change is   -0.569413977028740
 Root     49 :    11.791255619390390   Change is   -0.401490721513823
 Root     50 :    12.013137347095040
 Root     51 :    12.188995222607830   Change is   -0.249894885163204
 Root     52 :    12.586187557987060   Change is   -0.539284029171948
 Root     53 :    12.822967860809020   Change is   -0.110622388954165
 Root     54 :    12.936982681412420   Change is   -0.257249870674031
 Root     55 :    13.135649305962010   Change is   -0.145724357311267
 Root     56 :    13.190895797483220   Change is   -0.146523313561072
 Root     57 :    13.280565213044110   Change is   -0.446201498599414
 Root     58 :    13.459018045053310   Change is   -0.152840618405833
 Root     59 :    13.577608538125810   Change is   -0.340549529050857
 Root     60 :    13.661812744014310   Change is   -0.220698194036467
 Iteration     3 Dimension   135 NMult   120 NNew     15
 CISAX will form    15 AO SS matrices at one time.
 NMat=    15 NSing=    15 JSym2X= 0.
 Root      1 not converged, maximum delta is    0.002468986193986
 Root      2 not converged, maximum delta is    0.002541864193958
 Root      3 not converged, maximum delta is    0.000356787559696
 Root      4 not converged, maximum delta is    0.000096413361076
 Root      5 not converged, maximum delta is    0.000076637533085
 Root      6 not converged, maximum delta is    0.000281929682350
 Root      7 not converged, maximum delta is    0.000133783703053
 Root      8 not converged, maximum delta is    0.000762477405791
 Root      9 not converged, maximum delta is    0.000913293186978
 Root     10 not converged, maximum delta is    0.000257142780767
 Root     11 not converged, maximum delta is    0.000118940147393
 Root     12 not converged, maximum delta is    0.000107506895337
 Root     13 not converged, maximum delta is    0.000293858729483
 Root     14 not converged, maximum delta is    0.000443296581320
 Root     15 not converged, maximum delta is    0.000481072883869
 Excitation Energies [eV] at current iteration:
 Root      1 :     4.553911910446133   Change is   -0.000349445046958
 Root      2 :     4.615004300277586   Change is   -0.000242834107133
 Root      3 :     5.050918018651769   Change is   -0.000038344715833
 Root      4 :     5.200043663009858   Change is   -0.000003633621527
 Root      5 :     5.427225763081403   Change is   -0.000002191305462
 Root      6 :     6.181866973924562   Change is   -0.000028657072169
 Root      7 :     6.206003689195961   Change is   -0.000002282737278
 Root      8 :     6.452378088923676   Change is   -0.000263150819703
 Root      9 :     6.635041831568394   Change is   -0.000207007465209
 Root     10 :     6.859368472987092   Change is   -0.000014718218112
 Root     11 :     7.106205548089771   Change is   -0.000003533328609
 Root     12 :     7.252522103283004   Change is   -0.000002910912344
 Root     13 :     7.435200779520748   Change is   -0.000018408863692
 Root     14 :     7.488128428468309   Change is   -0.000020506040423
 Root     15 :     7.543035323220711   Change is   -0.000031645786432
 Iteration     4 Dimension   143 NMult   135 NNew      8
 CISAX will form     8 AO SS matrices at one time.
 NMat=     8 NSing=     8 JSym2X= 0.
 Root      1 not converged, maximum delta is    0.000034621054161
 Root      2 not converged, maximum delta is    0.000027847588831
 Root      3 not converged, maximum delta is    0.000007296470861
 Root      4 not converged, maximum delta is    0.000004256952075
 Root      5 not converged, maximum delta is    0.000003439596896
 Root      6 not converged, maximum delta is    0.000009616275512
 Root      7 not converged, maximum delta is    0.000003472410086
 Root      8 not converged, maximum delta is    0.000049471179809
 Root      9 not converged, maximum delta is    0.000038609827871
 Root     10 not converged, maximum delta is    0.000007800557996
 Root     11 not converged, maximum delta is    0.000002393752225
 Root     12 not converged, maximum delta is    0.000003975876714
 Root     13 not converged, maximum delta is    0.000008709748656
 Root     14 not converged, maximum delta is    0.000010826773106
 Root     15 not converged, maximum delta is    0.000018029390011
 Excitation Energies [eV] at current iteration:
 Root      1 :     4.553911326212345   Change is   -0.000000584233789
 Root      2 :     4.615003867192461   Change is   -0.000000433085125
 Root      3 :     5.050917989585566   Change is   -0.000000029066203
 Root      4 :     5.200043656838004   Change is   -0.000000006171854
 Root      5 :     5.427225758552855   Change is   -0.000000004528548
 Root      6 :     6.181866924915904   Change is   -0.000000049008657
 Root      7 :     6.206003684401794   Change is   -0.000000004794167
 Root      8 :     6.452377547748189   Change is   -0.000000541175486
 Root      9 :     6.635041226999822   Change is   -0.000000604568572
 Root     10 :     6.859368445883111   Change is   -0.000000027103981
 Root     11 :     7.106205546181868   Change is   -0.000000001907903
 Root     12 :     7.252522099320048   Change is   -0.000000003962956
 Root     13 :     7.435200747839868   Change is   -0.000000031680879
 Root     14 :     7.488128392101713   Change is   -0.000000036366595
 Root     15 :     7.543035225393120   Change is   -0.000000097827592
 Convergence achieved on expansion vectors.
 ***********************************************************************
 Excited states from <AA,BB:AA,BB> singles matrix:
 ***********************************************************************
 
 1PDM for each excited state written to RWF  633
 Ground to excited state transition densities written to RWF  633
 Ground to excited state transition electric dipole moments (Au):
       state          X           Y           Z        Dip. S.      Osc.
         1        -0.4068      0.5922     -0.0764      0.5220      0.0582
         2         0.2234     -0.5542      0.0859      0.3645      0.0412
         3        -0.5104     -0.2798     -0.0017      0.3388      0.0419
         4        -0.0449     -0.0067      0.0736      0.0075      0.0010
         5         0.0597      0.0327     -0.0506      0.0072      0.0010
         6         0.1163      0.2199      0.0321      0.0629      0.0095
         7        -0.0075     -0.0468     -0.1040      0.0131      0.0020
         8         1.2019      0.6838     -0.0353      1.9134      0.3025
         9        -0.4787      0.7657      0.0212      0.8160      0.1326
        10         0.0438      0.1531      0.0151      0.0256      0.0043
        11         0.0115      0.0406     -0.0683      0.0064      0.0011
        12        -0.0302     -0.0158     -0.1345      0.0193      0.0034
        13        -0.0180      0.0330      0.0724      0.0067      0.0012
        14         0.0227     -0.0645      0.2240      0.0548      0.0101
        15        -0.1095     -0.0007      0.1411      0.0319      0.0059
 Ground to excited state transition velocity dipole moments (Au):
       state          X           Y           Z        Dip. S.      Osc.
         1         0.0189     -0.0154      0.0066      0.0006      0.0025
         2        -0.0096      0.0159     -0.0060      0.0004      0.0015
         3         0.0534      0.0372      0.0008      0.0042      0.0152
         4         0.0035      0.0004     -0.0183      0.0003      0.0012
         5        -0.0073     -0.0051      0.0057      0.0001      0.0004
         6        -0.0239     -0.0414     -0.0590      0.0058      0.0169
         7         0.0012      0.0079      0.1964      0.0386      0.1130
         8        -0.2708     -0.1378      0.0101      0.0924      0.2599
         9         0.0848     -0.1285     -0.0040      0.0237      0.0648
        10        -0.0155     -0.0259      0.0346      0.0021      0.0056
        11         0.0063     -0.0035     -0.0196      0.0004      0.0011
        12         0.0020      0.0014     -0.0631      0.0040      0.0100
        13        -0.0011     -0.0061      0.0308      0.0010      0.0024
        14        -0.0009      0.0063     -0.0998      0.0100      0.0242
        15         0.0261      0.0031     -0.0324      0.0017      0.0042
 Ground to excited state transition magnetic dipole moments (Au):
       state          X           Y           Z
         1         0.3074      0.1765     -0.4267
         2         0.3872      0.1900      0.3427
         3        -0.0759      0.0353      0.0196
         4         0.1031     -0.3992     -0.0171
         5        -0.1270      0.1436     -0.0087
         6         0.1554     -0.1418     -0.0406
         7         0.0712      0.0826     -0.0020
         8         0.0050      0.0484     -0.0146
         9         0.1017      0.0546     -0.0476
        10        -0.7355     -0.3338     -0.0299
        11         0.2793      0.5878      0.0124
        12        -0.5668      0.1919      0.0354
        13        -0.1842     -0.5272     -0.0233
        14        -0.4353      1.3091      0.0212
        15        -0.2838     -0.5747     -0.0491
 Ground to excited state transition velocity quadrupole moments (Au):
       state          XX          YY          ZZ          XY          XZ          YZ
         1        -0.2583      0.2549     -0.0070      0.2253      0.0613     -0.1214
         2         0.2265     -0.2100     -0.0163     -0.1902      0.0617     -0.1393
         3         0.0919     -0.0523     -0.0453      0.1454     -0.0376      0.0130
         4        -0.0097      0.0115     -0.0011      0.0248      0.2229      0.0715
         5        -0.0070     -0.0086      0.0342     -0.0488     -0.0482     -0.1507
         6         0.0445     -0.0124     -0.0023     -0.0771      0.1213      0.0495
         7        -0.0269     -0.0048      0.0090      0.0136     -0.1268     -0.0262
         8        -0.1065      0.2976     -0.0386     -0.2166     -0.0377     -0.0140
         9         0.4308     -0.4576      0.0041     -0.3273     -0.0526      0.0071
        10         0.0418     -0.0132     -0.0235     -0.0601      0.1031     -0.3098
        11         0.0315     -0.0191      0.0010     -0.0164     -0.1279     -0.0549
        12         0.0092     -0.0090     -0.0157     -0.0068     -0.0523     -0.0397
        13        -0.0078     -0.0308     -0.0057      0.0054     -0.1226      0.0978
        14         0.0138      0.0027      0.0016     -0.0009     -0.3603     -0.1923
        15        -0.0335     -0.0106      0.0055      0.0474     -0.3504     -0.0839
 <0|del|b> * <b|rxdel|0> + <0|del|b> * <b|delr+rdel|0>
 Rotatory Strengths (R) in cgs (10**-40 erg-esu-cm/Gauss)
       state          XX          YY          ZZ    R(velocity)    E-M Angle
         1        -6.5787     -1.7436      9.3670      0.3482       88.99
         2         2.3340    -11.6372     -2.1626     -3.8219      104.83
         3         5.4185     -6.5835     -9.2106     -3.4585      119.12
         4        -0.6926      2.5458      0.0821      0.6451       86.10
         5        -2.3137      4.0065     -1.1677      0.1750       85.82
         6        27.7356    -10.9874     -2.6253      4.7076       73.80
         7         6.1266     -4.6636     -0.3621      0.3670       89.05
         8       -21.1814      6.6523     -9.8599     -8.1297      121.99
         9       -17.7770     11.7395     11.2591      1.7405       84.63
        10        11.5121     24.1500     17.6242     17.7621       59.20
        11        -3.3200      1.1433      0.6389     -0.5126       92.40
        12        -1.9363     -5.0965     -1.1012     -2.7113       94.65
        13         2.4645     -1.0147      5.5202      2.3233       81.18
        14        10.8127     -2.0913      7.9111      5.5441       87.31
        15        -0.8269     -8.2711    -10.3700     -6.4894      106.54
 1/2[<0|r|b>*<b|rxdel|0> + (<0|rxdel|b>*<b|r|0>)*]
 Rotatory Strengths (R) in cgs (10**-40 erg-esu-cm/Gauss)
       state          XX          YY          ZZ     R(length)
         1        88.4220    -73.9201    -23.0435     -2.8472
         2       -61.1823     74.4817    -20.8177     -2.5061
         3       -27.3998      6.9835      0.0238     -6.7975
         4         3.2714     -1.8882      0.8898      0.7577
         5         5.3583     -3.3192     -0.3120      0.5757
         6       -12.7841     22.0469      0.9211      3.3946
         7         0.3774      2.7367     -0.1447      0.9898
         8        -4.2779    -23.3903     -0.3641     -9.3441
         9        34.4401    -29.5821      0.7140      1.8573
        10        22.7920     36.1484      0.3182     19.7528
        11        -2.2743    -16.8828      0.6002     -6.1856
        12       -12.0995      2.1374      3.3668     -2.1984
        13        -2.3404     12.3172      1.1915      3.7228
        14         6.9810     59.6803     -3.3543     21.1023
        15       -21.9820     -0.2993      4.9012     -5.7934
  1/2[<0|del|b>*<b|r|0> + (<0|r|b>*<b|del|0>)*] (Au)
       state          X           Y           Z        Dip. S.   Osc.(frdel)
         1        -0.0077     -0.0091     -0.0005      0.0173      0.0115
         2        -0.0021     -0.0088     -0.0005      0.0115      0.0076
         3        -0.0272     -0.0104      0.0000      0.0377      0.0251
         4        -0.0002      0.0000     -0.0013      0.0015      0.0010
         5        -0.0004     -0.0002     -0.0003      0.0009      0.0006
         6        -0.0028     -0.0091     -0.0019      0.0138      0.0092
         7         0.0000     -0.0004     -0.0204      0.0208      0.0139
         8        -0.3255     -0.0943     -0.0004      0.4201      0.2801
         9        -0.0406     -0.0984     -0.0001      0.1391      0.0927
        10        -0.0007     -0.0040      0.0005      0.0041      0.0027
        11         0.0001     -0.0001      0.0013     -0.0013     -0.0008
        12        -0.0001      0.0000      0.0085     -0.0084     -0.0056
        13         0.0000     -0.0002      0.0022     -0.0021     -0.0014
        14         0.0000     -0.0004     -0.0224      0.0228      0.0152
        15        -0.0029      0.0000     -0.0046      0.0074      0.0050

 Excitation energies and oscillator strengths:
 
 Excited State   1:      Singlet-A      4.5539 eV  272.26 nm  f=0.0582  <S**2>=0.000
      12 -> 15        -0.13704
      13 -> 14         0.53310
      13 -> 16         0.41627
 This state for optimization and/or second-order correction.
 Total Energy, E(CIS) = -0.289353456504    
 Copying the excited state density for this state as the 1-particle RhoCI density.
 
 Excited State   2:      Singlet-A      4.6150 eV  268.65 nm  f=0.0412  <S**2>=0.000
      12 -> 15         0.11400
      13 -> 14        -0.41491
      13 -> 15         0.13605
      13 -> 16         0.52497
 
 Excited State   3:      Singlet-A      5.0509 eV  245.47 nm  f=0.0419  <S**2>=0.000
      12 -> 14         0.30238
      13 -> 15         0.60710
      13 -> 16        -0.16239
 
 Excited State   4:      Singlet-A      5.2000 eV  238.43 nm  f=0.0010  <S**2>=0.000
      12 -> 17        -0.11062
      12 -> 18        -0.14918
      12 -> 20        -0.10100
      13 -> 17         0.53999
      13 -> 18         0.25362
      13 -> 20         0.17235
      13 -> 21         0.11311
      13 -> 23        -0.15091
 
 Excited State   5:      Singlet-A      5.4272 eV  228.45 nm  f=0.0010  <S**2>=0.000
      12 -> 17        -0.18071
      12 -> 19         0.17321
      13 -> 17        -0.16695
      13 -> 18         0.42521
      13 -> 19         0.37828
      13 -> 20         0.14473
      13 -> 21         0.12969
 
 Excited State   6:      Singlet-A      6.1819 eV  200.56 nm  f=0.0095  <S**2>=0.000
       7 -> 16        -0.15729
      12 -> 14         0.10415
      12 -> 15         0.16609
      12 -> 16         0.61162
      13 -> 19         0.14619
 
 Excited State   7:      Singlet-A      6.2060 eV  199.78 nm  f=0.0020  <S**2>=0.000
      12 -> 16        -0.13423
      13 -> 17         0.25403
      13 -> 18        -0.36782
      13 -> 19         0.48659
 
 Excited State   8:      Singlet-A      6.4524 eV  192.15 nm  f=0.3025  <S**2>=0.000
      12 -> 14         0.58958
      12 -> 16        -0.10750
      13 -> 15        -0.27517
 
 Excited State   9:      Singlet-A      6.6350 eV  186.86 nm  f=0.1326  <S**2>=0.000
      12 -> 15         0.64427
      12 -> 16        -0.17359
      13 -> 14         0.16073
 
 Excited State  10:      Singlet-A      6.8594 eV  180.75 nm  f=0.0043  <S**2>=0.000
      12 -> 17         0.37503
      12 -> 18        -0.32484
      12 -> 19         0.26554
      12 -> 20        -0.12737
      12 -> 21         0.21160
      12 -> 22        -0.16284
      12 -> 23        -0.10510
      13 -> 20         0.14552
      13 -> 21         0.11929
      13 -> 22         0.16166
 
 Excited State  11:      Singlet-A      7.1062 eV  174.47 nm  f=0.0011  <S**2>=0.000
      12 -> 17         0.36316
      12 -> 18         0.25088
      12 -> 21         0.13893
      13 -> 17         0.15975
      13 -> 18         0.26583
      13 -> 19         0.13306
      13 -> 20        -0.31944
      13 -> 21        -0.14931
 
 Excited State  12:      Singlet-A      7.2525 eV  170.95 nm  f=0.0034  <S**2>=0.000
      12 -> 18         0.27558
      12 -> 19         0.26296
      12 -> 22         0.11038
      13 -> 19        -0.17354
      13 -> 20        -0.15165
      13 -> 21         0.49061
      13 -> 24        -0.13897
 
 Excited State  13:      Singlet-A      7.4352 eV  166.75 nm  f=0.0012  <S**2>=0.000
      10 -> 14        -0.10280
      11 -> 14         0.22641
      11 -> 15         0.14127
      12 -> 17         0.18646
      12 -> 19        -0.36621
      12 -> 21        -0.10141
      13 -> 21         0.11828
      13 -> 22         0.40485
 
 Excited State  14:      Singlet-A      7.4881 eV  165.57 nm  f=0.0101  <S**2>=0.000
       9 -> 14         0.15047
      11 -> 14        -0.19894
      11 -> 15        -0.14866
      12 -> 18         0.15260
      12 -> 22         0.22852
      13 -> 17         0.16600
      13 -> 20         0.14932
      13 -> 21        -0.20799
      13 -> 22         0.32841
      13 -> 23         0.30346
 
 Excited State  15:      Singlet-A      7.5430 eV  164.37 nm  f=0.0059  <S**2>=0.000
       9 -> 14        -0.19883
      11 -> 14         0.40210
      11 -> 15         0.31436
      12 -> 19         0.23295
      12 -> 21         0.10493
      13 -> 17         0.14746
      13 -> 21        -0.21394
      13 -> 23         0.16053
 SavETr:  write IOETrn=   770 NScale= 10 NData=  16 NLR=1 NState=   15 LETran=     280.
 The selected state is a singlet
 CISAX will form     1 AO SS matrices at one time.
 NMat=     1 NSing=     1 JSym2X= 0.
 Leave Link  914 at Sat Nov 14 17:36:38 2015, MaxMem=    33554432 cpu:         0.1
 (Enter /home/Applications/g09/g09/l1002.exe)
 Minotr:  Closed shell wavefunction.
          Computing CIS/TD-HF/TD-KS derivatives.
          Using Z-Vector for PSCF gradient.
          Skipping F1 and S1 gradient terms here.
          IDoAtm=111111111
          Direct CPHF calculation.
          Differentiating once with respect to electric field.
                with respect to dipole field.
          Differentiating once with respect to nuclear coordinates.
          Electric field/nuclear overlap derivatives assumed to be zero.
          Requested convergence is 1.0D-10 RMS, and 1.0D-09 maximum.
          NewPWx=T KeepS1=F KeepF1=F KeepIn=T MapXYZ=F SortEE=F KeepMc=T.
          MDV=      33495423 using IRadAn=       0.
 Keep J ints in memory in canonical form, NReq=871704.
 FoFCou: FMM=F IPFlag=           0 FMFlag=           0 FMFlg1=           0
         NFxFlg=           0 DoJE=F BraDBF=F KetDBF=F FulRan=T
         wScrn=  0.000000 ICntrl=     600 IOpCl=  2 I1Cent=           0 NGrid=           0
         NMat0=    1 NMatS0=     54 NMatT0=    0 NMatD0=    1 NMtDS0=    0 NMtDT0=    0
 Symmetry not used in FoFCou.
          Solving linear equations separately, MaxMat=       0.
          There are     1 degrees of freedom in the 1st order CPHF.  IDoFFX=0 NUNeed=     1.
 LinEq1:  Iter=  0 NonCon=     1 RMS=2.69D-02 Max=2.01D-01 NDo=     1
 AX will form     1 AO Fock derivatives at one time.
 LinEq1:  Iter=  1 NonCon=     1 RMS=5.75D-03 Max=2.95D-02 NDo=     1
 LinEq1:  Iter=  2 NonCon=     1 RMS=7.40D-04 Max=3.40D-03 NDo=     1
 LinEq1:  Iter=  3 NonCon=     1 RMS=1.08D-04 Max=5.70D-04 NDo=     1
 LinEq1:  Iter=  4 NonCon=     1 RMS=1.43D-05 Max=6.11D-05 NDo=     1
 LinEq1:  Iter=  5 NonCon=     1 RMS=2.93D-06 Max=1.36D-05 NDo=     1
 LinEq1:  Iter=  6 NonCon=     1 RMS=4.12D-07 Max=2.24D-06 NDo=     1
 LinEq1:  Iter=  7 NonCon=     1 RMS=4.96D-08 Max=2.58D-07 NDo=     1
 LinEq1:  Iter=  8 NonCon=     1 RMS=5.69D-09 Max=1.60D-08 NDo=     1
 LinEq1:  Iter=  9 NonCon=     1 RMS=7.07D-10 Max=3.93D-09 NDo=     1
 LinEq1:  Iter= 10 NonCon=     0 RMS=8.72D-11 Max=3.99D-10 NDo=     1
 Linear equations converged to 1.000D-10 1.000D-09 after    10 iterations.
 End of Minotr F.D. properties file   721 does not exist.
 End of Minotr F.D. properties file   722 does not exist.
 End of Minotr F.D. properties file   788 does not exist.
 Leave Link 1002 at Sat Nov 14 17:36:38 2015, MaxMem=    33554432 cpu:         0.0
 (Enter /home/Applications/g09/g09/l601.exe)
 Copying SCF densities to generalized density rwf, IOpCl= 0 IROHF=0.

 **********************************************************************

            Population analysis using the SCF density.

 **********************************************************************

 Orbital symmetries:
       Occupied  (A) (A) (A) (A) (A) (A) (A) (A) (A) (A) (A) (A)
                 (A)
       Virtual   (A) (A) (A) (A) (A) (A) (A) (A) (A) (A) (A)
 The electronic state is 1-A.
 Alpha  occ. eigenvalues --   -1.75192  -1.33547  -1.13840  -0.89423  -0.87270
 Alpha  occ. eigenvalues --   -0.73351  -0.67153  -0.59666  -0.54955  -0.52781
 Alpha  occ. eigenvalues --   -0.52090  -0.42026  -0.35812
 Alpha virt. eigenvalues --    0.01726   0.04098   0.06888   0.10374   0.11633
 Alpha virt. eigenvalues --    0.12417   0.14805   0.15846   0.16547   0.18127
 Alpha virt. eigenvalues --    0.21912
     Molecular Orbital Coefficients:
                           1         2         3         4         5
                           O         O         O         O         O
     Eigenvalues --    -1.75192  -1.33547  -1.13840  -0.89423  -0.87270
   1 1   C  1S          0.13929   0.50200   0.25996   0.00313   0.48031
   2        1PX        -0.09123  -0.13656  -0.05913   0.09312   0.17137
   3        1PY         0.00485   0.06775  -0.18075   0.31521   0.02117
   4        1PZ         0.00199   0.00748   0.00466  -0.00156   0.00724
   5 2   C  1S          0.26011   0.25862   0.51952  -0.25757  -0.27609
   6        1PX        -0.12035   0.16653  -0.00048  -0.19725   0.31154
   7        1PY         0.13037   0.11963  -0.00124  -0.01392   0.08957
   8        1PZ        -0.00529  -0.00397  -0.00859   0.00423   0.00241
   9 3   O  1S          0.83246  -0.39581   0.01184   0.21458   0.14618
  10        1PX         0.15647   0.12935   0.16804  -0.09454  -0.33641
  11        1PY         0.08358   0.05344  -0.36419  -0.37628   0.27911
  12        1PZ         0.00059   0.00015   0.00210   0.00308  -0.01070
  13 4   C  1S          0.27974   0.25118  -0.50689  -0.34789  -0.18882
  14        1PX         0.01593   0.20448   0.01464   0.20623  -0.20026
  15        1PY        -0.18729   0.06005  -0.01174   0.12659  -0.19024
  16        1PZ         0.00379   0.00276  -0.00722  -0.00609  -0.00552
  17 5   C  1S          0.13966   0.51123  -0.25900   0.45657  -0.10095
  18        1PX        -0.05599  -0.03524   0.15854   0.20814   0.26784
  19        1PY        -0.07129  -0.14090  -0.07702   0.09564  -0.17192
  20        1PZ        -0.00054  -0.00210   0.00054   0.00030  -0.00102
  21 6   H  1S          0.02768   0.15918  -0.11087   0.31316  -0.06243
  22 7   H  1S          0.05799   0.05748  -0.21302  -0.19986  -0.07220
  23 8   H  1S          0.05186   0.05638   0.20755  -0.10637  -0.17821
  24 9   H  1S          0.02205   0.12929   0.09487   0.00682   0.28502
                           6         7         8         9        10
                           O         O         O         O         O
     Eigenvalues --    -0.73351  -0.67153  -0.59666  -0.54955  -0.52781
   1 1   C  1S         -0.06464   0.00447  -0.19646   0.01912  -0.00676
   2        1PX        -0.18546   0.00694  -0.14224   0.41541  -0.29813
   3        1PY         0.15852   0.00642  -0.02791  -0.04784  -0.38985
   4        1PZ        -0.00799   0.19343   0.01102   0.00476   0.00848
   5 2   C  1S         -0.17589   0.00012   0.17218   0.01091   0.03941
   6        1PX        -0.13803  -0.01780   0.18920  -0.28611   0.27695
   7        1PY         0.37288   0.03545  -0.24993   0.09819   0.46479
   8        1PZ        -0.00669   0.36427   0.01749  -0.01113  -0.00804
   9 3   O  1S         -0.12363  -0.00477  -0.03862  -0.12605   0.06229
  10        1PX         0.42943   0.01779  -0.06457   0.49685  -0.04830
  11        1PY         0.17942  -0.00026   0.43318   0.11981  -0.06466
  12        1PZ        -0.01783   0.79732   0.02854  -0.02868  -0.02060
  13 4   C  1S         -0.14805  -0.01067  -0.15246   0.05322  -0.09634
  14        1PX         0.22542  -0.00800   0.00123  -0.22517  -0.08146
  15        1PY        -0.33760   0.00773  -0.40770  -0.10000   0.16527
  16        1PZ        -0.01803   0.39008   0.01123  -0.00386   0.00008
  17 5   C  1S         -0.06304  -0.00992   0.16051  -0.07471  -0.01751
  18        1PX        -0.02751   0.00478   0.19398   0.25612   0.00290
  19        1PY        -0.25087  -0.01145   0.23496   0.31914   0.38471
  20        1PZ        -0.01083   0.19477   0.01972   0.01122   0.01741
  21 6   H  1S         -0.18415  -0.00787   0.32690   0.28440   0.28054
  22 7   H  1S         -0.31717   0.01924  -0.28593   0.13227   0.07592
  23 8   H  1S         -0.31412  -0.03179   0.28206  -0.05858  -0.38707
  24 9   H  1S         -0.16420   0.01094  -0.20292   0.34143  -0.16647
                          11        12        13        14        15
                           O         O         O         V         V
     Eigenvalues --    -0.52090  -0.42026  -0.35812   0.01726   0.04098
   1 1   C  1S         -0.00800  -0.02200  -0.01310  -0.00107  -0.02766
   2        1PX         0.31918  -0.00267   0.00021   0.01712  -0.01151
   3        1PY        -0.37146   0.01754   0.01321   0.00498   0.00738
   4        1PZ         0.01643   0.62983   0.33184  -0.28201   0.60783
   5 2   C  1S         -0.08906   0.00589   0.02931   0.02153  -0.03889
   6        1PX         0.12152   0.00217  -0.00117   0.01868   0.05564
   7        1PY        -0.05852  -0.00414   0.01025  -0.01280   0.00135
   8        1PZ         0.01420   0.20248   0.60002   0.55414  -0.39135
   9 3   O  1S          0.06662   0.00009  -0.00240   0.00536   0.02097
  10        1PX        -0.02260  -0.00296  -0.00898   0.01194   0.05247
  11        1PY         0.01920  -0.01136  -0.00257   0.00740   0.02647
  12        1PZ         0.01223  -0.44528   0.03654  -0.40144   0.00253
  13 4   C  1S          0.02987  -0.00266   0.02120  -0.03656  -0.05244
  14        1PX         0.48995   0.00033  -0.01584   0.02482   0.03165
  15        1PY        -0.06168  -0.00225   0.00891  -0.01193   0.02704
  16        1PZ        -0.00609   0.11319  -0.59190   0.59382   0.34839
  17 5   C  1S          0.00368   0.00653  -0.00424   0.00795   0.01209
  18        1PX        -0.45092  -0.00654   0.01445  -0.00868   0.00808
  19        1PY         0.20560  -0.03136   0.00907   0.00705   0.00841
  20        1PZ         0.00551   0.59070  -0.41877  -0.30635  -0.58001
  21 6   H  1S         -0.02295  -0.01312   0.00185  -0.00749  -0.01860
  22 7   H  1S         -0.35414   0.00497  -0.00913   0.03858   0.05390
  23 8   H  1S         -0.01961   0.00144  -0.01458  -0.01968   0.04318
  24 9   H  1S          0.33356   0.00526   0.00372  -0.00619   0.01586
                          16        17        18        19        20
                           V         V         V         V         V
     Eigenvalues --     0.06888   0.10374   0.11633   0.12417   0.14805
   1 1   C  1S          0.07701   0.40065  -0.16751  -0.08800  -0.39376
   2        1PX         0.03285  -0.02449   0.34333   0.17926  -0.29889
   3        1PY        -0.02275   0.01686  -0.06218   0.55007  -0.04617
   4        1PZ        -0.05392   0.03422   0.00419  -0.01674  -0.04079
   5 2   C  1S         -0.32716  -0.26292   0.25965   0.28992  -0.12374
   6        1PX         0.38120  -0.08827   0.30272   0.20863   0.14605
   7        1PY        -0.08073   0.00154  -0.22047   0.28511   0.26217
   8        1PZ         0.05445   0.01737  -0.02936  -0.01425   0.02443
   9 3   O  1S          0.17472  -0.00888   0.03707   0.04400   0.00966
  10        1PX         0.47406   0.02371   0.06245  -0.03029  -0.03180
  11        1PY         0.17829  -0.15202  -0.09085   0.21392  -0.08933
  12        1PZ         0.01316  -0.01467   0.01120  -0.00563  -0.00645
  13 4   C  1S         -0.26835   0.41556   0.23943   0.02946   0.21062
  14        1PX         0.21003   0.09399   0.30228  -0.07499   0.16011
  15        1PY         0.29386   0.08627   0.03218   0.37820   0.09205
  16        1PZ        -0.07766   0.05217  -0.00059   0.01354   0.01219
  17 5   C  1S          0.00774  -0.39673  -0.02610  -0.05994  -0.09638
  18        1PX         0.03663   0.16245   0.47266  -0.05876   0.37648
  19        1PY         0.01329   0.14623  -0.16030   0.31056  -0.20587
  20        1PZ         0.07165  -0.02304   0.00413   0.01463   0.00698
  21 6   H  1S         -0.07257   0.19570  -0.06294  -0.22292   0.09076
  22 7   H  1S          0.30869  -0.35490   0.01156  -0.30397  -0.09330
  23 8   H  1S          0.31554   0.22871  -0.42100   0.04872   0.29322
  24 9   H  1S         -0.15869  -0.34970  -0.21708   0.04089   0.51160
                          21        22        23        24
                           V         V         V         V
     Eigenvalues --     0.15846   0.16547   0.18127   0.21912
   1 1   C  1S          0.03899  -0.07361  -0.13350   0.05961
   2        1PX         0.05029   0.41893   0.30605  -0.01816
   3        1PY         0.35638  -0.24956   0.02137  -0.21221
   4        1PZ        -0.00077   0.00061  -0.00073   0.00779
   5 2   C  1S          0.12002  -0.03077   0.07558   0.12620
   6        1PX         0.01501  -0.06722   0.15368  -0.50192
   7        1PY         0.18264   0.51650   0.14677   0.03892
   8        1PZ        -0.01340   0.00387  -0.00636  -0.00372
   9 3   O  1S         -0.04663  -0.06772   0.02035   0.01157
  10        1PX        -0.22640  -0.19044   0.03991  -0.21591
  11        1PY        -0.04879  -0.08437   0.01403   0.52136
  12        1PZ         0.00801  -0.00351  -0.00067  -0.01366
  13 4   C  1S         -0.09456   0.00533  -0.06698  -0.14662
  14        1PX         0.46951  -0.01097  -0.19751   0.29967
  15        1PY        -0.31706  -0.17599   0.13178   0.43753
  16        1PZ        -0.03017  -0.00002   0.00641  -0.00056
  17 5   C  1S         -0.36247   0.27248  -0.12542  -0.07082
  18        1PX        -0.08181   0.14505  -0.30986   0.16618
  19        1PY         0.12164  -0.01647  -0.54617  -0.13925
  20        1PZ         0.01483  -0.00380  -0.01881  -0.00118
  21 6   H  1S          0.22819  -0.25378   0.57596   0.06676
  22 7   H  1S          0.47523   0.06759  -0.11546   0.02622
  23 8   H  1S          0.05508   0.38457   0.05724  -0.03101
  24 9   H  1S          0.00671  -0.30497  -0.12369  -0.04508
     Density Matrix:
                           1         2         3         4         5
   1 1   C  1S          1.22723
   2        1PX         0.06679   0.97304
   3        1PY        -0.00349  -0.02733   0.91154
   4        1PZ        -0.02073   0.00790   0.00960   1.08981
   5 2   C  1S          0.29077  -0.37718  -0.35432   0.03793   1.23619
   6        1PX         0.35809  -0.28158  -0.42293   0.01455   0.06022
   7        1PY         0.29037  -0.32781  -0.18263   0.01437  -0.08136
   8        1PZ        -0.03551   0.01103   0.02660   0.79477   0.02537
   9 3   O  1S          0.00686   0.00232  -0.03154  -0.00121   0.06971
  10        1PX        -0.07252   0.06984   0.03100  -0.00838   0.39457
  11        1PY        -0.03433  -0.00057  -0.02877  -0.00581  -0.18770
  12        1PZ         0.00699   0.00474  -0.00119  -0.22765   0.01564
  13 4   C  1S         -0.03562   0.02968   0.00242   0.00394   0.02128
  14        1PX        -0.01838  -0.00054  -0.06395  -0.00447  -0.04480
  15        1PY         0.01876  -0.00213  -0.07517  -0.00081  -0.03804
  16        1PZ         0.00662  -0.00270  -0.00922  -0.09912  -0.01998
  17 5   C  1S          0.26553  -0.15579   0.43692   0.00814  -0.03788
  18        1PX         0.23430   0.00999   0.36882  -0.00045   0.02564
  19        1PY        -0.42105   0.21273  -0.51581  -0.01830   0.02566
  20        1PZ        -0.02246   0.00055  -0.01145   0.54265  -0.00670
  21 6   H  1S         -0.04486   0.03114  -0.04934  -0.00190   0.06440
  22 7   H  1S          0.05574  -0.02528   0.06313  -0.00400   0.06598
  23 8   H  1S         -0.05977   0.07512   0.06441  -0.01596   0.60349
  24 9   H  1S          0.56981   0.76302  -0.19118   0.02988  -0.06089
                           6         7         8         9        10
   6        1PX         0.81335
   7        1PY         0.05800   0.94301
   8        1PZ         0.00013   0.00940   1.06920
   9 3   O  1S         -0.18327   0.09462  -0.00567   1.91643
  10        1PX        -0.62721   0.42263  -0.02595  -0.21244   1.26050
  11        1PY         0.33502  -0.02556   0.00691  -0.10516   0.02364
  12        1PZ        -0.01468   0.00538   0.44690  -0.00026  -0.00817
  13 4   C  1S         -0.05666  -0.00695   0.01435   0.07735   0.12762
  14        1PX        -0.00052   0.00074  -0.00870  -0.04882   0.11396
  15        1PY        -0.03099   0.02194   0.00535  -0.20849  -0.29268
  16        1PZ        -0.00302  -0.00360  -0.37975   0.00264   0.00766
  17 5   C  1S          0.00636  -0.03089   0.00112   0.00858  -0.07739
  18        1PX        -0.08742   0.00775   0.00797  -0.02652   0.03297
  19        1PY         0.06431   0.00576  -0.00286   0.02062   0.03742
  20        1PZ         0.01030  -0.00070  -0.12096   0.00209   0.00841
  21 6   H  1S          0.04585   0.04385  -0.00372   0.01415   0.05130
  22 7   H  1S         -0.10173   0.06755  -0.01435  -0.03158  -0.04676
  23 8   H  1S         -0.05401  -0.74931  -0.02536  -0.03093  -0.08643
  24 9   H  1S         -0.02579  -0.05963   0.01276   0.01665   0.10493
                          11        12        13        14        15
  11        1PY         1.20168
  12        1PZ         0.01440   1.67598
  13 4   C  1S          0.44031  -0.01469   1.22740
  14        1PX        -0.19571   0.01177  -0.01770   0.94686
  15        1PY        -0.73987   0.00578   0.09937  -0.04929   0.82500
  16        1PZ         0.01006   0.47938  -0.01575   0.00097  -0.00082
  17 5   C  1S         -0.03249  -0.00124   0.28334   0.44706   0.08929
  18        1PX         0.06622  -0.00314  -0.50641  -0.60311  -0.17007
  19        1PY         0.01001   0.00739  -0.05865  -0.07143   0.11712
  20        1PZ         0.00098  -0.24575  -0.03142   0.00289  -0.01264
  21 6   H  1S          0.08030  -0.00105  -0.05645  -0.06154   0.01083
  22 7   H  1S         -0.07223   0.00071   0.60217  -0.59707   0.45679
  23 8   H  1S          0.01106  -0.00281   0.06247  -0.01144  -0.10912
  24 9   H  1S         -0.01635  -0.00286   0.06746   0.07041   0.01041
                          16        17        18        19        20
  16        1PZ         1.03193
  17 5   C  1S          0.00834   1.20478
  18        1PX        -0.01439   0.02593   0.90433
  19        1PY        -0.01682   0.04512   0.02703   0.96206
  20        1PZ         0.78209   0.01076  -0.00888  -0.01059   1.12640
  21 6   H  1S          0.00037   0.60212   0.35256   0.68463   0.01215
  22 7   H  1S          0.04232  -0.05969   0.09399   0.01602   0.01781
  23 8   H  1S          0.01205   0.05656   0.02769  -0.06707   0.00468
  24 9   H  1S         -0.00376  -0.04947  -0.02242   0.06263   0.00741
                          21        22        23        24
  21 6   H  1S          0.88297
  22 7   H  1S          0.01608   0.85741
  23 8   H  1S         -0.01865  -0.03104   0.85024
  24 9   H  1S          0.00302  -0.01749   0.01689   0.86266
    Full Mulliken population analysis:
                           1         2         3         4         5
   1 1   C  1S          1.22723
   2        1PX         0.00000   0.97304
   3        1PY         0.00000   0.00000   0.91154
   4        1PZ         0.00000   0.00000   0.00000   1.08981
   5 2   C  1S          0.00000   0.00000   0.00000   0.00000   1.23619
   6        1PX         0.00000   0.00000   0.00000   0.00000   0.00000
   7        1PY         0.00000   0.00000   0.00000   0.00000   0.00000
   8        1PZ         0.00000   0.00000   0.00000   0.00000   0.00000
   9 3   O  1S          0.00000   0.00000   0.00000   0.00000   0.00000
  10        1PX         0.00000   0.00000   0.00000   0.00000   0.00000
  11        1PY         0.00000   0.00000   0.00000   0.00000   0.00000
  12        1PZ         0.00000   0.00000   0.00000   0.00000   0.00000
  13 4   C  1S          0.00000   0.00000   0.00000   0.00000   0.00000
  14        1PX         0.00000   0.00000   0.00000   0.00000   0.00000
  15        1PY         0.00000   0.00000   0.00000   0.00000   0.00000
  16        1PZ         0.00000   0.00000   0.00000   0.00000   0.00000
  17 5   C  1S          0.00000   0.00000   0.00000   0.00000   0.00000
  18        1PX         0.00000   0.00000   0.00000   0.00000   0.00000
  19        1PY         0.00000   0.00000   0.00000   0.00000   0.00000
  20        1PZ         0.00000   0.00000   0.00000   0.00000   0.00000
  21 6   H  1S          0.00000   0.00000   0.00000   0.00000   0.00000
  22 7   H  1S          0.00000   0.00000   0.00000   0.00000   0.00000
  23 8   H  1S          0.00000   0.00000   0.00000   0.00000   0.00000
  24 9   H  1S          0.00000   0.00000   0.00000   0.00000   0.00000
                           6         7         8         9        10
   6        1PX         0.81335
   7        1PY         0.00000   0.94301
   8        1PZ         0.00000   0.00000   1.06920
   9 3   O  1S          0.00000   0.00000   0.00000   1.91643
  10        1PX         0.00000   0.00000   0.00000   0.00000   1.26050
  11        1PY         0.00000   0.00000   0.00000   0.00000   0.00000
  12        1PZ         0.00000   0.00000   0.00000   0.00000   0.00000
  13 4   C  1S          0.00000   0.00000   0.00000   0.00000   0.00000
  14        1PX         0.00000   0.00000   0.00000   0.00000   0.00000
  15        1PY         0.00000   0.00000   0.00000   0.00000   0.00000
  16        1PZ         0.00000   0.00000   0.00000   0.00000   0.00000
  17 5   C  1S          0.00000   0.00000   0.00000   0.00000   0.00000
  18        1PX         0.00000   0.00000   0.00000   0.00000   0.00000
  19        1PY         0.00000   0.00000   0.00000   0.00000   0.00000
  20        1PZ         0.00000   0.00000   0.00000   0.00000   0.00000
  21 6   H  1S          0.00000   0.00000   0.00000   0.00000   0.00000
  22 7   H  1S          0.00000   0.00000   0.00000   0.00000   0.00000
  23 8   H  1S          0.00000   0.00000   0.00000   0.00000   0.00000
  24 9   H  1S          0.00000   0.00000   0.00000   0.00000   0.00000
                          11        12        13        14        15
  11        1PY         1.20168
  12        1PZ         0.00000   1.67598
  13 4   C  1S          0.00000   0.00000   1.22740
  14        1PX         0.00000   0.00000   0.00000   0.94686
  15        1PY         0.00000   0.00000   0.00000   0.00000   0.82500
  16        1PZ         0.00000   0.00000   0.00000   0.00000   0.00000
  17 5   C  1S          0.00000   0.00000   0.00000   0.00000   0.00000
  18        1PX         0.00000   0.00000   0.00000   0.00000   0.00000
  19        1PY         0.00000   0.00000   0.00000   0.00000   0.00000
  20        1PZ         0.00000   0.00000   0.00000   0.00000   0.00000
  21 6   H  1S          0.00000   0.00000   0.00000   0.00000   0.00000
  22 7   H  1S          0.00000   0.00000   0.00000   0.00000   0.00000
  23 8   H  1S          0.00000   0.00000   0.00000   0.00000   0.00000
  24 9   H  1S          0.00000   0.00000   0.00000   0.00000   0.00000
                          16        17        18        19        20
  16        1PZ         1.03193
  17 5   C  1S          0.00000   1.20478
  18        1PX         0.00000   0.00000   0.90433
  19        1PY         0.00000   0.00000   0.00000   0.96206
  20        1PZ         0.00000   0.00000   0.00000   0.00000   1.12640
  21 6   H  1S          0.00000   0.00000   0.00000   0.00000   0.00000
  22 7   H  1S          0.00000   0.00000   0.00000   0.00000   0.00000
  23 8   H  1S          0.00000   0.00000   0.00000   0.00000   0.00000
  24 9   H  1S          0.00000   0.00000   0.00000   0.00000   0.00000
                          21        22        23        24
  21 6   H  1S          0.88297
  22 7   H  1S          0.00000   0.85741
  23 8   H  1S          0.00000   0.00000   0.85024
  24 9   H  1S          0.00000   0.00000   0.00000   0.86266
     Gross orbital populations:
                           1
   1 1   C  1S          1.22723
   2        1PX         0.97304
   3        1PY         0.91154
   4        1PZ         1.08981
   5 2   C  1S          1.23619
   6        1PX         0.81335
   7        1PY         0.94301
   8        1PZ         1.06920
   9 3   O  1S          1.91643
  10        1PX         1.26050
  11        1PY         1.20168
  12        1PZ         1.67598
  13 4   C  1S          1.22740
  14        1PX         0.94686
  15        1PY         0.82500
  16        1PZ         1.03193
  17 5   C  1S          1.20478
  18        1PX         0.90433
  19        1PY         0.96206
  20        1PZ         1.12640
  21 6   H  1S          0.88297
  22 7   H  1S          0.85741
  23 8   H  1S          0.85024
  24 9   H  1S          0.86266
          Condensed to atoms (all electrons):
               1          2          3          4          5          6
     1  C    4.201621   0.000000   0.000000   0.000000   0.000000   0.000000
     2  C    0.000000   4.061742   0.000000   0.000000   0.000000   0.000000
     3  O    0.000000   0.000000   6.054591   0.000000   0.000000   0.000000
     4  C    0.000000   0.000000   0.000000   4.031191   0.000000   0.000000
     5  C    0.000000   0.000000   0.000000   0.000000   4.197576   0.000000
     6  H    0.000000   0.000000   0.000000   0.000000   0.000000   0.882968
     7  H    0.000000   0.000000   0.000000   0.000000   0.000000   0.000000
     8  H    0.000000   0.000000   0.000000   0.000000   0.000000   0.000000
     9  H    0.000000   0.000000   0.000000   0.000000   0.000000   0.000000
               7          8          9
     1  C    0.000000   0.000000   0.000000
     2  C    0.000000   0.000000   0.000000
     3  O    0.000000   0.000000   0.000000
     4  C    0.000000   0.000000   0.000000
     5  C    0.000000   0.000000   0.000000
     6  H    0.000000   0.000000   0.000000
     7  H    0.857410   0.000000   0.000000
     8  H    0.000000   0.850238   0.000000
     9  H    0.000000   0.000000   0.862662
 Mulliken charges:
               1
     1  C   -0.201621
     2  C   -0.061742
     3  O   -0.054591
     4  C   -0.031191
     5  C   -0.197576
     6  H    0.117032
     7  H    0.142590
     8  H    0.149762
     9  H    0.137338
 Sum of Mulliken charges =   0.00000
 Mulliken charges with hydrogens summed into heavy atoms:
               1
     1  C   -0.064283
     2  C    0.088020
     3  O   -0.054591
     4  C    0.111399
     5  C   -0.080545
 Charge=              0.0000 electrons
 Dipole moment (field-independent basis, Debye):
    X=             -0.2886    Y=             -0.2383    Z=              0.0880  Tot=              0.3844
 N-N= 1.040643742850D+02 E-N=-1.710076756649D+02  KE=-1.729238129775D+01
 Orbital energies and kinetic energies (alpha):
                                 1                 2
   1         O                -1.751922         -1.410999
   2         O                -1.335471         -1.142936
   3         O                -1.138401         -0.974043
   4         O                -0.894226         -0.768492
   5         O                -0.872695         -0.740849
   6         O                -0.733514         -0.628329
   7         O                -0.671528         -0.520407
   8         O                -0.596656         -0.513462
   9         O                -0.549553         -0.441908
  10         O                -0.527808         -0.426962
  11         O                -0.520897         -0.422492
  12         O                -0.420262         -0.347419
  13         O                -0.358120         -0.307893
  14         V                 0.017257         -0.178598
  15         V                 0.040975         -0.187587
  16         V                 0.068883         -0.197060
  17         V                 0.103742         -0.248367
  18         V                 0.116328         -0.170440
  19         V                 0.124170         -0.139352
  20         V                 0.148047         -0.193342
  21         V                 0.158462         -0.152318
  22         V                 0.165472         -0.151838
  23         V                 0.181273         -0.153698
  24         V                 0.219116         -0.014481
 Total kinetic energy from orbitals=-1.729238129775D+01
 Leave Link  601 at Sat Nov 14 17:36:38 2015, MaxMem=    33554432 cpu:         0.0
 (Enter /home/Applications/g09/g09/l701.exe)
 Compute integral first derivatives.
 ... and contract with generalized density number  6.
 Leave Link  701 at Sat Nov 14 17:36:38 2015, MaxMem=    33554432 cpu:         0.0
 (Enter /home/Applications/g09/g09/l702.exe)
 L702 exits ... SP integral derivatives will be done elsewhere.
 Leave Link  702 at Sat Nov 14 17:36:38 2015, MaxMem=    33554432 cpu:         0.0
 (Enter /home/Applications/g09/g09/l703.exe)
 Compute integral first derivatives, UseDBF=F ICtDFT=           0.
 Integral derivatives from FoFJK, PRISM(SPDF).
 Calling FoFJK, ICntrl=  10005127 FMM=F ISym2X=0 I1Cent= 0 IOpClX= 0 NMat=1 NMatS=1 NMatT=0.
 FoFJK:  IHMeth= 8 ICntrl=10005127 DoSepK=F KAlg= 0 I1Cent=   0 FoldK=F
 IRaf=         0 NMat=   1 IRICut=       1 DoRegI=T DoRafI=F ISym2E= 0.
 FoFCou: FMM=F IPFlag=           0 FMFlag=      100000 FMFlg1=         800
         NFxFlg=           0 DoJE=F BraDBF=F KetDBF=F FulRan=T
         wScrn=  0.000000 ICntrl=10005127 IOpCl=  0 I1Cent=           0 NGrid=           0
         NMat0=    1 NMatS0=      1 NMatT0=    0 NMatD0=    1 NMtDS0=    0 NMtDT0=    0
 Symmetry not used in FoFCou.
 Leave Link  703 at Sat Nov 14 17:36:38 2015, MaxMem=    33554432 cpu:         0.0
 (Enter /home/Applications/g09/g09/l716.exe)
 Dipole        = 1.91041636D-01-1.83232321D-03 2.72415091D-01
 ***** Axes restored to original set *****
 -------------------------------------------------------------------
 Center     Atomic                   Forces (Hartrees/Bohr)
 Number     Number              X              Y              Z
 -------------------------------------------------------------------
      1        6           0.093159647    0.001212767    0.007010875
      2        6          -0.063397519   -0.045981881   -0.005460565
      3        8          -0.044931780   -0.026698007   -0.011830322
      4        6          -0.038457223    0.061280545    0.005182949
      5        6           0.006282846   -0.075553780   -0.010364789
      6        1           0.067529250    0.051306673    0.001288668
      7        1          -0.006249877    0.030170505    0.006811159
      8        1          -0.001509175   -0.013218632    0.010353551
      9        1          -0.012426169    0.017481811   -0.002991524
 -------------------------------------------------------------------
 Cartesian Forces:  Max     0.093159647 RMS     0.037428387
 Z-matrix is all fixed cartesians, so copy forces.
 Force constants in Cartesian coordinates: 
                1             2             3             4             5 
      1  0.832342D+00
      2 -0.233810D-01  0.784557D+00
      3 -0.981198D-02 -0.185735D-01  0.190520D+00
      4 -0.464228D+00 -0.900990D-01  0.231157D-01  0.883682D+00
      5 -0.677721D-01 -0.201137D+00  0.850574D-02  0.993317D-02  0.859768D+00
      6  0.226119D-01  0.791100D-02 -0.914112D-01 -0.113224D-01 -0.132691D-01
      7 -0.783688D-02  0.282473D-01 -0.141769D-02 -0.285128D+00  0.160854D+00
      8 -0.590964D-02  0.213828D-01 -0.796911D-03  0.204843D+00 -0.355420D+00
      9  0.137856D-02 -0.261939D-02  0.858470D-02 -0.989868D-02  0.136798D-01
     10  0.883909D-02 -0.123899D-03  0.237066D-03  0.239664D-01  0.181628D-01
     11  0.340029D-01 -0.479052D-03  0.963662D-03 -0.187955D-01 -0.142432D-01
     12  0.417063D-03 -0.212253D-03 -0.645352D-04  0.915256D-03  0.820891D-03
     13 -0.169517D+00  0.894130D-02 -0.761743D-03  0.940529D-02 -0.342917D-01
     14 -0.126526D-01 -0.423702D+00  0.953603D-03 -0.134884D-03  0.481347D-03
     15  0.150270D-03 -0.314298D-02 -0.840592D-01 -0.711924D-03  0.275717D-02
     16  0.194609D-01 -0.271420D-03 -0.803448D-05 -0.222396D-05  0.000000D+00
     17 -0.252997D-01  0.352286D-03 -0.149078D-03  0.000000D+00  0.000000D+00
     18 -0.101858D-02  0.902407D-04  0.213704D-01  0.259558D-03  0.139466D-04
     19  0.000000D+00  0.000000D+00 -0.154061D-03  0.395063D-05  0.221779D-04
     20  0.286628D-05 -0.164014D-05 -0.449738D-03 -0.123176D-05 -0.691478D-05
     21 -0.322978D-04  0.184814D-04  0.506772D-02  0.408827D-04  0.229506D-03
     22  0.703379D-02 -0.257763D-01 -0.922629D-03 -0.162670D+00 -0.104850D+00
     23 -0.352184D-02  0.127959D-01 -0.106373D-03 -0.999842D-01 -0.310343D+00
     24  0.299810D-03  0.351893D-02  0.237449D-01 -0.429428D-02 -0.983229D-02
     25 -0.226095D+00  0.102464D+00 -0.102767D-01 -0.503032D-02  0.179420D-01
     26  0.104531D+00 -0.193769D+00  0.965259D-02 -0.576244D-02  0.209003D-01
     27 -0.139947D-01  0.130095D-01 -0.737532D-01  0.189583D-02 -0.290568D-02
                6             7             8             9            10 
      6  0.178305D+00
      7 -0.514117D-02  0.583669D+00
      8  0.103939D-01  0.375487D-01  0.730228D+00
      9 -0.464111D-01 -0.680774D-02 -0.254511D-01  0.559175D-01
     10 -0.159464D-02 -0.327198D+00 -0.240983D+00  0.172260D-01  0.895990D+00
     11  0.128504D-02 -0.197838D+00 -0.402112D+00  0.165408D-01  0.369370D-01
     12 -0.221307D-02  0.120925D-01  0.141711D-01 -0.471926D-01 -0.201803D-01
     13 -0.341638D-03 -0.742382D-02  0.580980D-02 -0.406604D-03 -0.434728D+00
     14 -0.168100D-03 -0.284758D-01  0.223679D-01 -0.475913D-03  0.776355D-01
     15 -0.192216D-02  0.143871D-02 -0.911439D-03  0.845430D-02 -0.670146D-02
     16 -0.423024D-04  0.000000D+00 -0.179356D-05 -0.418588D-04 -0.495678D-02
     17  0.181562D-04  0.000000D+00  0.000000D+00  0.929257D-05  0.645032D-02
     18  0.493711D-02  0.231078D-04  0.259111D-03  0.604721D-02 -0.595199D-03
     19  0.551424D-03  0.223820D-01 -0.177253D-01 -0.276009D-02 -0.161913D+00
     20 -0.171927D-03  0.104204D-01 -0.826711D-02 -0.160620D-02  0.101921D+00
     21  0.570637D-02 -0.124223D-02  0.118088D-02  0.445178D-02  0.116028D-01
     22 -0.284545D-02  0.215320D-01  0.164104D-01  0.119233D-02 -0.154290D-05
     23 -0.563710D-02 -0.107797D-01 -0.821946D-02 -0.707811D-03  0.000000D+00
     24 -0.675612D-01  0.856673D-03  0.814265D-03  0.468793D-02  0.331336D-04
     25 -0.187570D-02  0.427690D-05  0.735664D-05  0.118061D-03  0.198701D-05
     26 -0.361824D-03  0.228388D-04  0.392847D-04  0.630447D-03  0.000000D+00
     27  0.205700D-01  0.197805D-03  0.340242D-03  0.546026D-02 -0.274450D-04
               11            12            13            14            15 
     11  0.922332D+00
     12  0.415015D-02  0.174954D+00
     13  0.579659D-01 -0.274989D-02  0.938875D+00
     14 -0.196669D+00  0.296474D-04  0.114520D+00  0.853635D+00
     15  0.207255D-02 -0.895623D-01  0.439974D-02 -0.102715D-02  0.205027D+00
     16 -0.190651D-01 -0.166130D-03 -0.361609D+00 -0.177029D+00 -0.166875D-02
     17  0.248050D-01  0.503520D-04 -0.177527D+00 -0.267916D+00 -0.900197D-03
     18 -0.166384D-02  0.221957D-01 -0.128937D-02 -0.473293D-03 -0.868334D-01
     19  0.106802D+00  0.101986D-01  0.684456D-02  0.263882D-01  0.243644D-02
     20 -0.333634D+00 -0.190266D-01  0.314977D-02  0.120952D-01 -0.592423D-03
     21 -0.235501D-01 -0.670479D-01  0.113536D-03  0.108343D-02  0.229752D-01
     22 -0.866145D-05 -0.215356D-03  0.215809D-04  0.115959D-05  0.410496D-03
     23  0.000000D+00 -0.290074D-05 -0.182088D-04  0.000000D+00 -0.346354D-03
     24  0.186004D-03  0.462475D-02  0.310734D-03  0.166964D-04  0.591055D-02
     25 -0.113700D-05 -0.311774D-03  0.181316D-01 -0.251977D-03  0.246479D-03
     26  0.000000D+00  0.196696D-04  0.214505D-01 -0.291699D-03  0.209083D-02
     27  0.157045D-04  0.430629D-02  0.725244D-03  0.610832D-04  0.200104D-01
               16            17            18            19            20 
     16  0.347113D+00
     17  0.196373D+00  0.242757D+00
     18  0.180020D-02  0.101307D-02  0.488117D-01
     19 -0.188585D-05  0.000000D+00  0.272443D-03  0.132684D+00
     20 -0.550522D-05  0.122215D-05  0.795323D-03 -0.115487D+00  0.329814D+00
     21  0.620338D-04 -0.137714D-04 -0.896183D-02 -0.105447D-01  0.210516D-01
     22  0.000000D+00  0.000000D+00  0.000000D+00  0.000000D+00  0.000000D+00
     23  0.000000D+00  0.000000D+00  0.000000D+00  0.000000D+00  0.000000D+00
     24  0.000000D+00  0.000000D+00  0.000000D+00  0.000000D+00  0.000000D+00
     25 -0.469404D-05  0.201468D-05  0.547841D-03  0.000000D+00  0.000000D+00
     26  0.000000D+00  0.000000D+00 -0.345630D-04  0.000000D+00  0.000000D+00
     27  0.648351D-04 -0.278272D-04 -0.756690D-02  0.000000D+00  0.000000D+00
               21            22            23            24            25 
     21  0.378087D-01
     22  0.000000D+00  0.134097D+00
     23  0.000000D+00  0.114293D+00  0.305709D+00
     24  0.000000D+00  0.298077D-02  0.629415D-02  0.372346D-01
     25  0.000000D+00 -0.129767D-04  0.109490D-04 -0.186845D-03  0.213005D+00
     26  0.000000D+00 -0.692959D-04  0.584680D-04 -0.997760D-03 -0.120173D+00
     27  0.000000D+00 -0.600167D-03  0.506388D-03 -0.864154D-02  0.117386D-01
               26            27 
     26  0.173062D+00
     27 -0.109994D-01  0.396147D-01
 Leave Link  716 at Sat Nov 14 17:36:38 2015, MaxMem=    33554432 cpu:         0.0
 (Enter /home/Applications/g09/g09/l103.exe)

 GradGradGradGradGradGradGradGradGradGradGradGradGradGradGradGradGradGrad
 Berny optimization.
 Search for a local minimum.
 Step number   1 out of a maximum of    2
 All quantities printed in internal units (Hartrees-Bohrs-Radians)
 Second derivative matrix not updated -- first step.
 ITU=  0
     Eigenvalues ---    0.01772   0.02952   0.06976   0.07735   0.08280
     Eigenvalues ---    0.08322   0.13016   0.13913   0.16164   0.24298
     Eigenvalues ---    0.26704   0.28155   0.37164   0.45659   0.63587
     Eigenvalues ---    0.87460   1.15143   1.38387   1.41362   1.46455
     Eigenvalues ---    1.63944
 Quadratic step=7.118D-01 exceeds max=3.000D-01 adjusted using Lamda=-1.381D-01.
 Angle between NR and scaled steps=  33.58 degrees.
 Angle between quadratic step and forces=  37.44 degrees.
 Linear search not attempted -- first point.
 TrRot= -0.009015 -0.008649 -0.008809  0.135003 -0.003805 -0.134570
 Variable       Old X    -DE/DX   Delta X   Delta X   Delta X     New X
                                 (Linear)    (Quad)   (Total)
    X1        1.83386   0.09316   0.00000   0.07753   0.06920   1.90306
    Y1       -1.30810   0.00121   0.00000  -0.02267  -0.03048  -1.33857
    Z1       -0.04763   0.00701   0.00000   0.01504   0.01276  -0.03487
    X2       -0.68092  -0.06340   0.00000  -0.05228  -0.06067  -0.74159
    Y2       -1.99913  -0.04598   0.00000  -0.06303  -0.07203  -2.07116
    Z2        0.08653  -0.00546   0.00000  -0.01266  -0.02528   0.06125
    X3       -2.24919  -0.04493   0.00000  -0.07201  -0.08091  -2.33010
    Y3        0.06381  -0.02670   0.00000  -0.02119  -0.03083   0.03298
    Z3        0.01480  -0.01183   0.00000  -0.04600  -0.06354  -0.04874
    X4       -0.69296  -0.03846   0.00000  -0.05468  -0.06442  -0.75737
    Y4        2.04303   0.06128   0.00000   0.07055   0.06160   2.10463
    Z4       -0.07595   0.00518   0.00000   0.02678   0.01623  -0.05972
    X5        1.87129   0.00628   0.00000   0.05215   0.04285   1.91414
    Y5        1.37618  -0.07555   0.00000  -0.03038  -0.03815   1.33803
    Z5       -0.05718  -0.01036   0.00000  -0.02721  -0.02808  -0.08526
    X6        3.35171   0.06753   0.00000   0.13992   0.12999   3.48170
    Y6        2.51460   0.05131   0.00000   0.06867   0.06155   2.57616
    Z6       -0.04868   0.00129   0.00000  -0.01047  -0.00480  -0.05348
    X7       -1.53061  -0.00625   0.00000  -0.02044  -0.03160  -1.56222
    Y7        3.85840   0.03017   0.00000   0.12341   0.11403   3.97243
    Z7        0.05969   0.00681   0.00000   0.05560   0.04297   0.10266
    X8       -1.59087  -0.00151   0.00000  -0.02256  -0.03026  -1.62113
    Y8       -3.82017  -0.01322   0.00000  -0.08008  -0.08948  -3.90965
    Z8        0.04302   0.01035   0.00000   0.06139   0.04451   0.08753
    X9        3.44526  -0.01243   0.00000   0.03401   0.02582   3.47108
    Y9       -2.67434   0.01748   0.00000   0.03096   0.02378  -2.65056
    Z9        0.07528  -0.00299   0.00000   0.00228   0.00524   0.08052
         Item               Value     Threshold  Converged?
 Maximum Force            0.093160     0.000450     NO 
 RMS     Force            0.037428     0.000300     NO 
 Maximum Displacement     0.129985     0.001800     NO 
 RMS     Displacement     0.057067     0.001200     NO 
 Predicted change in Energy=-2.945373D-02
 GradGradGradGradGradGradGradGradGradGradGradGradGradGradGradGradGradGrad

 Leave Link  103 at Sat Nov 14 17:36:38 2015, MaxMem=    33554432 cpu:         0.0
 (Enter /home/Applications/g09/g09/l9999.exe)
 1\1\GINC-DUSTIN-DESKTOP\Force\RAM1-FC\STO-3G\C4H4O1\DUSTIN\14-Nov-2015
 \0\\#P AM1(Input,print) CIS(Singlets,NStates=15) pop(full) force\\AM1-
 Reparam Input\\0,1\C,0.970435,-0.692215,-0.025203\C,-0.360329,-1.05789
 3,0.045792\O,-1.190221,0.033766,0.007832\C,-0.366696,1.081124,-0.04019
 2\C,0.990244,0.728244,-0.030257\H,1.773649,1.33067,-0.02576\H,-0.80996
 5,2.041776,0.031586\H,-0.841852,-2.021548,0.022765\H,1.823155,-1.41519
 8,0.039836\\Version=ES64L-G09RevD.01\State=1-A\HF=-0.4567066\RMSD=4.35
 9e-09\RMSF=3.743e-02\Dipole=0.1760367,-0.0768522,0.2716893\PG=C01 [X(C
 4H4O1)]\\@


 THE SECRET OF SUCCESS IN LIFE IS TO EAT WHAT YOU LIKE, AND LET THE FOOD
 FIGHT IT OUT INSIDE YOU. -- FROM A FORTUNE COOKIE
 Job cpu time:       0 days  0 hours  0 minutes  0.7 seconds.
 File lengths (MBytes):  RWF=      7 Int=      0 D2E=      0 Chk=      2 Scr=      1
 Normal termination of Gaussian 09 at Sat Nov 14 17:36:38 2015.
