 Entering Gaussian System, Link 0=g09
 Input=FuranAM1_60P8.com
 Output=FuranAM1_60P8.log
 Initial command:
 /home/Applications/g09/g09/l1.exe "/home/Applications/g09/scratch/Gau-8873.inp" -scrdir="/home/Applications/g09/scratch/"
 Entering Link 1 = /home/Applications/g09/g09/l1.exe PID=      8875.
  
 Copyright (c) 1988,1990,1992,1993,1995,1998,2003,2009,2013,
            Gaussian, Inc.  All Rights Reserved.
  
 This is part of the Gaussian(R) 09 program.  It is based on
 the Gaussian(R) 03 system (copyright 2003, Gaussian, Inc.),
 the Gaussian(R) 98 system (copyright 1998, Gaussian, Inc.),
 the Gaussian(R) 94 system (copyright 1995, Gaussian, Inc.),
 the Gaussian 92(TM) system (copyright 1992, Gaussian, Inc.),
 the Gaussian 90(TM) system (copyright 1990, Gaussian, Inc.),
 the Gaussian 88(TM) system (copyright 1988, Gaussian, Inc.),
 the Gaussian 86(TM) system (copyright 1986, Carnegie Mellon
 University), and the Gaussian 82(TM) system (copyright 1983,
 Carnegie Mellon University). Gaussian is a federally registered
 trademark of Gaussian, Inc.
  
 This software contains proprietary and confidential information,
 including trade secrets, belonging to Gaussian, Inc.
  
 This software is provided under written license and may be
 used, copied, transmitted, or stored only in accord with that
 written license.
  
 The following legend is applicable only to US Government
 contracts under FAR:
  
                    RESTRICTED RIGHTS LEGEND
  
 Use, reproduction and disclosure by the US Government is
 subject to restrictions as set forth in subparagraphs (a)
 and (c) of the Commercial Computer Software - Restricted
 Rights clause in FAR 52.227-19.
  
 Gaussian, Inc.
 340 Quinnipiac St., Bldg. 40, Wallingford CT 06492
  
  
 ---------------------------------------------------------------
 Warning -- This program may not be used in any manner that
 competes with the business of Gaussian, Inc. or will provide
 assistance to any competitor of Gaussian, Inc.  The licensee
 of this program is prohibited from giving any competitor of
 Gaussian, Inc. access to this program.  By using this program,
 the user acknowledges that Gaussian, Inc. is engaged in the
 business of creating and licensing software in the field of
 computational chemistry and represents and warrants to the
 licensee that it is not a competitor of Gaussian, Inc. and that
 it will not use this program in any manner prohibited above.
 ---------------------------------------------------------------
  

 Cite this work as:
 Gaussian 09, Revision D.01,
 M. J. Frisch, G. W. Trucks, H. B. Schlegel, G. E. Scuseria, 
 M. A. Robb, J. R. Cheeseman, G. Scalmani, V. Barone, B. Mennucci, 
 G. A. Petersson, H. Nakatsuji, M. Caricato, X. Li, H. P. Hratchian, 
 A. F. Izmaylov, J. Bloino, G. Zheng, J. L. Sonnenberg, M. Hada, 
 M. Ehara, K. Toyota, R. Fukuda, J. Hasegawa, M. Ishida, T. Nakajima, 
 Y. Honda, O. Kitao, H. Nakai, T. Vreven, J. A. Montgomery, Jr., 
 J. E. Peralta, F. Ogliaro, M. Bearpark, J. J. Heyd, E. Brothers, 
 K. N. Kudin, V. N. Staroverov, T. Keith, R. Kobayashi, J. Normand, 
 K. Raghavachari, A. Rendell, J. C. Burant, S. S. Iyengar, J. Tomasi, 
 M. Cossi, N. Rega, J. M. Millam, M. Klene, J. E. Knox, J. B. Cross, 
 V. Bakken, C. Adamo, J. Jaramillo, R. Gomperts, R. E. Stratmann, 
 O. Yazyev, A. J. Austin, R. Cammi, C. Pomelli, J. W. Ochterski, 
 R. L. Martin, K. Morokuma, V. G. Zakrzewski, G. A. Voth, 
 P. Salvador, J. J. Dannenberg, S. Dapprich, A. D. Daniels, 
 O. Farkas, J. B. Foresman, J. V. Ortiz, J. Cioslowski, 
 and D. J. Fox, Gaussian, Inc., Wallingford CT, 2013.
 
 ******************************************
 Gaussian 09:  ES64L-G09RevD.01 24-Apr-2013
                15-Dec-2015 
 ******************************************
 ------------------------------------------------------------
 #P AM1(Input,print) CIS(Singlets,NStates=15) pop(full) force
 ------------------------------------------------------------
 1/10=7,30=1,38=1/1,3;
 2/12=2,17=6,18=5,40=1/2;
 3/5=2,16=1,25=1,41=700000,71=1,135=100,136=1/1,2,8,3;
 4/35=1/1;
 5/5=2,35=1,38=5/2;
 8/6=1,10=1,108=15/1;
 9/15=2,41=15,42=1,48=1,49=10/14;
 10/5=4/2;
 6/7=3,18=1/1;
 7/12=6,13=5,29=1/1,2,3,16;
 1/10=7,30=1/3;
 99//99;
 Leave Link    1 at Tue Dec 15 17:07:01 2015, MaxMem=           0 cpu:         0.0
 (Enter /home/Applications/g09/g09/l101.exe)
 -----------------
 AM1-Reparam Input
 -----------------
 Symbolic Z-matrix:
 Charge =  0 Multiplicity = 1
 6                     0.96407  -0.6902    0.04665 
 6                    -0.38008  -1.04309   0.01954 
 8                    -1.18844  -0.02265   0.00926 
 6                    -0.35639   1.0654    0.04339 
 6                     0.96261   0.70231   0.04212 
 1                     1.8383    1.38486   0.04833 
 1                    -0.81577   2.06849   0.02137 
 1                    -0.80592  -1.99927   0.03051 
 1                     1.79127  -1.39701  -0.01248 
 
 NAtoms=      9 NQM=        9 NQMF=       0 NMMI=      0 NMMIF=      0
                NMic=       0 NMicF=      0.
                    Isotopes and Nuclear Properties:
 (Nuclear quadrupole moments (NQMom) in fm**2, nuclear magnetic moments (NMagM)
  in nuclear magnetons)

  Atom         1           2           3           4           5           6           7           8           9
 IAtWgt=          12          12          16          12          12           1           1           1           1
 AtmWgt=  12.0000000  12.0000000  15.9949146  12.0000000  12.0000000   1.0078250   1.0078250   1.0078250   1.0078250
 NucSpn=           0           0           0           0           0           1           1           1           1
 AtZEff=   0.0000000   0.0000000   0.0000000   0.0000000   0.0000000   0.0000000   0.0000000   0.0000000   0.0000000
 NQMom=    0.0000000   0.0000000   0.0000000   0.0000000   0.0000000   0.0000000   0.0000000   0.0000000   0.0000000
 NMagM=    0.0000000   0.0000000   0.0000000   0.0000000   0.0000000   2.7928460   2.7928460   2.7928460   2.7928460
 AtZNuc=   6.0000000   6.0000000   8.0000000   6.0000000   6.0000000   1.0000000   1.0000000   1.0000000   1.0000000
 Leave Link  101 at Tue Dec 15 17:07:01 2015, MaxMem=    33554432 cpu:         0.0
 (Enter /home/Applications/g09/g09/l103.exe)

 GradGradGradGradGradGradGradGradGradGradGradGradGradGradGradGradGradGrad
 Berny optimization.
 Initialization pass.
 Trust Radius=3.00D-01 FncErr=1.00D-07 GrdErr=1.00D-07
 Number of steps in this run=      2 maximum allowed number of steps=      2.
 GradGradGradGradGradGradGradGradGradGradGradGradGradGradGradGradGradGrad

 Leave Link  103 at Tue Dec 15 17:07:01 2015, MaxMem=    33554432 cpu:         0.0
 (Enter /home/Applications/g09/g09/l202.exe)
                          Input orientation:                          
 ---------------------------------------------------------------------
 Center     Atomic      Atomic             Coordinates (Angstroms)
 Number     Number       Type             X           Y           Z
 ---------------------------------------------------------------------
      1          6           0        0.964074   -0.690201    0.046651
      2          6           0       -0.380080   -1.043094    0.019540
      3          8           0       -1.188442   -0.022654    0.009263
      4          6           0       -0.356388    1.065400    0.043385
      5          6           0        0.962608    0.702308    0.042123
      6          1           0        1.838300    1.384862    0.048333
      7          1           0       -0.815771    2.068490    0.021372
      8          1           0       -0.805915   -1.999270    0.030511
      9          1           0        1.791271   -1.397012   -0.012479
 ---------------------------------------------------------------------
                    Distance matrix (angstroms):
                    1          2          3          4          5
     1  C    0.000000
     2  C    1.389971   0.000000
     3  O    2.253961   1.301865   0.000000
     4  C    2.196762   2.108762   1.370160   0.000000
     5  C    1.392517   2.202215   2.270169   1.368060   0.000000
     6  H    2.251702   3.288922   3.338232   2.217822   1.110295
     7  H    3.283118   3.141940   2.124127   1.103498   2.242658
     8  H    2.201541   1.046770   2.013402   3.097490   3.228983
     9  H    1.089648   2.200238   3.281466   3.267879   2.257611
                    6          7          8          9
     6  H    0.000000
     7  H    2.740833   0.000000
     8  H    4.294711   4.067782   0.000000
     9  H    2.782936   4.336764   2.666447   0.000000
 Stoichiometry    C4H4O
 Framework group  C1[X(C4H4O)]
 Deg. of freedom    21
 Full point group                 C1      NOp   1
 Largest Abelian subgroup         C1      NOp   1
 Largest concise Abelian subgroup C1      NOp   1
                         Standard orientation:                         
 ---------------------------------------------------------------------
 Center     Atomic      Atomic             Coordinates (Angstroms)
 Number     Number       Type             X           Y           Z
 ---------------------------------------------------------------------
      1          6           0        0.620232    1.021634   -0.011508
      2          6           0       -0.753987    0.813278   -0.000132
      3          8           0       -1.092145   -0.443872    0.008531
      4          6           0        0.103143   -1.113403   -0.010312
      5          6           0        1.170354   -0.257542    0.001872
      6          1           0        2.244777   -0.537404    0.008794
      7          1           0        0.078390   -2.216367    0.013477
      8          1           0       -1.523544    1.522542   -0.021462
      9          1           0        1.099085    1.998400    0.051417
 ---------------------------------------------------------------------
 Rotational constants (GHZ):     10.0129199      9.0097999      4.7430949
 Leave Link  202 at Tue Dec 15 17:07:01 2015, MaxMem=    33554432 cpu:         0.0
 (Enter /home/Applications/g09/g09/l301.exe)

 Semi-emprical parameters in input format:
 Method=8 CoreType=1 PeptideFC=0.0106250000 RIJScale=0.5404210000
 ****
 H       
 PQN=1 NValence=1 F0ss=0.4721550000 ZetaOverlap=1.0856700000 U=-0.4186260000
 Beta=-0.2268830000 CoreKO=1.0354420000 KON=0,0,0,1.0458670000 KON=1,0,1,0.9802520000
 KON=0,1,1,1.0589200000 KON=2,1,1,1.0697690000 EISol=-0.4188110042 EHeat=0.0830298228
 Alpha=1.4609850000
 GCore=0.0085280000,1.5127750000,2.2676710000
 GCore=0.0003530000,1.4551640000,3.4779940000
 GCore=-0.0013010000,0.5600570000,3.8358530000
 ****
 C       
 PQN=2,2 NValence=4 F0ss=0.4494440000 F0sp=0.4261420000 F0pp=0.3497590000 F2pp=0.1898720000
 G1sp=0.2701540000
 ZetaOverlap=1.8086650000,1.3781170000
 U=-1.8586070000,-1.4557970000
 Beta=-0.5453250000,-0.3063130000 DDN=0,1,0.7859360000 DDN=1,1,0.7268010000
 CoreKO=1.1356210000 KON=0,0,0,1.1124280000 KON=1,0,1,0.8998210000 KON=0,1,1,1.1012040000
 KON=2,1,1,0.7783930000 EISol=-4.4398989268 EHeat=0.2723305520 Alpha=1.2756240000
 DipHyp=1.5717815688
 GCore=0.0007890000,1.4001430000,2.6678360000
 GCore=0.0035050000,1.4001430000,3.3106540000
 GCore=-0.0015090000,1.3017660000,3.8739390000
 GCore=-0.0001030000,1.4001430000,4.6088130000
 ****
 O       
 PQN=2,2 NValence=6 F0ss=0.5666750000 F0sp=0.5321300000 F0pp=0.4958710000 F2pp=0.2358080000
 G1sp=0.4216980000
 ZetaOverlap=2.6354490000,2.5240390000
 U=-3.5951870000,-2.0345890000
 Beta=-1.1573400000,-1.2994290000 DDN=0,1,0.4953610000 DDN=1,1,0.5082060000
 CoreKO=0.8822960000 KON=0,0,0,0.8891460000 KON=1,0,1,0.5019540000 KON=0,1,1,0.8682050000
 KON=2,1,1,0.5515580000 EISol=-11.6164441184 EHeat=0.0949133088 Alpha=2.3583550000
 DipHyp=0.9906650029
 GCore=0.0204720000,1.2640290000,1.6023330000
 GCore=0.0056550000,1.9602000000,2.7307880000
 ****
 
 Standard basis: VSTO-6G (5D, 7F)
 Ernie: Thresh=  0.10000D-02 Tol=  0.10000D-05 Strict=F.
  NNHCO=     0 NNPyr=     0 NCTC=     0               EPep=         0.000000000
    EC=        68.743075430  ECS=         2.480902020   EG=         0.414863520
   EHC=         0.000000000  EAt=       -31.051283842  AtH=         1.516354808
 EPDDG=         0.000000000  ECC=        71.638840969 EAtT=        32.567638650
 There are    24 symmetry adapted cartesian basis functions of A   symmetry.
 There are    24 symmetry adapted basis functions of A   symmetry.
    24 basis functions,   144 primitive gaussians,    24 cartesian basis functions
    13 alpha electrons       13 beta electrons
       nuclear repulsion energy       104.2064796197 Hartrees.
 IExCor=    0 DFT=F Ex=HF Corr=None ExCW=0 ScaHFX=  1.000000
 ScaDFX=  1.000000  1.000000  1.000000  1.000000 ScalE2=  1.000000  1.000000
 IRadAn=      0 IRanWt=     -1 IRanGd=            0 ICorTp=0 IEmpDi=  4
 Integral buffers will be    131072 words long.
 Regular integral format.
 Two-electron integral symmetry is turned off.
 Leave Link  301 at Tue Dec 15 17:07:02 2015, MaxMem=    33554432 cpu:         0.0
 (Enter /home/Applications/g09/g09/l302.exe)
 Do NDO integrals.
 NPDir=0 NMtPBC=     1 NCelOv=     1 NCel=       1 NClECP=     1 NCelD=      1
         NCelK=      1 NCelE2=     1 NClLst=     1 CellRange=     0.0.
 One-electron integrals computed using PRISM.
 NBasis=    24 RedAO= F EigKep=  0.00D+00  NBF=    24
 NBsUse=    24 1.00D-04 EigRej=  0.00D+00 NBFU=    24
 Leave Link  302 at Tue Dec 15 17:07:02 2015, MaxMem=    33554432 cpu:         0.0
 (Enter /home/Applications/g09/g09/l308.exe)
 Leave Link  308 at Tue Dec 15 17:07:02 2015, MaxMem=    33554432 cpu:         0.0
 (Enter /home/Applications/g09/g09/l303.exe)
 DipDrv:  MaxL=1.
 Leave Link  303 at Tue Dec 15 17:07:02 2015, MaxMem=    33554432 cpu:         0.0
 (Enter /home/Applications/g09/g09/l401.exe)
 Simple Huckel Guess.
 JPrj=0 DoOrth=F DoCkMO=F.
 Leave Link  401 at Tue Dec 15 17:07:02 2015, MaxMem=    33554432 cpu:         0.0
 (Enter /home/Applications/g09/g09/l502.exe)
 Closed shell SCF:
 Using DIIS extrapolation, IDIIS=  1040.
 Overlap will be assumed to be unity.
 Two-electron integral symmetry not used.
 Keep J ints in memory in canonical form, NReq=888082.
 IVT=       79475 IEndB=       79475 NGot=    33554432 MDV=    33473473
 LenX=    33473473 LenY=    33472456
 Requested convergence on RMS density matrix=1.00D-08 within 128 cycles.
 Requested convergence on MAX density matrix=1.00D-06.
 Requested convergence on             energy=1.00D-06.
 No special actions if energy rises.
 FoFCou: FMM=F IPFlag=           0 FMFlag=           0 FMFlg1=           0
         NFxFlg=           0 DoJE=F BraDBF=F KetDBF=F FulRan=T
         wScrn=  0.000000 ICntrl=     600 IOpCl=  2 I1Cent=           0 NGrid=           0
         NMat0=    1 NMatS0=     54 NMatT0=    0 NMatD0=    1 NMtDS0=    0 NMtDT0=    0
 Symmetry not used in FoFCou.

 Cycle   1  Pass 1  IDiag  1:
 E=  4.03420182912771    
 DIIS: error= 1.47D-01 at cycle   1 NSaved=   1.
 NSaved= 1 IEnMin= 1 EnMin=  4.03420182912771     IErMin= 1 ErrMin= 1.47D-01
 ErrMax= 1.47D-01  0.00D+00 EMaxC= 1.00D-01 BMatC= 5.28D-01 BMatP= 5.28D-01
 IDIUse=3 WtCom= 0.00D+00 WtEn= 1.00D+00
 Coeff-Com:  0.100D+01
 Coeff-En:   0.100D+01
 Coeff:      0.100D+01
 GapD=    2.000 DampG=2.000 DampE=0.250 DampFc=0.5000 IDamp=-1.
 Damping current iteration by 5.00D-01
 RMSDP=6.38D-02 MaxDP=6.73D-01              OVMax= 0.00D+00

 Cycle   2  Pass 1  IDiag  1:
 E=  3.01991543032169     Delta-E=       -1.014286398806 Rises=F Damp=T
 DIIS: error= 8.57D-02 at cycle   2 NSaved=   2.
 NSaved= 2 IEnMin= 2 EnMin=  3.01991543032169     IErMin= 2 ErrMin= 8.57D-02
 ErrMax= 8.57D-02  0.00D+00 EMaxC= 1.00D-01 BMatC= 1.81D-01 BMatP= 5.28D-01
 IDIUse=3 WtCom= 1.43D-01 WtEn= 8.57D-01
 Coeff-Com: -0.118D+01 0.218D+01
 Coeff-En:   0.000D+00 0.100D+01
 Coeff:     -0.168D+00 0.117D+01
 RMSDP=3.60D-02 MaxDP=3.48D-01 DE=-1.01D+00 OVMax= 0.00D+00

 Cycle   3  Pass 1  IDiag  1:
 E=  1.74809769777538     Delta-E=       -1.271817732546 Rises=F Damp=F
 DIIS: error= 1.82D-02 at cycle   3 NSaved=   3.
 NSaved= 3 IEnMin= 3 EnMin=  1.74809769777538     IErMin= 3 ErrMin= 1.82D-02
 ErrMax= 1.82D-02  0.00D+00 EMaxC= 1.00D-01 BMatC= 1.28D-02 BMatP= 1.81D-01
 IDIUse=3 WtCom= 8.18D-01 WtEn= 1.82D-01
 Coeff-Com:  0.358D+00-0.800D+00 0.144D+01
 Coeff-En:   0.000D+00 0.000D+00 0.100D+01
 Coeff:      0.293D+00-0.655D+00 0.136D+01
 RMSDP=1.06D-02 MaxDP=6.00D-02 DE=-1.27D+00 OVMax= 0.00D+00

 Cycle   4  Pass 1  IDiag  3:
 E=  1.69780981248452     Delta-E=       -0.050287885291 Rises=F Damp=F
 DIIS: error= 4.81D-03 at cycle   4 NSaved=   4.
 NSaved= 4 IEnMin= 4 EnMin=  1.69780981248452     IErMin= 4 ErrMin= 4.81D-03
 ErrMax= 4.81D-03  0.00D+00 EMaxC= 1.00D-01 BMatC= 1.14D-03 BMatP= 1.28D-02
 IDIUse=3 WtCom= 9.52D-01 WtEn= 4.81D-02
 Coeff-Com: -0.752D-01 0.147D+00-0.465D+00 0.139D+01
 Coeff-En:   0.000D+00 0.000D+00 0.000D+00 0.100D+01
 Coeff:     -0.716D-01 0.140D+00-0.442D+00 0.137D+01
 Gap=     0.420 Goal=   None    Shift=    0.000
 RMSDP=4.09D-03 MaxDP=2.54D-02 DE=-5.03D-02 OVMax= 4.05D-02

 Cycle   5  Pass 1  IDiag  3:
 E=  1.69256207904701     Delta-E=       -0.005247733438 Rises=F Damp=F
 DIIS: error= 1.23D-03 at cycle   5 NSaved=   5.
 NSaved= 5 IEnMin= 5 EnMin=  1.69256207904701     IErMin= 5 ErrMin= 1.23D-03
 ErrMax= 1.23D-03  0.00D+00 EMaxC= 1.00D-01 BMatC= 4.88D-05 BMatP= 1.14D-03
 IDIUse=3 WtCom= 9.88D-01 WtEn= 1.23D-02
 Coeff-Com:  0.178D-01-0.326D-01 0.134D+00-0.574D+00 0.145D+01
 Coeff-En:   0.000D+00 0.000D+00 0.000D+00 0.000D+00 0.100D+01
 Coeff:      0.176D-01-0.322D-01 0.133D+00-0.567D+00 0.145D+01
 Gap=     0.421 Goal=   None    Shift=    0.000
 RMSDP=9.55D-04 MaxDP=6.05D-03 DE=-5.25D-03 OVMax= 7.32D-03

 Cycle   6  Pass 1  IDiag  3:
 E=  1.69231003057300     Delta-E=       -0.000252048474 Rises=F Damp=F
 DIIS: error= 2.32D-04 at cycle   6 NSaved=   6.
 NSaved= 6 IEnMin= 6 EnMin=  1.69231003057300     IErMin= 6 ErrMin= 2.32D-04
 ErrMax= 2.32D-04  0.00D+00 EMaxC= 1.00D-01 BMatC= 1.76D-06 BMatP= 4.88D-05
 IDIUse=3 WtCom= 9.98D-01 WtEn= 2.32D-03
 Coeff-Com: -0.164D-02 0.314D-02-0.256D-01 0.134D+00-0.510D+00 0.140D+01
 Coeff-En:   0.000D+00 0.000D+00 0.000D+00 0.000D+00 0.000D+00 0.100D+01
 Coeff:     -0.163D-02 0.313D-02-0.256D-01 0.134D+00-0.509D+00 0.140D+01
 Gap=     0.421 Goal=   None    Shift=    0.000
 RMSDP=1.82D-04 MaxDP=1.17D-03 DE=-2.52D-04 OVMax= 1.14D-03

 Cycle   7  Pass 1  IDiag  3:
 E=  1.69230171081351     Delta-E=       -0.000008319759 Rises=F Damp=F
 DIIS: error= 2.25D-05 at cycle   7 NSaved=   7.
 NSaved= 7 IEnMin= 7 EnMin=  1.69230171081351     IErMin= 7 ErrMin= 2.25D-05
 ErrMax= 2.25D-05  0.00D+00 EMaxC= 1.00D-01 BMatC= 3.19D-08 BMatP= 1.76D-06
 IDIUse=1 WtCom= 1.00D+00 WtEn= 0.00D+00
 Coeff-Com:  0.200D-03-0.357D-03 0.831D-02-0.483D-01 0.198D+00-0.607D+00
 Coeff-Com:  0.145D+01
 Coeff:      0.200D-03-0.357D-03 0.831D-02-0.483D-01 0.198D+00-0.607D+00
 Coeff:      0.145D+01
 Gap=     0.421 Goal=   None    Shift=    0.000
 RMSDP=2.19D-05 MaxDP=1.26D-04 DE=-8.32D-06 OVMax= 1.27D-04

 Cycle   8  Pass 1  IDiag  3:
 E=  1.69230156889054     Delta-E=       -0.000000141923 Rises=F Damp=F
 DIIS: error= 3.93D-06 at cycle   8 NSaved=   8.
 NSaved= 8 IEnMin= 8 EnMin=  1.69230156889054     IErMin= 8 ErrMin= 3.93D-06
 ErrMax= 3.93D-06  0.00D+00 EMaxC= 1.00D-01 BMatC= 7.85D-10 BMatP= 3.19D-08
 IDIUse=1 WtCom= 1.00D+00 WtEn= 0.00D+00
 Coeff-Com:  0.102D-04-0.471D-04-0.128D-02 0.879D-02-0.409D-01 0.134D+00
 Coeff-Com: -0.406D+00 0.130D+01
 Coeff:      0.102D-04-0.471D-04-0.128D-02 0.879D-02-0.409D-01 0.134D+00
 Coeff:     -0.406D+00 0.130D+01
 Gap=     0.421 Goal=   None    Shift=    0.000
 RMSDP=3.37D-06 MaxDP=2.18D-05 DE=-1.42D-07 OVMax= 2.28D-05

 Cycle   9  Pass 1  IDiag  3:
 E=  1.69230156543350     Delta-E=       -0.000000003457 Rises=F Damp=F
 DIIS: error= 9.60D-07 at cycle   9 NSaved=   9.
 NSaved= 9 IEnMin= 9 EnMin=  1.69230156543350     IErMin= 9 ErrMin= 9.60D-07
 ErrMax= 9.60D-07  0.00D+00 EMaxC= 1.00D-01 BMatC= 2.78D-11 BMatP= 7.85D-10
 IDIUse=1 WtCom= 1.00D+00 WtEn= 0.00D+00
 Coeff-Com:  0.250D-05 0.160D-05 0.145D-03-0.109D-02 0.560D-02-0.186D-01
 Coeff-Com:  0.591D-01-0.295D+00 0.125D+01
 Coeff:      0.250D-05 0.160D-05 0.145D-03-0.109D-02 0.560D-02-0.186D-01
 Coeff:      0.591D-01-0.295D+00 0.125D+01
 Gap=     0.421 Goal=   None    Shift=    0.000
 RMSDP=6.69D-07 MaxDP=5.17D-06 DE=-3.46D-09 OVMax= 5.22D-06

 Cycle  10  Pass 1  IDiag  3:
 E=  1.69230156528941     Delta-E=       -0.000000000144 Rises=F Damp=F
 DIIS: error= 3.20D-07 at cycle  10 NSaved=  10.
 NSaved=10 IEnMin=10 EnMin=  1.69230156528941     IErMin=10 ErrMin= 3.20D-07
 ErrMax= 3.20D-07  0.00D+00 EMaxC= 1.00D-01 BMatC= 2.87D-12 BMatP= 2.78D-11
 IDIUse=1 WtCom= 1.00D+00 WtEn= 0.00D+00
 Coeff-Com:  0.710D-06-0.304D-05-0.236D-04 0.219D-03-0.129D-02 0.426D-02
 Coeff-Com: -0.143D-01 0.958D-01-0.652D+00 0.157D+01
 Coeff:      0.710D-06-0.304D-05-0.236D-04 0.219D-03-0.129D-02 0.426D-02
 Coeff:     -0.143D-01 0.958D-01-0.652D+00 0.157D+01
 Gap=     0.421 Goal=   None    Shift=    0.000
 RMSDP=2.82D-07 MaxDP=2.46D-06 DE=-1.44D-10 OVMax= 2.76D-06

 Cycle  11  Pass 1  IDiag  3:
 E=  1.69230156527081     Delta-E=       -0.000000000019 Rises=F Damp=F
 DIIS: error= 9.47D-08 at cycle  11 NSaved=  11.
 NSaved=11 IEnMin=11 EnMin=  1.69230156527081     IErMin=11 ErrMin= 9.47D-08
 ErrMax= 9.47D-08  0.00D+00 EMaxC= 1.00D-01 BMatC= 2.06D-13 BMatP= 2.87D-12
 IDIUse=1 WtCom= 1.00D+00 WtEn= 0.00D+00
 Coeff-Com: -0.608D-06 0.136D-05 0.134D-05-0.262D-04 0.209D-03-0.633D-03
 Coeff-Com:  0.253D-02-0.276D-01 0.256D+00-0.844D+00 0.161D+01
 Coeff:     -0.608D-06 0.136D-05 0.134D-05-0.262D-04 0.209D-03-0.633D-03
 Coeff:      0.253D-02-0.276D-01 0.256D+00-0.844D+00 0.161D+01
 Gap=     0.421 Goal=   None    Shift=    0.000
 RMSDP=8.53D-08 MaxDP=7.62D-07 DE=-1.86D-11 OVMax= 8.40D-07

 Cycle  12  Pass 1  IDiag  3:
 E=  1.69230156526950     Delta-E=       -0.000000000001 Rises=F Damp=F
 DIIS: error= 1.64D-08 at cycle  12 NSaved=  12.
 NSaved=12 IEnMin=12 EnMin=  1.69230156526950     IErMin=12 ErrMin= 1.64D-08
 ErrMax= 1.64D-08  0.00D+00 EMaxC= 1.00D-01 BMatC= 5.72D-15 BMatP= 2.06D-13
 IDIUse=1 WtCom= 1.00D+00 WtEn= 0.00D+00
 Coeff-Com:  0.493D-07-0.872D-07 0.250D-06 0.269D-06-0.215D-04 0.400D-04
 Coeff-Com: -0.284D-03 0.680D-02-0.763D-01 0.275D+00-0.641D+00 0.144D+01
 Coeff:      0.493D-07-0.872D-07 0.250D-06 0.269D-06-0.215D-04 0.400D-04
 Coeff:     -0.284D-03 0.680D-02-0.763D-01 0.275D+00-0.641D+00 0.144D+01
 Gap=     0.421 Goal=   None    Shift=    0.000
 RMSDP=1.15D-08 MaxDP=8.76D-08 DE=-1.31D-12 OVMax= 9.45D-08

 Cycle  13  Pass 1  IDiag  3:
 E=  1.69230156526942     Delta-E=        0.000000000000 Rises=F Damp=F
 DIIS: error= 1.98D-09 at cycle  13 NSaved=  13.
 NSaved=13 IEnMin=13 EnMin=  1.69230156526942     IErMin=13 ErrMin= 1.98D-09
 ErrMax= 1.98D-09  0.00D+00 EMaxC= 1.00D-01 BMatC= 2.32D-16 BMatP= 5.72D-15
 IDIUse=1 WtCom= 1.00D+00 WtEn= 0.00D+00
 Coeff-Com: -0.127D-08 0.157D-08-0.474D-07-0.142D-06 0.718D-05-0.115D-04
 Coeff-Com:  0.906D-04-0.233D-02 0.263D-01-0.952D-01 0.230D+00-0.631D+00
 Coeff-Com:  0.147D+01
 Coeff:     -0.127D-08 0.157D-08-0.474D-07-0.142D-06 0.718D-05-0.115D-04
 Coeff:      0.906D-04-0.233D-02 0.263D-01-0.952D-01 0.230D+00-0.631D+00
 Coeff:      0.147D+01
 Gap=     0.421 Goal=   None    Shift=    0.000
 RMSDP=2.23D-09 MaxDP=1.14D-08 DE=-8.53D-14 OVMax= 1.58D-08

 Cycle  14  Pass 2  IDiag  1:
 SCF Done:  E(RAM1) =   1.69230156527     A.U. after   14 cycles
            NFock= 13  Conv=0.22D-08     -V/T= 1.1073
 KE=-1.576777193175D+01 PE=-1.699322275185D+02 EE= 8.318582139585D+01
 Leave Link  502 at Tue Dec 15 17:07:02 2015, MaxMem=    33554432 cpu:         0.0
 (Enter /home/Applications/g09/g09/l801.exe)
 Range of M.O.s used for correlation:     1    24
 NBasis=    24 NAE=    13 NBE=    13 NFC=     0 NFV=     0
 NROrb=     24 NOA=    13 NOB=    13 NVA=    11 NVB=    11
 Leave Link  801 at Tue Dec 15 17:07:02 2015, MaxMem=    33554432 cpu:         0.0
 (Enter /home/Applications/g09/g09/l914.exe)
 RHF ground state
 MDV=    33554432 DFT=F DoStab=F Mixed=F DoRPA=F DoScal=F NonHer=F
 Making orbital integer symmetry assigments:
 Orbital symmetries:
       Occupied  (A) (A) (A) (A) (A) (A) (A) (A) (A) (A) (A) (A)
                 (A)
       Virtual   (A) (A) (A) (A) (A) (A) (A) (A) (A) (A) (A)
    60 initial guesses have been made.
 Convergence on wavefunction:    0.000001000000000
 Davidson Disk Diagonalization:  ConvIn= 1.00D-06 SkipCon=T Conv= 1.00D-06.
 Max sub-space:   240 roots to seek:    60 dimension of matrix:          286
 Iteration     1 Dimension    60 NMult     0 NNew     60
 CISAX will form    60 AO SS matrices at one time.
 NMat=    60 NSing=    60 JSym2X= 0.
 FoFJK:  IHMeth= 8 ICntrl=       0 DoSepK=F KAlg= 0 I1Cent=   0 FoldK=F
 IRaf=         1 NMat= 120 IRICut=       1 DoRegI=T DoRafI=F ISym2E= 0.
 FoFCou: FMM=F IPFlag=           0 FMFlag=      100000 FMFlg1=           0
         NFxFlg=           0 DoJE=F BraDBF=F KetDBF=F FulRan=T
         wScrn=  0.000000 ICntrl=       0 IOpCl=  0 I1Cent=           0 NGrid=           0
         NMat0=  120 NMatS0=     60 NMatT0=    0 NMatD0=  120 NMtDS0=    0 NMtDT0=    0
 Symmetry not used in FoFCou.
 New state      4 was old state      5
 New state      5 was old state      4
 New state      6 was old state     12
 New state      7 was old state      8
 New state      8 was old state      7
 New state      9 was old state      6
 New state     10 was old state      9
 New state     11 was old state     10
 New state     12 was old state     13
 New state     13 was old state     14
 New state     14 was old state     15
 New state     15 was old state     11
 Excitation Energies [eV] at current iteration:
 Root      1 :     5.721929442228188
 Root      2 :     6.489501552496874
 Root      3 :     6.830974106811576
 Root      4 :     7.373714907348573
 Root      5 :     7.920535484942197
 Root      6 :     8.013920871151809
 Root      7 :     8.157619812011806
 Root      8 :     8.544045036517778
 Root      9 :     8.703234236829225
 Root     10 :     8.802924201602419
 Root     11 :     9.172790606435740
 Root     12 :     9.483956082599789
 Root     13 :     9.658603160941158
 Root     14 :     9.957602506530950
 Root     15 :    10.003772698035140
 Root     16 :    10.137316413291530
 Root     17 :    10.424773357638970
 Root     18 :    10.571992088947250
 Root     19 :    10.691294355737550
 Root     20 :    10.959905660127630
 Root     21 :    10.998533820637450
 Root     22 :    11.323047599868260
 Root     23 :    11.503733821300200
 Root     24 :    11.630077881122080
 Root     25 :    11.763270220184590
 Root     26 :    11.849120225261680
 Root     27 :    11.968816732478050
 Root     28 :    11.981133091119690
 Root     29 :    12.297668290812140
 Root     30 :    12.388760650328940
 Root     31 :    12.626079513923300
 Root     32 :    12.749469332344010
 Root     33 :    12.852598466850010
 Root     34 :    12.883852614841110
 Root     35 :    12.987228421018380
 Root     36 :    13.207976768287210
 Root     37 :    13.241344411939570
 Root     38 :    13.518687270089870
 Root     39 :    13.617363784957100
 Root     40 :    14.019209060450050
 Root     41 :    14.365278223075550
 Root     42 :    14.387054372242620
 Root     43 :    14.607895265371100
 Root     44 :    14.742482701750340
 Root     45 :    14.890248939418840
 Root     46 :    15.172172374778250
 Root     47 :    15.366506591568730
 Root     48 :    15.452885474898830
 Root     49 :    15.469027543152900
 Root     50 :    15.792485761351950
 Root     51 :    16.008345663821670
 Root     52 :    16.094855706363150
 Root     53 :    16.135089086591780
 Root     54 :    16.158429663063870
 Root     55 :    16.442371262618930
 Root     56 :    16.673485822043650
 Root     57 :    16.807229363969500
 Root     58 :    16.821802125359480
 Root     59 :    17.704637178968540
 Root     60 :    18.170489831795740
 Iteration     2 Dimension   120 NMult    60 NNew     60
 CISAX will form    60 AO SS matrices at one time.
 NMat=    60 NSing=    60 JSym2X= 0.
 Root      1 not converged, maximum delta is    0.019707571938622
 Root      2 not converged, maximum delta is    0.027988570749582
 Root      3 not converged, maximum delta is    0.021245959489474
 Root      4 not converged, maximum delta is    0.029798568393883
 Root      5 not converged, maximum delta is    0.021747642589822
 Root      6 not converged, maximum delta is    0.040679682399227
 Root      7 not converged, maximum delta is    0.019355290393318
 Root      8 not converged, maximum delta is    0.047006746375826
 Root      9 not converged, maximum delta is    0.018895354384771
 Root     10 not converged, maximum delta is    0.068523331810227
 Root     11 not converged, maximum delta is    0.023793739637371
 New state     12 was old state     13
 Root     12 not converged, maximum delta is    0.134293991489480
 New state     13 was old state     12
 Root     13 not converged, maximum delta is    0.066650675910948
 Root     14 not converged, maximum delta is    0.282511452814495
 Root     15 not converged, maximum delta is    0.304031939523949
 Excitation Energies [eV] at current iteration:
 Root      1 :     5.663368732214625   Change is   -0.058560710013562
 Root      2 :     6.462969900191319   Change is   -0.026531652305555
 Root      3 :     6.806458164278270   Change is   -0.024515942533306
 Root      4 :     7.330843227540269   Change is   -0.042871679808304
 Root      5 :     7.891335012767668   Change is   -0.029200472174529
 Root      6 :     7.952189715867187   Change is   -0.061731155284623
 Root      7 :     8.140240144607665   Change is   -0.017379667404140
 Root      8 :     8.519538143085455   Change is   -0.024506893432323
 Root      9 :     8.677455708032312   Change is   -0.025778528796913
 Root     10 :     8.748277947950619   Change is   -0.054646253651801
 Root     11 :     9.115491479184827   Change is   -0.057299127250913
 Root     12 :     9.409329371142165   Change is   -0.249273789798993
 Root     13 :     9.454134589879827   Change is   -0.029821492719962
 Root     14 :     9.892524233735090   Change is   -0.065078272795859
 Root     15 :     9.968207074667063   Change is   -0.035565623368077
 Root     16 :     9.977197348435919   Change is   -0.160119064855609
 Root     17 :    10.251288463488660   Change is   -0.320703625458594
 Root     18 :    10.323840366604130   Change is   -0.100932991034836
 Root     19 :    10.492084752986380   Change is   -0.199209602751176
 Root     20 :    10.642591436268930   Change is   -0.317314223858699
 Root     21 :    10.906505882329070   Change is   -0.092027938308374
 Root     22 :    11.170311124312930   Change is   -0.152736475555333
 Root     23 :    11.325012603770270   Change is   -0.178721217529928
 Root     24 :    11.457663693232390   Change is   -0.172414187889692
 Root     25 :    11.625162897920100   Change is   -0.138107322264491
 Root     26 :    11.657766471967430   Change is   -0.191353753294252
 Root     27 :    11.817759853050710   Change is   -0.163373238068984
 Root     28 :    11.827583460825040   Change is   -0.141233271653009
 Root     29 :    12.198624090988850   Change is   -0.099044199823295
 Root     30 :    12.247773511398360   Change is   -0.140987138930585
 Root     31 :    12.510986921661750   Change is   -0.115092592261551
 Root     32 :    12.704252327922330   Change is   -0.045217004421679
 Root     33 :    12.738538702080430   Change is   -0.114059764769581
 Root     34 :    12.799494139789680   Change is   -0.084358475051430
 Root     35 :    12.878128559319310   Change is   -0.109099861699065
 Root     36 :    13.068078767932590   Change is   -0.139898000354620
 Root     37 :    13.097025301891010   Change is   -0.144319110048564
 Root     38 :    13.406057473255340   Change is   -0.112629796834532
 Root     39 :    13.412468533443560   Change is   -0.204895251513540
 Root     40 :    13.872892989917240   Change is   -0.146316070532807
 Root     41 :    14.230279490151880   Change is   -0.156774882090748
 Root     42 :    14.295929825191870   Change is   -0.069348397883679
 Root     43 :    14.428972425095990   Change is   -0.178922840275109
 Root     44 :    14.635194309453740   Change is   -0.107288392296608
 Root     45 :    14.762027413181370   Change is   -0.128221526237478
 Root     46 :    14.979625158490420   Change is   -0.192547216287839
 Root     47 :    14.990341511010590   Change is   -0.478686032142303
 Root     48 :    15.161362558005830   Change is   -0.205144033562910
 Root     49 :    15.318586759361880   Change is   -0.134298715536943
 Root     50 :    15.636063696344430   Change is   -0.156422065007521
 Root     51 :    15.855678881954290   Change is   -0.152666781867382
 Root     52 :    15.938229962937870   Change is   -0.220199700125993
 Root     53 :    15.991771364644460   Change is   -0.103084341718692
 Root     54 :    16.014165575168380   Change is   -0.120923511423395
 Root     55 :    16.173549032868870   Change is   -0.268822229750056
 Root     56 :    16.330626375358420   Change is   -0.491175750001057
 Root     57 :    16.576544007154940   Change is   -0.096941814888702
 Root     58 :    16.686896428720050   Change is   -0.120332935249451
 Root     59 :    16.831331375389450
 Root     60 :    17.059733069807700
 Iteration     3 Dimension   135 NMult   120 NNew     15
 CISAX will form    15 AO SS matrices at one time.
 NMat=    15 NSing=    15 JSym2X= 0.
 Root      1 not converged, maximum delta is    0.001822495570578
 Root      2 not converged, maximum delta is    0.000043303109804
 Root      3 not converged, maximum delta is    0.000041825797150
 Root      4 not converged, maximum delta is    0.000098843040196
 Root      5 not converged, maximum delta is    0.000068562660245
 Root      6 not converged, maximum delta is    0.000048497030448
 Root      7 not converged, maximum delta is    0.000073276339071
 Root      8 not converged, maximum delta is    0.000071242075385
 Root      9 not converged, maximum delta is    0.001211034522321
 Root     10 not converged, maximum delta is    0.000085751969034
 Root     11 not converged, maximum delta is    0.000218866016300
 Root     12 not converged, maximum delta is    0.002211133023599
 Root     13 not converged, maximum delta is    0.001025761106382
 Root     14 not converged, maximum delta is    0.002337362130884
 Root     15 not converged, maximum delta is    0.012386953942900
 Excitation Energies [eV] at current iteration:
 Root      1 :     5.662947592947486   Change is   -0.000421139267140
 Root      2 :     6.462969692957222   Change is   -0.000000207234096
 Root      3 :     6.806457873640323   Change is   -0.000000290637948
 Root      4 :     7.330841276049532   Change is   -0.000001951490737
 Root      5 :     7.891334363372115   Change is   -0.000000649395553
 Root      6 :     7.952189269717835   Change is   -0.000000446149352
 Root      7 :     8.140239236925657   Change is   -0.000000907682009
 Root      8 :     8.519537484630103   Change is   -0.000000658455352
 Root      9 :     8.677318550079292   Change is   -0.000137157953019
 Root     10 :     8.748276976014052   Change is   -0.000000971936565
 Root     11 :     9.115483594658928   Change is   -0.000007884525900
 Root     12 :     9.408141111164747   Change is   -0.001188259977417
 Root     13 :     9.454112189046722   Change is   -0.000022400833106
 Root     14 :     9.891759875524023   Change is   -0.000764358211067
 Root     15 :     9.967912428733968   Change is   -0.000294645933096
 Iteration     4 Dimension   143 NMult   135 NNew      8
 CISAX will form     8 AO SS matrices at one time.
 NMat=     8 NSing=     8 JSym2X= 0.
 Root      1 not converged, maximum delta is    0.000051691355516
 Root      2 not converged, maximum delta is    0.000001205651043
 Root      3 has converged.
 Root      4 not converged, maximum delta is    0.000003456049730
 Root      5 not converged, maximum delta is    0.000002558884238
 Root      6 not converged, maximum delta is    0.000002186516633
 Root      7 not converged, maximum delta is    0.000004899125616
 Root      8 not converged, maximum delta is    0.000002020161047
 Root      9 not converged, maximum delta is    0.000058624616911
 Root     10 not converged, maximum delta is    0.000004419157591
 Root     11 not converged, maximum delta is    0.000008101144286
 Root     12 not converged, maximum delta is    0.000095950271650
 Root     13 not converged, maximum delta is    0.000015336633562
 Root     14 not converged, maximum delta is    0.000084665144403
 Root     15 not converged, maximum delta is    0.000090997665458
 Excitation Energies [eV] at current iteration:
 Root      1 :     5.662946634081290   Change is   -0.000000958866196
 Root      2 :     6.462969692482900   Change is   -0.000000000474323
 Root      3 :     6.806457873409918   Change is   -0.000000000230405
 Root      4 :     7.330841273667315   Change is   -0.000000002382217
 Root      5 :     7.891334361765810   Change is   -0.000000001606305
 Root      6 :     7.952189269123487   Change is   -0.000000000594349
 Root      7 :     8.140239233075528   Change is   -0.000000003850128
 Root      8 :     8.519537483277130   Change is   -0.000000001352973
 Root      9 :     8.677318022368429   Change is   -0.000000527710864
 Root     10 :     8.748276971742035   Change is   -0.000000004272017
 Root     11 :     9.115483576251851   Change is   -0.000000018407076
 Root     12 :     9.408138753213212   Change is   -0.000002357951535
 Root     13 :     9.454112131280402   Change is   -0.000000057766319
 Root     14 :     9.891759013921069   Change is   -0.000000861602953
 Root     15 :     9.967911776515455   Change is   -0.000000652218512
 Convergence achieved on expansion vectors.
 ***********************************************************************
 Excited states from <AA,BB:AA,BB> singles matrix:
 ***********************************************************************
 
 1PDM for each excited state written to RWF  633
 Ground to excited state transition densities written to RWF  633
 Ground to excited state transition electric dipole moments (Au):
       state          X           Y           Z        Dip. S.      Osc.
         1        -0.5034      1.4434     -0.0345      2.3381      0.3244
         2         0.0077     -0.0146      0.1822      0.0335      0.0053
         3        -0.0033     -0.0166      0.0316      0.0013      0.0002
         4        -0.0071      0.0428     -0.0181      0.0022      0.0004
         5        -0.0081     -0.0013      0.3203      0.1027      0.0199
         6         0.0031      0.0016      0.0065      0.0001      0.0000
         7         0.0335     -0.0106     -0.0241      0.0018      0.0004
         8        -0.0070      0.0067     -0.0204      0.0005      0.0001
         9        -0.6218     -0.1954      0.0031      0.4248      0.0903
        10         0.0612      0.0062      0.0632      0.0078      0.0017
        11         0.0255     -0.0006      0.6357      0.4048      0.0904
        12         0.1998      0.1513     -0.0949      0.0718      0.0166
        13        -0.0975      0.0224      0.0552      0.0131      0.0030
        14        -0.5521     -0.1041     -0.0266      0.3163      0.0767
        15        -0.1976     -0.2370      0.0456      0.0973      0.0238
 Ground to excited state transition velocity dipole moments (Au):
       state          X           Y           Z        Dip. S.      Osc.
         1         0.0608     -0.1870      0.0025      0.0387      0.1240
         2        -0.0019      0.0001     -0.1763      0.0311      0.0873
         3         0.0028      0.0019     -0.0752      0.0057      0.0151
         4         0.0025     -0.0107     -0.0008      0.0001      0.0003
         5         0.0018      0.0038     -0.0413      0.0017      0.0040
         6         0.0000     -0.0020     -0.0029      0.0000      0.0000
         7        -0.0079      0.0045     -0.0310      0.0010      0.0023
         8        -0.0010     -0.0046      0.0286      0.0008      0.0018
         9         0.2043      0.0685      0.0037      0.0465      0.0971
        10        -0.0199     -0.0012      0.0132      0.0006      0.0012
        11        -0.0028     -0.0054      0.0215      0.0005      0.0010
        12        -0.0274     -0.0384     -0.0101      0.0023      0.0045
        13         0.0123     -0.0025     -0.0753      0.0058      0.0112
        14         0.0492     -0.0034     -0.0455      0.0045      0.0083
        15         0.0313      0.0302      0.1237      0.0172      0.0313
 Ground to excited state transition magnetic dipole moments (Au):
       state          X           Y           Z
         1         0.0178     -0.0007     -0.5521
         2        -0.1621      0.1453      0.0169
         3         0.3278      0.1514      0.0005
         4        -0.7271     -0.3464     -0.0360
         5        -0.3661      0.7766      0.0113
         6        -0.6662     -0.3607     -0.0136
         7         0.3365     -0.4471      0.0044
         8         0.3293      0.0898     -0.0056
         9         0.0114     -0.0397      0.0465
        10        -0.1488     -0.0605      0.0169
        11         0.0705      0.0081      0.0159
        12        -0.0594     -0.0439      0.1496
        13        -0.3129     -0.2447     -0.0322
        14         0.0746     -0.0586     -0.1050
        15        -0.1830      0.1733      0.0470
 Ground to excited state transition velocity quadrupole moments (Au):
       state          XX          YY          ZZ          XY          XZ          YZ
         1         0.2302     -0.2323      0.0045     -0.2546      0.0081     -0.0036
         2         0.0036      0.0031      0.0019     -0.0023     -0.1188     -0.1227
         3         0.0076      0.0095      0.0006      0.0057     -0.1196      0.2010
         4         0.0047     -0.0208     -0.0060     -0.0163     -0.0955      0.2331
         5         0.0016      0.0067     -0.0049      0.0010     -0.0825     -0.0152
         6         0.0027     -0.0096      0.0081      0.0035      0.0647     -0.2455
         7        -0.0003      0.0313     -0.0008      0.0011     -0.2336     -0.0530
         8        -0.0011     -0.0099      0.0046     -0.0118     -0.0515      0.2924
         9         0.2776     -0.1758     -0.0177      0.1350     -0.0012     -0.0306
        10        -0.0356      0.0319     -0.0022     -0.0058      0.1405     -0.2773
        11        -0.0186     -0.0002      0.0083     -0.0070      0.0240      0.0799
        12        -0.1849      0.1025     -0.0004      0.0437      0.0317     -0.0320
        13         0.0441     -0.0598     -0.0014     -0.0135      0.1889     -0.2060
        14        -0.1319     -0.3816     -0.0274     -0.0061      0.0651      0.0775
        15        -0.0822     -0.1116     -0.0056      0.0501     -0.1946     -0.1779
 <0|del|b> * <b|rxdel|0> + <0|del|b> * <b|delr+rdel|0>
 Rotatory Strengths (R) in cgs (10**-40 erg-esu-cm/Gauss)
       state          XX          YY          ZZ    R(velocity)    E-M Angle
         1        -0.6016      0.2216     -0.1313     -0.1704       90.08
         2        -3.7978     -4.2184      0.1160     -2.6334       93.95
         3         0.0941      2.6387      0.5870      1.1066       87.52
         4         3.5731     -1.5918      3.0608      1.6807       77.49
         5         3.4011     -1.3409      2.4949      1.5183       87.00
         6         1.0397      0.0704      0.7029      0.6043       73.72
         7        -1.3319     -2.7674     -7.2420     -3.7804      105.41
         8        -1.2972     -0.4762     -0.2394     -0.6709       95.16
         9        -2.1739     -4.7251      6.4132     -0.1619       90.94
        10         0.4163      9.6388     -2.9084      2.3822       32.57
        11         0.2917      0.0786     -0.1555      0.0716       86.40
        12         0.9787      1.4683      1.2429      1.2300       77.03
        13         4.6057     -5.0574     -1.1943     -0.5486       91.52
        14         5.3230     11.6502     -0.1592      5.6047       24.43
        15        22.3127    -11.2645     -0.7732      3.4250       80.89
 1/2[<0|r|b>*<b|rxdel|0> + (<0|rxdel|b>*<b|r|0>)*]
 Rotatory Strengths (R) in cgs (10**-40 erg-esu-cm/Gauss)
       state          XX          YY          ZZ     R(length)
         1         6.3459      0.6796    -13.4758     -2.1501
         2         0.8808      1.4956     -2.1764      0.0667
         3         0.7642      1.7805     -0.0101      0.8449
         4        -3.6513     10.4928     -0.4616      2.1266
         5        -2.1005      0.7133     -2.5686     -1.3186
         6         1.4540      0.4187      0.0626      0.6451
         7        -7.9720     -3.3661      0.0749     -3.7544
         8         1.6250     -0.4279     -0.0800      0.3724
         9         5.0139     -5.4907     -0.1034     -0.1934
        10         6.4439      0.2637     -0.7539      1.9846
        11        -1.2722      0.0036     -7.1533     -2.8073
        12         8.3911      4.6912     10.0371      7.7064
        13       -21.5757      3.8717      1.2560     -5.4827
        14        29.1141     -4.3134     -1.9740      7.6089
        15       -25.5662     29.0420     -1.5151      0.6536
  1/2[<0|del|b>*<b|r|0> + (<0|r|b>*<b|del|0>)*] (Au)
       state          X           Y           Z        Dip. S.   Osc.(frdel)
         1        -0.0306     -0.2700     -0.0001      0.3007      0.2005
         2         0.0000      0.0000     -0.0321      0.0322      0.0214
         3         0.0000      0.0000     -0.0024      0.0024      0.0016
         4         0.0000     -0.0005      0.0000      0.0005      0.0003
         5         0.0000      0.0000     -0.0132      0.0132      0.0088
         6         0.0000      0.0000      0.0000      0.0000      0.0000
         7        -0.0003      0.0000      0.0007     -0.0004     -0.0003
         8         0.0000      0.0000     -0.0006      0.0006      0.0004
         9        -0.1271     -0.0134      0.0000      0.1404      0.0936
        10        -0.0012      0.0000      0.0008      0.0004      0.0003
        11        -0.0001      0.0000      0.0136     -0.0136     -0.0090
        12        -0.0055     -0.0058      0.0010      0.0103      0.0069
        13        -0.0012     -0.0001     -0.0042      0.0054      0.0036
        14        -0.0272      0.0004      0.0012      0.0256      0.0171
        15        -0.0062     -0.0071      0.0056      0.0077      0.0051

 Excitation energies and oscillator strengths:
 
 Excited State   1:      Singlet-A      5.6629 eV  218.94 nm  f=0.3244  <S**2>=0.000
      10 -> 17         0.10429
      13 -> 14         0.69232
 This state for optimization and/or second-order correction.
 Total Energy, E(CIS) =   1.90041103383    
 Copying the excited state density for this state as the 1-particle RhoCI density.
 
 Excited State   2:      Singlet-A      6.4630 eV  191.84 nm  f=0.0053  <S**2>=0.000
      13 -> 15         0.64464
      13 -> 17         0.24050
 
 Excited State   3:      Singlet-A      6.8065 eV  182.16 nm  f=0.0002  <S**2>=0.000
      11 -> 15        -0.11632
      11 -> 16        -0.11520
      13 -> 16         0.64746
      13 -> 20         0.15698
 
 Excited State   4:      Singlet-A      7.3308 eV  169.13 nm  f=0.0004  <S**2>=0.000
      12 -> 14         0.67668
      13 -> 21        -0.14187
 
 Excited State   5:      Singlet-A      7.8913 eV  157.11 nm  f=0.0199  <S**2>=0.000
      10 -> 14        -0.21807
      11 -> 16         0.11004
      13 -> 15        -0.20258
      13 -> 17         0.61336
 
 Excited State   6:      Singlet-A      7.9522 eV  155.91 nm  f=0.0000  <S**2>=0.000
      12 -> 14         0.16818
      13 -> 18         0.10744
      13 -> 19        -0.10516
      13 -> 20         0.25892
      13 -> 21         0.59290
 
 Excited State   7:      Singlet-A      8.1402 eV  152.31 nm  f=0.0004  <S**2>=0.000
      10 -> 14         0.65374
      13 -> 17         0.21331
 
 Excited State   8:      Singlet-A      8.5195 eV  145.53 nm  f=0.0001  <S**2>=0.000
      13 -> 16         0.11861
      13 -> 18         0.63575
      13 -> 19         0.18226
      13 -> 20        -0.14074
 
 Excited State   9:      Singlet-A      8.6773 eV  142.88 nm  f=0.0903  <S**2>=0.000
      11 -> 14         0.67307
 
 Excited State  10:      Singlet-A      8.7483 eV  141.72 nm  f=0.0017  <S**2>=0.000
      13 -> 18        -0.23708
      13 -> 19         0.44721
      13 -> 20        -0.35467
      13 -> 21         0.31012
 
 Excited State  11:      Singlet-A      9.1155 eV  136.01 nm  f=0.0904  <S**2>=0.000
      13 -> 19         0.45894
      13 -> 20         0.49020
      13 -> 21        -0.12305
 
 Excited State  12:      Singlet-A      9.4081 eV  131.78 nm  f=0.0166  <S**2>=0.000
       8 -> 15        -0.15840
       9 -> 15         0.13860
      10 -> 15         0.31258
      10 -> 16         0.10306
      10 -> 17         0.30443
      12 -> 15         0.15810
      12 -> 16        -0.29169
      12 -> 18         0.15440
      12 -> 21        -0.19276
 
 Excited State  13:      Singlet-A      9.4541 eV  131.14 nm  f=0.0030  <S**2>=0.000
      11 -> 15         0.62497
      11 -> 17         0.13904
      13 -> 15        -0.12488
      13 -> 16         0.13676
      13 -> 19         0.10401
 
 Excited State  14:      Singlet-A      9.8918 eV  125.34 nm  f=0.0767  <S**2>=0.000
       8 -> 16         0.13822
      10 -> 15        -0.11908
      10 -> 18        -0.11154
      10 -> 21         0.10789
      11 -> 14         0.11266
      11 -> 16        -0.22235
      12 -> 15         0.53444
      12 -> 16         0.10824
      12 -> 19         0.17645
 
 Excited State  15:      Singlet-A      9.9679 eV  124.38 nm  f=0.0238  <S**2>=0.000
       8 -> 16         0.11132
      10 -> 15         0.10099
      11 -> 16         0.54592
      12 -> 15         0.13705
      12 -> 16         0.18998
      13 -> 15         0.10316
      13 -> 16         0.12394
 SavETr:  write IOETrn=   770 NScale= 10 NData=  16 NLR=1 NState=   15 LETran=     280.
 The selected state is a singlet
 CISAX will form     1 AO SS matrices at one time.
 NMat=     1 NSing=     1 JSym2X= 0.
 Leave Link  914 at Tue Dec 15 17:07:02 2015, MaxMem=    33554432 cpu:         0.1
 (Enter /home/Applications/g09/g09/l1002.exe)
 Minotr:  Closed shell wavefunction.
          Computing CIS/TD-HF/TD-KS derivatives.
          Using Z-Vector for PSCF gradient.
          Skipping F1 and S1 gradient terms here.
          IDoAtm=111111111
          Direct CPHF calculation.
          Differentiating once with respect to electric field.
                with respect to dipole field.
          Differentiating once with respect to nuclear coordinates.
          Electric field/nuclear overlap derivatives assumed to be zero.
          Requested convergence is 1.0D-10 RMS, and 1.0D-09 maximum.
          NewPWx=T KeepS1=F KeepF1=F KeepIn=T MapXYZ=F SortEE=F KeepMc=T.
          MDV=      33495423 using IRadAn=       0.
 Keep J ints in memory in canonical form, NReq=871704.
 FoFCou: FMM=F IPFlag=           0 FMFlag=           0 FMFlg1=           0
         NFxFlg=           0 DoJE=F BraDBF=F KetDBF=F FulRan=T
         wScrn=  0.000000 ICntrl=     600 IOpCl=  2 I1Cent=           0 NGrid=           0
         NMat0=    1 NMatS0=     54 NMatT0=    0 NMatD0=    1 NMtDS0=    0 NMtDT0=    0
 Symmetry not used in FoFCou.
          Solving linear equations separately, MaxMat=       0.
          There are     1 degrees of freedom in the 1st order CPHF.  IDoFFX=0 NUNeed=     1.
 LinEq1:  Iter=  0 NonCon=     1 RMS=7.08D-03 Max=4.60D-02 NDo=     1
 AX will form     1 AO Fock derivatives at one time.
 LinEq1:  Iter=  1 NonCon=     1 RMS=6.25D-04 Max=1.91D-03 NDo=     1
 LinEq1:  Iter=  2 NonCon=     1 RMS=8.91D-05 Max=7.86D-04 NDo=     1
 LinEq1:  Iter=  3 NonCon=     1 RMS=1.02D-05 Max=4.47D-05 NDo=     1
 LinEq1:  Iter=  4 NonCon=     1 RMS=1.74D-06 Max=8.84D-06 NDo=     1
 LinEq1:  Iter=  5 NonCon=     1 RMS=2.15D-07 Max=9.37D-07 NDo=     1
 LinEq1:  Iter=  6 NonCon=     1 RMS=3.20D-08 Max=1.17D-07 NDo=     1
 LinEq1:  Iter=  7 NonCon=     1 RMS=3.44D-09 Max=9.92D-09 NDo=     1
 LinEq1:  Iter=  8 NonCon=     1 RMS=2.90D-10 Max=1.07D-09 NDo=     1
 LinEq1:  Iter=  9 NonCon=     0 RMS=3.83D-11 Max=1.48D-10 NDo=     1
 Linear equations converged to 1.000D-10 1.000D-09 after     9 iterations.
 End of Minotr F.D. properties file   721 does not exist.
 End of Minotr F.D. properties file   722 does not exist.
 End of Minotr F.D. properties file   788 does not exist.
 Leave Link 1002 at Tue Dec 15 17:07:02 2015, MaxMem=    33554432 cpu:         0.0
 (Enter /home/Applications/g09/g09/l601.exe)
 Copying SCF densities to generalized density rwf, IOpCl= 0 IROHF=0.

 **********************************************************************

            Population analysis using the SCF density.

 **********************************************************************

 Orbital symmetries:
       Occupied  (A) (A) (A) (A) (A) (A) (A) (A) (A) (A) (A) (A)
                 (A)
       Virtual   (A) (A) (A) (A) (A) (A) (A) (A) (A) (A) (A)
 The electronic state is 1-A.
 Alpha  occ. eigenvalues --   -1.91934  -1.22686  -0.98472  -0.81936  -0.80186
 Alpha  occ. eigenvalues --   -0.68648  -0.63753  -0.53082  -0.51463  -0.43161
 Alpha  occ. eigenvalues --   -0.41466  -0.41006  -0.28625
 Alpha virt. eigenvalues --    0.13481   0.18112   0.19289   0.24810   0.26789
 Alpha virt. eigenvalues --    0.28332   0.29099   0.30558   0.38607   0.47874
 Alpha virt. eigenvalues --    0.51781
     Molecular Orbital Coefficients:
                           1         2         3         4         5
                           O         O         O         O         O
     Eigenvalues --    -1.91934  -1.22686  -0.98472  -0.81936  -0.80186
   1 1   C  1S          0.08801   0.49142   0.23383  -0.35130  -0.12183
   2        1PX        -0.07396  -0.02859  -0.18920  -0.02989  -0.35633
   3        1PY        -0.08596  -0.18801   0.13307  -0.19909   0.08720
   4        1PZ         0.00109   0.00456   0.00232  -0.00790  -0.00543
   5 2   C  1S          0.27503   0.23056   0.55098   0.25208   0.31132
   6        1PX        -0.03169   0.30315  -0.09546  -0.41960   0.01048
   7        1PY        -0.26934   0.00941   0.05596  -0.27839   0.13039
   8        1PZ         0.00128  -0.00131  -0.00155  -0.00161  -0.00893
   9 3   O  1S          0.82573  -0.29569  -0.03784  -0.11729  -0.26960
  10        1PX         0.05267   0.14127  -0.08399  -0.05570   0.18001
  11        1PY         0.03250   0.05338   0.22605   0.26126  -0.02998
  12        1PZ        -0.00078  -0.00104  -0.00088  -0.00108  -0.00488
  13 4   C  1S          0.24064   0.24945  -0.50242   0.03033   0.45212
  14        1PX        -0.19204   0.19526   0.03141   0.43779  -0.23236
  15        1PY         0.15622   0.21334   0.05954   0.00267  -0.12953
  16        1PZ         0.00376   0.00151  -0.00788  -0.00407   0.00276
  17 5   C  1S          0.08650   0.49443  -0.23853   0.23349  -0.29169
  18        1PX        -0.11045  -0.15723   0.03292   0.04617  -0.26296
  19        1PY         0.00796   0.10574   0.20795  -0.28092  -0.21353
  20        1PZ         0.00010  -0.00146  -0.00008  -0.00350  -0.00171
  21 6   H  1S          0.00610   0.13763  -0.11088   0.15822  -0.22153
  22 7   H  1S          0.04574   0.03500  -0.23108   0.03124   0.25061
  23 8   H  1S          0.05847   0.03316   0.28057   0.13868   0.18840
  24 9   H  1S          0.00694   0.13938   0.11726  -0.24565  -0.08969
                           6         7         8         9        10
                           O         O         O         O         O
     Eigenvalues --    -0.68648  -0.63753  -0.53082  -0.51463  -0.43161
   1 1   C  1S          0.16821  -0.01133  -0.17621   0.00824  -0.09056
   2        1PX         0.12000  -0.00739  -0.11718  -0.37494  -0.33747
   3        1PY         0.24317  -0.00132  -0.07508   0.11776  -0.29694
   4        1PZ         0.01918   0.38564   0.00313  -0.00657  -0.01746
   5 2   C  1S          0.07449   0.00641  -0.10806  -0.06607   0.15247
   6        1PX        -0.21781   0.00999  -0.09438   0.45880   0.33053
   7        1PY         0.43535  -0.02970   0.58629   0.11985   0.06956
   8        1PZ         0.01855   0.60286   0.00454  -0.00228  -0.04403
   9 3   O  1S          0.18009  -0.01271   0.09709   0.25953   0.00149
  10        1PX        -0.19551   0.01162   0.01328  -0.15377   0.03188
  11        1PY        -0.10406   0.01245  -0.17639   0.00633  -0.06154
  12        1PZ         0.01186   0.25439   0.00693   0.00466   0.00141
  13 4   C  1S          0.13684  -0.00745   0.01133  -0.13908  -0.14764
  14        1PX         0.11790   0.00388  -0.03302   0.56313  -0.28254
  15        1PY        -0.39874   0.00506   0.53631  -0.10912  -0.21648
  16        1PZ         0.02348   0.52956   0.02393  -0.00691   0.05729
  17 5   C  1S          0.17623  -0.01186   0.13409  -0.08162   0.08623
  18        1PX         0.24110  -0.01329  -0.06180  -0.16305   0.45293
  19        1PY        -0.08640  -0.00226  -0.13395  -0.32271   0.07760
  20        1PZ         0.01653   0.37425   0.01181  -0.00693   0.02656
  21 6   H  1S          0.23299  -0.01197   0.04857  -0.09335   0.36843
  22 7   H  1S          0.28789  -0.00244  -0.33519   0.02756   0.05893
  23 8   H  1S          0.29966  -0.01985   0.26982  -0.16876  -0.02812
  24 9   H  1S          0.23928   0.00210  -0.16630  -0.03668  -0.36643
                          11        12        13        14        15
                           O         O         O         V         V
     Eigenvalues --    -0.41466  -0.41006  -0.28625   0.13481   0.18112
   1 1   C  1S          0.01504  -0.06582  -0.01229   0.01844  -0.16420
   2        1PX         0.03033  -0.06931  -0.01029   0.00570   0.27544
   3        1PY        -0.00006   0.51244  -0.01725   0.02038   0.00592
   4        1PZ        -0.13295   0.00212   0.62870  -0.65956  -0.00789
   5 2   C  1S         -0.01805   0.08465  -0.00498   0.00146  -0.15410
   6        1PX        -0.02855   0.10937   0.00142  -0.00730   0.43294
   7        1PY        -0.00983  -0.20903   0.00255   0.00067  -0.20386
   8        1PZ        -0.66687  -0.04374  -0.30277   0.18660   0.00574
   9 3   O  1S          0.00373  -0.09024   0.00273  -0.00053   0.02046
  10        1PX        -0.01004   0.16346  -0.00572  -0.00388   0.14612
  11        1PY         0.00430   0.05020  -0.00168   0.00086   0.03616
  12        1PZ        -0.02036  -0.01037  -0.21630  -0.00320   0.00180
  13 4   C  1S         -0.00434   0.08841  -0.00212   0.00436  -0.07798
  14        1PX         0.03331  -0.11537   0.00036  -0.00221   0.11155
  15        1PY        -0.00216   0.28512  -0.00769  -0.00151   0.14191
  16        1PZ         0.67609   0.02313  -0.39992  -0.21996  -0.00696
  17 5   C  1S         -0.00645  -0.03546   0.00631   0.00614  -0.12343
  18        1PX        -0.05159   0.34169  -0.00974  -0.00942   0.11373
  19        1PY         0.01704  -0.40171   0.00412  -0.00159   0.02212
  20        1PZ         0.26654   0.01899   0.55270   0.69306   0.01064
  21 6   H  1S         -0.04588   0.32822  -0.00316  -0.00011  -0.05061
  22 7   H  1S          0.00840  -0.17254   0.00044  -0.00474   0.24808
  23 8   H  1S          0.00615  -0.12524   0.00249  -0.00876   0.69965
  24 9   H  1S          0.01350   0.30027   0.00124  -0.01771  -0.01098
                          16        17        18        19        20
                           V         V         V         V         V
     Eigenvalues --     0.19289   0.24810   0.26789   0.28332   0.29099
   1 1   C  1S         -0.05364  -0.12716  -0.31534  -0.24644  -0.37675
   2        1PX        -0.08734   0.43656  -0.03053   0.39377  -0.32945
   3        1PY         0.09584   0.12527  -0.28108  -0.25474  -0.06623
   4        1PZ         0.00048   0.00986  -0.02371  -0.01016  -0.01997
   5 2   C  1S          0.04501   0.40071   0.12396   0.29891  -0.07997
   6        1PX        -0.13481   0.20219   0.08037   0.15987   0.00751
   7        1PY         0.14984   0.19414   0.05708   0.20326   0.01238
   8        1PZ        -0.00100  -0.00661   0.00304  -0.00352   0.00111
   9 3   O  1S          0.00794   0.04195  -0.00978   0.03155   0.02673
  10        1PX         0.04578   0.02219   0.01882   0.07089   0.02255
  11        1PY         0.05549  -0.00851  -0.04967  -0.01149   0.06471
  12        1PZ        -0.00391  -0.00245  -0.00137   0.00174   0.00655
  13 4   C  1S         -0.17220   0.24023  -0.28337  -0.05586   0.33898
  14        1PX         0.08544   0.16322  -0.22007   0.04049   0.26212
  15        1PY         0.48320   0.01989  -0.04707  -0.03963  -0.01796
  16        1PZ        -0.00507   0.00081  -0.00184  -0.00200  -0.00110
  17 5   C  1S         -0.07081   0.02244   0.37413  -0.33211  -0.07876
  18        1PX         0.09690   0.36883   0.06114  -0.35286   0.17574
  19        1PY         0.20644   0.07865  -0.26109  -0.03571   0.56158
  20        1PZ         0.00242   0.00233   0.00501   0.00474   0.00799
  21 6   H  1S          0.02811  -0.41160  -0.39661   0.49038   0.02931
  22 7   H  1S          0.72578  -0.13277   0.12023  -0.00952  -0.16551
  23 8   H  1S         -0.27617  -0.23681  -0.05260  -0.16237   0.02062
  24 9   H  1S         -0.03321  -0.25563   0.52409   0.21785   0.40931
                          21        22        23        24
                           V         V         V         V
     Eigenvalues --     0.30558   0.38607   0.47874   0.51781
   1 1   C  1S         -0.36447   0.00255   0.05946  -0.02333
   2        1PX         0.00497   0.00052  -0.00574   0.05357
   3        1PY         0.53671   0.00105   0.02679  -0.01501
   4        1PZ         0.00476   0.03505   0.00028   0.00024
   5 2   C  1S          0.09939   0.00080  -0.13889  -0.16776
   6        1PX         0.13221  -0.00512  -0.11969   0.14960
   7        1PY        -0.02800  -0.00079   0.20522   0.20800
   8        1PZ        -0.00225  -0.24682   0.00107  -0.00349
   9 3   O  1S         -0.00470  -0.00024   0.14518   0.01336
  10        1PX        -0.00513   0.01587   0.84736  -0.31067
  11        1PY        -0.01484   0.00048   0.30976   0.84850
  12        1PZ         0.00037   0.94202  -0.01498   0.00455
  13 4   C  1S         -0.15475  -0.00149  -0.13654   0.14087
  14        1PX        -0.12775  -0.00457   0.09918  -0.24627
  15        1PY        -0.13214   0.00005  -0.21597   0.02725
  16        1PZ         0.00115  -0.22126  -0.00089   0.00320
  17 5   C  1S          0.45404   0.00259   0.05240   0.02793
  18        1PX        -0.39872   0.00117   0.01708  -0.02243
  19        1PY         0.29446  -0.00333  -0.01278  -0.05252
  20        1PZ        -0.01214   0.03378  -0.00074  -0.00079
  21 6   H  1S          0.10534  -0.00226  -0.03195   0.00206
  22 7   H  1S          0.00124   0.00158  -0.04589   0.01369
  23 8   H  1S          0.01213  -0.00239  -0.04488  -0.01975
  24 9   H  1S         -0.17230  -0.00202  -0.03522  -0.00484
     Density Matrix:
                           1         2         3         4         5
   1 1   C  1S          1.02924
   2        1PX         0.12529   0.91686
   3        1PY         0.07794   0.04027   1.07477
   4        1PZ        -0.00744  -0.00337  -0.00193   1.12500
   5 2   C  1S          0.30246  -0.52227  -0.00016  -0.00054   1.29048
   6        1PX         0.43215  -0.57327  -0.03302  -0.00020  -0.14008
   7        1PY         0.10888  -0.19913   0.08762   0.00113  -0.23323
   8        1PZ        -0.00643   0.00467  -0.00299   0.26382   0.00811
   9 3   O  1S          0.02772  -0.05405  -0.00047   0.00001   0.00556
  10        1PX         0.00341  -0.08860  -0.01548  -0.00144   0.11184
  11        1PY         0.01933  -0.04135  -0.00937   0.00134   0.41618
  12        1PZ         0.00205   0.00172   0.00102  -0.06995  -0.00098
  13 4   C  1S         -0.02396   0.03800   0.00837   0.00050  -0.00311
  14        1PX         0.04968  -0.03283  -0.00243  -0.00200  -0.06151
  15        1PY        -0.02856   0.00129   0.00598  -0.00300  -0.00780
  16        1PZ         0.00474   0.00536   0.00699  -0.27494   0.00073
  17 5   C  1S          0.29630   0.26155  -0.44951   0.00907  -0.02281
  18        1PX        -0.15477   0.03634   0.19234  -0.01154   0.03114
  19        1PY         0.50408   0.34000  -0.46701   0.00329   0.02140
  20        1PZ        -0.01866  -0.01337  -0.01016   0.91276  -0.00173
  21 6   H  1S         -0.02394  -0.00056   0.01781  -0.00135   0.09247
  22 7   H  1S          0.07915   0.00988  -0.06625  -0.00163   0.05855
  23 8   H  1S          0.05585  -0.08707  -0.01643  -0.00047   0.52220
  24 9   H  1S          0.55317   0.35560   0.71779   0.02896   0.03267
                           6         7         8         9        10
   6        1PX         1.33434
   7        1PY         0.05835   1.53482
   8        1PZ         0.00015   0.00651   1.80828
   9 3   O  1S         -0.00946  -0.08811   0.00040   1.94935
  10        1PX         0.14806  -0.21310   0.00432  -0.25167   0.31068
  11        1PY        -0.17800  -0.47078   0.00478  -0.11810  -0.01260
  12        1PZ         0.00249   0.00791   0.46622   0.00439  -0.00225
  13 4   C  1S         -0.05160  -0.03804   0.00252   0.00006   0.34861
  14        1PX         0.01006   0.01325  -0.00185  -0.06391  -0.37923
  15        1PY        -0.00507  -0.00283   0.00029   0.04813   0.30318
  16        1PZ        -0.00166  -0.00154  -0.02702   0.00029   0.01169
  17 5   C  1S          0.01020   0.04873  -0.00176   0.02509   0.01129
  18        1PX        -0.00504  -0.01376   0.00262  -0.03118  -0.06575
  19        1PY        -0.01560  -0.00939   0.00122  -0.03578  -0.04715
  20        1PZ         0.00178  -0.00091  -0.24214  -0.00043   0.00028
  21 6   H  1S          0.08821  -0.00589   0.00048   0.00610   0.03114
  22 7   H  1S          0.00531  -0.05733  -0.00083   0.01423  -0.04256
  23 8   H  1S         -0.53264   0.55879  -0.01048   0.01741  -0.08068
  24 9   H  1S         -0.01782  -0.04695  -0.00100   0.00576   0.00336
                          11        12        13        14        15
  11        1PY         0.34525
  12        1PZ        -0.00001   0.22452
  13 4   C  1S         -0.20354  -0.00733   1.29155
  14        1PX         0.28306   0.01080  -0.27257   1.49601
  15        1PY         0.01683  -0.00311   0.05252  -0.10632   1.35406
  16        1PZ        -0.00326   0.41540  -0.00327   0.00113   0.00557
  17 5   C  1S         -0.00950  -0.00065   0.32083   0.38459   0.24975
  18        1PX        -0.02182   0.00000  -0.36234  -0.31530  -0.25330
  19        1PY        -0.01681   0.00011  -0.39349  -0.42045  -0.14099
  20        1PZ        -0.00121  -0.05933  -0.01035  -0.00589  -0.00571
  21 6   H  1S         -0.01897  -0.00158   0.03297  -0.05455   0.02009
  22 7   H  1S         -0.06236   0.00216   0.51576   0.02059  -0.78216
  23 8   H  1S          0.02611  -0.00243   0.06299  -0.05020   0.04553
  24 9   H  1S          0.02917  -0.00335   0.09211   0.05052   0.06614
                          16        17        18        19        20
  16        1PZ         1.80514
  17 5   C  1S          0.00011   1.02611
  18        1PX        -0.00137   0.13444   1.04530
  19        1PY        -0.00013   0.02819  -0.06084   0.95250
  20        1PZ         0.32009   0.00598  -0.00140   0.00161   1.03627
  21 6   H  1S         -0.00054   0.54466   0.77914  -0.21227   0.00454
  22 7   H  1S          0.00951   0.05058  -0.05931  -0.04222  -0.00019
  23 8   H  1S          0.00164   0.07390  -0.03617   0.04769   0.00179
  24 9   H  1S         -0.00470  -0.01828   0.00654  -0.01610   0.00817
                          21        22        23        24
  21 6   H  1S          0.83294
  22 7   H  1S         -0.01382   0.69962
  23 8   H  1S          0.00236   0.00355   0.69190
  24 9   H  1S          0.00245  -0.00344  -0.01455   0.82499
    Full Mulliken population analysis:
                           1         2         3         4         5
   1 1   C  1S          1.02924
   2        1PX         0.00000   0.91686
   3        1PY         0.00000   0.00000   1.07477
   4        1PZ         0.00000   0.00000   0.00000   1.12500
   5 2   C  1S          0.00000   0.00000   0.00000   0.00000   1.29048
   6        1PX         0.00000   0.00000   0.00000   0.00000   0.00000
   7        1PY         0.00000   0.00000   0.00000   0.00000   0.00000
   8        1PZ         0.00000   0.00000   0.00000   0.00000   0.00000
   9 3   O  1S          0.00000   0.00000   0.00000   0.00000   0.00000
  10        1PX         0.00000   0.00000   0.00000   0.00000   0.00000
  11        1PY         0.00000   0.00000   0.00000   0.00000   0.00000
  12        1PZ         0.00000   0.00000   0.00000   0.00000   0.00000
  13 4   C  1S          0.00000   0.00000   0.00000   0.00000   0.00000
  14        1PX         0.00000   0.00000   0.00000   0.00000   0.00000
  15        1PY         0.00000   0.00000   0.00000   0.00000   0.00000
  16        1PZ         0.00000   0.00000   0.00000   0.00000   0.00000
  17 5   C  1S          0.00000   0.00000   0.00000   0.00000   0.00000
  18        1PX         0.00000   0.00000   0.00000   0.00000   0.00000
  19        1PY         0.00000   0.00000   0.00000   0.00000   0.00000
  20        1PZ         0.00000   0.00000   0.00000   0.00000   0.00000
  21 6   H  1S          0.00000   0.00000   0.00000   0.00000   0.00000
  22 7   H  1S          0.00000   0.00000   0.00000   0.00000   0.00000
  23 8   H  1S          0.00000   0.00000   0.00000   0.00000   0.00000
  24 9   H  1S          0.00000   0.00000   0.00000   0.00000   0.00000
                           6         7         8         9        10
   6        1PX         1.33434
   7        1PY         0.00000   1.53482
   8        1PZ         0.00000   0.00000   1.80828
   9 3   O  1S          0.00000   0.00000   0.00000   1.94935
  10        1PX         0.00000   0.00000   0.00000   0.00000   0.31068
  11        1PY         0.00000   0.00000   0.00000   0.00000   0.00000
  12        1PZ         0.00000   0.00000   0.00000   0.00000   0.00000
  13 4   C  1S          0.00000   0.00000   0.00000   0.00000   0.00000
  14        1PX         0.00000   0.00000   0.00000   0.00000   0.00000
  15        1PY         0.00000   0.00000   0.00000   0.00000   0.00000
  16        1PZ         0.00000   0.00000   0.00000   0.00000   0.00000
  17 5   C  1S          0.00000   0.00000   0.00000   0.00000   0.00000
  18        1PX         0.00000   0.00000   0.00000   0.00000   0.00000
  19        1PY         0.00000   0.00000   0.00000   0.00000   0.00000
  20        1PZ         0.00000   0.00000   0.00000   0.00000   0.00000
  21 6   H  1S          0.00000   0.00000   0.00000   0.00000   0.00000
  22 7   H  1S          0.00000   0.00000   0.00000   0.00000   0.00000
  23 8   H  1S          0.00000   0.00000   0.00000   0.00000   0.00000
  24 9   H  1S          0.00000   0.00000   0.00000   0.00000   0.00000
                          11        12        13        14        15
  11        1PY         0.34525
  12        1PZ         0.00000   0.22452
  13 4   C  1S          0.00000   0.00000   1.29155
  14        1PX         0.00000   0.00000   0.00000   1.49601
  15        1PY         0.00000   0.00000   0.00000   0.00000   1.35406
  16        1PZ         0.00000   0.00000   0.00000   0.00000   0.00000
  17 5   C  1S          0.00000   0.00000   0.00000   0.00000   0.00000
  18        1PX         0.00000   0.00000   0.00000   0.00000   0.00000
  19        1PY         0.00000   0.00000   0.00000   0.00000   0.00000
  20        1PZ         0.00000   0.00000   0.00000   0.00000   0.00000
  21 6   H  1S          0.00000   0.00000   0.00000   0.00000   0.00000
  22 7   H  1S          0.00000   0.00000   0.00000   0.00000   0.00000
  23 8   H  1S          0.00000   0.00000   0.00000   0.00000   0.00000
  24 9   H  1S          0.00000   0.00000   0.00000   0.00000   0.00000
                          16        17        18        19        20
  16        1PZ         1.80514
  17 5   C  1S          0.00000   1.02611
  18        1PX         0.00000   0.00000   1.04530
  19        1PY         0.00000   0.00000   0.00000   0.95250
  20        1PZ         0.00000   0.00000   0.00000   0.00000   1.03627
  21 6   H  1S          0.00000   0.00000   0.00000   0.00000   0.00000
  22 7   H  1S          0.00000   0.00000   0.00000   0.00000   0.00000
  23 8   H  1S          0.00000   0.00000   0.00000   0.00000   0.00000
  24 9   H  1S          0.00000   0.00000   0.00000   0.00000   0.00000
                          21        22        23        24
  21 6   H  1S          0.83294
  22 7   H  1S          0.00000   0.69962
  23 8   H  1S          0.00000   0.00000   0.69190
  24 9   H  1S          0.00000   0.00000   0.00000   0.82499
     Gross orbital populations:
                           1
   1 1   C  1S          1.02924
   2        1PX         0.91686
   3        1PY         1.07477
   4        1PZ         1.12500
   5 2   C  1S          1.29048
   6        1PX         1.33434
   7        1PY         1.53482
   8        1PZ         1.80828
   9 3   O  1S          1.94935
  10        1PX         0.31068
  11        1PY         0.34525
  12        1PZ         0.22452
  13 4   C  1S          1.29155
  14        1PX         1.49601
  15        1PY         1.35406
  16        1PZ         1.80514
  17 5   C  1S          1.02611
  18        1PX         1.04530
  19        1PY         0.95250
  20        1PZ         1.03627
  21 6   H  1S          0.83294
  22 7   H  1S          0.69962
  23 8   H  1S          0.69190
  24 9   H  1S          0.82499
          Condensed to atoms (all electrons):
               1          2          3          4          5          6
     1  C    4.145875   0.000000   0.000000   0.000000   0.000000   0.000000
     2  C    0.000000   5.967929   0.000000   0.000000   0.000000   0.000000
     3  O    0.000000   0.000000   2.829807   0.000000   0.000000   0.000000
     4  C    0.000000   0.000000   0.000000   5.946761   0.000000   0.000000
     5  C    0.000000   0.000000   0.000000   0.000000   4.060181   0.000000
     6  H    0.000000   0.000000   0.000000   0.000000   0.000000   0.832944
     7  H    0.000000   0.000000   0.000000   0.000000   0.000000   0.000000
     8  H    0.000000   0.000000   0.000000   0.000000   0.000000   0.000000
     9  H    0.000000   0.000000   0.000000   0.000000   0.000000   0.000000
               7          8          9
     1  C    0.000000   0.000000   0.000000
     2  C    0.000000   0.000000   0.000000
     3  O    0.000000   0.000000   0.000000
     4  C    0.000000   0.000000   0.000000
     5  C    0.000000   0.000000   0.000000
     6  H    0.000000   0.000000   0.000000
     7  H    0.699617   0.000000   0.000000
     8  H    0.000000   0.691900   0.000000
     9  H    0.000000   0.000000   0.824988
 Mulliken charges:
               1
     1  C   -0.145875
     2  C   -1.967929
     3  O    3.170193
     4  C   -1.946761
     5  C   -0.060181
     6  H    0.167056
     7  H    0.300383
     8  H    0.308100
     9  H    0.175012
 Sum of Mulliken charges =   0.00000
 Mulliken charges with hydrogens summed into heavy atoms:
               1
     1  C    0.029137
     2  C   -1.659828
     3  O    3.170193
     4  C   -1.646378
     5  C    0.106876
 Charge=              0.0000 electrons
 Dipole moment (field-independent basis, Debye):
    X=             -9.4124    Y=             -3.7771    Z=              0.2485  Tot=             10.1450
 N-N= 1.042064796197D+02 E-N=-1.699322275367D+02  KE=-1.576777193175D+01
 Orbital energies and kinetic energies (alpha):
                                 1                 2
   1         O                -1.919345         -1.400969
   2         O                -1.226861         -1.113114
   3         O                -0.984724         -0.905328
   4         O                -0.819359         -0.637744
   5         O                -0.801862         -0.692034
   6         O                -0.686482         -0.584854
   7         O                -0.637533         -0.516173
   8         O                -0.530815         -0.378413
   9         O                -0.514630         -0.301440
  10         O                -0.431606         -0.415805
  11         O                -0.414655         -0.308284
  12         O                -0.410060         -0.363140
  13         O                -0.286247         -0.266588
  14         V                 0.134806         -0.163032
  15         V                 0.181122         -0.191408
  16         V                 0.192891         -0.206629
  17         V                 0.248103         -0.161655
  18         V                 0.267893         -0.209588
  19         V                 0.283315         -0.150785
  20         V                 0.290991         -0.124034
  21         V                 0.305578         -0.097002
  22         V                 0.386066          0.495995
  23         V                 0.478744          0.531951
  24         V                 0.517810          0.592162
 Total kinetic energy from orbitals=-1.576777193175D+01
 Leave Link  601 at Tue Dec 15 17:07:02 2015, MaxMem=    33554432 cpu:         0.0
 (Enter /home/Applications/g09/g09/l701.exe)
 Compute integral first derivatives.
 ... and contract with generalized density number  6.
 Leave Link  701 at Tue Dec 15 17:07:02 2015, MaxMem=    33554432 cpu:         0.0
 (Enter /home/Applications/g09/g09/l702.exe)
 L702 exits ... SP integral derivatives will be done elsewhere.
 Leave Link  702 at Tue Dec 15 17:07:02 2015, MaxMem=    33554432 cpu:         0.0
 (Enter /home/Applications/g09/g09/l703.exe)
 Compute integral first derivatives, UseDBF=F ICtDFT=           0.
 Integral derivatives from FoFJK, PRISM(SPDF).
 Calling FoFJK, ICntrl=  10005127 FMM=F ISym2X=0 I1Cent= 0 IOpClX= 0 NMat=1 NMatS=1 NMatT=0.
 FoFJK:  IHMeth= 8 ICntrl=10005127 DoSepK=F KAlg= 0 I1Cent=   0 FoldK=F
 IRaf=         0 NMat=   1 IRICut=       1 DoRegI=T DoRafI=F ISym2E= 0.
 FoFCou: FMM=F IPFlag=           0 FMFlag=      100000 FMFlg1=         800
         NFxFlg=           0 DoJE=F BraDBF=F KetDBF=F FulRan=T
         wScrn=  0.000000 ICntrl=10005127 IOpCl=  0 I1Cent=           0 NGrid=           0
         NMat0=    1 NMatS0=      1 NMatT0=    0 NMatD0=    1 NMtDS0=    0 NMtDT0=    0
 Symmetry not used in FoFCou.
 Leave Link  703 at Tue Dec 15 17:07:02 2015, MaxMem=    33554432 cpu:         0.0
 (Enter /home/Applications/g09/g09/l716.exe)
 Dipole        =-4.07502963D+00-1.64839503D+00 9.95339484D-02
 ***** Axes restored to original set *****
 -------------------------------------------------------------------
 Center     Atomic                   Forces (Hartrees/Bohr)
 Number     Number              X              Y              Z
 -------------------------------------------------------------------
      1        6           0.153524078   -0.107141488    0.000224870
      2        6          -0.206845477   -0.135667320   -0.002896951
      3        8           0.074749047    0.068277428    0.003621846
      4        6          -0.267884644    0.120579970   -0.006095728
      5        6           0.180075517    0.116027437    0.005752373
      6        1           0.034087744    0.028475154   -0.000461429
      7        1           0.000749197    0.052227464    0.000911093
      8        1          -0.014604978   -0.105045610    0.000316547
      9        1           0.046149515   -0.037733034   -0.001372622
 -------------------------------------------------------------------
 Cartesian Forces:  Max     0.267884644 RMS     0.097805072
 Z-matrix is all fixed cartesians, so copy forces.
 Force constants in Cartesian coordinates: 
                1             2             3             4             5 
      1  0.847989D+00
      2 -0.475053D-01  0.843805D+00
      3 -0.411341D-02  0.112744D-01  0.206321D+00
      4 -0.453930D+00 -0.834858D-01 -0.780257D-02  0.955204D+00
      5 -0.613253D-01 -0.198439D+00 -0.299986D-02 -0.639389D-01  0.997326D+00
      6 -0.972134D-02 -0.319092D-02 -0.917466D-01  0.106096D-01 -0.384081D-02
      7 -0.768967D-02  0.293111D-01 -0.250059D-03 -0.364316D+00  0.233273D+00
      8 -0.609802D-02  0.232333D-01  0.430722D-04  0.277593D+00 -0.451830D+00
      9 -0.669120D-03  0.134231D-02  0.110263D-01 -0.349433D-02  0.185842D-02
     10  0.974900D-02  0.921718D-05  0.712813D-05  0.244146D-01  0.193511D-01
     11  0.354260D-01  0.355280D-04 -0.407512D-03 -0.186772D-01 -0.148040D-01
     12 -0.772113D-03  0.321738D-04 -0.221508D-02  0.302402D-03  0.174890D-03
     13 -0.174122D+00  0.129090D-01  0.946969D-03  0.917217D-02 -0.349736D-01
     14 -0.122344D-01 -0.468819D+00  0.169834D-02  0.782199D-05 -0.415621D-04
     15  0.252155D-03  0.425699D-02 -0.926964D-01  0.324026D-03 -0.109111D-02
     16  0.178030D-01  0.187206D-04 -0.676860D-05  0.105041D-05  0.000000D+00
     17 -0.228518D-01 -0.246844D-04 -0.192688D-03  0.000000D+00  0.000000D+00
     18  0.123129D-02  0.732664D-04  0.221332D-01 -0.109211D-03  0.167814D-04
     19  0.000000D+00  0.000000D+00  0.496017D-04  0.550189D-05  0.227627D-05
     20  0.000000D+00  0.000000D+00  0.158657D-03  0.000000D+00  0.000000D+00
     21  0.114751D-04  0.201548D-04  0.619455D-02 -0.126198D-03 -0.522112D-04
     22  0.712573D-02 -0.271689D-01  0.355463D-03 -0.165645D+00 -0.110938D+00
     23 -0.317337D-02  0.120795D-01  0.100840D-03 -0.105817D+00 -0.353814D+00
     24  0.776235D-05 -0.176472D-02  0.225858D-01  0.102824D-02  0.465141D-02
     25 -0.246925D+00  0.115912D+00  0.108136D-01 -0.490702D-02  0.185498D-01
     26  0.117762D+00 -0.211872D+00 -0.967526D-02 -0.568156D-02  0.216020D-01
     27  0.137733D-01 -0.120437D-01 -0.816030D-01 -0.731966D-03  0.128250D-02
                6             7             8             9            10 
      6  0.187261D+00
      7 -0.484916D-02  0.622835D+00
      8  0.379416D-02 -0.725962D-01  0.779702D+00
      9 -0.510312D-01  0.132298D-01  0.535764D-02  0.597801D-01
     10  0.105873D-02 -0.287852D+00 -0.207207D+00 -0.981584D-02  0.895710D+00
     11 -0.838207D-03 -0.160717D+00 -0.357158D+00 -0.895687D-02  0.165375D-03
     12 -0.305715D-02 -0.797753D-02 -0.895261D-02 -0.488455D-01  0.104056D-01
     13  0.473140D-03 -0.787348D-02  0.601735D-02  0.147059D-03 -0.490205D+00
     14  0.108447D-03 -0.285922D-01  0.218590D-01  0.185054D-03  0.964188D-01
     15 -0.175048D-03 -0.100903D-02  0.475481D-03  0.795841D-02  0.201880D-02
     16 -0.499778D-04  0.000000D+00  0.000000D+00 -0.710734D-05 -0.481309D-02
     17  0.168438D-04  0.000000D+00  0.125706D-05 -0.474161D-04  0.617315D-02
     18  0.519619D-02 -0.394033D-04 -0.164737D-03  0.621383D-02  0.205838D-03
     19 -0.206746D-03  0.213513D-01 -0.163572D-01  0.941034D-03 -0.147004D+00
     20  0.938491D-05  0.979533D-02 -0.750747D-02  0.536075D-03  0.850910D-01
     21  0.474217D-02  0.779705D-03 -0.746463D-03  0.478974D-02 -0.370983D-02
     22  0.852628D-03  0.235444D-01  0.186477D-01 -0.339422D-03  0.000000D+00
     23  0.343519D-02 -0.104829D-01 -0.830225D-02  0.200605D-03 -0.198267D-05
     24 -0.707857D-01  0.225218D-03  0.221810D-03  0.430920D-02 -0.180752D-03
     25  0.183311D-02  0.000000D+00  0.000000D+00  0.795734D-05  0.000000D+00
     26  0.505914D-03  0.898629D-05  0.232660D-05 -0.475822D-03  0.000000D+00
     27  0.195968D-01 -0.109520D-03 -0.283554D-04  0.579906D-02  0.103564D-04
               11            12            13            14            15 
     11  0.848220D+00
     12  0.465416D-02  0.182305D+00
     13  0.727772D-01  0.888834D-03  0.879844D+00
     14 -0.206405D+00 -0.480058D-03  0.235749D-01  0.832192D+00
     15 -0.128929D-02 -0.959351D-01  0.490549D-03  0.881988D-04  0.210218D+00
     16 -0.174837D-01 -0.199502D-03 -0.243063D+00 -0.105203D+00 -0.110709D-02
     17  0.224249D-01  0.510582D-04 -0.105988D+00 -0.190705D+00 -0.794653D-03
     18  0.669466D-03  0.225205D-01 -0.186747D-02 -0.125052D-02 -0.822323D-01
     19  0.885082D-01 -0.307090D-02  0.715902D-02  0.260091D-01 -0.770285D-03
     20 -0.292312D+00  0.442726D-02  0.327645D-02  0.119017D-01  0.184618D-03
     21  0.622484D-02 -0.671552D-01 -0.978837D-04 -0.440691D-03  0.244876D-01
     22  0.000000D+00  0.769864D-05  0.311526D-05  0.000000D+00 -0.148222D-03
     23  0.000000D+00  0.745033D-04 -0.274900D-05  0.000000D+00  0.130796D-03
     24 -0.747815D-04  0.679215D-02 -0.118671D-03  0.182351D-04  0.564630D-02
     25  0.135202D-05  0.415541D-03  0.190861D-01  0.199279D-04 -0.509079D-04
     26  0.000000D+00  0.186166D-04  0.224091D-01  0.172151D-04 -0.196103D-02
     27  0.181900D-04  0.559067D-02 -0.862526D-03  0.729995D-04  0.227290D-01
               16            17            18            19            20 
     16  0.230066D+00
     17  0.122668D+00  0.168301D+00
     18  0.127887D-02  0.922877D-03  0.439156D-01
     19  0.000000D+00  0.000000D+00 -0.747581D-04  0.118488D+00
     20  0.000000D+00  0.182468D-05 -0.239122D-03 -0.981631D-01  0.287916D+00
     21  0.106787D-04  0.712423D-04 -0.933623D-02  0.313205D-02 -0.507687D-02
     22  0.000000D+00  0.000000D+00  0.000000D+00  0.000000D+00  0.000000D+00
     23  0.000000D+00  0.000000D+00  0.000000D+00  0.000000D+00  0.000000D+00
     24  0.000000D+00  0.000000D+00  0.000000D+00  0.000000D+00  0.000000D+00
     25  0.601281D-05 -0.202647D-05 -0.625152D-03  0.000000D+00  0.000000D+00
     26  0.000000D+00  0.000000D+00 -0.280073D-04  0.000000D+00  0.000000D+00
     27  0.808959D-04 -0.272640D-04 -0.841076D-02  0.000000D+00  0.000000D+00
               21            22            23            24            25 
     21  0.362774D-01
     22  0.000000D+00  0.134971D+00
     23  0.000000D+00  0.119478D+00  0.350021D+00
     24  0.000000D+00 -0.950195D-03 -0.374599D-02  0.399109D-01
     25  0.000000D+00  0.000000D+00  0.000000D+00 -0.116067D-04  0.232739D+00
     26  0.000000D+00 -0.182195D-04  0.160774D-04  0.694043D-03 -0.134481D+00
     27  0.000000D+00  0.222049D-03 -0.195943D-03 -0.845862D-02 -0.123826D-01
               26            27 
     26  0.190234D+00
     27  0.109215D-01  0.447568D-01
 Leave Link  716 at Tue Dec 15 17:07:02 2015, MaxMem=    33554432 cpu:         0.0
 (Enter /home/Applications/g09/g09/l103.exe)

 GradGradGradGradGradGradGradGradGradGradGradGradGradGradGradGradGradGrad
 Berny optimization.
 Search for a local minimum.
 Step number   1 out of a maximum of    2
 All quantities printed in internal units (Hartrees-Bohrs-Radians)
 Second derivative matrix not updated -- first step.
 ITU=  0
     Eigenvalues ---    0.01936   0.03141   0.06888   0.07390   0.07976
     Eigenvalues ---    0.08472   0.13049   0.15106   0.16107   0.24508
     Eigenvalues ---    0.25823   0.29227   0.38974   0.43605   0.63135
     Eigenvalues ---    0.82310   1.12596   1.37976   1.45644   1.52208
     Eigenvalues ---    1.71417
 Quadratic step=1.527D+00 exceeds max=3.000D-01 adjusted using Lamda=-9.635D-01.
 Angle between NR and scaled steps=  27.65 degrees.
 Angle between quadratic step and forces=  19.92 degrees.
 Linear search not attempted -- first point.
 TrRot= -0.002446  0.004093  0.000166 -0.000280 -0.000038 -0.000280
 Variable       Old X    -DE/DX   Delta X   Delta X   Delta X     New X
                                 (Linear)    (Quad)   (Total)
    X1        1.82184   0.15352   0.00000   0.07507   0.07185   1.89369
    Y1       -1.30429  -0.10714   0.00000  -0.06692  -0.06389  -1.36818
    Z1        0.08816   0.00022   0.00000  -0.00102  -0.00078   0.08738
    X2       -0.71825  -0.20685   0.00000  -0.09865  -0.10226  -0.82050
    Y2       -1.97116  -0.13567   0.00000  -0.09487  -0.09032  -2.06148
    Z2        0.03693  -0.00290   0.00000  -0.00113  -0.00100   0.03593
    X3       -2.24583   0.07475   0.00000   0.03144   0.02899  -2.21684
    Y3       -0.04281   0.06828   0.00000   0.03004   0.03538  -0.00743
    Z3        0.01750   0.00362   0.00000   0.00215   0.00223   0.01973
    X4       -0.67348  -0.26788   0.00000  -0.12089  -0.12216  -0.79564
    Y4        2.01331   0.12058   0.00000   0.08518   0.08971   2.10303
    Z4        0.08199  -0.00610   0.00000  -0.00400  -0.00386   0.07812
    X5        1.81907   0.18008   0.00000   0.07692   0.07525   1.89432
    Y5        1.32717   0.11603   0.00000   0.06776   0.07079   1.39796
    Z5        0.07960   0.00575   0.00000   0.00468   0.00492   0.08452
    X6        3.47388   0.03409   0.00000   0.04634   0.04538   3.51926
    Y6        2.61701   0.02848   0.00000   0.03826   0.04038   2.65739
    Z6        0.09134  -0.00046   0.00000  -0.00013   0.00017   0.09151
    X7       -1.54158   0.00075   0.00000  -0.01906  -0.01928  -1.56087
    Y7        3.90888   0.05223   0.00000   0.06510   0.07007   3.97895
    Z7        0.04039   0.00091   0.00000  -0.00008   0.00003   0.04042
    X8       -1.52296  -0.01460   0.00000  -0.02630  -0.03092  -1.55388
    Y8       -3.77807  -0.10505   0.00000  -0.11207  -0.10711  -3.88519
    Z8        0.05766   0.00032   0.00000   0.00014   0.00025   0.05791
    X9        3.38501   0.04615   0.00000   0.05711   0.05316   3.43817
    Y9       -2.63997  -0.03773   0.00000  -0.04718  -0.04501  -2.68498
    Z9       -0.02358  -0.00137   0.00000  -0.00226  -0.00196  -0.02554
         Item               Value     Threshold  Converged?
 Maximum Force            0.267885     0.000450     NO 
 RMS     Force            0.097805     0.000300     NO 
 Maximum Displacement     0.122163     0.001800     NO 
 RMS     Displacement     0.057702     0.001200     NO 
 Predicted change in Energy=-1.151327D-01
 GradGradGradGradGradGradGradGradGradGradGradGradGradGradGradGradGradGrad

 Leave Link  103 at Tue Dec 15 17:07:02 2015, MaxMem=    33554432 cpu:         0.0
 (Enter /home/Applications/g09/g09/l9999.exe)
 1\1\GINC-DUSTIN-DESKTOP\Force\RAM1-FC\STO-3G\C4H4O1\DUSTIN\15-Dec-2015
 \0\\#P AM1(Input,print) CIS(Singlets,NStates=15) pop(full) force\\AM1-
 Reparam Input\\0,1\C,0.964074,-0.690201,0.046651\C,-0.38008,-1.043094,
 0.01954\O,-1.188442,-0.022654,0.009263\C,-0.356388,1.0654,0.043385\C,0
 .962608,0.702308,0.042123\H,1.8383,1.384862,0.048333\H,-0.815771,2.068
 49,0.021372\H,-0.805915,-1.99927,0.030511\H,1.791271,-1.397012,-0.0124
 79\\Version=ES64L-G09RevD.01\State=1-A\HF=1.6923016\RMSD=2.230e-09\RMS
 F=9.781e-02\Dipole=-4.3934284,-0.0997786,-0.1442597\PG=C01 [X(C4H4O1)]
 \\@


 THEORY:  SUPPOSITION WHICH HAS SCIENTIFIC BASIS,
          BUT NOT EXPERIMENTALLY PROVEN.
 FACT:    A THEORY WHICH HAS BEEN PROVEN BY ENOUGH 
          MONEY TO PAY FOR THE EXPERIMENTS.

                          --  THE WIZARD OF ID
 Job cpu time:       0 days  0 hours  0 minutes  0.7 seconds.
 File lengths (MBytes):  RWF=      7 Int=      0 D2E=      0 Chk=      2 Scr=      1
 Normal termination of Gaussian 09 at Tue Dec 15 17:07:02 2015.
