 Entering Gaussian System, Link 0=g09
 Input=FuranDFTopt.com
 Output=FuranDFTopt.log
 Initial command:
 /home/Applications/g09/g09/l1.exe "/home/Applications/g09/scratch/Gau-23060.inp" -scrdir="/home/Applications/g09/scratch/"
 Entering Link 1 = /home/Applications/g09/g09/l1.exe PID=     23062.
  
 Copyright (c) 1988,1990,1992,1993,1995,1998,2003,2009,2013,
            Gaussian, Inc.  All Rights Reserved.
  
 This is part of the Gaussian(R) 09 program.  It is based on
 the Gaussian(R) 03 system (copyright 2003, Gaussian, Inc.),
 the Gaussian(R) 98 system (copyright 1998, Gaussian, Inc.),
 the Gaussian(R) 94 system (copyright 1995, Gaussian, Inc.),
 the Gaussian 92(TM) system (copyright 1992, Gaussian, Inc.),
 the Gaussian 90(TM) system (copyright 1990, Gaussian, Inc.),
 the Gaussian 88(TM) system (copyright 1988, Gaussian, Inc.),
 the Gaussian 86(TM) system (copyright 1986, Carnegie Mellon
 University), and the Gaussian 82(TM) system (copyright 1983,
 Carnegie Mellon University). Gaussian is a federally registered
 trademark of Gaussian, Inc.
  
 This software contains proprietary and confidential information,
 including trade secrets, belonging to Gaussian, Inc.
  
 This software is provided under written license and may be
 used, copied, transmitted, or stored only in accord with that
 written license.
  
 The following legend is applicable only to US Government
 contracts under FAR:
  
                    RESTRICTED RIGHTS LEGEND
  
 Use, reproduction and disclosure by the US Government is
 subject to restrictions as set forth in subparagraphs (a)
 and (c) of the Commercial Computer Software - Restricted
 Rights clause in FAR 52.227-19.
  
 Gaussian, Inc.
 340 Quinnipiac St., Bldg. 40, Wallingford CT 06492
  
  
 ---------------------------------------------------------------
 Warning -- This program may not be used in any manner that
 competes with the business of Gaussian, Inc. or will provide
 assistance to any competitor of Gaussian, Inc.  The licensee
 of this program is prohibited from giving any competitor of
 Gaussian, Inc. access to this program.  By using this program,
 the user acknowledges that Gaussian, Inc. is engaged in the
 business of creating and licensing software in the field of
 computational chemistry and represents and warrants to the
 licensee that it is not a competitor of Gaussian, Inc. and that
 it will not use this program in any manner prohibited above.
 ---------------------------------------------------------------
  

 Cite this work as:
 Gaussian 09, Revision D.01,
 M. J. Frisch, G. W. Trucks, H. B. Schlegel, G. E. Scuseria, 
 M. A. Robb, J. R. Cheeseman, G. Scalmani, V. Barone, B. Mennucci, 
 G. A. Petersson, H. Nakatsuji, M. Caricato, X. Li, H. P. Hratchian, 
 A. F. Izmaylov, J. Bloino, G. Zheng, J. L. Sonnenberg, M. Hada, 
 M. Ehara, K. Toyota, R. Fukuda, J. Hasegawa, M. Ishida, T. Nakajima, 
 Y. Honda, O. Kitao, H. Nakai, T. Vreven, J. A. Montgomery, Jr., 
 J. E. Peralta, F. Ogliaro, M. Bearpark, J. J. Heyd, E. Brothers, 
 K. N. Kudin, V. N. Staroverov, T. Keith, R. Kobayashi, J. Normand, 
 K. Raghavachari, A. Rendell, J. C. Burant, S. S. Iyengar, J. Tomasi, 
 M. Cossi, N. Rega, J. M. Millam, M. Klene, J. E. Knox, J. B. Cross, 
 V. Bakken, C. Adamo, J. Jaramillo, R. Gomperts, R. E. Stratmann, 
 O. Yazyev, A. J. Austin, R. Cammi, C. Pomelli, J. W. Ochterski, 
 R. L. Martin, K. Morokuma, V. G. Zakrzewski, G. A. Voth, 
 P. Salvador, J. J. Dannenberg, S. Dapprich, A. D. Daniels, 
 O. Farkas, J. B. Foresman, J. V. Ortiz, J. Cioslowski, 
 and D. J. Fox, Gaussian, Inc., Wallingford CT, 2013.
 
 ******************************************
 Gaussian 09:  ES64L-G09RevD.01 24-Apr-2013
                 1-Dec-2015 
 ******************************************
 --------------------
 #P B3LYP/cc-pVDZ opt
 --------------------
 1/14=-1,18=20,19=15,26=3,38=1/1,3;
 2/9=110,12=2,17=6,18=5,40=1/2;
 3/5=16,11=2,16=1,25=1,30=1,71=1,74=-5/1,2,3;
 4//1;
 5/5=2,38=5/2;
 6/7=2,8=2,9=2,10=2,28=1/1;
 7//1,2,3,16;
 1/14=-1,18=20,19=15,26=3/3(2);
 2/9=110/2;
 99//99;
 2/9=110/2;
 3/5=16,11=2,16=1,25=1,30=1,71=1,74=-5/1,2,3;
 4/5=5,16=3,69=1/1;
 5/5=2,38=5/2;
 7//1,2,3,16;
 1/14=-1,18=20,19=15,26=3/3(-5);
 2/9=110/2;
 6/7=2,8=2,9=2,10=2,19=2,28=1/1;
 99/9=1/99;
 Leave Link    1 at Tue Dec  1 15:48:10 2015, MaxMem=           0 cpu:         0.0
 (Enter /home/Applications/g09/g09/l101.exe)
 --------
 FuranDFT
 --------
 Symbolic Z-matrix:
 Charge =  0 Multiplicity = 1
 6                     0.95548  -0.71596   0. 
 6                    -0.34563  -1.09282   0. 
 8                    -1.15731   0.        0. 
 6                    -0.34563   1.09282   0. 
 6                     0.95548   0.71596   0. 
 1                     1.81044   1.36938   0. 
 1                    -0.84031   2.04688   0. 
 1                    -0.84031  -2.04688   0. 
 1                     1.81044  -1.36938   0. 
 
 NAtoms=      9 NQM=        9 NQMF=       0 NMMI=      0 NMMIF=      0
                NMic=       0 NMicF=      0.
                    Isotopes and Nuclear Properties:
 (Nuclear quadrupole moments (NQMom) in fm**2, nuclear magnetic moments (NMagM)
  in nuclear magnetons)

  Atom         1           2           3           4           5           6           7           8           9
 IAtWgt=          12          12          16          12          12           1           1           1           1
 AtmWgt=  12.0000000  12.0000000  15.9949146  12.0000000  12.0000000   1.0078250   1.0078250   1.0078250   1.0078250
 NucSpn=           0           0           0           0           0           1           1           1           1
 AtZEff=   0.0000000   0.0000000   0.0000000   0.0000000   0.0000000   0.0000000   0.0000000   0.0000000   0.0000000
 NQMom=    0.0000000   0.0000000   0.0000000   0.0000000   0.0000000   0.0000000   0.0000000   0.0000000   0.0000000
 NMagM=    0.0000000   0.0000000   0.0000000   0.0000000   0.0000000   2.7928460   2.7928460   2.7928460   2.7928460
 AtZNuc=   6.0000000   6.0000000   8.0000000   6.0000000   6.0000000   1.0000000   1.0000000   1.0000000   1.0000000
 Leave Link  101 at Tue Dec  1 15:48:10 2015, MaxMem=    33554432 cpu:         0.0
 (Enter /home/Applications/g09/g09/l103.exe)

 GradGradGradGradGradGradGradGradGradGradGradGradGradGradGradGradGradGrad
 Berny optimization.
 Initialization pass.
                           ----------------------------
                           !    Initial Parameters    !
                           ! (Angstroms and Degrees)  !
 --------------------------                            --------------------------
 ! Name  Definition              Value          Derivative Info.                !
 --------------------------------------------------------------------------------
 ! R1    R(1,2)                  1.3546         estimate D2E/DX2                !
 ! R2    R(1,5)                  1.4319         estimate D2E/DX2                !
 ! R3    R(1,9)                  1.0761         estimate D2E/DX2                !
 ! R4    R(2,3)                  1.3613         estimate D2E/DX2                !
 ! R5    R(2,8)                  1.0747         estimate D2E/DX2                !
 ! R6    R(3,4)                  1.3613         estimate D2E/DX2                !
 ! R7    R(4,5)                  1.3546         estimate D2E/DX2                !
 ! R8    R(4,7)                  1.0747         estimate D2E/DX2                !
 ! R9    R(5,6)                  1.0761         estimate D2E/DX2                !
 ! A1    A(2,1,5)              106.1533         estimate D2E/DX2                !
 ! A2    A(2,1,9)              126.4573         estimate D2E/DX2                !
 ! A3    A(5,1,9)              127.3894         estimate D2E/DX2                !
 ! A4    A(1,2,3)              110.4494         estimate D2E/DX2                !
 ! A5    A(1,2,8)              133.5599         estimate D2E/DX2                !
 ! A6    A(3,2,8)              115.9907         estimate D2E/DX2                !
 ! A7    A(2,3,4)              106.7946         estimate D2E/DX2                !
 ! A8    A(3,4,5)              110.4494         estimate D2E/DX2                !
 ! A9    A(3,4,7)              115.9907         estimate D2E/DX2                !
 ! A10   A(5,4,7)              133.5599         estimate D2E/DX2                !
 ! A11   A(1,5,4)              106.1533         estimate D2E/DX2                !
 ! A12   A(1,5,6)              127.3894         estimate D2E/DX2                !
 ! A13   A(4,5,6)              126.4573         estimate D2E/DX2                !
 ! D1    D(5,1,2,3)              0.0            estimate D2E/DX2                !
 ! D2    D(5,1,2,8)            180.0            estimate D2E/DX2                !
 ! D3    D(9,1,2,3)            180.0            estimate D2E/DX2                !
 ! D4    D(9,1,2,8)              0.0            estimate D2E/DX2                !
 ! D5    D(2,1,5,4)              0.0            estimate D2E/DX2                !
 ! D6    D(2,1,5,6)            180.0            estimate D2E/DX2                !
 ! D7    D(9,1,5,4)            180.0            estimate D2E/DX2                !
 ! D8    D(9,1,5,6)              0.0            estimate D2E/DX2                !
 ! D9    D(1,2,3,4)              0.0            estimate D2E/DX2                !
 ! D10   D(8,2,3,4)            180.0            estimate D2E/DX2                !
 ! D11   D(2,3,4,5)              0.0            estimate D2E/DX2                !
 ! D12   D(2,3,4,7)            180.0            estimate D2E/DX2                !
 ! D13   D(3,4,5,1)              0.0            estimate D2E/DX2                !
 ! D14   D(3,4,5,6)            180.0            estimate D2E/DX2                !
 ! D15   D(7,4,5,1)            180.0            estimate D2E/DX2                !
 ! D16   D(7,4,5,6)              0.0            estimate D2E/DX2                !
 --------------------------------------------------------------------------------
 Trust Radius=3.00D-01 FncErr=1.00D-07 GrdErr=1.00D-06
 Number of steps in this run=     48 maximum allowed number of steps=    100.
 GradGradGradGradGradGradGradGradGradGradGradGradGradGradGradGradGradGrad

 Leave Link  103 at Tue Dec  1 15:48:10 2015, MaxMem=    33554432 cpu:         0.0
 (Enter /home/Applications/g09/g09/l202.exe)
                          Input orientation:                          
 ---------------------------------------------------------------------
 Center     Atomic      Atomic             Coordinates (Angstroms)
 Number     Number       Type             X           Y           Z
 ---------------------------------------------------------------------
      1          6           0        0.955475   -0.715963    0.000000
      2          6           0       -0.345627   -1.092818    0.000000
      3          8           0       -1.157305    0.000000    0.000000
      4          6           0       -0.345627    1.092818    0.000000
      5          6           0        0.955475    0.715963    0.000000
      6          1           0        1.810438    1.369382    0.000000
      7          1           0       -0.840307    2.046884    0.000000
      8          1           0       -0.840307   -2.046884    0.000000
      9          1           0        1.810438   -1.369382    0.000000
 ---------------------------------------------------------------------
                    Distance matrix (angstroms):
                    1          2          3          4          5
     1  C    0.000000
     2  C    1.354580   0.000000
     3  O    2.230794   1.361276   0.000000
     4  C    2.228128   2.185636   1.361276   0.000000
     5  C    1.431926   2.228128   2.230794   1.354580   0.000000
     6  H    2.253802   3.272773   3.268441   2.173730   1.076066
     7  H    3.295172   3.178433   2.071285   1.074686   2.235214
     8  H    2.235214   1.074686   2.071285   3.178433   3.295172
     9  H    1.076066   2.173730   3.268441   3.272773   2.253802
                    6          7          8          9
     6  H    0.000000
     7  H    2.735957   0.000000
     8  H    4.324040   4.093768   0.000000
     9  H    2.738764   4.324040   2.735957   0.000000
 Stoichiometry    C4H4O
 Framework group  C2V[C2(O),SGV(C4H4)]
 Deg. of freedom     8
 Full point group                 C2V     NOp   4
 Largest Abelian subgroup         C2V     NOp   4
 Largest concise Abelian subgroup C2      NOp   2
                         Standard orientation:                         
 ---------------------------------------------------------------------
 Center     Atomic      Atomic             Coordinates (Angstroms)
 Number     Number       Type             X           Y           Z
 ---------------------------------------------------------------------
      1          6           0        0.000000    0.715963   -0.955475
      2          6           0        0.000000    1.092818    0.345627
      3          8           0        0.000000    0.000000    1.157305
      4          6           0        0.000000   -1.092818    0.345627
      5          6           0        0.000000   -0.715963   -0.955475
      6          1           0        0.000000   -1.369382   -1.810438
      7          1           0        0.000000   -2.046884    0.840307
      8          1           0        0.000000    2.046884    0.840307
      9          1           0        0.000000    1.369382   -1.810438
 ---------------------------------------------------------------------
 Rotational constants (GHZ):      9.5015164      9.3284592      4.7070963
 Leave Link  202 at Tue Dec  1 15:48:10 2015, MaxMem=    33554432 cpu:         0.0
 (Enter /home/Applications/g09/g09/l301.exe)
 Standard basis: CC-pVDZ (5D, 7F)
 Ernie: Thresh=  0.10000D-02 Tol=  0.10000D-05 Strict=F.
 Ernie:  10 primitive shells out of 130 were deleted.
 There are    38 symmetry adapted cartesian basis functions of A1  symmetry.
 There are    11 symmetry adapted cartesian basis functions of A2  symmetry.
 There are    13 symmetry adapted cartesian basis functions of B1  symmetry.
 There are    33 symmetry adapted cartesian basis functions of B2  symmetry.
 There are    35 symmetry adapted basis functions of A1  symmetry.
 There are    11 symmetry adapted basis functions of A2  symmetry.
 There are    13 symmetry adapted basis functions of B1  symmetry.
 There are    31 symmetry adapted basis functions of B2  symmetry.
    90 basis functions,   193 primitive gaussians,    95 cartesian basis functions
    18 alpha electrons       18 beta electrons
       nuclear repulsion energy       161.2261194346 Hartrees.
 IExCor=  402 DFT=T Ex+Corr=B3LYP ExCW=0 ScaHFX=  0.200000
 ScaDFX=  0.800000  0.720000  1.000000  0.810000 ScalE2=  1.000000  1.000000
 IRadAn=      0 IRanWt=     -1 IRanGd=            0 ICorTp=0 IEmpDi=  4
 NAtoms=    9 NActive=    9 NUniq=    5 SFac= 3.24D+00 NAtFMM=   60 NAOKFM=F Big=F
 Integral buffers will be    131072 words long.
 Raffenetti 2 integral format.
 Two-electron integral symmetry is turned on.
 Leave Link  301 at Tue Dec  1 15:48:10 2015, MaxMem=    33554432 cpu:         0.0
 (Enter /home/Applications/g09/g09/l302.exe)
 NPDir=0 NMtPBC=     1 NCelOv=     1 NCel=       1 NClECP=     1 NCelD=      1
         NCelK=      1 NCelE2=     1 NClLst=     1 CellRange=     0.0.
 One-electron integrals computed using PRISM.
 One-electron integral symmetry used in STVInt
 NBasis=    90 RedAO= T EigKep=  8.24D-04  NBF=    35    11    13    31
 NBsUse=    90 1.00D-06 EigRej= -1.00D+00 NBFU=    35    11    13    31
 Precomputing XC quadrature grid using
 IXCGrd= 4 IRadAn=           0 IRanWt=          -1 IRanGd=           0 AccXCQ= 0.00D+00.
 Generated NRdTot=       0 NPtTot=           0 NUsed=           0 NTot=          32
 NSgBfM=    95    95    95    95    95 MxSgAt=     9 MxSgA2=     9.
 Leave Link  302 at Tue Dec  1 15:48:11 2015, MaxMem=    33554432 cpu:         0.1
 (Enter /home/Applications/g09/g09/l303.exe)
 DipDrv:  MaxL=1.
 Leave Link  303 at Tue Dec  1 15:48:11 2015, MaxMem=    33554432 cpu:         0.0
 (Enter /home/Applications/g09/g09/l401.exe)
 ExpMin= 1.22D-01 ExpMax= 1.17D+04 ExpMxC= 4.01D+02 IAcc=1 IRadAn=         1 AccDes= 0.00D+00
 Harris functional with IExCor=  402 and IRadAn=       1 diagonalized for initial guess.
 HarFok:  IExCor=  402 AccDes= 0.00D+00 IRadAn=         1 IDoV= 1 UseB2=F ITyADJ=14
 ICtDFT=  3500011 ScaDFX=  1.000000  1.000000  1.000000  1.000000
 FoFCou: FMM=F IPFlag=           0 FMFlag=      100000 FMFlg1=           0
         NFxFlg=           0 DoJE=T BraDBF=F KetDBF=T FulRan=T
         wScrn=  0.000000 ICntrl=     500 IOpCl=  0 I1Cent=   200000004 NGrid=           0
         NMat0=    1 NMatS0=      1 NMatT0=    0 NMatD0=    1 NMtDS0=    0 NMtDT0=    0
 Petite list used in FoFCou.
 Harris En= -230.038184133889    
 JPrj=0 DoOrth=F DoCkMO=F.
 Initial guess orbital symmetries:
       Occupied  (A1) (A1) (B2) (B2) (A1) (A1) (A1) (B2) (B2) (A1)
                 (A1) (B2) (B2) (B1) (A1) (A1) (B1) (A2)
       Virtual   (B1) (A2) (A1) (A1) (B2) (B2) (A1) (B2) (A1) (B2)
                 (B2) (A1) (A1) (B2) (B1) (B2) (A2) (A1) (B1) (A1)
                 (A2) (B2) (A1) (B2) (A1) (B1) (B2) (A1) (B1) (B2)
                 (A1) (B2) (B1) (A2) (A1) (A2) (A1) (B1) (B2) (B2)
                 (A1) (B2) (A2) (A1) (B1) (A1) (B2) (B1) (A1) (B2)
                 (A2) (A2) (A1) (B2) (A1) (B1) (B2) (A1) (A2) (B2)
                 (B2) (A1) (A1) (B2) (B2) (A1) (B1) (A2) (A1) (B2)
                 (B2) (A1)
 The electronic state of the initial guess is 1-A1.
 Leave Link  401 at Tue Dec  1 15:48:11 2015, MaxMem=    33554432 cpu:         0.1
 (Enter /home/Applications/g09/g09/l502.exe)
 Closed shell SCF:
 Using DIIS extrapolation, IDIIS=  1040.
 Integral symmetry usage will be decided dynamically.
 Keep R1 ints in memory in symmetry-blocked form, NReq=10650281.
 IVT=       47143 IEndB=       47143 NGot=    33554432 MDV=    31290802
 LenX=    31290802 LenY=    31281336
 Requested convergence on RMS density matrix=1.00D-08 within 128 cycles.
 Requested convergence on MAX density matrix=1.00D-06.
 Requested convergence on             energy=1.00D-06.
 No special actions if energy rises.
 FoFCou: FMM=F IPFlag=           0 FMFlag=           0 FMFlg1=           0
         NFxFlg=           0 DoJE=F BraDBF=F KetDBF=F FulRan=T
         wScrn=  0.000000 ICntrl=     600 IOpCl=  0 I1Cent=           0 NGrid=           0
         NMat0=    1 NMatS0=   4095 NMatT0=    0 NMatD0=    1 NMtDS0=    0 NMtDT0=    0
 Petite list used in FoFCou.
 Integral accuracy reduced to 1.0D-05 until final iterations.

 Cycle   1  Pass 0  IDiag  1:
 E= -229.927592006806    
 DIIS: error= 3.28D-02 at cycle   1 NSaved=   1.
 NSaved= 1 IEnMin= 1 EnMin= -229.927592006806     IErMin= 1 ErrMin= 3.28D-02
 ErrMax= 3.28D-02  0.00D+00 EMaxC= 1.00D-01 BMatC= 9.32D-02 BMatP= 9.32D-02
 IDIUse=3 WtCom= 6.72D-01 WtEn= 3.28D-01
 Coeff-Com:  0.100D+01
 Coeff-En:   0.100D+01
 Coeff:      0.100D+01
 Gap=     0.222 Goal=   None    Shift=    0.000
 GapD=    0.222 DampG=1.000 DampE=0.500 DampFc=0.5000 IDamp=-1.
 Damping current iteration by 5.00D-01
 RMSDP=7.39D-03 MaxDP=1.39D-01              OVMax= 2.07D-01

 Cycle   2  Pass 0  IDiag  1:
 E= -229.970647128253     Delta-E=       -0.043055121447 Rises=F Damp=T
 DIIS: error= 1.19D-02 at cycle   2 NSaved=   2.
 NSaved= 2 IEnMin= 2 EnMin= -229.970647128253     IErMin= 2 ErrMin= 1.19D-02
 ErrMax= 1.19D-02  0.00D+00 EMaxC= 1.00D-01 BMatC= 9.28D-03 BMatP= 9.32D-02
 IDIUse=3 WtCom= 8.81D-01 WtEn= 1.19D-01
 Coeff-Com:  0.121D+00 0.879D+00
 Coeff-En:   0.191D+00 0.809D+00
 Coeff:      0.129D+00 0.871D+00
 Gap=     0.237 Goal=   None    Shift=    0.000
 RMSDP=2.45D-03 MaxDP=3.57D-02 DE=-4.31D-02 OVMax= 1.65D-01

 Cycle   3  Pass 0  IDiag  1:
 E= -230.025943860564     Delta-E=       -0.055296732312 Rises=F Damp=F
 DIIS: error= 1.22D-02 at cycle   3 NSaved=   3.
 NSaved= 3 IEnMin= 3 EnMin= -230.025943860564     IErMin= 2 ErrMin= 1.19D-02
 ErrMax= 1.22D-02  0.00D+00 EMaxC= 1.00D-01 BMatC= 1.09D-02 BMatP= 9.28D-03
 IDIUse=2 WtCom= 0.00D+00 WtEn= 1.00D+00
 Coeff-En:   0.000D+00 0.000D+00 0.100D+01
 Coeff:      0.000D+00 0.000D+00 0.100D+01
 Gap=     0.232 Goal=   None    Shift=    0.000
 RMSDP=2.98D-03 MaxDP=6.24D-02 DE=-5.53D-02 OVMax= 1.27D-01

 Cycle   4  Pass 0  IDiag  1:
 E= -229.993397741193     Delta-E=        0.032546119371 Rises=F Damp=F
 DIIS: error= 2.70D-02 at cycle   4 NSaved=   4.
 NSaved= 4 IEnMin= 3 EnMin= -230.025943860564     IErMin= 2 ErrMin= 1.19D-02
 ErrMax= 2.70D-02  0.00D+00 EMaxC= 1.00D-01 BMatC= 4.55D-02 BMatP= 9.28D-03
 IDIUse=2 WtCom= 0.00D+00 WtEn= 1.00D+00
 Coeff-En:   0.000D+00 0.000D+00 0.756D+00 0.244D+00
 Coeff:      0.000D+00 0.000D+00 0.756D+00 0.244D+00
 Gap=     0.241 Goal=   None    Shift=    0.000
 RMSDP=1.50D-03 MaxDP=3.15D-02 DE= 3.25D-02 OVMax= 6.89D-02

 Cycle   5  Pass 0  IDiag  1:
 E= -230.033818581230     Delta-E=       -0.040420840037 Rises=F Damp=F
 DIIS: error= 6.35D-03 at cycle   5 NSaved=   5.
 NSaved= 5 IEnMin= 5 EnMin= -230.033818581230     IErMin= 5 ErrMin= 6.35D-03
 ErrMax= 6.35D-03  0.00D+00 EMaxC= 1.00D-01 BMatC= 2.67D-03 BMatP= 9.28D-03
 IDIUse=3 WtCom= 9.37D-01 WtEn= 6.35D-02
 Coeff-Com: -0.595D-02 0.246D-01 0.219D+00-0.117D+00 0.879D+00
 Coeff-En:   0.000D+00 0.000D+00 0.242D+00 0.000D+00 0.758D+00
 Coeff:     -0.557D-02 0.230D-01 0.221D+00-0.110D+00 0.871D+00
 Gap=     0.244 Goal=   None    Shift=    0.000
 RMSDP=5.21D-04 MaxDP=1.02D-02 DE=-4.04D-02 OVMax= 2.23D-02

 Cycle   6  Pass 0  IDiag  1:
 E= -230.036364273236     Delta-E=       -0.002545692006 Rises=F Damp=F
 DIIS: error= 3.32D-04 at cycle   6 NSaved=   6.
 NSaved= 6 IEnMin= 6 EnMin= -230.036364273236     IErMin= 6 ErrMin= 3.32D-04
 ErrMax= 3.32D-04  0.00D+00 EMaxC= 1.00D-01 BMatC= 8.38D-06 BMatP= 2.67D-03
 IDIUse=3 WtCom= 9.97D-01 WtEn= 3.32D-03
 Coeff-Com: -0.472D-02 0.103D-01 0.934D-01-0.714D-01 0.478D+00 0.495D+00
 Coeff-En:   0.000D+00 0.000D+00 0.000D+00 0.000D+00 0.000D+00 0.100D+01
 Coeff:     -0.471D-02 0.103D-01 0.931D-01-0.712D-01 0.476D+00 0.496D+00
 Gap=     0.244 Goal=   None    Shift=    0.000
 RMSDP=3.02D-05 MaxDP=6.21D-04 DE=-2.55D-03 OVMax= 1.35D-03

 Cycle   7  Pass 0  IDiag  1:
 E= -230.036373038799     Delta-E=       -0.000008765562 Rises=F Damp=F
 DIIS: error= 2.31D-05 at cycle   7 NSaved=   7.
 NSaved= 7 IEnMin= 7 EnMin= -230.036373038799     IErMin= 7 ErrMin= 2.31D-05
 ErrMax= 2.31D-05  0.00D+00 EMaxC= 1.00D-01 BMatC= 7.02D-08 BMatP= 8.38D-06
 IDIUse=1 WtCom= 1.00D+00 WtEn= 0.00D+00
 Coeff-Com: -0.242D-03-0.250D-03 0.744D-02-0.529D-02 0.397D-01 0.120D+00
 Coeff-Com:  0.839D+00
 Coeff:     -0.242D-03-0.250D-03 0.744D-02-0.529D-02 0.397D-01 0.120D+00
 Coeff:      0.839D+00
 Gap=     0.244 Goal=   None    Shift=    0.000
 RMSDP=2.60D-06 MaxDP=4.05D-05 DE=-8.77D-06 OVMax= 6.48D-05

 Initial convergence to 1.0D-05 achieved.  Increase integral accuracy.
 Cycle   8  Pass 1  IDiag  1:
 E= -230.036429832832     Delta-E=       -0.000056794033 Rises=F Damp=F
 DIIS: error= 1.81D-05 at cycle   1 NSaved=   1.
 NSaved= 1 IEnMin= 1 EnMin= -230.036429832832     IErMin= 1 ErrMin= 1.81D-05
 ErrMax= 1.81D-05  0.00D+00 EMaxC= 1.00D-01 BMatC= 1.19D-08 BMatP= 1.19D-08
 IDIUse=1 WtCom= 1.00D+00 WtEn= 0.00D+00
 Coeff-Com:  0.100D+01
 Coeff:      0.100D+01
 Gap=     0.244 Goal=   None    Shift=    0.000
 RMSDP=2.60D-06 MaxDP=4.05D-05 DE=-5.68D-05 OVMax= 5.69D-05

 Cycle   9  Pass 1  IDiag  1:
 E= -230.036429847147     Delta-E=       -0.000000014315 Rises=F Damp=F
 DIIS: error= 5.89D-06 at cycle   2 NSaved=   2.
 NSaved= 2 IEnMin= 2 EnMin= -230.036429847147     IErMin= 2 ErrMin= 5.89D-06
 ErrMax= 5.89D-06  0.00D+00 EMaxC= 1.00D-01 BMatC= 2.48D-09 BMatP= 1.19D-08
 IDIUse=1 WtCom= 1.00D+00 WtEn= 0.00D+00
 Coeff-Com:  0.207D+00 0.793D+00
 Coeff:      0.207D+00 0.793D+00
 Gap=     0.244 Goal=   None    Shift=    0.000
 RMSDP=1.18D-06 MaxDP=1.93D-05 DE=-1.43D-08 OVMax= 4.85D-05

 Cycle  10  Pass 1  IDiag  1:
 E= -230.036429845009     Delta-E=        0.000000002138 Rises=F Damp=F
 DIIS: error= 8.59D-06 at cycle   3 NSaved=   3.
 NSaved= 3 IEnMin= 2 EnMin= -230.036429847147     IErMin= 2 ErrMin= 5.89D-06
 ErrMax= 8.59D-06  0.00D+00 EMaxC= 1.00D-01 BMatC= 4.67D-09 BMatP= 2.48D-09
 IDIUse=1 WtCom= 1.00D+00 WtEn= 0.00D+00
 Coeff-Com: -0.180D-01 0.587D+00 0.431D+00
 Coeff:     -0.180D-01 0.587D+00 0.431D+00
 Gap=     0.244 Goal=   None    Shift=    0.000
 RMSDP=7.00D-07 MaxDP=1.18D-05 DE= 2.14D-09 OVMax= 3.07D-05

 Cycle  11  Pass 1  IDiag  1:
 E= -230.036429849721     Delta-E=       -0.000000004713 Rises=F Damp=F
 DIIS: error= 8.81D-07 at cycle   4 NSaved=   4.
 NSaved= 4 IEnMin= 4 EnMin= -230.036429849721     IErMin= 4 ErrMin= 8.81D-07
 ErrMax= 8.81D-07  0.00D+00 EMaxC= 1.00D-01 BMatC= 7.79D-11 BMatP= 2.48D-09
 IDIUse=1 WtCom= 1.00D+00 WtEn= 0.00D+00
 Coeff-Com: -0.155D-01 0.312D+00 0.243D+00 0.461D+00
 Coeff:     -0.155D-01 0.312D+00 0.243D+00 0.461D+00
 Gap=     0.244 Goal=   None    Shift=    0.000
 RMSDP=6.94D-08 MaxDP=1.73D-06 DE=-4.71D-09 OVMax= 2.42D-06

 Cycle  12  Pass 1  IDiag  1:
 E= -230.036429849782     Delta-E=       -0.000000000061 Rises=F Damp=F
 DIIS: error= 2.11D-07 at cycle   5 NSaved=   5.
 NSaved= 5 IEnMin= 5 EnMin= -230.036429849782     IErMin= 5 ErrMin= 2.11D-07
 ErrMax= 2.11D-07  0.00D+00 EMaxC= 1.00D-01 BMatC= 2.92D-12 BMatP= 7.79D-11
 IDIUse=1 WtCom= 1.00D+00 WtEn= 0.00D+00
 Coeff-Com: -0.425D-02 0.682D-01 0.578D-01 0.191D+00 0.688D+00
 Coeff:     -0.425D-02 0.682D-01 0.578D-01 0.191D+00 0.688D+00
 Gap=     0.244 Goal=   None    Shift=    0.000
 RMSDP=1.90D-08 MaxDP=4.45D-07 DE=-6.07D-11 OVMax= 8.74D-07

 Cycle  13  Pass 1  IDiag  1:
 E= -230.036429849784     Delta-E=       -0.000000000002 Rises=F Damp=F
 DIIS: error= 7.24D-08 at cycle   6 NSaved=   6.
 NSaved= 6 IEnMin= 6 EnMin= -230.036429849784     IErMin= 6 ErrMin= 7.24D-08
 ErrMax= 7.24D-08  0.00D+00 EMaxC= 1.00D-01 BMatC= 4.67D-13 BMatP= 2.92D-12
 IDIUse=1 WtCom= 1.00D+00 WtEn= 0.00D+00
 Coeff-Com: -0.501D-03 0.112D-02 0.278D-02 0.454D-01 0.351D+00 0.600D+00
 Coeff:     -0.501D-03 0.112D-02 0.278D-02 0.454D-01 0.351D+00 0.600D+00
 Gap=     0.244 Goal=   None    Shift=    0.000
 RMSDP=6.67D-09 MaxDP=8.85D-08 DE=-2.22D-12 OVMax= 1.51D-07

 SCF Done:  E(RB3LYP) =  -230.036429850     A.U. after   13 cycles
            NFock= 13  Conv=0.67D-08     -V/T= 2.0060
 KE= 2.286679077367D+02 PE=-8.587345904489D+02 EE= 2.388041334277D+02
 Leave Link  502 at Tue Dec  1 15:48:13 2015, MaxMem=    33554432 cpu:         2.3
 (Enter /home/Applications/g09/g09/l601.exe)
 Copying SCF densities to generalized density rwf, IOpCl= 0 IROHF=0.

 **********************************************************************

            Population analysis using the SCF density.

 **********************************************************************

 Orbital symmetries:
       Occupied  (A1) (B2) (A1) (A1) (B2) (A1) (A1) (B2) (B2) (A1)
                 (A1) (B1) (B2) (B2) (A1) (A1) (B1) (A2)
       Virtual   (B1) (A2) (A1) (B2) (A1) (B2) (A1) (B2) (A1) (B2)
                 (B2) (A1) (B1) (A1) (B2) (A2) (B2) (A1) (B1) (A1)
                 (A2) (B2) (A1) (B2) (A1) (B2) (B1) (A1) (B2) (A1)
                 (B1) (B2) (B1) (A1) (A2) (A2) (A1) (B1) (B2) (B2)
                 (A1) (B2) (A2) (A1) (B1) (A1) (B1) (B2) (B2) (A1)
                 (A2) (A2) (A1) (B2) (B1) (A1) (B2) (A1) (A2) (B2)
                 (B2) (A1) (A1) (B2) (B2) (A1) (B1) (A2) (A1) (B2)
                 (B2) (A1)
 The electronic state is 1-A1.
 Alpha  occ. eigenvalues --  -19.20516 -10.23154 -10.23152 -10.18427 -10.18393
 Alpha  occ. eigenvalues --   -1.11100  -0.80001  -0.74572  -0.59840  -0.56923
 Alpha  occ. eigenvalues --   -0.54086  -0.44828  -0.44474  -0.41071  -0.39687
 Alpha  occ. eigenvalues --   -0.37113  -0.27941  -0.23117
 Alpha virt. eigenvalues --    0.01279   0.06979   0.08070   0.10931   0.11066
 Alpha virt. eigenvalues --    0.12372   0.17026   0.19493   0.28404   0.34428
 Alpha virt. eigenvalues --    0.39179   0.39212   0.46313   0.47990   0.48349
 Alpha virt. eigenvalues --    0.51017   0.52133   0.52620   0.54012   0.59060
 Alpha virt. eigenvalues --    0.60870   0.65397   0.67070   0.71766   0.75381
 Alpha virt. eigenvalues --    0.84399   0.84456   0.92819   0.94820   0.96405
 Alpha virt. eigenvalues --    0.96558   1.01716   1.03528   1.04366   1.05212
 Alpha virt. eigenvalues --    1.12400   1.27107   1.28011   1.32322   1.35773
 Alpha virt. eigenvalues --    1.47603   1.48065   1.48673   1.51189   1.56907
 Alpha virt. eigenvalues --    1.59089   1.67876   1.68099   1.71835   1.76270
 Alpha virt. eigenvalues --    1.77017   1.85049   1.86939   1.90163   1.91091
 Alpha virt. eigenvalues --    1.92513   1.98225   2.06735   2.21393   2.23555
 Alpha virt. eigenvalues --    2.34067   2.34292   2.47041   2.60314   2.63506
 Alpha virt. eigenvalues --    2.65945   2.86713   2.90508   3.09374   3.32992
 Alpha virt. eigenvalues --    3.36156   3.44200
          Condensed to atoms (all electrons):
               1          2          3          4          5          6
     1  C    4.788737   0.529680  -0.061495  -0.020167   0.456424  -0.051658
     2  C    0.529680   4.778565   0.397824  -0.182892  -0.020167   0.012661
     3  O   -0.061495   0.397824   7.529133   0.397824  -0.061495   0.004061
     4  C   -0.020167  -0.182892   0.397824   4.778565   0.529680  -0.054036
     5  C    0.456424  -0.020167  -0.061495   0.529680   4.788737   0.407971
     6  H   -0.051658   0.012661   0.004061  -0.054036   0.407971   0.722730
     7  H    0.008296   0.001964  -0.023042   0.408240  -0.049733  -0.004419
     8  H   -0.049733   0.408240  -0.023042   0.001964   0.008296  -0.000168
     9  H    0.407971  -0.054036   0.004061   0.012661  -0.051658  -0.007593
               7          8          9
     1  C    0.008296  -0.049733   0.407971
     2  C    0.001964   0.408240  -0.054036
     3  O   -0.023042  -0.023042   0.004061
     4  C    0.408240   0.001964   0.012661
     5  C   -0.049733   0.008296  -0.051658
     6  H   -0.004419  -0.000168  -0.007593
     7  H    0.668127  -0.000623  -0.000168
     8  H   -0.000623   0.668127  -0.004419
     9  H   -0.000168  -0.004419   0.722730
 Mulliken charges:
               1
     1  C   -0.008055
     2  C    0.128161
     3  O   -0.163830
     4  C    0.128161
     5  C   -0.008055
     6  H   -0.029548
     7  H   -0.008642
     8  H   -0.008642
     9  H   -0.029548
 Sum of Mulliken charges =   0.00000
 Mulliken charges with hydrogens summed into heavy atoms:
               1
     1  C   -0.037603
     2  C    0.119519
     3  O   -0.163830
     4  C    0.119519
     5  C   -0.037603
 Electronic spatial extent (au):  <R**2>=            289.3864
 Charge=              0.0000 electrons
 Dipole moment (field-independent basis, Debye):
    X=              0.0000    Y=              0.0000    Z=             -0.5149  Tot=              0.5149
 Quadrupole moment (field-independent basis, Debye-Ang):
   XX=            -31.2906   YY=            -24.2119   ZZ=            -27.8483
   XY=              0.0000   XZ=              0.0000   YZ=              0.0000
 Traceless Quadrupole moment (field-independent basis, Debye-Ang):
   XX=             -3.5070   YY=              3.5717   ZZ=             -0.0646
   XY=              0.0000   XZ=              0.0000   YZ=              0.0000
 Octapole moment (field-independent basis, Debye-Ang**2):
  XXX=              0.0000  YYY=              0.0000  ZZZ=             -0.3478  XYY=              0.0000
  XXY=              0.0000  XXZ=              3.2180  XZZ=              0.0000  YZZ=              0.0000
  YYZ=              4.2360  XYZ=              0.0000
 Hexadecapole moment (field-independent basis, Debye-Ang**3):
 XXXX=            -32.2044 YYYY=           -164.5655 ZZZZ=           -162.4798 XXXY=              0.0000
 XXXZ=              0.0000 YYYX=              0.0000 YYYZ=              0.0000 ZZZX=              0.0000
 ZZZY=              0.0000 XXYY=            -39.7635 XXZZ=            -34.8544 YYZZ=            -48.8029
 XXYZ=              0.0000 YYXZ=              0.0000 ZZXY=              0.0000
 N-N= 1.612261194346D+02 E-N=-8.587345991856D+02  KE= 2.286679077367D+02
 Symmetry A1   KE= 1.433965967290D+02
 Symmetry A2   KE= 2.425575228439D+00
 Symmetry B1   KE= 6.320975893744D+00
 Symmetry B2   KE= 7.652475988557D+01
 No NMR shielding tensors so no spin-rotation constants.
 Leave Link  601 at Tue Dec  1 15:48:13 2015, MaxMem=    33554432 cpu:         0.1
 (Enter /home/Applications/g09/g09/l701.exe)
 Compute integral first derivatives.
 ... and contract with generalized density number  0.
 Leave Link  701 at Tue Dec  1 15:48:13 2015, MaxMem=    33554432 cpu:         0.1
 (Enter /home/Applications/g09/g09/l702.exe)
 L702 exits ... SP integral derivatives will be done elsewhere.
 Leave Link  702 at Tue Dec  1 15:48:13 2015, MaxMem=    33554432 cpu:         0.0
 (Enter /home/Applications/g09/g09/l703.exe)
 Compute integral first derivatives, UseDBF=F ICtDFT=           0.
 Integral derivatives from FoFJK, PRISM(SPDF).
 Calling FoFJK, ICntrl=      2127 FMM=F ISym2X=1 I1Cent= 0 IOpClX= 0 NMat=1 NMatS=1 NMatT=0.
 FoFJK:  IHMeth= 1 ICntrl=    2127 DoSepK=F KAlg= 0 I1Cent=   0 FoldK=F
 IRaf=         0 NMat=   1 IRICut=       1 DoRegI=T DoRafI=F ISym2E= 1.
 FoFCou: FMM=F IPFlag=           0 FMFlag=      100000 FMFlg1=         800
         NFxFlg=           0 DoJE=F BraDBF=F KetDBF=F FulRan=T
         wScrn=  0.000000 ICntrl=    2127 IOpCl=  0 I1Cent=           0 NGrid=           0
         NMat0=    1 NMatS0=      1 NMatT0=    0 NMatD0=    1 NMtDS0=    0 NMtDT0=    0
 Petite list used in FoFCou.
 Leave Link  703 at Tue Dec  1 15:48:14 2015, MaxMem=    33554432 cpu:         0.9
 (Enter /home/Applications/g09/g09/l716.exe)
 Dipole        =-8.47070645D-17-8.88178420D-16-2.02572284D-01
 ***** Axes restored to original set *****
 -------------------------------------------------------------------
 Center     Atomic                   Forces (Hartrees/Bohr)
 Number     Number              X              Y              Z
 -------------------------------------------------------------------
      1        6           0.003921883    0.001750327    0.000000000
      2        6          -0.003971284    0.002977286    0.000000000
      3        8          -0.004707951    0.000000000    0.000000000
      4        6          -0.003971284   -0.002977286    0.000000000
      5        6           0.003921883   -0.001750327    0.000000000
      6        1           0.006498791    0.004812470    0.000000000
      7        1          -0.004095415    0.007004560    0.000000000
      8        1          -0.004095415   -0.007004560    0.000000000
      9        1           0.006498791   -0.004812470    0.000000000
 -------------------------------------------------------------------
 Cartesian Forces:  Max     0.007004560 RMS     0.003705781
 Leave Link  716 at Tue Dec  1 15:48:14 2015, MaxMem=    33554432 cpu:         0.0
 (Enter /home/Applications/g09/g09/l103.exe)

 GradGradGradGradGradGradGradGradGradGradGradGradGradGradGradGradGradGrad
 Berny optimization.
 FormGI is forming the generalized inverse of G from B-inverse, IUseBI=4.
 Internal  Forces:  Max     0.010534228 RMS     0.003752840
 Search for a local minimum.
 Step number   1 out of a maximum of   48
 All quantities printed in internal units (Hartrees-Bohrs-Radians)
 RMS Force = .37528D-02 SwitMx=.10000D-02 MixMth= 1
 Mixed Optimization -- RFO/linear search
 Second derivative matrix not updated -- first step.
 ITU=  0
     Eigenvalues ---    0.02003   0.02184   0.02261   0.02433   0.02573
     Eigenvalues ---    0.02596   0.16000   0.16000   0.16000   0.16000
     Eigenvalues ---    0.22000   0.22905   0.36474   0.36474   0.36644
     Eigenvalues ---    0.36644   0.38782   0.46057   0.49743   0.53112
     Eigenvalues ---    0.53949
 RFO step:  Lambda=-1.25122489D-03 EMin= 2.00300667D-02
 Linear search not attempted -- first point.
 Iteration  1 RMS(Cart)=  0.01195487 RMS(Int)=  0.00001521
 Iteration  2 RMS(Cart)=  0.00001928 RMS(Int)=  0.00000606
 Iteration  3 RMS(Cart)=  0.00000000 RMS(Int)=  0.00000606
 ITry= 1 IFail=0 DXMaxC= 2.89D-02 DCOld= 1.00D+10 DXMaxT= 3.00D-01 DXLimC= 3.00D+00 Rises=F
 ClnCor:  largest displacement from symmetrization is 6.93D-13 for atom     9.
 Variable       Old X    -DE/DX   Delta X   Delta X   Delta X     New X
                                 (Linear)    (Quad)   (Total)
    R1        2.55978   0.01053   0.00000   0.01958   0.01958   2.57937
    R2        2.70595   0.00495   0.00000   0.01278   0.01279   2.71874
    R3        2.03347   0.00809   0.00000   0.02209   0.02209   2.05556
    R4        2.57244   0.00312   0.00000   0.00550   0.00549   2.57793
    R5        2.03086   0.00810   0.00000   0.02204   0.02204   2.05290
    R6        2.57244   0.00312   0.00000   0.00550   0.00549   2.57793
    R7        2.55978   0.01053   0.00000   0.01958   0.01958   2.57937
    R8        2.03086   0.00810   0.00000   0.02204   0.02204   2.05290
    R9        2.03347   0.00809   0.00000   0.02209   0.02209   2.05556
    A1        1.85272  -0.00109   0.00000  -0.00336  -0.00335   1.84938
    A2        2.20710   0.00067   0.00000   0.00245   0.00245   2.20954
    A3        2.22337   0.00042   0.00000   0.00091   0.00090   2.22427
    A4        1.92771   0.00096   0.00000   0.00391   0.00391   1.93161
    A5        2.33106  -0.00006   0.00000   0.00064   0.00064   2.33170
    A6        2.02442  -0.00090   0.00000  -0.00455  -0.00454   2.01988
    A7        1.86392   0.00027   0.00000  -0.00110  -0.00112   1.86280
    A8        1.92771   0.00096   0.00000   0.00391   0.00391   1.93161
    A9        2.02442  -0.00090   0.00000  -0.00455  -0.00454   2.01988
   A10        2.33106  -0.00006   0.00000   0.00064   0.00064   2.33170
   A11        1.85272  -0.00109   0.00000  -0.00336  -0.00335   1.84938
   A12        2.22337   0.00042   0.00000   0.00091   0.00090   2.22427
   A13        2.20710   0.00067   0.00000   0.00245   0.00245   2.20954
    D1        0.00000   0.00000   0.00000   0.00000   0.00000   0.00000
    D2        3.14159   0.00000   0.00000   0.00000   0.00000   3.14159
    D3        3.14159   0.00000   0.00000   0.00000   0.00000   3.14159
    D4        0.00000   0.00000   0.00000   0.00000   0.00000   0.00000
    D5        0.00000   0.00000   0.00000   0.00000   0.00000   0.00000
    D6        3.14159   0.00000   0.00000   0.00000   0.00000   3.14159
    D7        3.14159   0.00000   0.00000   0.00000   0.00000   3.14159
    D8        0.00000   0.00000   0.00000   0.00000   0.00000   0.00000
    D9        0.00000   0.00000   0.00000   0.00000   0.00000   0.00000
   D10        3.14159   0.00000   0.00000   0.00000   0.00000   3.14159
   D11        0.00000   0.00000   0.00000   0.00000   0.00000   0.00000
   D12        3.14159   0.00000   0.00000   0.00000   0.00000   3.14159
   D13        0.00000   0.00000   0.00000   0.00000   0.00000   0.00000
   D14        3.14159   0.00000   0.00000   0.00000   0.00000   3.14159
   D15        3.14159   0.00000   0.00000   0.00000   0.00000   3.14159
   D16        0.00000   0.00000   0.00000   0.00000   0.00000   0.00000
         Item               Value     Threshold  Converged?
 Maximum Force            0.010534     0.000450     NO 
 RMS     Force            0.003753     0.000300     NO 
 Maximum Displacement     0.028914     0.001800     NO 
 RMS     Displacement     0.011956     0.001200     NO 
 Predicted change in Energy=-6.274844D-04
 Lowest energy point so far.  Saving SCF results.
 GradGradGradGradGradGradGradGradGradGradGradGradGradGradGradGradGradGrad

 Leave Link  103 at Tue Dec  1 15:48:14 2015, MaxMem=    33554432 cpu:         0.0
 (Enter /home/Applications/g09/g09/l202.exe)
                          Input orientation:                          
 ---------------------------------------------------------------------
 Center     Atomic      Atomic             Coordinates (Angstroms)
 Number     Number       Type             X           Y           Z
 ---------------------------------------------------------------------
      1          6           0        0.962081   -0.719347    0.000000
      2          6           0       -0.350238   -1.094696    0.000000
      3          8           0       -1.164262    0.000000    0.000000
      4          6           0       -0.350238    1.094696    0.000000
      5          6           0        0.962081    0.719347    0.000000
      6          1           0        1.825738    1.380642    0.000000
      7          1           0       -0.854125    2.057115    0.000000
      8          1           0       -0.854125   -2.057115    0.000000
      9          1           0        1.825738   -1.380642    0.000000
 ---------------------------------------------------------------------
                    Distance matrix (angstroms):
                    1          2          3          4          5
     1  C    0.000000
     2  C    1.364943   0.000000
     3  O    2.244726   1.364183   0.000000
     4  C    2.238958   2.189392   1.364183   0.000000
     5  C    1.438693   2.238958   2.244726   1.364943   0.000000
     6  H    2.270651   3.295781   3.293369   2.194684   1.087757
     7  H    3.317732   3.191836   2.080362   1.086349   2.255710
     8  H    2.255710   1.086349   2.080362   3.191836   3.317732
     9  H    1.087757   2.194684   3.293369   3.295781   2.270651
                    6          7          8          9
     6  H    0.000000
     7  H    2.763925   0.000000
     8  H    4.358881   4.114230   0.000000
     9  H    2.761285   4.358881   2.763925   0.000000
 Stoichiometry    C4H4O
 Framework group  C2V[C2(O),SGV(C4H4)]
 Deg. of freedom     8
 Full point group                 C2V     NOp   4
 RotChk:  IX=0 Diff= 5.30D-33
 Largest Abelian subgroup         C2V     NOp   4
 Largest concise Abelian subgroup C2      NOp   2
                         Standard orientation:                         
 ---------------------------------------------------------------------
 Center     Atomic      Atomic             Coordinates (Angstroms)
 Number     Number       Type             X           Y           Z
 ---------------------------------------------------------------------
      1          6           0        0.000000    0.719347   -0.962880
      2          6           0        0.000000    1.094696    0.349439
      3          8           0        0.000000    0.000000    1.163464
      4          6           0        0.000000   -1.094696    0.349439
      5          6           0        0.000000   -0.719347   -0.962880
      6          1           0        0.000000   -1.380642   -1.826537
      7          1           0        0.000000   -2.057115    0.853326
      8          1           0        0.000000    2.057115    0.853326
      9          1           0        0.000000    1.380642   -1.826537
 ---------------------------------------------------------------------
 Rotational constants (GHZ):      9.4372531      9.1935083      4.6568931
 Leave Link  202 at Tue Dec  1 15:48:14 2015, MaxMem=    33554432 cpu:         0.0
 (Enter /home/Applications/g09/g09/l301.exe)
 Standard basis: CC-pVDZ (5D, 7F)
 Ernie: Thresh=  0.10000D-02 Tol=  0.10000D-05 Strict=F.
 Ernie:  10 primitive shells out of 130 were deleted.
 There are    38 symmetry adapted cartesian basis functions of A1  symmetry.
 There are    11 symmetry adapted cartesian basis functions of A2  symmetry.
 There are    13 symmetry adapted cartesian basis functions of B1  symmetry.
 There are    33 symmetry adapted cartesian basis functions of B2  symmetry.
 There are    35 symmetry adapted basis functions of A1  symmetry.
 There are    11 symmetry adapted basis functions of A2  symmetry.
 There are    13 symmetry adapted basis functions of B1  symmetry.
 There are    31 symmetry adapted basis functions of B2  symmetry.
    90 basis functions,   193 primitive gaussians,    95 cartesian basis functions
    18 alpha electrons       18 beta electrons
       nuclear repulsion energy       160.3494317675 Hartrees.
 IExCor=  402 DFT=T Ex+Corr=B3LYP ExCW=0 ScaHFX=  0.200000
 ScaDFX=  0.800000  0.720000  1.000000  0.810000 ScalE2=  1.000000  1.000000
 IRadAn=      0 IRanWt=     -1 IRanGd=            0 ICorTp=0 IEmpDi=  4
 NAtoms=    9 NActive=    9 NUniq=    5 SFac= 3.24D+00 NAtFMM=   60 NAOKFM=F Big=F
 Integral buffers will be    131072 words long.
 Raffenetti 2 integral format.
 Two-electron integral symmetry is turned on.
 Leave Link  301 at Tue Dec  1 15:48:14 2015, MaxMem=    33554432 cpu:         0.0
 (Enter /home/Applications/g09/g09/l302.exe)
 NPDir=0 NMtPBC=     1 NCelOv=     1 NCel=       1 NClECP=     1 NCelD=      1
         NCelK=      1 NCelE2=     1 NClLst=     1 CellRange=     0.0.
 One-electron integrals computed using PRISM.
 One-electron integral symmetry used in STVInt
 NBasis=    90 RedAO= T EigKep=  8.61D-04  NBF=    35    11    13    31
 NBsUse=    90 1.00D-06 EigRej= -1.00D+00 NBFU=    35    11    13    31
 Precomputing XC quadrature grid using
 IXCGrd= 4 IRadAn=           0 IRanWt=          -1 IRanGd=           0 AccXCQ= 0.00D+00.
 Generated NRdTot=       0 NPtTot=           0 NUsed=           0 NTot=          32
 NSgBfM=    95    95    95    95    95 MxSgAt=     9 MxSgA2=     9.
 Leave Link  302 at Tue Dec  1 15:48:14 2015, MaxMem=    33554432 cpu:         0.1
 (Enter /home/Applications/g09/g09/l303.exe)
 DipDrv:  MaxL=1.
 Leave Link  303 at Tue Dec  1 15:48:14 2015, MaxMem=    33554432 cpu:         0.0
 (Enter /home/Applications/g09/g09/l401.exe)
 Initial guess from the checkpoint file:  "/home/Applications/g09/scratch/Gau-23062.chk"
 B after Tr=     0.000000    0.000000    0.000000
         Rot=    1.000000    0.000000    0.000000    0.000000 Ang=   0.00 deg.
 Guess basis will be translated and rotated to current coordinates.
 JPrj=2 DoOrth=T DoCkMO=T.
 Initial guess orbital symmetries:
       Occupied  (A1) (B2) (A1) (A1) (B2) (A1) (A1) (B2) (B2) (A1)
                 (A1) (B1) (B2) (B2) (A1) (A1) (B1) (A2)
       Virtual   (A1) (A1) (A1) (A1) (A1) (A1) (A1) (A1) (A1) (A1)
                 (A1) (A1) (A1) (A1) (A1) (A1) (A1) (A1) (A1) (A1)
                 (A1) (A1) (A1) (A1) (A1) (A1) (A2) (A2) (A2) (A2)
                 (A2) (A2) (A2) (A2) (A2) (A2) (B1) (B1) (B1) (B1)
                 (B1) (B1) (B1) (B1) (B1) (B1) (B1) (B2) (B2) (B2)
                 (B2) (B2) (B2) (B2) (B2) (B2) (B2) (B2) (B2) (B2)
                 (B2) (B2) (B2) (B2) (B2) (B2) (B2) (B2) (B2) (B2)
                 (B2) (B2)
 The electronic state of the initial guess is 1-A1.
 Generating alternative initial guess.
 ExpMin= 1.22D-01 ExpMax= 1.17D+04 ExpMxC= 4.01D+02 IAcc=1 IRadAn=         1 AccDes= 0.00D+00
 Harris functional with IExCor=  402 and IRadAn=       1 diagonalized for initial guess.
 HarFok:  IExCor=  402 AccDes= 0.00D+00 IRadAn=         1 IDoV= 1 UseB2=F ITyADJ=14
 ICtDFT=  3500011 ScaDFX=  1.000000  1.000000  1.000000  1.000000
 FoFCou: FMM=F IPFlag=           0 FMFlag=      100000 FMFlg1=           0
         NFxFlg=           0 DoJE=T BraDBF=F KetDBF=T FulRan=T
         wScrn=  0.000000 ICntrl=     500 IOpCl=  0 I1Cent=   200000004 NGrid=           0
         NMat0=    1 NMatS0=      1 NMatT0=    0 NMatD0=    1 NMtDS0=    0 NMtDT0=    0
 Petite list used in FoFCou.
 Harris En= -230.034037118089    
 Leave Link  401 at Tue Dec  1 15:48:14 2015, MaxMem=    33554432 cpu:         0.1
 (Enter /home/Applications/g09/g09/l502.exe)
 Closed shell SCF:
 Using DIIS extrapolation, IDIIS=  1040.
 Integral symmetry usage will be decided dynamically.
 Keep R1 ints in memory in symmetry-blocked form, NReq=10650281.
 IVT=       47143 IEndB=       47143 NGot=    33554432 MDV=    31290802
 LenX=    31290802 LenY=    31281336
 Requested convergence on RMS density matrix=1.00D-08 within 128 cycles.
 Requested convergence on MAX density matrix=1.00D-06.
 Requested convergence on             energy=1.00D-06.
 No special actions if energy rises.
 FoFCou: FMM=F IPFlag=           0 FMFlag=           0 FMFlg1=           0
         NFxFlg=           0 DoJE=F BraDBF=F KetDBF=F FulRan=T
         wScrn=  0.000000 ICntrl=     600 IOpCl=  0 I1Cent=           0 NGrid=           0
         NMat0=    1 NMatS0=   4095 NMatT0=    0 NMatD0=    1 NMtDS0=    0 NMtDT0=    0
 Petite list used in FoFCou.
 Integral accuracy reduced to 1.0D-05 until final iterations.

 Cycle   1  Pass 0  IDiag  1:
 E= -230.036801585905    
 DIIS: error= 9.16D-04 at cycle   1 NSaved=   1.
 NSaved= 1 IEnMin= 1 EnMin= -230.036801585905     IErMin= 1 ErrMin= 9.16D-04
 ErrMax= 9.16D-04  0.00D+00 EMaxC= 1.00D-01 BMatC= 1.14D-04 BMatP= 1.14D-04
 IDIUse=3 WtCom= 9.91D-01 WtEn= 9.16D-03
 Coeff-Com:  0.100D+01
 Coeff-En:   0.100D+01
 Coeff:      0.100D+01
 Gap=     0.884 Goal=   None    Shift=    0.000
 RMSDP=2.49D-04 MaxDP=2.47D-03              OVMax= 3.05D-03

 Cycle   2  Pass 0  IDiag  1:
 E= -230.036922855995     Delta-E=       -0.000121270090 Rises=F Damp=F
 DIIS: error= 4.47D-04 at cycle   2 NSaved=   2.
 NSaved= 2 IEnMin= 2 EnMin= -230.036922855995     IErMin= 2 ErrMin= 4.47D-04
 ErrMax= 4.47D-04  0.00D+00 EMaxC= 1.00D-01 BMatC= 2.09D-05 BMatP= 1.14D-04
 IDIUse=3 WtCom= 9.96D-01 WtEn= 4.47D-03
 Coeff-Com:  0.225D+00 0.775D+00
 Coeff-En:   0.000D+00 0.100D+01
 Coeff:      0.224D+00 0.776D+00
 Gap=     0.241 Goal=   None    Shift=    0.000
 RMSDP=8.09D-05 MaxDP=1.30D-03 DE=-1.21D-04 OVMax= 2.70D-03

 Cycle   3  Pass 0  IDiag  1:
 E= -230.036925143150     Delta-E=       -0.000002287155 Rises=F Damp=F
 DIIS: error= 5.57D-04 at cycle   3 NSaved=   3.
 NSaved= 3 IEnMin= 3 EnMin= -230.036925143150     IErMin= 2 ErrMin= 4.47D-04
 ErrMax= 5.57D-04  0.00D+00 EMaxC= 1.00D-01 BMatC= 2.22D-05 BMatP= 2.09D-05
 IDIUse=3 WtCom= 9.94D-01 WtEn= 5.57D-03
 Coeff-Com:  0.428D-01 0.501D+00 0.456D+00
 Coeff-En:   0.000D+00 0.475D+00 0.525D+00
 Coeff:      0.426D-01 0.501D+00 0.456D+00
 Gap=     0.241 Goal=   None    Shift=    0.000
 RMSDP=4.58D-05 MaxDP=1.12D-03 DE=-2.29D-06 OVMax= 1.90D-03

 Cycle   4  Pass 0  IDiag  1:
 E= -230.036943127499     Delta-E=       -0.000017984349 Rises=F Damp=F
 DIIS: error= 1.46D-04 at cycle   4 NSaved=   4.
 NSaved= 4 IEnMin= 4 EnMin= -230.036943127499     IErMin= 4 ErrMin= 1.46D-04
 ErrMax= 1.46D-04  0.00D+00 EMaxC= 1.00D-01 BMatC= 1.65D-06 BMatP= 2.09D-05
 IDIUse=3 WtCom= 9.99D-01 WtEn= 1.46D-03
 Coeff-Com:  0.459D-02 0.230D+00 0.270D+00 0.495D+00
 Coeff-En:   0.000D+00 0.000D+00 0.000D+00 0.100D+01
 Coeff:      0.458D-02 0.229D+00 0.270D+00 0.496D+00
 Gap=     0.241 Goal=   None    Shift=    0.000
 RMSDP=1.40D-05 MaxDP=2.94D-04 DE=-1.80D-05 OVMax= 5.36D-04

 Cycle   5  Pass 0  IDiag  1:
 E= -230.036944604543     Delta-E=       -0.000001477045 Rises=F Damp=F
 DIIS: error= 3.11D-05 at cycle   5 NSaved=   5.
 NSaved= 5 IEnMin= 5 EnMin= -230.036944604543     IErMin= 5 ErrMin= 3.11D-05
 ErrMax= 3.11D-05  0.00D+00 EMaxC= 1.00D-01 BMatC= 5.25D-08 BMatP= 1.65D-06
 IDIUse=1 WtCom= 1.00D+00 WtEn= 0.00D+00
 Coeff-Com: -0.232D-02 0.459D-01 0.619D-01 0.205D+00 0.690D+00
 Coeff:     -0.232D-02 0.459D-01 0.619D-01 0.205D+00 0.690D+00
 Gap=     0.241 Goal=   None    Shift=    0.000
 RMSDP=2.84D-06 MaxDP=4.66D-05 DE=-1.48D-06 OVMax= 1.14D-04

 Initial convergence to 1.0D-05 achieved.  Increase integral accuracy.
 Cycle   6  Pass 1  IDiag  1:
 E= -230.037000370607     Delta-E=       -0.000055766064 Rises=F Damp=F
 DIIS: error= 2.06D-05 at cycle   1 NSaved=   1.
 NSaved= 1 IEnMin= 1 EnMin= -230.037000370607     IErMin= 1 ErrMin= 2.06D-05
 ErrMax= 2.06D-05  0.00D+00 EMaxC= 1.00D-01 BMatC= 1.80D-08 BMatP= 1.80D-08
 IDIUse=1 WtCom= 1.00D+00 WtEn= 0.00D+00
 Coeff-Com:  0.100D+01
 Coeff:      0.100D+01
 Gap=     0.241 Goal=   None    Shift=    0.000
 RMSDP=2.84D-06 MaxDP=4.66D-05 DE=-5.58D-05 OVMax= 7.52D-05

 Cycle   7  Pass 1  IDiag  1:
 E= -230.037000375537     Delta-E=       -0.000000004930 Rises=F Damp=F
 DIIS: error= 1.34D-05 at cycle   2 NSaved=   2.
 NSaved= 2 IEnMin= 2 EnMin= -230.037000375537     IErMin= 2 ErrMin= 1.34D-05
 ErrMax= 1.34D-05  0.00D+00 EMaxC= 1.00D-01 BMatC= 1.69D-08 BMatP= 1.80D-08
 IDIUse=1 WtCom= 1.00D+00 WtEn= 0.00D+00
 Coeff-Com:  0.490D+00 0.510D+00
 Coeff:      0.490D+00 0.510D+00
 Gap=     0.241 Goal=   None    Shift=    0.000
 RMSDP=1.72D-06 MaxDP=3.29D-05 DE=-4.93D-09 OVMax= 7.79D-05

 Cycle   8  Pass 1  IDiag  1:
 E= -230.037000389665     Delta-E=       -0.000000014128 Rises=F Damp=F
 DIIS: error= 5.63D-06 at cycle   3 NSaved=   3.
 NSaved= 3 IEnMin= 3 EnMin= -230.037000389665     IErMin= 3 ErrMin= 5.63D-06
 ErrMax= 5.63D-06  0.00D+00 EMaxC= 1.00D-01 BMatC= 2.78D-09 BMatP= 1.69D-08
 IDIUse=1 WtCom= 1.00D+00 WtEn= 0.00D+00
 Coeff-Com:  0.994D-02 0.285D+00 0.705D+00
 Coeff:      0.994D-02 0.285D+00 0.705D+00
 Gap=     0.241 Goal=   None    Shift=    0.000
 RMSDP=6.71D-07 MaxDP=1.15D-05 DE=-1.41D-08 OVMax= 2.86D-05

 Cycle   9  Pass 1  IDiag  1:
 E= -230.037000392170     Delta-E=       -0.000000002505 Rises=F Damp=F
 DIIS: error= 3.30D-06 at cycle   4 NSaved=   4.
 NSaved= 4 IEnMin= 4 EnMin= -230.037000392170     IErMin= 4 ErrMin= 3.30D-06
 ErrMax= 3.30D-06  0.00D+00 EMaxC= 1.00D-01 BMatC= 6.46D-10 BMatP= 2.78D-09
 IDIUse=1 WtCom= 1.00D+00 WtEn= 0.00D+00
 Coeff-Com: -0.165D-01 0.176D+00 0.487D+00 0.353D+00
 Coeff:     -0.165D-01 0.176D+00 0.487D+00 0.353D+00
 Gap=     0.241 Goal=   None    Shift=    0.000
 RMSDP=1.96D-07 MaxDP=5.87D-06 DE=-2.50D-09 OVMax= 8.16D-06

 Cycle  10  Pass 1  IDiag  1:
 E= -230.037000392681     Delta-E=       -0.000000000511 Rises=F Damp=F
 DIIS: error= 5.18D-08 at cycle   5 NSaved=   5.
 NSaved= 5 IEnMin= 5 EnMin= -230.037000392681     IErMin= 5 ErrMin= 5.18D-08
 ErrMax= 5.18D-08  0.00D+00 EMaxC= 1.00D-01 BMatC= 3.45D-13 BMatP= 6.46D-10
 IDIUse=1 WtCom= 1.00D+00 WtEn= 0.00D+00
 Coeff-Com: -0.265D-02 0.168D-01 0.479D-01 0.415D-01 0.896D+00
 Coeff:     -0.265D-02 0.168D-01 0.479D-01 0.415D-01 0.896D+00
 Gap=     0.241 Goal=   None    Shift=    0.000
 RMSDP=9.63D-09 MaxDP=9.38D-08 DE=-5.11D-10 OVMax= 2.41D-07

 SCF Done:  E(RB3LYP) =  -230.037000393     A.U. after   10 cycles
            NFock= 10  Conv=0.96D-08     -V/T= 2.0067
 KE= 2.285145772094D+02 PE=-8.568611015705D+02 EE= 2.379600922009D+02
 Leave Link  502 at Tue Dec  1 15:48:16 2015, MaxMem=    33554432 cpu:         1.9
 (Enter /home/Applications/g09/g09/l701.exe)
 Compute integral first derivatives.
 ... and contract with generalized density number  0.
 Leave Link  701 at Tue Dec  1 15:48:16 2015, MaxMem=    33554432 cpu:         0.1
 (Enter /home/Applications/g09/g09/l702.exe)
 L702 exits ... SP integral derivatives will be done elsewhere.
 Leave Link  702 at Tue Dec  1 15:48:16 2015, MaxMem=    33554432 cpu:         0.0
 (Enter /home/Applications/g09/g09/l703.exe)
 Compute integral first derivatives, UseDBF=F ICtDFT=           0.
 Integral derivatives from FoFJK, PRISM(SPDF).
 Calling FoFJK, ICntrl=      2127 FMM=F ISym2X=1 I1Cent= 0 IOpClX= 0 NMat=1 NMatS=1 NMatT=0.
 FoFJK:  IHMeth= 1 ICntrl=    2127 DoSepK=F KAlg= 0 I1Cent=   0 FoldK=F
 IRaf=         0 NMat=   1 IRICut=       1 DoRegI=T DoRafI=F ISym2E= 1.
 FoFCou: FMM=F IPFlag=           0 FMFlag=      100000 FMFlg1=         800
         NFxFlg=           0 DoJE=F BraDBF=F KetDBF=F FulRan=T
         wScrn=  0.000000 ICntrl=    2127 IOpCl=  0 I1Cent=           0 NGrid=           0
         NMat0=    1 NMatS0=      1 NMatT0=    0 NMatD0=    1 NMtDS0=    0 NMtDT0=    0
 Petite list used in FoFCou.
 Leave Link  703 at Tue Dec  1 15:48:17 2015, MaxMem=    33554432 cpu:         0.9
 (Enter /home/Applications/g09/g09/l716.exe)
 Dipole        =-7.73942954D-17-1.77635684D-15-2.03127887D-01
 ***** Axes restored to original set *****
 -------------------------------------------------------------------
 Center     Atomic                   Forces (Hartrees/Bohr)
 Number     Number              X              Y              Z
 -------------------------------------------------------------------
      1        6          -0.000514167    0.000403436    0.000000000
      2        6           0.000137243   -0.000597585    0.000000000
      3        8           0.001370358    0.000000000    0.000000000
      4        6           0.000137243    0.000597585    0.000000000
      5        6          -0.000514167   -0.000403436    0.000000000
      6        1          -0.000487433   -0.000218807    0.000000000
      7        1           0.000179178   -0.000408190    0.000000000
      8        1           0.000179178    0.000408190    0.000000000
      9        1          -0.000487433    0.000218807    0.000000000
 -------------------------------------------------------------------
 Cartesian Forces:  Max     0.001370358 RMS     0.000406084
 Leave Link  716 at Tue Dec  1 15:48:17 2015, MaxMem=    33554432 cpu:         0.0
 (Enter /home/Applications/g09/g09/l103.exe)

 GradGradGradGradGradGradGradGradGradGradGradGradGradGradGradGradGradGrad
 Berny optimization.
 Using GEDIIS/GDIIS optimizer.
 FormGI is forming the generalized inverse of G from B-inverse, IUseBI=4.
 Internal  Forces:  Max     0.000900019 RMS     0.000344219
 Search for a local minimum.
 Step number   2 out of a maximum of   48
 All quantities printed in internal units (Hartrees-Bohrs-Radians)
 RMS Force = .34422D-03 SwitMx=.10000D-02 MixMth= 2
 Mixed Optimization -- En-DIIS/RFO-DIIS
 Update second derivatives using D2CorX and points    1    2
 DE= -5.71D-04 DEPred=-6.27D-04 R= 9.09D-01
 TightC=F SS=  1.41D+00  RLast= 5.52D-02 DXNew= 5.0454D-01 1.6564D-01
 Trust test= 9.09D-01 RLast= 5.52D-02 DXMaxT set to 3.00D-01
 ITU=  1  0
 Use linear search instead of GDIIS.
     Eigenvalues ---    0.02004   0.02184   0.02263   0.02433   0.02573
     Eigenvalues ---    0.02596   0.15981   0.16000   0.16000   0.16014
     Eigenvalues ---    0.22000   0.23093   0.36474   0.36558   0.36644
     Eigenvalues ---    0.37447   0.38975   0.46077   0.49836   0.53112
     Eigenvalues ---    0.56173
 RFO step:  Lambda=-4.66926919D-06 EMin= 2.00379593D-02
 Quartic linear search produced a step of -0.07384.
 Iteration  1 RMS(Cart)=  0.00101048 RMS(Int)=  0.00000078
 Iteration  2 RMS(Cart)=  0.00000067 RMS(Int)=  0.00000050
 ITry= 1 IFail=0 DXMaxC= 3.92D-03 DCOld= 1.00D+10 DXMaxT= 3.00D-01 DXLimC= 3.00D+00 Rises=F
 ClnCor:  largest displacement from symmetrization is 3.95D-13 for atom     9.
 Variable       Old X    -DE/DX   Delta X   Delta X   Delta X     New X
                                 (Linear)    (Quad)   (Total)
    R1        2.57937  -0.00090  -0.00145  -0.00006  -0.00151   2.57786
    R2        2.71874  -0.00039  -0.00094   0.00002  -0.00092   2.71782
    R3        2.05556  -0.00052  -0.00163   0.00034  -0.00129   2.05428
    R4        2.57793  -0.00044  -0.00041  -0.00033  -0.00073   2.57720
    R5        2.05290  -0.00044  -0.00163   0.00054  -0.00109   2.05181
    R6        2.57793  -0.00044  -0.00041  -0.00033  -0.00073   2.57720
    R7        2.57937  -0.00090  -0.00145  -0.00006  -0.00151   2.57786
    R8        2.05290  -0.00044  -0.00163   0.00054  -0.00109   2.05181
    R9        2.05556  -0.00052  -0.00163   0.00034  -0.00129   2.05428
    A1        1.84938   0.00022   0.00025   0.00064   0.00088   1.85026
    A2        2.20954  -0.00024  -0.00018  -0.00099  -0.00117   2.20837
    A3        2.22427   0.00001  -0.00007   0.00036   0.00029   2.22455
    A4        1.93161  -0.00052  -0.00029  -0.00183  -0.00212   1.92950
    A5        2.33170   0.00029  -0.00005   0.00128   0.00124   2.33293
    A6        2.01988   0.00023   0.00034   0.00054   0.00088   2.02075
    A7        1.86280   0.00060   0.00008   0.00238   0.00247   1.86527
    A8        1.93161  -0.00052  -0.00029  -0.00183  -0.00212   1.92950
    A9        2.01988   0.00023   0.00034   0.00054   0.00088   2.02075
   A10        2.33170   0.00029  -0.00005   0.00128   0.00124   2.33293
   A11        1.84938   0.00022   0.00025   0.00064   0.00088   1.85026
   A12        2.22427   0.00001  -0.00007   0.00036   0.00029   2.22455
   A13        2.20954  -0.00024  -0.00018  -0.00099  -0.00117   2.20837
    D1        0.00000   0.00000   0.00000   0.00000   0.00000   0.00000
    D2        3.14159   0.00000   0.00000   0.00000   0.00000   3.14159
    D3        3.14159   0.00000   0.00000   0.00000   0.00000   3.14159
    D4        0.00000   0.00000   0.00000   0.00000   0.00000   0.00000
    D5        0.00000   0.00000   0.00000   0.00000   0.00000   0.00000
    D6        3.14159   0.00000   0.00000   0.00000   0.00000   3.14159
    D7        3.14159   0.00000   0.00000   0.00000   0.00000   3.14159
    D8        0.00000   0.00000   0.00000   0.00000   0.00000   0.00000
    D9        0.00000   0.00000   0.00000   0.00000   0.00000   0.00000
   D10        3.14159   0.00000   0.00000   0.00000   0.00000   3.14159
   D11        0.00000   0.00000   0.00000   0.00000   0.00000   0.00000
   D12        3.14159   0.00000   0.00000   0.00000   0.00000   3.14159
   D13        0.00000   0.00000   0.00000   0.00000   0.00000   0.00000
   D14        3.14159   0.00000   0.00000   0.00000   0.00000   3.14159
   D15        3.14159   0.00000   0.00000   0.00000   0.00000   3.14159
   D16        0.00000   0.00000   0.00000   0.00000   0.00000   0.00000
         Item               Value     Threshold  Converged?
 Maximum Force            0.000900     0.000450     NO 
 RMS     Force            0.000344     0.000300     NO 
 Maximum Displacement     0.003919     0.001800     NO 
 RMS     Displacement     0.001011     0.001200     YES
 Predicted change in Energy=-5.812897D-06
 Lowest energy point so far.  Saving SCF results.
 GradGradGradGradGradGradGradGradGradGradGradGradGradGradGradGradGradGrad

 Leave Link  103 at Tue Dec  1 15:48:17 2015, MaxMem=    33554432 cpu:         0.0
 (Enter /home/Applications/g09/g09/l202.exe)
                          Input orientation:                          
 ---------------------------------------------------------------------
 Center     Atomic      Atomic             Coordinates (Angstroms)
 Number     Number       Type             X           Y           Z
 ---------------------------------------------------------------------
      1          6           0        0.961474   -0.719103    0.000000
      2          6           0       -0.349746   -1.095389    0.000000
      3          8           0       -1.162188    0.000000    0.000000
      4          6           0       -0.349746    1.095389    0.000000
      5          6           0        0.961474    0.719103    0.000000
      6          1           0        1.824400    1.380235    0.000000
      7          1           0       -0.853707    2.057119    0.000000
      8          1           0       -0.853707   -2.057119    0.000000
      9          1           0        1.824400   -1.380235    0.000000
 ---------------------------------------------------------------------
                    Distance matrix (angstroms):
                    1          2          3          4          5
     1  C    0.000000
     2  C    1.364144   0.000000
     3  O    2.242109   1.363796   0.000000
     4  C    2.238678   2.190778   1.363796   0.000000
     5  C    1.438206   2.238678   2.242109   1.364144   0.000000
     6  H    2.269771   3.294787   3.290099   2.192726   1.087076
     7  H    3.316970   3.192535   2.080120   1.085772   2.255032
     8  H    2.255032   1.085772   2.080120   3.192535   3.316970
     9  H    1.087076   2.192726   3.290099   3.294787   2.269771
                    6          7          8          9
     6  H    0.000000
     7  H    2.762323   0.000000
     8  H    4.357482   4.114237   0.000000
     9  H    2.760469   4.357482   2.762323   0.000000
 Stoichiometry    C4H4O
 Framework group  C2V[C2(O),SGV(C4H4)]
 Deg. of freedom     8
 Full point group                 C2V     NOp   4
 RotChk:  IX=0 Diff= 5.30D-33
 Largest Abelian subgroup         C2V     NOp   4
 Largest concise Abelian subgroup C2      NOp   2
                         Standard orientation:                         
 ---------------------------------------------------------------------
 Center     Atomic      Atomic             Coordinates (Angstroms)
 Number     Number       Type             X           Y           Z
 ---------------------------------------------------------------------
      1          6           0        0.000000    0.719103   -0.961902
      2          6           0        0.000000    1.095389    0.349319
      3          8           0        0.000000    0.000000    1.161761
      4          6           0        0.000000   -1.095389    0.349319
      5          6           0        0.000000   -0.719103   -0.961902
      6          1           0        0.000000   -1.380235   -1.824827
      7          1           0        0.000000   -2.057119    0.853280
      8          1           0        0.000000    2.057119    0.853280
      9          1           0        0.000000    1.380235   -1.824827
 ---------------------------------------------------------------------
 Rotational constants (GHZ):      9.4327127      9.2141420      4.6610732
 Leave Link  202 at Tue Dec  1 15:48:17 2015, MaxMem=    33554432 cpu:         0.0
 (Enter /home/Applications/g09/g09/l301.exe)
 Standard basis: CC-pVDZ (5D, 7F)
 Ernie: Thresh=  0.10000D-02 Tol=  0.10000D-05 Strict=F.
 Ernie:  10 primitive shells out of 130 were deleted.
 There are    38 symmetry adapted cartesian basis functions of A1  symmetry.
 There are    11 symmetry adapted cartesian basis functions of A2  symmetry.
 There are    13 symmetry adapted cartesian basis functions of B1  symmetry.
 There are    33 symmetry adapted cartesian basis functions of B2  symmetry.
 There are    35 symmetry adapted basis functions of A1  symmetry.
 There are    11 symmetry adapted basis functions of A2  symmetry.
 There are    13 symmetry adapted basis functions of B1  symmetry.
 There are    31 symmetry adapted basis functions of B2  symmetry.
    90 basis functions,   193 primitive gaussians,    95 cartesian basis functions
    18 alpha electrons       18 beta electrons
       nuclear repulsion energy       160.4191088313 Hartrees.
 IExCor=  402 DFT=T Ex+Corr=B3LYP ExCW=0 ScaHFX=  0.200000
 ScaDFX=  0.800000  0.720000  1.000000  0.810000 ScalE2=  1.000000  1.000000
 IRadAn=      0 IRanWt=     -1 IRanGd=            0 ICorTp=0 IEmpDi=  4
 NAtoms=    9 NActive=    9 NUniq=    5 SFac= 3.24D+00 NAtFMM=   60 NAOKFM=F Big=F
 Integral buffers will be    131072 words long.
 Raffenetti 2 integral format.
 Two-electron integral symmetry is turned on.
 Leave Link  301 at Tue Dec  1 15:48:17 2015, MaxMem=    33554432 cpu:         0.0
 (Enter /home/Applications/g09/g09/l302.exe)
 NPDir=0 NMtPBC=     1 NCelOv=     1 NCel=       1 NClECP=     1 NCelD=      1
         NCelK=      1 NCelE2=     1 NClLst=     1 CellRange=     0.0.
 One-electron integrals computed using PRISM.
 One-electron integral symmetry used in STVInt
 NBasis=    90 RedAO= T EigKep=  8.58D-04  NBF=    35    11    13    31
 NBsUse=    90 1.00D-06 EigRej= -1.00D+00 NBFU=    35    11    13    31
 Precomputing XC quadrature grid using
 IXCGrd= 4 IRadAn=           0 IRanWt=          -1 IRanGd=           0 AccXCQ= 0.00D+00.
 Generated NRdTot=       0 NPtTot=           0 NUsed=           0 NTot=          32
 NSgBfM=    95    95    95    95    95 MxSgAt=     9 MxSgA2=     9.
 Leave Link  302 at Tue Dec  1 15:48:17 2015, MaxMem=    33554432 cpu:         0.1
 (Enter /home/Applications/g09/g09/l303.exe)
 DipDrv:  MaxL=1.
 Leave Link  303 at Tue Dec  1 15:48:17 2015, MaxMem=    33554432 cpu:         0.0
 (Enter /home/Applications/g09/g09/l401.exe)
 Initial guess from the checkpoint file:  "/home/Applications/g09/scratch/Gau-23062.chk"
 B after Tr=     0.000000    0.000000    0.000000
         Rot=    1.000000    0.000000    0.000000    0.000000 Ang=   0.00 deg.
 Guess basis will be translated and rotated to current coordinates.
 JPrj=2 DoOrth=T DoCkMO=T.
 Initial guess orbital symmetries:
       Occupied  (A1) (B2) (A1) (A1) (B2) (A1) (A1) (B2) (B2) (A1)
                 (A1) (B1) (B2) (B2) (A1) (A1) (B1) (A2)
       Virtual   (A1) (A1) (A1) (A1) (A1) (A1) (A1) (A1) (A1) (A1)
                 (A1) (A1) (A1) (A1) (A1) (A1) (A1) (A1) (A1) (A1)
                 (A1) (A1) (A1) (A1) (A1) (A1) (A2) (A2) (A2) (A2)
                 (A2) (A2) (A2) (A2) (A2) (A2) (B1) (B1) (B1) (B1)
                 (B1) (B1) (B1) (B1) (B1) (B1) (B1) (B2) (B2) (B2)
                 (B2) (B2) (B2) (B2) (B2) (B2) (B2) (B2) (B2) (B2)
                 (B2) (B2) (B2) (B2) (B2) (B2) (B2) (B2) (B2) (B2)
                 (B2) (B2)
 The electronic state of the initial guess is 1-A1.
 Leave Link  401 at Tue Dec  1 15:48:18 2015, MaxMem=    33554432 cpu:         0.0
 (Enter /home/Applications/g09/g09/l502.exe)
 Closed shell SCF:
 Using DIIS extrapolation, IDIIS=  1040.
 Integral symmetry usage will be decided dynamically.
 Keep R1 ints in memory in symmetry-blocked form, NReq=10650281.
 IVT=       47143 IEndB=       47143 NGot=    33554432 MDV=    31290802
 LenX=    31290802 LenY=    31281336
 Requested convergence on RMS density matrix=1.00D-08 within 128 cycles.
 Requested convergence on MAX density matrix=1.00D-06.
 Requested convergence on             energy=1.00D-06.
 No special actions if energy rises.
 FoFCou: FMM=F IPFlag=           0 FMFlag=           0 FMFlg1=           0
         NFxFlg=           0 DoJE=F BraDBF=F KetDBF=F FulRan=T
         wScrn=  0.000000 ICntrl=     600 IOpCl=  0 I1Cent=           0 NGrid=           0
         NMat0=    1 NMatS0=   4095 NMatT0=    0 NMatD0=    1 NMtDS0=    0 NMtDT0=    0
 Petite list used in FoFCou.

 Cycle   1  Pass 1  IDiag  1:
 E= -230.037003693727    
 DIIS: error= 8.29D-05 at cycle   1 NSaved=   1.
 NSaved= 1 IEnMin= 1 EnMin= -230.037003693727     IErMin= 1 ErrMin= 8.29D-05
 ErrMax= 8.29D-05  0.00D+00 EMaxC= 1.00D-01 BMatC= 1.31D-06 BMatP= 1.31D-06
 IDIUse=1 WtCom= 1.00D+00 WtEn= 0.00D+00
 Coeff-Com:  0.100D+01
 Coeff:      0.100D+01
 Gap=     0.886 Goal=   None    Shift=    0.000
 RMSDP=2.33D-05 MaxDP=2.49D-04              OVMax= 3.92D-04

 Cycle   2  Pass 1  IDiag  1:
 E= -230.037005329270     Delta-E=       -0.000001635543 Rises=F Damp=F
 DIIS: error= 3.92D-05 at cycle   2 NSaved=   2.
 NSaved= 2 IEnMin= 2 EnMin= -230.037005329270     IErMin= 2 ErrMin= 3.92D-05
 ErrMax= 3.92D-05  0.00D+00 EMaxC= 1.00D-01 BMatC= 1.82D-07 BMatP= 1.31D-06
 IDIUse=1 WtCom= 1.00D+00 WtEn= 0.00D+00
 Coeff-Com:  0.163D+00 0.837D+00
 Coeff:      0.163D+00 0.837D+00
 Gap=     0.241 Goal=   None    Shift=    0.000
 RMSDP=7.99D-06 MaxDP=1.16D-04 DE=-1.64D-06 OVMax= 2.22D-04

 Cycle   3  Pass 1  IDiag  1:
 E= -230.037005318157     Delta-E=        0.000000011113 Rises=F Damp=F
 DIIS: error= 5.50D-05 at cycle   3 NSaved=   3.
 NSaved= 3 IEnMin= 2 EnMin= -230.037005329270     IErMin= 2 ErrMin= 3.92D-05
 ErrMax= 5.50D-05  0.00D+00 EMaxC= 1.00D-01 BMatC= 2.20D-07 BMatP= 1.82D-07
 IDIUse=1 WtCom= 1.00D+00 WtEn= 0.00D+00
 Coeff-Com:  0.326D-02 0.524D+00 0.472D+00
 Coeff:      0.326D-02 0.524D+00 0.472D+00
 Gap=     0.241 Goal=   None    Shift=    0.000
 RMSDP=4.66D-06 MaxDP=1.12D-04 DE= 1.11D-08 OVMax= 1.94D-04

 Cycle   4  Pass 1  IDiag  1:
 E= -230.037005497397     Delta-E=       -0.000000179240 Rises=F Damp=F
 DIIS: error= 1.72D-05 at cycle   4 NSaved=   4.
 NSaved= 4 IEnMin= 4 EnMin= -230.037005497397     IErMin= 4 ErrMin= 1.72D-05
 ErrMax= 1.72D-05  0.00D+00 EMaxC= 1.00D-01 BMatC= 2.12D-08 BMatP= 1.82D-07
 IDIUse=1 WtCom= 1.00D+00 WtEn= 0.00D+00
 Coeff-Com: -0.119D-01 0.262D+00 0.296D+00 0.455D+00
 Coeff:     -0.119D-01 0.262D+00 0.296D+00 0.455D+00
 Gap=     0.241 Goal=   None    Shift=    0.000
 RMSDP=1.44D-06 MaxDP=3.24D-05 DE=-1.79D-07 OVMax= 5.50D-05

 Cycle   5  Pass 1  IDiag  1:
 E= -230.037005515571     Delta-E=       -0.000000018174 Rises=F Damp=F
 DIIS: error= 2.88D-06 at cycle   5 NSaved=   5.
 NSaved= 5 IEnMin= 5 EnMin= -230.037005515571     IErMin= 5 ErrMin= 2.88D-06
 ErrMax= 2.88D-06  0.00D+00 EMaxC= 1.00D-01 BMatC= 3.38D-10 BMatP= 2.12D-08
 IDIUse=1 WtCom= 1.00D+00 WtEn= 0.00D+00
 Coeff-Com: -0.454D-02 0.513D-01 0.665D-01 0.168D+00 0.719D+00
 Coeff:     -0.454D-02 0.513D-01 0.665D-01 0.168D+00 0.719D+00
 Gap=     0.241 Goal=   None    Shift=    0.000
 RMSDP=2.84D-07 MaxDP=3.93D-06 DE=-1.82D-08 OVMax= 1.06D-05

 Cycle   6  Pass 1  IDiag  1:
 E= -230.037005515900     Delta-E=       -0.000000000329 Rises=F Damp=F
 DIIS: error= 8.19D-07 at cycle   6 NSaved=   6.
 NSaved= 6 IEnMin= 6 EnMin= -230.037005515900     IErMin= 6 ErrMin= 8.19D-07
 ErrMax= 8.19D-07  0.00D+00 EMaxC= 1.00D-01 BMatC= 6.27D-11 BMatP= 3.38D-10
 IDIUse=1 WtCom= 1.00D+00 WtEn= 0.00D+00
 Coeff-Com: -0.175D-02 0.145D-01 0.222D-01 0.633D-01 0.391D+00 0.510D+00
 Coeff:     -0.175D-02 0.145D-01 0.222D-01 0.633D-01 0.391D+00 0.510D+00
 Gap=     0.241 Goal=   None    Shift=    0.000
 RMSDP=9.00D-08 MaxDP=1.70D-06 DE=-3.29D-10 OVMax= 4.10D-06

 Cycle   7  Pass 1  IDiag  1:
 E= -230.037005515962     Delta-E=       -0.000000000063 Rises=F Damp=F
 DIIS: error= 2.29D-07 at cycle   7 NSaved=   7.
 NSaved= 7 IEnMin= 7 EnMin= -230.037005515962     IErMin= 7 ErrMin= 2.29D-07
 ErrMax= 2.29D-07  0.00D+00 EMaxC= 1.00D-01 BMatC= 4.40D-12 BMatP= 6.27D-11
 IDIUse=1 WtCom= 1.00D+00 WtEn= 0.00D+00
 Coeff-Com: -0.151D-03-0.132D-02 0.634D-03 0.184D-02 0.743D-01 0.236D+00
 Coeff-Com:  0.688D+00
 Coeff:     -0.151D-03-0.132D-02 0.634D-03 0.184D-02 0.743D-01 0.236D+00
 Coeff:      0.688D+00
 Gap=     0.241 Goal=   None    Shift=    0.000
 RMSDP=1.61D-08 MaxDP=3.09D-07 DE=-6.26D-11 OVMax= 4.84D-07

 Cycle   8  Pass 1  IDiag  1:
 E= -230.037005515966     Delta-E=       -0.000000000004 Rises=F Damp=F
 DIIS: error= 1.44D-08 at cycle   8 NSaved=   8.
 NSaved= 8 IEnMin= 8 EnMin= -230.037005515966     IErMin= 8 ErrMin= 1.44D-08
 ErrMax= 1.44D-08  0.00D+00 EMaxC= 1.00D-01 BMatC= 1.70D-14 BMatP= 4.40D-12
 IDIUse=1 WtCom= 1.00D+00 WtEn= 0.00D+00
 Coeff-Com:  0.378D-04-0.617D-03-0.597D-03-0.218D-02-0.492D-02 0.117D-01
 Coeff-Com:  0.665D-01 0.930D+00
 Coeff:      0.378D-04-0.617D-03-0.597D-03-0.218D-02-0.492D-02 0.117D-01
 Coeff:      0.665D-01 0.930D+00
 Gap=     0.241 Goal=   None    Shift=    0.000
 RMSDP=2.10D-09 MaxDP=3.18D-08 DE=-4.09D-12 OVMax= 7.89D-08

 SCF Done:  E(RB3LYP) =  -230.037005516     A.U. after    8 cycles
            NFock=  8  Conv=0.21D-08     -V/T= 2.0066
 KE= 2.285249844513D+02 PE=-8.570100897870D+02 EE= 2.380289909884D+02
 Leave Link  502 at Tue Dec  1 15:48:20 2015, MaxMem=    33554432 cpu:         2.0
 (Enter /home/Applications/g09/g09/l701.exe)
 Compute integral first derivatives.
 ... and contract with generalized density number  0.
 Leave Link  701 at Tue Dec  1 15:48:20 2015, MaxMem=    33554432 cpu:         0.1
 (Enter /home/Applications/g09/g09/l702.exe)
 L702 exits ... SP integral derivatives will be done elsewhere.
 Leave Link  702 at Tue Dec  1 15:48:20 2015, MaxMem=    33554432 cpu:         0.0
 (Enter /home/Applications/g09/g09/l703.exe)
 Compute integral first derivatives, UseDBF=F ICtDFT=           0.
 Integral derivatives from FoFJK, PRISM(SPDF).
 Calling FoFJK, ICntrl=      2127 FMM=F ISym2X=1 I1Cent= 0 IOpClX= 0 NMat=1 NMatS=1 NMatT=0.
 FoFJK:  IHMeth= 1 ICntrl=    2127 DoSepK=F KAlg= 0 I1Cent=   0 FoldK=F
 IRaf=         0 NMat=   1 IRICut=       1 DoRegI=T DoRafI=F ISym2E= 1.
 FoFCou: FMM=F IPFlag=           0 FMFlag=      100000 FMFlg1=         800
         NFxFlg=           0 DoJE=F BraDBF=F KetDBF=F FulRan=T
         wScrn=  0.000000 ICntrl=    2127 IOpCl=  0 I1Cent=           0 NGrid=           0
         NMat0=    1 NMatS0=      1 NMatT0=    0 NMatD0=    1 NMtDS0=    0 NMtDT0=    0
 Petite list used in FoFCou.
 Leave Link  703 at Tue Dec  1 15:48:21 2015, MaxMem=    33554432 cpu:         0.9
 (Enter /home/Applications/g09/g09/l716.exe)
 Dipole        =-7.77749746D-17-8.88178420D-16-2.01064868D-01
 ***** Axes restored to original set *****
 -------------------------------------------------------------------
 Center     Atomic                   Forces (Hartrees/Bohr)
 Number     Number              X              Y              Z
 -------------------------------------------------------------------
      1        6           0.000178633    0.000228148    0.000000000
      2        6          -0.000045295    0.000203227    0.000000000
      3        8          -0.000206048    0.000000000    0.000000000
      4        6          -0.000045295   -0.000203227    0.000000000
      5        6           0.000178633   -0.000228148    0.000000000
      6        1          -0.000011808   -0.000006129    0.000000000
      7        1          -0.000018506   -0.000086801    0.000000000
      8        1          -0.000018506    0.000086801    0.000000000
      9        1          -0.000011808    0.000006129    0.000000000
 -------------------------------------------------------------------
 Cartesian Forces:  Max     0.000228148 RMS     0.000107702
 Leave Link  716 at Tue Dec  1 15:48:21 2015, MaxMem=    33554432 cpu:         0.0
 (Enter /home/Applications/g09/g09/l103.exe)

 GradGradGradGradGradGradGradGradGradGradGradGradGradGradGradGradGradGrad
 Berny optimization.
 Using GEDIIS/GDIIS optimizer.
 FormGI is forming the generalized inverse of G from B-inverse, IUseBI=4.
 Internal  Forces:  Max     0.000305527 RMS     0.000094308
 Search for a local minimum.
 Step number   3 out of a maximum of   48
 All quantities printed in internal units (Hartrees-Bohrs-Radians)
 RMS Force = .94308D-04 SwitMx=.10000D-02 MixMth= 2
 Mixed Optimization -- En-DIIS/RFO-DIIS
 Swapping is turned off.
 Update second derivatives using D2CorX and points    1    2    3
 DE= -5.12D-06 DEPred=-5.81D-06 R= 8.81D-01
 TightC=F SS=  1.41D+00  RLast= 6.02D-03 DXNew= 5.0454D-01 1.8069D-02
 Trust test= 8.81D-01 RLast= 6.02D-03 DXMaxT set to 3.00D-01
 ITU=  1  1  0
     Eigenvalues ---    0.02003   0.02184   0.02263   0.02432   0.02573
     Eigenvalues ---    0.02596   0.15601   0.16000   0.16000   0.16080
     Eigenvalues ---    0.22000   0.28439   0.34136   0.36474   0.36643
     Eigenvalues ---    0.36644   0.39179   0.46089   0.48403   0.53111
     Eigenvalues ---    0.59485
 En-DIIS/RFO-DIIS IScMMF=        0 using points:     3    2
 RFO step:  Lambda=-5.40102700D-07.
 NNeg= 0 NP= 2 Switch=  2.50D-03 Rises=F DC=  5.12D-06 SmlDif=  1.00D-05
 RMS Error=  0.1529989467D-03 NUsed= 2 EDIIS=F
 DidBck=F Rises=F RFO-DIIS coefs:    0.88184    0.11816
 Iteration  1 RMS(Cart)=  0.00035538 RMS(Int)=  0.00000005
 Iteration  2 RMS(Cart)=  0.00000004 RMS(Int)=  0.00000000
 ITry= 1 IFail=0 DXMaxC= 1.18D-03 DCOld= 1.00D+10 DXMaxT= 3.00D-01 DXLimC= 3.00D+00 Rises=F
 ClnCor:  largest displacement from symmetrization is 4.65D-13 for atom     9.
 Variable       Old X    -DE/DX   Delta X   Delta X   Delta X     New X
                                 (Linear)    (Quad)   (Total)
    R1        2.57786   0.00014   0.00018  -0.00005   0.00013   2.57799
    R2        2.71782  -0.00031   0.00011  -0.00081  -0.00070   2.71711
    R3        2.05428  -0.00001   0.00015  -0.00027  -0.00012   2.05416
    R4        2.57720  -0.00011   0.00009  -0.00033  -0.00025   2.57695
    R5        2.05181  -0.00007   0.00013  -0.00037  -0.00024   2.05157
    R6        2.57720  -0.00011   0.00009  -0.00033  -0.00025   2.57695
    R7        2.57786   0.00014   0.00018  -0.00005   0.00013   2.57799
    R8        2.05181  -0.00007   0.00013  -0.00037  -0.00024   2.05157
    R9        2.05428  -0.00001   0.00015  -0.00027  -0.00012   2.05416
    A1        1.85026  -0.00006  -0.00010  -0.00007  -0.00017   1.85009
    A2        2.20837   0.00003   0.00014  -0.00011   0.00002   2.20840
    A3        2.22455   0.00003  -0.00003   0.00018   0.00015   2.22470
    A4        1.92950   0.00018   0.00025   0.00028   0.00053   1.93002
    A5        2.33293  -0.00003  -0.00015   0.00021   0.00007   2.33300
    A6        2.02075  -0.00015  -0.00010  -0.00049  -0.00059   2.02016
    A7        1.86527  -0.00023  -0.00029  -0.00042  -0.00071   1.86456
    A8        1.92950   0.00018   0.00025   0.00028   0.00053   1.93002
    A9        2.02075  -0.00015  -0.00010  -0.00049  -0.00059   2.02016
   A10        2.33293  -0.00003  -0.00015   0.00021   0.00007   2.33300
   A11        1.85026  -0.00006  -0.00010  -0.00007  -0.00017   1.85009
   A12        2.22455   0.00003  -0.00003   0.00018   0.00015   2.22470
   A13        2.20837   0.00003   0.00014  -0.00011   0.00002   2.20840
    D1        0.00000   0.00000   0.00000   0.00000   0.00000   0.00000
    D2        3.14159   0.00000   0.00000   0.00000   0.00000   3.14159
    D3        3.14159   0.00000   0.00000   0.00000   0.00000   3.14159
    D4        0.00000   0.00000   0.00000   0.00000   0.00000   0.00000
    D5        0.00000   0.00000   0.00000   0.00000   0.00000   0.00000
    D6        3.14159   0.00000   0.00000   0.00000   0.00000   3.14159
    D7        3.14159   0.00000   0.00000   0.00000   0.00000   3.14159
    D8        0.00000   0.00000   0.00000   0.00000   0.00000   0.00000
    D9        0.00000   0.00000   0.00000   0.00000   0.00000   0.00000
   D10        3.14159   0.00000   0.00000   0.00000   0.00000   3.14159
   D11        0.00000   0.00000   0.00000   0.00000   0.00000   0.00000
   D12        3.14159   0.00000   0.00000   0.00000   0.00000   3.14159
   D13        0.00000   0.00000   0.00000   0.00000   0.00000   0.00000
   D14        3.14159   0.00000   0.00000   0.00000   0.00000   3.14159
   D15        3.14159   0.00000   0.00000   0.00000   0.00000   3.14159
   D16        0.00000   0.00000   0.00000   0.00000   0.00000   0.00000
         Item               Value     Threshold  Converged?
 Maximum Force            0.000306     0.000450     YES
 RMS     Force            0.000094     0.000300     YES
 Maximum Displacement     0.001180     0.001800     YES
 RMS     Displacement     0.000355     0.001200     YES
 Predicted change in Energy=-4.447662D-07
 Optimization completed.
    -- Stationary point found.
                           ----------------------------
                           !   Optimized Parameters   !
                           ! (Angstroms and Degrees)  !
 --------------------------                            --------------------------
 ! Name  Definition              Value          Derivative Info.                !
 --------------------------------------------------------------------------------
 ! R1    R(1,2)                  1.3641         -DE/DX =    0.0001              !
 ! R2    R(1,5)                  1.4382         -DE/DX =   -0.0003              !
 ! R3    R(1,9)                  1.0871         -DE/DX =    0.0                 !
 ! R4    R(2,3)                  1.3638         -DE/DX =   -0.0001              !
 ! R5    R(2,8)                  1.0858         -DE/DX =   -0.0001              !
 ! R6    R(3,4)                  1.3638         -DE/DX =   -0.0001              !
 ! R7    R(4,5)                  1.3641         -DE/DX =    0.0001              !
 ! R8    R(4,7)                  1.0858         -DE/DX =   -0.0001              !
 ! R9    R(5,6)                  1.0871         -DE/DX =    0.0                 !
 ! A1    A(2,1,5)              106.0121         -DE/DX =   -0.0001              !
 ! A2    A(2,1,9)              126.5303         -DE/DX =    0.0                 !
 ! A3    A(5,1,9)              127.4576         -DE/DX =    0.0                 !
 ! A4    A(1,2,3)              110.552          -DE/DX =    0.0002              !
 ! A5    A(1,2,8)              133.6673         -DE/DX =    0.0                 !
 ! A6    A(3,2,8)              115.7807         -DE/DX =   -0.0001              !
 ! A7    A(2,3,4)              106.8719         -DE/DX =   -0.0002              !
 ! A8    A(3,4,5)              110.552          -DE/DX =    0.0002              !
 ! A9    A(3,4,7)              115.7807         -DE/DX =   -0.0001              !
 ! A10   A(5,4,7)              133.6673         -DE/DX =    0.0                 !
 ! A11   A(1,5,4)              106.0121         -DE/DX =   -0.0001              !
 ! A12   A(1,5,6)              127.4576         -DE/DX =    0.0                 !
 ! A13   A(4,5,6)              126.5303         -DE/DX =    0.0                 !
 ! D1    D(5,1,2,3)              0.0            -DE/DX =    0.0                 !
 ! D2    D(5,1,2,8)            180.0            -DE/DX =    0.0                 !
 ! D3    D(9,1,2,3)            180.0            -DE/DX =    0.0                 !
 ! D4    D(9,1,2,8)              0.0            -DE/DX =    0.0                 !
 ! D5    D(2,1,5,4)              0.0            -DE/DX =    0.0                 !
 ! D6    D(2,1,5,6)            180.0            -DE/DX =    0.0                 !
 ! D7    D(9,1,5,4)            180.0            -DE/DX =    0.0                 !
 ! D8    D(9,1,5,6)              0.0            -DE/DX =    0.0                 !
 ! D9    D(1,2,3,4)              0.0            -DE/DX =    0.0                 !
 ! D10   D(8,2,3,4)            180.0            -DE/DX =    0.0                 !
 ! D11   D(2,3,4,5)              0.0            -DE/DX =    0.0                 !
 ! D12   D(2,3,4,7)            180.0            -DE/DX =    0.0                 !
 ! D13   D(3,4,5,1)              0.0            -DE/DX =    0.0                 !
 ! D14   D(3,4,5,6)            180.0            -DE/DX =    0.0                 !
 ! D15   D(7,4,5,1)            180.0            -DE/DX =    0.0                 !
 ! D16   D(7,4,5,6)              0.0            -DE/DX =    0.0                 !
 --------------------------------------------------------------------------------
 Lowest energy point so far.  Saving SCF results.
 GradGradGradGradGradGradGradGradGradGradGradGradGradGradGradGradGradGrad

 Largest change from initial coordinates is atom    6       0.018 Angstoms.
 Leave Link  103 at Tue Dec  1 15:48:21 2015, MaxMem=    33554432 cpu:         0.0
 (Enter /home/Applications/g09/g09/l202.exe)
                          Input orientation:                          
 ---------------------------------------------------------------------
 Center     Atomic      Atomic             Coordinates (Angstroms)
 Number     Number       Type             X           Y           Z
 ---------------------------------------------------------------------
      1          6           0        0.961474   -0.719103    0.000000
      2          6           0       -0.349746   -1.095389    0.000000
      3          8           0       -1.162188    0.000000    0.000000
      4          6           0       -0.349746    1.095389    0.000000
      5          6           0        0.961474    0.719103    0.000000
      6          1           0        1.824400    1.380235    0.000000
      7          1           0       -0.853707    2.057119    0.000000
      8          1           0       -0.853707   -2.057119    0.000000
      9          1           0        1.824400   -1.380235    0.000000
 ---------------------------------------------------------------------
                    Distance matrix (angstroms):
                    1          2          3          4          5
     1  C    0.000000
     2  C    1.364144   0.000000
     3  O    2.242109   1.363796   0.000000
     4  C    2.238678   2.190778   1.363796   0.000000
     5  C    1.438206   2.238678   2.242109   1.364144   0.000000
     6  H    2.269771   3.294787   3.290099   2.192726   1.087076
     7  H    3.316970   3.192535   2.080120   1.085772   2.255032
     8  H    2.255032   1.085772   2.080120   3.192535   3.316970
     9  H    1.087076   2.192726   3.290099   3.294787   2.269771
                    6          7          8          9
     6  H    0.000000
     7  H    2.762323   0.000000
     8  H    4.357482   4.114237   0.000000
     9  H    2.760469   4.357482   2.762323   0.000000
 Stoichiometry    C4H4O
 Framework group  C2V[C2(O),SGV(C4H4)]
 Deg. of freedom     8
 Full point group                 C2V     NOp   4
 RotChk:  IX=0 Diff= 5.30D-33
 Largest Abelian subgroup         C2V     NOp   4
 Largest concise Abelian subgroup C2      NOp   2
                         Standard orientation:                         
 ---------------------------------------------------------------------
 Center     Atomic      Atomic             Coordinates (Angstroms)
 Number     Number       Type             X           Y           Z
 ---------------------------------------------------------------------
      1          6           0        0.000000    0.719103   -0.961902
      2          6           0        0.000000    1.095389    0.349319
      3          8           0        0.000000    0.000000    1.161761
      4          6           0        0.000000   -1.095389    0.349319
      5          6           0        0.000000   -0.719103   -0.961902
      6          1           0        0.000000   -1.380235   -1.824827
      7          1           0        0.000000   -2.057119    0.853280
      8          1           0        0.000000    2.057119    0.853280
      9          1           0        0.000000    1.380235   -1.824827
 ---------------------------------------------------------------------
 Rotational constants (GHZ):      9.4327127      9.2141420      4.6610732
 Leave Link  202 at Tue Dec  1 15:48:21 2015, MaxMem=    33554432 cpu:         0.0
 (Enter /home/Applications/g09/g09/l601.exe)
 Copying SCF densities to generalized density rwf, IOpCl= 0 IROHF=0.

 **********************************************************************

            Population analysis using the SCF density.

 **********************************************************************

 Orbital symmetries:
       Occupied  (A1) (B2) (A1) (A1) (B2) (A1) (A1) (B2) (B2) (A1)
                 (A1) (B1) (B2) (B2) (A1) (A1) (B1) (A2)
       Virtual   (B1) (A2) (A1) (B2) (A1) (B2) (A1) (B2) (A1) (B2)
                 (B2) (A1) (B1) (A1) (B2) (A2) (B2) (A1) (B1) (A1)
                 (A2) (B2) (A1) (B2) (A1) (B2) (B1) (A1) (B2) (A1)
                 (B1) (B2) (B1) (A1) (A2) (A2) (A1) (B1) (B2) (B2)
                 (A1) (B2) (A2) (A1) (B1) (A1) (B2) (B1) (B2) (A1)
                 (A2) (A2) (A1) (B2) (B1) (A1) (B2) (A1) (A2) (B2)
                 (A1) (B2) (A1) (B2) (B2) (A1) (B1) (A2) (A1) (B2)
                 (B2) (A1)
 The electronic state is 1-A1.
 Alpha  occ. eigenvalues --  -19.20642 -10.23418 -10.23417 -10.18766 -10.18733
 Alpha  occ. eigenvalues --   -1.10966  -0.79746  -0.74353  -0.59670  -0.56693
 Alpha  occ. eigenvalues --   -0.53813  -0.44722  -0.44321  -0.40901  -0.39629
 Alpha  occ. eigenvalues --   -0.37080  -0.27884  -0.23027
 Alpha virt. eigenvalues --    0.01089   0.06694   0.07871   0.10790   0.10810
 Alpha virt. eigenvalues --    0.12081   0.16891   0.19269   0.28102   0.34227
 Alpha virt. eigenvalues --    0.38734   0.39085   0.46423   0.47470   0.47809
 Alpha virt. eigenvalues --    0.51090   0.51577   0.52453   0.53971   0.58960
 Alpha virt. eigenvalues --    0.60710   0.64996   0.66348   0.71067   0.75202
 Alpha virt. eigenvalues --    0.84117   0.84417   0.92602   0.94289   0.96152
 Alpha virt. eigenvalues --    0.96297   1.01032   1.03284   1.04067   1.04750
 Alpha virt. eigenvalues --    1.12311   1.26217   1.27826   1.32009   1.35741
 Alpha virt. eigenvalues --    1.47013   1.47336   1.48142   1.50540   1.56350
 Alpha virt. eigenvalues --    1.58787   1.66904   1.67037   1.71309   1.74938
 Alpha virt. eigenvalues --    1.75850   1.84453   1.85971   1.89589   1.90262
 Alpha virt. eigenvalues --    1.91426   1.96932   2.06041   2.19869   2.22054
 Alpha virt. eigenvalues --    2.31764   2.32146   2.44471   2.57581   2.60490
 Alpha virt. eigenvalues --    2.63522   2.86190   2.90103   3.08692   3.29565
 Alpha virt. eigenvalues --    3.35550   3.42336
          Condensed to atoms (all electrons):
               1          2          3          4          5          6
     1  C    4.802202   0.526892  -0.060239  -0.022551   0.453566  -0.050294
     2  C    0.526892   4.789807   0.395628  -0.180393  -0.022551   0.011989
     3  O   -0.060239   0.395628   7.532128   0.395628  -0.060239   0.003857
     4  C   -0.022551  -0.180393   0.395628   4.789807   0.526892  -0.052372
     5  C    0.453566  -0.022551  -0.060239   0.526892   4.802202   0.406550
     6  H   -0.050294   0.011989   0.003857  -0.052372   0.406550   0.714057
     7  H    0.007938   0.002098  -0.022888   0.407111  -0.049239  -0.004002
     8  H   -0.049239   0.407111  -0.022888   0.002098   0.007938  -0.000156
     9  H    0.406550  -0.052372   0.003857   0.011989  -0.050294  -0.007012
               7          8          9
     1  C    0.007938  -0.049239   0.406550
     2  C    0.002098   0.407111  -0.052372
     3  O   -0.022888  -0.022888   0.003857
     4  C    0.407111   0.002098   0.011989
     5  C   -0.049239   0.007938  -0.050294
     6  H   -0.004002  -0.000156  -0.007012
     7  H    0.661660  -0.000590  -0.000156
     8  H   -0.000590   0.661660  -0.004002
     9  H   -0.000156  -0.004002   0.714057
 Mulliken charges:
               1
     1  C   -0.014824
     2  C    0.121792
     3  O   -0.164842
     4  C    0.121792
     5  C   -0.014824
     6  H   -0.022617
     7  H   -0.001930
     8  H   -0.001930
     9  H   -0.022617
 Sum of Mulliken charges =   0.00000
 Mulliken charges with hydrogens summed into heavy atoms:
               1
     1  C   -0.037441
     2  C    0.119862
     3  O   -0.164842
     4  C    0.119862
     5  C   -0.037441
 Electronic spatial extent (au):  <R**2>=            291.8734
 Charge=              0.0000 electrons
 Dipole moment (field-independent basis, Debye):
    X=              0.0000    Y=              0.0000    Z=             -0.5111  Tot=              0.5111
 Quadrupole moment (field-independent basis, Debye-Ang):
   XX=            -31.4141   YY=            -24.2143   ZZ=            -27.8248
   XY=              0.0000   XZ=              0.0000   YZ=              0.0000
 Traceless Quadrupole moment (field-independent basis, Debye-Ang):
   XX=             -3.5964   YY=              3.6034   ZZ=             -0.0071
   XY=              0.0000   XZ=              0.0000   YZ=              0.0000
 Octapole moment (field-independent basis, Debye-Ang**2):
  XXX=              0.0000  YYY=              0.0000  ZZZ=             -0.3915  XYY=              0.0000
  XXY=              0.0000  XXZ=              3.2756  XZZ=              0.0000  YZZ=              0.0000
  YYZ=              4.2951  XYZ=              0.0000
 Hexadecapole moment (field-independent basis, Debye-Ang**3):
 XXXX=            -32.4338 YYYY=           -165.9450 ZZZZ=           -164.3334 XXXY=              0.0000
 XXXZ=              0.0000 YYYX=              0.0000 YYYZ=              0.0000 ZZZX=              0.0000
 ZZZY=              0.0000 XXYY=            -40.2217 XXZZ=            -35.3447 YYZZ=            -48.9970
 XXYZ=              0.0000 YYXZ=              0.0000 ZZXY=              0.0000
 N-N= 1.604191088313D+02 E-N=-8.570100901323D+02  KE= 2.285249844513D+02
 Symmetry A1   KE= 1.433259962134D+02
 Symmetry A2   KE= 2.422002787893D+00
 Symmetry B1   KE= 6.314880228664D+00
 Symmetry B2   KE= 7.646210522141D+01
 No NMR shielding tensors so no spin-rotation constants.
 Leave Link  601 at Tue Dec  1 15:48:21 2015, MaxMem=    33554432 cpu:         0.1
 (Enter /home/Applications/g09/g09/l9999.exe)
 1\1\GINC-DUSTIN-DESKTOP\FOpt\RB3LYP\CC-pVDZ\C4H4O1\DUSTIN\01-Dec-2015\
 0\\#P B3LYP/cc-pVDZ opt\\FuranDFT\\0,1\C,0.9614742615,-0.7191030018,0.
 \C,-0.3497461806,-1.0953888616,0.\O,-1.1621880656,0.,0.\C,-0.349746180
 6,1.0953888616,0.\C,0.9614742615,0.7191030018,0.\H,1.8243995079,1.3802
 345659,0.\H,-0.853707056,2.0571185644,0.\H,-0.853707056,-2.0571185644,
 0.\H,1.8243995079,-1.3802345659,0.\\Version=ES64L-G09RevD.01\State=1-A
 1\HF=-230.0370055\RMSD=2.099e-09\RMSF=1.077e-04\Dipole=0.2010649,0.,0.
 \Quadrupole=-0.0052471,2.6790648,-2.6738177,0.,0.,0.\PG=C02V [C2(O1),S
 GV(C4H4)]\\@


 TIMES HAVE CHANGED. IN THE BIBLE WHEN AN ASS
 SPOKE IT WAS CONSIDERED A MIRACLE.
 Job cpu time:       0 days  0 hours  0 minutes 10.3 seconds.
 File lengths (MBytes):  RWF=      6 Int=      0 D2E=      0 Chk=      2 Scr=      1
 Normal termination of Gaussian 09 at Tue Dec  1 15:48:21 2015.
