 Entering Gaussian System, Link 0=g09
 Input=FuranAM1_30.com
 Output=FuranAM1_30.log
 Initial command:
 /home/Applications/g09/g09/l1.exe "/home/Applications/g09/scratch/Gau-5719.inp" -scrdir="/home/Applications/g09/scratch/"
 Entering Link 1 = /home/Applications/g09/g09/l1.exe PID=      5721.
  
 Copyright (c) 1988,1990,1992,1993,1995,1998,2003,2009,2013,
            Gaussian, Inc.  All Rights Reserved.
  
 This is part of the Gaussian(R) 09 program.  It is based on
 the Gaussian(R) 03 system (copyright 2003, Gaussian, Inc.),
 the Gaussian(R) 98 system (copyright 1998, Gaussian, Inc.),
 the Gaussian(R) 94 system (copyright 1995, Gaussian, Inc.),
 the Gaussian 92(TM) system (copyright 1992, Gaussian, Inc.),
 the Gaussian 90(TM) system (copyright 1990, Gaussian, Inc.),
 the Gaussian 88(TM) system (copyright 1988, Gaussian, Inc.),
 the Gaussian 86(TM) system (copyright 1986, Carnegie Mellon
 University), and the Gaussian 82(TM) system (copyright 1983,
 Carnegie Mellon University). Gaussian is a federally registered
 trademark of Gaussian, Inc.
  
 This software contains proprietary and confidential information,
 including trade secrets, belonging to Gaussian, Inc.
  
 This software is provided under written license and may be
 used, copied, transmitted, or stored only in accord with that
 written license.
  
 The following legend is applicable only to US Government
 contracts under FAR:
  
                    RESTRICTED RIGHTS LEGEND
  
 Use, reproduction and disclosure by the US Government is
 subject to restrictions as set forth in subparagraphs (a)
 and (c) of the Commercial Computer Software - Restricted
 Rights clause in FAR 52.227-19.
  
 Gaussian, Inc.
 340 Quinnipiac St., Bldg. 40, Wallingford CT 06492
  
  
 ---------------------------------------------------------------
 Warning -- This program may not be used in any manner that
 competes with the business of Gaussian, Inc. or will provide
 assistance to any competitor of Gaussian, Inc.  The licensee
 of this program is prohibited from giving any competitor of
 Gaussian, Inc. access to this program.  By using this program,
 the user acknowledges that Gaussian, Inc. is engaged in the
 business of creating and licensing software in the field of
 computational chemistry and represents and warrants to the
 licensee that it is not a competitor of Gaussian, Inc. and that
 it will not use this program in any manner prohibited above.
 ---------------------------------------------------------------
  

 Cite this work as:
 Gaussian 09, Revision D.01,
 M. J. Frisch, G. W. Trucks, H. B. Schlegel, G. E. Scuseria, 
 M. A. Robb, J. R. Cheeseman, G. Scalmani, V. Barone, B. Mennucci, 
 G. A. Petersson, H. Nakatsuji, M. Caricato, X. Li, H. P. Hratchian, 
 A. F. Izmaylov, J. Bloino, G. Zheng, J. L. Sonnenberg, M. Hada, 
 M. Ehara, K. Toyota, R. Fukuda, J. Hasegawa, M. Ishida, T. Nakajima, 
 Y. Honda, O. Kitao, H. Nakai, T. Vreven, J. A. Montgomery, Jr., 
 J. E. Peralta, F. Ogliaro, M. Bearpark, J. J. Heyd, E. Brothers, 
 K. N. Kudin, V. N. Staroverov, T. Keith, R. Kobayashi, J. Normand, 
 K. Raghavachari, A. Rendell, J. C. Burant, S. S. Iyengar, J. Tomasi, 
 M. Cossi, N. Rega, J. M. Millam, M. Klene, J. E. Knox, J. B. Cross, 
 V. Bakken, C. Adamo, J. Jaramillo, R. Gomperts, R. E. Stratmann, 
 O. Yazyev, A. J. Austin, R. Cammi, C. Pomelli, J. W. Ochterski, 
 R. L. Martin, K. Morokuma, V. G. Zakrzewski, G. A. Voth, 
 P. Salvador, J. J. Dannenberg, S. Dapprich, A. D. Daniels, 
 O. Farkas, J. B. Foresman, J. V. Ortiz, J. Cioslowski, 
 and D. J. Fox, Gaussian, Inc., Wallingford CT, 2013.
 
 ******************************************
 Gaussian 09:  ES64L-G09RevD.01 24-Apr-2013
                15-Dec-2015 
 ******************************************
 ------------------------------------------------------------
 #P AM1(Input,print) CIS(Singlets,NStates=15) pop(full) force
 ------------------------------------------------------------
 1/10=7,30=1,38=1/1,3;
 2/12=2,17=6,18=5,40=1/2;
 3/5=2,16=1,25=1,41=700000,71=1,135=100,136=1/1,2,8,3;
 4/35=1/1;
 5/5=2,35=1,38=5/2;
 8/6=1,10=1,108=15/1;
 9/15=2,41=15,42=1,48=1,49=10/14;
 10/5=4/2;
 6/7=3,18=1/1;
 7/12=6,13=5,29=1/1,2,3,16;
 1/10=7,30=1/3;
 99//99;
 Leave Link    1 at Tue Dec 15 16:16:23 2015, MaxMem=           0 cpu:         0.0
 (Enter /home/Applications/g09/g09/l101.exe)
 -----------------
 AM1-Reparam Input
 -----------------
 Symbolic Z-matrix:
 Charge =  0 Multiplicity = 1
 6                     0.99546  -0.6868    0.00666 
 6                    -0.31849  -1.08291  -0.00613 
 8                    -1.11082  -0.02078  -0.04924 
 6                    -0.38499   1.06457  -0.00454 
 6                     0.91711   0.69363   0.03353 
 1                     1.81581   1.32556   0.0283 
 1                    -0.84901   2.09149  -0.03689 
 1                    -0.79325  -2.02425  -0.03981 
 1                     1.77891  -1.41645  -0.04973 
 
 NAtoms=      9 NQM=        9 NQMF=       0 NMMI=      0 NMMIF=      0
                NMic=       0 NMicF=      0.
                    Isotopes and Nuclear Properties:
 (Nuclear quadrupole moments (NQMom) in fm**2, nuclear magnetic moments (NMagM)
  in nuclear magnetons)

  Atom         1           2           3           4           5           6           7           8           9
 IAtWgt=          12          12          16          12          12           1           1           1           1
 AtmWgt=  12.0000000  12.0000000  15.9949146  12.0000000  12.0000000   1.0078250   1.0078250   1.0078250   1.0078250
 NucSpn=           0           0           0           0           0           1           1           1           1
 AtZEff=   0.0000000   0.0000000   0.0000000   0.0000000   0.0000000   0.0000000   0.0000000   0.0000000   0.0000000
 NQMom=    0.0000000   0.0000000   0.0000000   0.0000000   0.0000000   0.0000000   0.0000000   0.0000000   0.0000000
 NMagM=    0.0000000   0.0000000   0.0000000   0.0000000   0.0000000   2.7928460   2.7928460   2.7928460   2.7928460
 AtZNuc=   6.0000000   6.0000000   8.0000000   6.0000000   6.0000000   1.0000000   1.0000000   1.0000000   1.0000000
 Leave Link  101 at Tue Dec 15 16:16:23 2015, MaxMem=    33554432 cpu:         0.0
 (Enter /home/Applications/g09/g09/l103.exe)

 GradGradGradGradGradGradGradGradGradGradGradGradGradGradGradGradGradGrad
 Berny optimization.
 Initialization pass.
 Trust Radius=3.00D-01 FncErr=1.00D-07 GrdErr=1.00D-07
 Number of steps in this run=      2 maximum allowed number of steps=      2.
 GradGradGradGradGradGradGradGradGradGradGradGradGradGradGradGradGradGrad

 Leave Link  103 at Tue Dec 15 16:16:23 2015, MaxMem=    33554432 cpu:         0.0
 (Enter /home/Applications/g09/g09/l202.exe)
                          Input orientation:                          
 ---------------------------------------------------------------------
 Center     Atomic      Atomic             Coordinates (Angstroms)
 Number     Number       Type             X           Y           Z
 ---------------------------------------------------------------------
      1          6           0        0.995457   -0.686796    0.006664
      2          6           0       -0.318485   -1.082907   -0.006129
      3          8           0       -1.110816   -0.020782   -0.049235
      4          6           0       -0.384994    1.064574   -0.004541
      5          6           0        0.917105    0.693627    0.033531
      6          1           0        1.815814    1.325555    0.028301
      7          1           0       -0.849011    2.091488   -0.036894
      8          1           0       -0.793246   -2.024247   -0.039805
      9          1           0        1.778905   -1.416449   -0.049726
 ---------------------------------------------------------------------
                    Distance matrix (angstroms):
                    1          2          3          4          5
     1  C    0.000000
     2  C    1.372411   0.000000
     3  O    2.209770   1.325804   0.000000
     4  C    2.230038   2.148511   1.306450   0.000000
     5  C    1.382906   2.164331   2.151672   1.354442   0.000000
     6  H    2.173249   3.218246   3.222390   2.216471   1.098653
     7  H    3.335089   3.218569   2.128469   1.127347   2.253473
     8  H    2.233919   1.054824   2.028500   3.115883   3.212089
     9  H    1.072084   2.124193   3.209108   3.292412   2.280801
                    6          7          8          9
     6  H    0.000000
     7  H    2.773481   0.000000
     8  H    4.246529   4.116114   0.000000
     9  H    2.743362   4.383119   2.643005   0.000000
 Stoichiometry    C4H4O
 Framework group  C1[X(C4H4O)]
 Deg. of freedom    21
 Full point group                 C1      NOp   1
 Largest Abelian subgroup         C1      NOp   1
 Largest concise Abelian subgroup C1      NOp   1
                         Standard orientation:                         
 ---------------------------------------------------------------------
 Center     Atomic      Atomic             Coordinates (Angstroms)
 Number     Number       Type             X           Y           Z
 ---------------------------------------------------------------------
      1          6           0       -0.997617    0.663434    0.002578
      2          6           0       -0.876975   -0.703491   -0.019168
      3          8           0        0.403608   -1.045229    0.013682
      4          6           0        1.141382    0.032805   -0.004873
      5          6           0        0.313001    1.104345   -0.014920
      6          1           0        0.565638    2.173084    0.016866
      7          1           0        2.267236   -0.017053    0.024764
      8          1           0       -1.574377   -1.494734   -0.004473
      9          1           0       -1.966114    1.117970    0.071685
 ---------------------------------------------------------------------
 Rotational constants (GHZ):      9.9784494      9.4588178      4.8573361
 Leave Link  202 at Tue Dec 15 16:16:23 2015, MaxMem=    33554432 cpu:         0.0
 (Enter /home/Applications/g09/g09/l301.exe)

 Semi-emprical parameters in input format:
 Method=8 CoreType=1 PeptideFC=0.0114510000 RIJScale=0.5291770000
 ****
 H       
 PQN=1 NValence=1 F0ss=0.4721550000 ZetaOverlap=1.1880780000 U=-0.4188110000
 Beta=-0.2268830000 CoreKO=1.0589200000 KON=0,0,0,1.0589200000 KON=1,0,1,1.0589200000
 KON=0,1,1,1.0589200000 KON=2,1,1,1.0589200000 EISol=-0.4188110042 EHeat=0.0830298228
 Alpha=1.5252600000
 GCore=0.0085280000,1.4001430000,2.2676710000
 GCore=0.0003530000,1.4001430000,3.4015070000
 GCore=-0.0012730000,0.5600570000,3.9684250000
 ****
 C       
 PQN=2,2 NValence=4 F0ss=0.4494440000 F0sp=0.4215150000 F0pp=0.3768030000 F2pp=0.1898720000
 G1sp=0.2679030000
 ZetaOverlap=1.8086650000,1.6851160000
 U=-1.9120180000,-1.4557970000
 Beta=-0.5775440000,-0.2836780000 DDN=0,1,0.8236740000 DDN=1,1,0.7268010000
 CoreKO=1.1124280000 KON=0,0,0,1.1124280000 KON=1,0,1,0.8219700000 KON=0,1,1,1.1124280000
 KON=2,1,1,0.7783930000 EISol=-4.4398989268 EHeat=0.2723305520 Alpha=1.4014060000
 DipHyp=1.6472532266
 GCore=0.0007890000,1.4001430000,3.0235620000
 GCore=0.0031890000,1.4001430000,3.4959930000
 GCore=-0.0013930000,1.4001430000,3.8739390000
 GCore=-0.0000880000,1.4001430000,5.0077740000
 ****
 O       
 PQN=2,2 NValence=6 F0ss=0.5666750000 F0sp=0.5321300000 F0pp=0.4958710000 F2pp=0.2358080000
 G1sp=0.4343770000
 ZetaOverlap=3.1080320000,2.5240390000
 U=-3.5951870000,-2.8760900000
 Beta=-1.0757550000,-1.0757550000 DDN=0,1,0.4988900000 DDN=1,1,0.4852320000
 CoreKO=0.8822960000 KON=0,0,0,0.8822960000 KON=1,0,1,0.5019540000 KON=0,1,1,0.8822960000
 KON=2,1,1,0.5515580000 EISol=-11.6164441184 EHeat=0.0949133088 Alpha=2.3576810000
 DipHyp=0.9977225968
 GCore=0.0195120000,1.4001430000,1.6023330000
 GCore=0.0056550000,1.9602000000,2.7307880000
 ****
 
 Standard basis: VSTO-6G (5D, 7F)
 Ernie: Thresh=  0.10000D-02 Tol=  0.10000D-05 Strict=F.
  NNHCO=     0 NNPyr=     0 NCTC=     0               EPep=         0.000000000
    EC=        69.522852477  ECS=         1.916052484   EG=         0.385243459
   EHC=         0.000000000  EAt=       -31.051283842  AtH=         1.516354808
 EPDDG=         0.000000000  ECC=        71.824148420 EAtT=        32.567638650
 There are    24 symmetry adapted cartesian basis functions of A   symmetry.
 There are    24 symmetry adapted basis functions of A   symmetry.
    24 basis functions,   144 primitive gaussians,    24 cartesian basis functions
    13 alpha electrons       13 beta electrons
       nuclear repulsion energy       104.3917870702 Hartrees.
 IExCor=    0 DFT=F Ex=HF Corr=None ExCW=0 ScaHFX=  1.000000
 ScaDFX=  1.000000  1.000000  1.000000  1.000000 ScalE2=  1.000000  1.000000
 IRadAn=      0 IRanWt=     -1 IRanGd=            0 ICorTp=0 IEmpDi=  4
 Integral buffers will be    131072 words long.
 Regular integral format.
 Two-electron integral symmetry is turned off.
 Leave Link  301 at Tue Dec 15 16:16:23 2015, MaxMem=    33554432 cpu:         0.0
 (Enter /home/Applications/g09/g09/l302.exe)
 Do NDO integrals.
 NPDir=0 NMtPBC=     1 NCelOv=     1 NCel=       1 NClECP=     1 NCelD=      1
         NCelK=      1 NCelE2=     1 NClLst=     1 CellRange=     0.0.
 One-electron integrals computed using PRISM.
 NBasis=    24 RedAO= F EigKep=  0.00D+00  NBF=    24
 NBsUse=    24 1.00D-04 EigRej=  0.00D+00 NBFU=    24
 Leave Link  302 at Tue Dec 15 16:16:23 2015, MaxMem=    33554432 cpu:         0.0
 (Enter /home/Applications/g09/g09/l308.exe)
 Leave Link  308 at Tue Dec 15 16:16:23 2015, MaxMem=    33554432 cpu:         0.0
 (Enter /home/Applications/g09/g09/l303.exe)
 DipDrv:  MaxL=1.
 Leave Link  303 at Tue Dec 15 16:16:23 2015, MaxMem=    33554432 cpu:         0.0
 (Enter /home/Applications/g09/g09/l401.exe)
 Simple Huckel Guess.
 JPrj=0 DoOrth=F DoCkMO=F.
 Leave Link  401 at Tue Dec 15 16:16:23 2015, MaxMem=    33554432 cpu:         0.0
 (Enter /home/Applications/g09/g09/l502.exe)
 Closed shell SCF:
 Using DIIS extrapolation, IDIIS=  1040.
 Overlap will be assumed to be unity.
 Two-electron integral symmetry not used.
 Keep J ints in memory in canonical form, NReq=888082.
 IVT=       79475 IEndB=       79475 NGot=    33554432 MDV=    33473473
 LenX=    33473473 LenY=    33472456
 Requested convergence on RMS density matrix=1.00D-08 within 128 cycles.
 Requested convergence on MAX density matrix=1.00D-06.
 Requested convergence on             energy=1.00D-06.
 No special actions if energy rises.
 FoFCou: FMM=F IPFlag=           0 FMFlag=           0 FMFlg1=           0
         NFxFlg=           0 DoJE=F BraDBF=F KetDBF=F FulRan=T
         wScrn=  0.000000 ICntrl=     600 IOpCl=  2 I1Cent=           0 NGrid=           0
         NMat0=    1 NMatS0=     54 NMatT0=    0 NMatD0=    1 NMtDS0=    0 NMtDT0=    0
 Symmetry not used in FoFCou.

 Cycle   1  Pass 1  IDiag  1:
 E= 0.350699660431459    
 DIIS: error= 6.83D-02 at cycle   1 NSaved=   1.
 NSaved= 1 IEnMin= 1 EnMin= 0.350699660431459     IErMin= 1 ErrMin= 6.83D-02
 ErrMax= 6.83D-02  0.00D+00 EMaxC= 1.00D-01 BMatC= 1.14D-01 BMatP= 1.14D-01
 IDIUse=3 WtCom= 3.17D-01 WtEn= 6.83D-01
 Coeff-Com:  0.100D+01
 Coeff-En:   0.100D+01
 Coeff:      0.100D+01
 GapD=    2.000 DampG=2.000 DampE=0.500 DampFc=1.0000 IDamp=-1.
 RMSDP=1.95D-02 MaxDP=1.66D-01              OVMax= 0.00D+00

 Cycle   2  Pass 1  IDiag  1:
 E= 0.688633064193311E-01 Delta-E=       -0.281836354012 Rises=F Damp=F
 DIIS: error= 1.92D-02 at cycle   2 NSaved=   2.
 NSaved= 2 IEnMin= 2 EnMin= 0.688633064193311E-01 IErMin= 2 ErrMin= 1.92D-02
 ErrMax= 1.92D-02  0.00D+00 EMaxC= 1.00D-01 BMatC= 9.78D-03 BMatP= 1.14D-01
 IDIUse=3 WtCom= 8.08D-01 WtEn= 1.92D-01
 Coeff-Com: -0.352D+00 0.135D+01
 Coeff-En:   0.000D+00 0.100D+01
 Coeff:     -0.285D+00 0.128D+01
 RMSDP=8.28D-03 MaxDP=6.90D-02 DE=-2.82D-01 OVMax= 0.00D+00

 Cycle   3  Pass 1  IDiag  3:
 E= 0.372962261709517E-01 Delta-E=       -0.031567080248 Rises=F Damp=F
 DIIS: error= 4.37D-03 at cycle   3 NSaved=   3.
 NSaved= 3 IEnMin= 3 EnMin= 0.372962261709517E-01 IErMin= 3 ErrMin= 4.37D-03
 ErrMax= 4.37D-03  0.00D+00 EMaxC= 1.00D-01 BMatC= 4.27D-04 BMatP= 9.78D-03
 IDIUse=3 WtCom= 9.56D-01 WtEn= 4.37D-02
 Coeff-Com:  0.125D+00-0.584D+00 0.146D+01
 Coeff-En:   0.000D+00 0.000D+00 0.100D+01
 Coeff:      0.120D+00-0.558D+00 0.144D+01
 Gap=     0.378 Goal=   None    Shift=    0.000
 RMSDP=2.72D-03 MaxDP=2.91D-02 DE=-3.16D-02 OVMax= 2.91D-02

 Cycle   4  Pass 1  IDiag  3:
 E= 0.349494481546486E-01 Delta-E=       -0.002346778016 Rises=F Damp=F
 DIIS: error= 1.23D-03 at cycle   4 NSaved=   4.
 NSaved= 4 IEnMin= 4 EnMin= 0.349494481546486E-01 IErMin= 4 ErrMin= 1.23D-03
 ErrMax= 1.23D-03  0.00D+00 EMaxC= 1.00D-01 BMatC= 3.06D-05 BMatP= 4.27D-04
 IDIUse=3 WtCom= 9.88D-01 WtEn= 1.23D-02
 Coeff-Com:  0.105D-01-0.257D-01-0.270D+00 0.129D+01
 Coeff-En:   0.000D+00 0.000D+00 0.000D+00 0.100D+01
 Coeff:      0.104D-01-0.254D-01-0.267D+00 0.128D+01
 Gap=     0.378 Goal=   None    Shift=    0.000
 RMSDP=8.95D-04 MaxDP=1.02D-02 DE=-2.35D-03 OVMax= 9.24D-03

 Cycle   5  Pass 1  IDiag  3:
 E= 0.347609595264800E-01 Delta-E=       -0.000188488628 Rises=F Damp=F
 DIIS: error= 1.58D-04 at cycle   5 NSaved=   5.
 NSaved= 5 IEnMin= 5 EnMin= 0.347609595264800E-01 IErMin= 5 ErrMin= 1.58D-04
 ErrMax= 1.58D-04  0.00D+00 EMaxC= 1.00D-01 BMatC= 1.37D-06 BMatP= 3.06D-05
 IDIUse=3 WtCom= 9.98D-01 WtEn= 1.58D-03
 Coeff-Com: -0.610D-02 0.223D-01 0.612D-01-0.512D+00 0.143D+01
 Coeff-En:   0.000D+00 0.000D+00 0.000D+00 0.000D+00 0.100D+01
 Coeff:     -0.610D-02 0.223D-01 0.611D-01-0.511D+00 0.143D+01
 Gap=     0.378 Goal=   None    Shift=    0.000
 RMSDP=1.91D-04 MaxDP=1.58D-03 DE=-1.88D-04 OVMax= 1.65D-03

 Cycle   6  Pass 1  IDiag  3:
 E= 0.347525109997378E-01 Delta-E=       -0.000008448527 Rises=F Damp=F
 DIIS: error= 5.72D-05 at cycle   6 NSaved=   6.
 NSaved= 6 IEnMin= 6 EnMin= 0.347525109997378E-01 IErMin= 6 ErrMin= 5.72D-05
 ErrMax= 5.72D-05  0.00D+00 EMaxC= 1.00D-01 BMatC= 8.78D-08 BMatP= 1.37D-06
 IDIUse=1 WtCom= 1.00D+00 WtEn= 0.00D+00
 Coeff-Com:  0.255D-02-0.959D-02-0.117D-01 0.160D+00-0.605D+00 0.146D+01
 Coeff:      0.255D-02-0.959D-02-0.117D-01 0.160D+00-0.605D+00 0.146D+01
 Gap=     0.378 Goal=   None    Shift=    0.000
 RMSDP=5.52D-05 MaxDP=4.08D-04 DE=-8.45D-06 OVMax= 7.15D-04

 Cycle   7  Pass 1  IDiag  3:
 E= 0.347518276341248E-01 Delta-E=       -0.000000683366 Rises=F Damp=F
 DIIS: error= 2.53D-05 at cycle   7 NSaved=   7.
 NSaved= 7 IEnMin= 7 EnMin= 0.347518276341248E-01 IErMin= 7 ErrMin= 2.53D-05
 ErrMax= 2.53D-05  0.00D+00 EMaxC= 1.00D-01 BMatC= 9.20D-09 BMatP= 8.78D-08
 IDIUse=1 WtCom= 1.00D+00 WtEn= 0.00D+00
 Coeff-Com: -0.494D-03 0.153D-02 0.326D-02-0.354D-01 0.153D+00-0.652D+00
 Coeff-Com:  0.153D+01
 Coeff:     -0.494D-03 0.153D-02 0.326D-02-0.354D-01 0.153D+00-0.652D+00
 Coeff:      0.153D+01
 Gap=     0.378 Goal=   None    Shift=    0.000
 RMSDP=2.32D-05 MaxDP=2.01D-04 DE=-6.83D-07 OVMax= 2.87D-04

 Cycle   8  Pass 1  IDiag  3:
 E= 0.347517391390539E-01 Delta-E=       -0.000000088495 Rises=F Damp=F
 DIIS: error= 7.35D-06 at cycle   8 NSaved=   8.
 NSaved= 8 IEnMin= 8 EnMin= 0.347517391390539E-01 IErMin= 8 ErrMin= 7.35D-06
 ErrMax= 7.35D-06  0.00D+00 EMaxC= 1.00D-01 BMatC= 6.38D-10 BMatP= 9.20D-09
 IDIUse=1 WtCom= 1.00D+00 WtEn= 0.00D+00
 Coeff-Com:  0.600D-04 0.154D-04-0.158D-02 0.923D-02-0.389D-01 0.220D+00
 Coeff-Com: -0.764D+00 0.158D+01
 Coeff:      0.600D-04 0.154D-04-0.158D-02 0.923D-02-0.389D-01 0.220D+00
 Coeff:     -0.764D+00 0.158D+01
 Gap=     0.378 Goal=   None    Shift=    0.000
 RMSDP=6.92D-06 MaxDP=6.45D-05 DE=-8.85D-08 OVMax= 8.00D-05

 Cycle   9  Pass 1  IDiag  3:
 E= 0.347517327461162E-01 Delta-E=       -0.000000006393 Rises=F Damp=F
 DIIS: error= 1.27D-06 at cycle   9 NSaved=   9.
 NSaved= 9 IEnMin= 9 EnMin= 0.347517327461162E-01 IErMin= 9 ErrMin= 1.27D-06
 ErrMax= 1.27D-06  0.00D+00 EMaxC= 1.00D-01 BMatC= 2.80D-11 BMatP= 6.38D-10
 IDIUse=1 WtCom= 1.00D+00 WtEn= 0.00D+00
 Coeff-Com:  0.166D-04-0.159D-03 0.420D-03-0.107D-02 0.553D-02-0.563D-01
 Coeff-Com:  0.252D+00-0.692D+00 0.149D+01
 Coeff:      0.166D-04-0.159D-03 0.420D-03-0.107D-02 0.553D-02-0.563D-01
 Coeff:      0.252D+00-0.692D+00 0.149D+01
 Gap=     0.378 Goal=   None    Shift=    0.000
 RMSDP=1.18D-06 MaxDP=1.05D-05 DE=-6.39D-09 OVMax= 1.58D-05

 Cycle  10  Pass 1  IDiag  3:
 E= 0.347517325307365E-01 Delta-E=       -0.000000000215 Rises=F Damp=F
 DIIS: error= 1.79D-07 at cycle  10 NSaved=  10.
 NSaved=10 IEnMin=10 EnMin= 0.347517325307365E-01 IErMin=10 ErrMin= 1.79D-07
 ErrMax= 1.79D-07  0.00D+00 EMaxC= 1.00D-01 BMatC= 1.26D-12 BMatP= 2.80D-11
 IDIUse=1 WtCom= 1.00D+00 WtEn= 0.00D+00
 Coeff-Com: -0.104D-04 0.805D-04-0.183D-03 0.364D-03-0.174D-02 0.207D-01
 Coeff-Com: -0.967D-01 0.276D+00-0.715D+00 0.152D+01
 Coeff:     -0.104D-04 0.805D-04-0.183D-03 0.364D-03-0.174D-02 0.207D-01
 Coeff:     -0.967D-01 0.276D+00-0.715D+00 0.152D+01
 Gap=     0.378 Goal=   None    Shift=    0.000
 RMSDP=2.08D-07 MaxDP=1.48D-06 DE=-2.15D-10 OVMax= 2.44D-06

 Cycle  11  Pass 1  IDiag  3:
 E= 0.347517325231053E-01 Delta-E=       -0.000000000008 Rises=F Damp=F
 DIIS: error= 3.27D-08 at cycle  11 NSaved=  11.
 NSaved=11 IEnMin=11 EnMin= 0.347517325231053E-01 IErMin=11 ErrMin= 3.27D-08
 ErrMax= 3.27D-08  0.00D+00 EMaxC= 1.00D-01 BMatC= 4.55D-14 BMatP= 1.26D-12
 IDIUse=1 WtCom= 1.00D+00 WtEn= 0.00D+00
 Coeff-Com:  0.323D-05-0.267D-04 0.665D-04-0.160D-03 0.689D-03-0.726D-02
 Coeff-Com:  0.327D-01-0.910D-01 0.236D+00-0.603D+00 0.143D+01
 Coeff:      0.323D-05-0.267D-04 0.665D-04-0.160D-03 0.689D-03-0.726D-02
 Coeff:      0.327D-01-0.910D-01 0.236D+00-0.603D+00 0.143D+01
 Gap=     0.378 Goal=   None    Shift=    0.000
 RMSDP=3.50D-08 MaxDP=1.71D-07 DE=-7.63D-12 OVMax= 3.01D-07

 Cycle  12  Pass 1  IDiag  3:
 E= 0.347517325225368E-01 Delta-E=       -0.000000000001 Rises=F Damp=F
 DIIS: error= 5.43D-09 at cycle  12 NSaved=  12.
 NSaved=12 IEnMin=12 EnMin= 0.347517325225368E-01 IErMin=12 ErrMin= 5.43D-09
 ErrMax= 5.43D-09  0.00D+00 EMaxC= 1.00D-01 BMatC= 2.14D-15 BMatP= 4.55D-14
 IDIUse=1 WtCom= 1.00D+00 WtEn= 0.00D+00
 Coeff-Com: -0.766D-06 0.655D-05-0.170D-04 0.459D-04-0.175D-03 0.175D-02
 Coeff-Com: -0.768D-02 0.210D-01-0.548D-01 0.155D+00-0.526D+00 0.141D+01
 Coeff:     -0.766D-06 0.655D-05-0.170D-04 0.459D-04-0.175D-03 0.175D-02
 Coeff:     -0.768D-02 0.210D-01-0.548D-01 0.155D+00-0.526D+00 0.141D+01
 Gap=     0.378 Goal=   None    Shift=    0.000
 RMSDP=7.63D-09 MaxDP=3.63D-08 DE=-5.68D-13 OVMax= 5.81D-08

 Cycle  13  Pass 2  IDiag  1:
 SCF Done:  E(RAM1) =  0.347517325225E-01 A.U. after   13 cycles
            NFock= 12  Conv=0.76D-08     -V/T= 1.0021
 KE=-1.666244477621D+01 PE=-1.725464646581D+02 EE= 8.485187409668D+01
 Leave Link  502 at Tue Dec 15 16:16:23 2015, MaxMem=    33554432 cpu:         0.0
 (Enter /home/Applications/g09/g09/l801.exe)
 Range of M.O.s used for correlation:     1    24
 NBasis=    24 NAE=    13 NBE=    13 NFC=     0 NFV=     0
 NROrb=     24 NOA=    13 NOB=    13 NVA=    11 NVB=    11
 Leave Link  801 at Tue Dec 15 16:16:23 2015, MaxMem=    33554432 cpu:         0.0
 (Enter /home/Applications/g09/g09/l914.exe)
 RHF ground state
 MDV=    33554432 DFT=F DoStab=F Mixed=F DoRPA=F DoScal=F NonHer=F
 Making orbital integer symmetry assigments:
 Orbital symmetries:
       Occupied  (A) (A) (A) (A) (A) (A) (A) (A) (A) (A) (A) (A)
                 (A)
       Virtual   (A) (A) (A) (A) (A) (A) (A) (A) (A) (A) (A)
    60 initial guesses have been made.
 Convergence on wavefunction:    0.000001000000000
 Davidson Disk Diagonalization:  ConvIn= 1.00D-06 SkipCon=T Conv= 1.00D-06.
 Max sub-space:   240 roots to seek:    60 dimension of matrix:          286
 Iteration     1 Dimension    60 NMult     0 NNew     60
 CISAX will form    60 AO SS matrices at one time.
 NMat=    60 NSing=    60 JSym2X= 0.
 FoFJK:  IHMeth= 8 ICntrl=       0 DoSepK=F KAlg= 0 I1Cent=   0 FoldK=F
 IRaf=         1 NMat= 120 IRICut=       1 DoRegI=T DoRafI=F ISym2E= 0.
 FoFCou: FMM=F IPFlag=           0 FMFlag=      100000 FMFlg1=           0
         NFxFlg=           0 DoJE=F BraDBF=F KetDBF=F FulRan=T
         wScrn=  0.000000 ICntrl=       0 IOpCl=  0 I1Cent=           0 NGrid=           0
         NMat0=  120 NMatS0=     60 NMatT0=    0 NMatD0=  120 NMtDS0=    0 NMtDT0=    0
 Symmetry not used in FoFCou.
 New state      2 was old state      4
 New state      3 was old state      2
 New state      4 was old state      8
 New state      5 was old state      6
 New state      6 was old state      7
 New state      7 was old state      3
 New state      8 was old state      9
 New state      9 was old state      5
 New state     10 was old state     13
 New state     11 was old state     14
 New state     12 was old state     11
 New state     13 was old state     19
 New state     14 was old state     10
 New state     15 was old state     16
 Excitation Energies [eV] at current iteration:
 Root      1 :     4.580792490278459
 Root      2 :     4.750706794560889
 Root      3 :     5.055625890253840
 Root      4 :     6.083894430577486
 Root      5 :     6.098877711307654
 Root      6 :     6.223391824864970
 Root      7 :     6.460721411062016
 Root      8 :     6.604245426612702
 Root      9 :     6.623868336377627
 Root     10 :     7.051391431797232
 Root     11 :     7.248944140674219
 Root     12 :     7.418732453303999
 Root     13 :     7.477317434037903
 Root     14 :     7.617136805444668
 Root     15 :     7.731285082945160
 Root     16 :     7.863371679608073
 Root     17 :     8.042168596005906
 Root     18 :     8.290100997273480
 Root     19 :     8.336660448339206
 Root     20 :     8.394548576215371
 Root     21 :     8.420272397170821
 Root     22 :     8.746866675619328
 Root     23 :     8.765660784041541
 Root     24 :     9.061360379548818
 Root     25 :     9.262779776903374
 Root     26 :     9.382630579389023
 Root     27 :     9.612999686448688
 Root     28 :     9.624197398218181
 Root     29 :     9.662987550104855
 Root     30 :     9.820485846964511
 Root     31 :     9.927778673518807
 Root     32 :    10.015238132203390
 Root     33 :    10.086578656942590
 Root     34 :    10.246165264587190
 Root     35 :    10.252088269029720
 Root     36 :    10.380713637333430
 Root     37 :    10.533512576574920
 Root     38 :    10.672379963934790
 Root     39 :    10.873510162282110
 Root     40 :    11.038594590672190
 Root     41 :    11.251893541835590
 Root     42 :    11.303264454644090
 Root     43 :    11.356138018335140
 Root     44 :    11.485834870631910
 Root     45 :    11.645701586199600
 Root     46 :    11.714030112858860
 Root     47 :    11.744538975848310
 Root     48 :    11.894869129849900
 Root     49 :    11.966509693548370
 Root     50 :    12.109714139011110
 Root     51 :    12.319828563401010
 Root     52 :    12.510497932613810
 Root     53 :    12.674805611427460
 Root     54 :    12.822739808787050
 Root     55 :    12.941914895956020
 Root     56 :    13.311881953185020
 Root     57 :    13.339351808955930
 Root     58 :    13.471236784036830
 Root     59 :    13.881990980473820
 Root     60 :    13.926180516556210
 Iteration     2 Dimension   120 NMult    60 NNew     60
 CISAX will form    60 AO SS matrices at one time.
 NMat=    60 NSing=    60 JSym2X= 0.
 Root      1 not converged, maximum delta is    0.041274863736236
 Root      2 not converged, maximum delta is    0.035729425035710
 Root      3 not converged, maximum delta is    0.012284194935773
 Root      4 not converged, maximum delta is    0.273879820919371
 Root      5 not converged, maximum delta is    0.367366836352403
 Root      6 not converged, maximum delta is    0.061115168816355
 Root      7 not converged, maximum delta is    0.043067202365977
 Root      8 not converged, maximum delta is    0.059635721275578
 Root      9 not converged, maximum delta is    0.026308908305449
 Root     10 not converged, maximum delta is    0.025332532087714
 Root     11 not converged, maximum delta is    0.047758754958283
 Root     12 not converged, maximum delta is    0.114625748066375
 Root     13 not converged, maximum delta is    0.151076909094597
 Root     14 not converged, maximum delta is    0.079387262772730
 Root     15 not converged, maximum delta is    0.073151380054312
 Excitation Energies [eV] at current iteration:
 Root      1 :     4.495255832456126   Change is   -0.085536657822333
 Root      2 :     4.715967792414201   Change is   -0.034739002146689
 Root      3 :     5.043894518968896   Change is   -0.011731371284943
 Root      4 :     5.988706005483039   Change is   -0.095188425094447
 Root      5 :     5.995075194983687   Change is   -0.103802516323966
 Root      6 :     6.137238020795118   Change is   -0.086153804069853
 Root      7 :     6.309575863917705   Change is   -0.151145547144311
 Root      8 :     6.548528015416794   Change is   -0.055717411195908
 Root      9 :     6.565375417790604   Change is   -0.058492918587023
 Root     10 :     6.994418950846587   Change is   -0.056972480950646
 Root     11 :     7.166661678545296   Change is   -0.082282462128923
 Root     12 :     7.305900929089242   Change is   -0.112831524214757
 Root     13 :     7.398062047477434   Change is   -0.079255386560469
 Root     14 :     7.541779929979987   Change is   -0.075356875464680
 Root     15 :     7.662584885483112   Change is   -0.068700197462048
 Root     16 :     7.782380062357303   Change is   -0.080991617250769
 Root     17 :     7.987274751959645   Change is   -0.054893844046262
 Root     18 :     8.104448158176993   Change is   -0.290100418038377
 Root     19 :     8.176704569919153   Change is   -0.113396427354328
 Root     20 :     8.224226043593113   Change is   -0.112434404746093
 Root     21 :     8.312503166228799   Change is   -0.107769230942021
 Root     22 :     8.633716202114055   Change is   -0.113150473505274
 Root     23 :     8.722027511679405   Change is   -0.043633272362137
 Root     24 :     8.932687795268018   Change is   -0.330091981635356
 Root     25 :     8.984807539186981   Change is   -0.076552840361836
 Root     26 :     9.216066634144951   Change is   -0.396933052303737
 Root     27 :     9.340751430350087   Change is   -0.041879149038935
 Root     28 :     9.348573286867142   Change is   -0.471912560097368
 Root     29 :     9.561819295184018   Change is   -0.062378103034163
 Root     30 :     9.563991548833688   Change is   -0.098996001271169
 Root     31 :     9.593946277199720   Change is   -0.421291855003673
 Root     32 :     9.683478354070994   Change is   -0.562686910516193
 Root     33 :     9.775369820301071   Change is   -0.152408853217736
 Root     34 :     9.877504824038962   Change is   -0.374583444990760
 Root     35 :     9.915692027522375   Change is   -0.170886629420219
 Root     36 :     9.941492798067932   Change is   -0.439220839265497
 Root     37 :    10.113104018631670   Change is   -0.420408557943244
 Root     38 :    10.180386871591160   Change is   -0.491993092343622
 Root     39 :    10.336336680174630   Change is   -0.537173482107477
 Root     40 :    10.740728590135310   Change is   -0.297866000536878
 Root     41 :    10.863184056982910   Change is   -0.388709484852680
 Root     42 :    10.978562544861670   Change is   -0.324701909782419
 Root     43 :    11.185654393912860   Change is   -0.300180476719055
 Root     44 :    11.216383356208990   Change is   -0.139754662126148
 Root     45 :    11.291636028094150   Change is   -0.354065558105447
 Root     46 :    11.354664637474130   Change is   -0.389874338374175
 Root     47 :    11.458062651357450   Change is   -0.255967461501410
 Root     48 :    11.583322768489580   Change is   -0.311546361360322
 Root     49 :    11.652679756901230   Change is   -0.313829936647140
 Root     50 :    11.804753193198540   Change is   -0.304960945812568
 Root     51 :    11.974678106885250   Change is   -0.345150456515764
 Root     52 :    12.221136726244490   Change is   -0.289361206369328
 Root     53 :    12.439826366725290   Change is   -0.502088529230728
 Root     54 :    12.546743618414340   Change is   -0.128061993013125
 Root     55 :    12.585191904905800   Change is   -0.237547903881253
 Root     56 :    12.950130750242890   Change is   -0.361751202942126
 Root     57 :    13.166447129937290   Change is   -0.172904679018632
 Root     58 :    13.251257496947660
 Root     59 :    13.329032858206540   Change is   -0.142203925830290
 Root     60 :    13.427751931099000   Change is   -0.454239049374826
 Iteration     3 Dimension   135 NMult   120 NNew     15
 CISAX will form    15 AO SS matrices at one time.
 NMat=    15 NSing=    15 JSym2X= 0.
 Root      1 not converged, maximum delta is    0.001213143655534
 Root      2 not converged, maximum delta is    0.000112604761601
 Root      3 not converged, maximum delta is    0.000213021974426
 Root      4 not converged, maximum delta is    0.000121286256162
 Root      5 not converged, maximum delta is    0.000168510250682
 Root      6 not converged, maximum delta is    0.000391780624935
 Root      7 not converged, maximum delta is    0.001650672127000
 Root      8 not converged, maximum delta is    0.004481033819073
 Root      9 not converged, maximum delta is    0.003435901437783
 Root     10 not converged, maximum delta is    0.000374022798941
 Root     11 not converged, maximum delta is    0.000175871691065
 Root     12 not converged, maximum delta is    0.000453585346561
 Root     13 not converged, maximum delta is    0.000186693096518
 Root     14 not converged, maximum delta is    0.000138066156400
 Root     15 not converged, maximum delta is    0.000314779676702
 Excitation Energies [eV] at current iteration:
 Root      1 :     4.494848224465861   Change is   -0.000407607990265
 Root      2 :     4.715965962678376   Change is   -0.000001829735825
 Root      3 :     5.043876569943231   Change is   -0.000017949025665
 Root      4 :     5.988702647876487   Change is   -0.000003357606552
 Root      5 :     5.995071168130253   Change is   -0.000004026853434
 Root      6 :     6.137217760233119   Change is   -0.000020260561999
 Root      7 :     6.308886055879510   Change is   -0.000689808038195
 Root      8 :     6.548500975943260   Change is   -0.000027039473534
 Root      9 :     6.564820055490918   Change is   -0.000555362299686
 Root     10 :     6.994400339531058   Change is   -0.000018611315529
 Root     11 :     7.166656261066343   Change is   -0.000005417478953
 Root     12 :     7.305850565662736   Change is   -0.000050363426507
 Root     13 :     7.398050441751356   Change is   -0.000011605726078
 Root     14 :     7.541773864532912   Change is   -0.000006065447075
 Root     15 :     7.662570546863751   Change is   -0.000014338619361
 Iteration     4 Dimension   143 NMult   135 NNew      8
 CISAX will form     8 AO SS matrices at one time.
 NMat=     8 NSing=     8 JSym2X= 0.
 Root      1 not converged, maximum delta is    0.000045521731505
 Root      2 not converged, maximum delta is    0.000003186740417
 Root      3 not converged, maximum delta is    0.000013560518946
 Root      4 not converged, maximum delta is    0.000003035623982
 Root      5 not converged, maximum delta is    0.000007190234542
 Root      6 not converged, maximum delta is    0.000021016602123
 Root      7 not converged, maximum delta is    0.000140566586400
 Root      8 not converged, maximum delta is    0.000013281278548
 Root      9 not converged, maximum delta is    0.000075794391411
 Root     10 not converged, maximum delta is    0.000023623340521
 Root     11 not converged, maximum delta is    0.000004584985500
 Root     12 not converged, maximum delta is    0.000024215099302
 Root     13 not converged, maximum delta is    0.000009771169739
 Root     14 not converged, maximum delta is    0.000007230677427
 Root     15 not converged, maximum delta is    0.000012928909206
 Excitation Energies [eV] at current iteration:
 Root      1 :     4.494847434158721   Change is   -0.000000790307140
 Root      2 :     4.715965958113635   Change is   -0.000000004564741
 Root      3 :     5.043876530601758   Change is   -0.000000039341474
 Root      4 :     5.988702643264315   Change is   -0.000000004612172
 Root      5 :     5.995071151986783   Change is   -0.000000016143471
 Root      6 :     6.137217656963842   Change is   -0.000000103269277
 Root      7 :     6.308881820411558   Change is   -0.000004235467952
 Root      8 :     6.548500913995055   Change is   -0.000000061948204
 Root      9 :     6.564818667328369   Change is   -0.000001388162549
 Root     10 :     6.994400230062412   Change is   -0.000000109468646
 Root     11 :     7.166656256107625   Change is   -0.000000004958719
 Root     12 :     7.305850438296911   Change is   -0.000000127365824
 Root     13 :     7.398050412706445   Change is   -0.000000029044910
 Root     14 :     7.541773849961975   Change is   -0.000000014570937
 Root     15 :     7.662570513955309   Change is   -0.000000032908442
 Convergence achieved on expansion vectors.
 ***********************************************************************
 Excited states from <AA,BB:AA,BB> singles matrix:
 ***********************************************************************
 
 1PDM for each excited state written to RWF  633
 Ground to excited state transition densities written to RWF  633
 Ground to excited state transition electric dipole moments (Au):
       state          X           Y           Z        Dip. S.      Osc.
         1         0.8658      0.3787      0.0284      0.8939      0.0984
         2        -0.0324      0.0215     -0.0121      0.0017      0.0002
         3        -0.1649      0.3260      0.0153      0.1337      0.0165
         4         0.0054      0.0207      0.0959      0.0097      0.0014
         5         0.0011     -0.0605     -0.0595      0.0072      0.0011
         6        -0.1412      0.2167      0.0903      0.0751      0.0113
         7        -0.6180      1.3585     -0.0114      2.2277      0.3443
         8         0.2020     -0.0116     -0.0032      0.0409      0.0066
         9        -0.8882     -0.4627      0.0067      1.0030      0.1613
        10         0.1272     -0.1631      0.1202      0.0572      0.0098
        11        -0.0015     -0.0221      0.0191      0.0009      0.0002
        12        -0.0137      0.0346     -0.0125      0.0015      0.0003
        13        -0.0388      0.0165     -0.0409      0.0035      0.0006
        14        -0.0294     -0.0011      0.2192      0.0489      0.0090
        15        -0.0404     -0.0011      0.0392      0.0032      0.0006
 Ground to excited state transition velocity dipole moments (Au):
       state          X           Y           Z        Dip. S.      Osc.
         1        -0.0311     -0.0199     -0.0080      0.0014      0.0058
         2         0.0040     -0.0014     -0.0027      0.0000      0.0001
         3         0.0133     -0.0251     -0.0059      0.0008      0.0030
         4         0.0020     -0.0081     -0.0443      0.0020      0.0062
         5        -0.0047      0.0175      0.0176      0.0006      0.0019
         6         0.0280     -0.0464     -0.0760      0.0087      0.0257
         7         0.1324     -0.3009      0.0036      0.1080      0.3107
         8        -0.0382      0.0046     -0.1745      0.0319      0.0884
         9         0.1526      0.0871     -0.0390      0.0324      0.0895
        10        -0.0297      0.0453      0.0174      0.0032      0.0084
        11        -0.0026      0.0051     -0.0317      0.0010      0.0026
        12         0.0021     -0.0071      0.0040      0.0001      0.0002
        13         0.0070     -0.0065      0.0784      0.0062      0.0153
        14         0.0011      0.0072     -0.0591      0.0035      0.0085
        15         0.0119     -0.0088      0.0333      0.0013      0.0031
 Ground to excited state transition magnetic dipole moments (Au):
       state          X           Y           Z
         1         0.0044     -0.0380      0.5418
         2         0.2128     -0.5614     -0.0319
         3        -0.0224      0.0262     -0.0370
         4         0.2471      0.0069     -0.0194
         5        -0.2171     -0.1252     -0.0043
         6         0.0530     -0.0333     -0.0148
         7         0.1595      0.0548     -0.0235
         8        -0.0641      0.1629      0.0139
         9         0.0504      0.0424     -0.1337
        10         1.6915      0.2937     -0.0131
        11         0.1331     -0.9226     -0.0216
        12        -0.3065     -0.6482     -0.0307
        13         0.2610      0.2805     -0.0332
        14        -0.3023      0.1122      0.0367
        15         0.3790      0.1371      0.0075
 Ground to excited state transition velocity quadrupole moments (Au):
       state          XX          YY          ZZ          XY          XZ          YZ
         1        -0.3239      0.2831      0.0036      0.3739     -0.0070     -0.0020
         2         0.0322     -0.0231     -0.0015     -0.0219     -0.1691     -0.0573
         3         0.1286     -0.1491      0.0709      0.0399      0.0039      0.0077
         4         0.0060     -0.0215      0.0085     -0.0103      0.0415      0.2486
         5        -0.0189      0.0066      0.0098      0.0043      0.1495     -0.1894
         6         0.0556      0.0153     -0.0217      0.0434     -0.0190      0.0937
         7         0.3205     -0.1204     -0.0413      0.2646      0.0363     -0.0469
         8         0.0667     -0.0502     -0.0070     -0.1128     -0.0791      0.0833
         9        -0.3844      0.3509      0.0112      0.3832     -0.0052      0.0103
        10        -0.0194      0.0052      0.0048     -0.0658      0.0130     -0.0739
        11         0.0062     -0.0085      0.0027     -0.0136      0.2386      0.1700
        12         0.0250     -0.0204      0.0002     -0.0146     -0.1217     -0.1244
        13         0.0012     -0.0108      0.0046      0.0183      0.0017      0.2576
        14        -0.0318      0.0279      0.0120      0.0212      0.1795     -0.2045
        15        -0.0288     -0.0064      0.0178      0.0400     -0.2568      0.1772
 <0|del|b> * <b|rxdel|0> + <0|del|b> * <b|delr+rdel|0>
 Rotatory Strengths (R) in cgs (10**-40 erg-esu-cm/Gauss)
       state          XX          YY          ZZ    R(velocity)    E-M Angle
         1       -14.2731     -3.0216      1.4958     -5.2663      100.36
         2         1.4005      1.3334      4.2733      2.3358       55.54
         3        -1.1002      0.4900     -2.2002     -0.9368      120.15
         4         2.5671      2.2585     -0.6375      1.3960       83.30
         5        -7.7060      2.8388      0.8900     -1.3257      101.30
         6        -2.3701     13.3637      2.0142      4.3360       46.26
         7        -7.1657     21.1558     -0.1864      4.6013       85.36
         8        26.9570    -33.5540      8.8406      0.7478       88.61
         9        -8.1950     43.1306     13.7119     16.2158       51.79
        10        15.6066    -64.7126    -52.8860    -33.9973      112.31
        11        -6.4074     -0.6959     -4.5306     -3.8780       98.29
        12         4.7205     -1.2596      6.7512      3.4040       50.18
        13        -3.8666     -0.5037     -2.3451     -2.2385       94.87
        14        -4.9862     -1.8885      2.5439     -1.4436       95.04
        15        -2.3642      6.9589      4.3414      2.9787       75.97
 1/2[<0|r|b>*<b|rxdel|0> + (<0|rxdel|b>*<b|r|0>)*]
 Rotatory Strengths (R) in cgs (10**-40 erg-esu-cm/Gauss)
       state          XX          YY          ZZ     R(length)
         1        -2.6906     10.1755    -10.8906     -1.1352
         2         4.8718      8.5371     -0.2727      4.3787
         3        -2.6154     -6.0312      0.4017     -2.7483
         4        -0.9461     -0.1011      1.3154      0.0894
         5         0.1707     -5.3565     -0.1828     -1.7895
         6         5.2957      5.0970      0.9427      3.7785
         7        69.6911    -52.6807     -0.1895      5.6070
         8         9.1529      1.3413      0.0318      3.5087
         9        31.6262     13.8700      0.6311     15.3757
        10      -152.1978     33.8675      1.1092    -39.0737
        11         0.1374    -14.4219      0.2919     -4.6642
        12        -2.9698     15.8654     -0.2711      4.2081
        13         7.1647     -3.2742     -0.9587      0.9773
        14        -6.2789      0.0886     -5.6871     -3.9591
        15        10.8350      0.1078     -0.2069      3.5786
  1/2[<0|del|b>*<b|r|0> + (<0|r|b>*<b|del|0>)*] (Au)
       state          X           Y           Z        Dip. S.   Osc.(frdel)
         1        -0.0269     -0.0076     -0.0002      0.0347      0.0231
         2        -0.0001      0.0000      0.0000      0.0001      0.0001
         3        -0.0022     -0.0082     -0.0001      0.0105      0.0070
         4         0.0000     -0.0002     -0.0042      0.0044      0.0029
         5         0.0000     -0.0011     -0.0010      0.0021      0.0014
         6        -0.0040     -0.0100     -0.0069      0.0209      0.0139
         7        -0.0818     -0.4087      0.0000      0.4906      0.3270
         8        -0.0077     -0.0001      0.0006      0.0072      0.0048
         9        -0.1355     -0.0403     -0.0003      0.1761      0.1174
        10        -0.0038     -0.0074      0.0021      0.0091      0.0060
        11         0.0000     -0.0001     -0.0006      0.0007      0.0005
        12         0.0000     -0.0002      0.0000      0.0003      0.0002
        13        -0.0003     -0.0001     -0.0032      0.0036      0.0024
        14         0.0000      0.0000     -0.0130      0.0130      0.0087
        15        -0.0005      0.0000      0.0013     -0.0008     -0.0006

 Excitation energies and oscillator strengths:
 
 Excited State   1:      Singlet-A      4.4948 eV  275.84 nm  f=0.0984  <S**2>=0.000
      12 -> 15         0.20905
      13 -> 14         0.66800
 This state for optimization and/or second-order correction.
 Total Energy, E(CIS) =  0.199934343492    
 Copying the excited state density for this state as the 1-particle RhoCI density.
 
 Excited State   2:      Singlet-A      4.7160 eV  262.90 nm  f=0.0002  <S**2>=0.000
      13 -> 16         0.68104
      13 -> 20         0.10527
 
 Excited State   3:      Singlet-A      5.0439 eV  245.81 nm  f=0.0165  <S**2>=0.000
      12 -> 14        -0.37858
      13 -> 15         0.59096
 
 Excited State   4:      Singlet-A      5.9887 eV  207.03 nm  f=0.0014  <S**2>=0.000
      12 -> 18         0.20381
      12 -> 21        -0.14736
      13 -> 18         0.51119
      13 -> 21        -0.29997
      13 -> 22         0.13289
      13 -> 23         0.16502
 
 Excited State   5:      Singlet-A      5.9951 eV  206.81 nm  f=0.0011  <S**2>=0.000
      12 -> 17        -0.12191
      12 -> 19        -0.15250
      12 -> 22        -0.11838
      13 -> 17         0.34791
      13 -> 18        -0.10991
      13 -> 19         0.39279
      13 -> 22         0.23185
      13 -> 23        -0.23387
 
 Excited State   6:      Singlet-A      6.1372 eV  202.02 nm  f=0.0113  <S**2>=0.000
       7 -> 16        -0.15646
      12 -> 14         0.10461
      12 -> 16         0.63771
      12 -> 20         0.10523
      12 -> 22         0.11261
 
 Excited State   7:      Singlet-A      6.3089 eV  196.52 nm  f=0.3443  <S**2>=0.000
      12 -> 14         0.54783
      12 -> 16        -0.11660
      13 -> 15         0.35005
 
 Excited State   8:      Singlet-A      6.5485 eV  189.33 nm  f=0.0066  <S**2>=0.000
      12 -> 15        -0.12688
      12 -> 18        -0.11429
      13 -> 17         0.49905
      13 -> 19        -0.40357
      13 -> 22        -0.11397
 
 Excited State   9:      Singlet-A      6.5648 eV  188.86 nm  f=0.1613  <S**2>=0.000
      12 -> 15         0.65062
      13 -> 14        -0.19045
 
 Excited State  10:      Singlet-A      6.9944 eV  177.26 nm  f=0.0098  <S**2>=0.000
       9 -> 14         0.18649
      10 -> 14        -0.37415
      10 -> 15         0.11880
      11 -> 14         0.42207
      11 -> 15         0.27215
 
 Excited State  11:      Singlet-A      7.1667 eV  173.00 nm  f=0.0002  <S**2>=0.000
      10 -> 14         0.11149
      12 -> 17         0.34975
      12 -> 18         0.11218
      12 -> 19        -0.25154
      12 -> 20         0.19722
      12 -> 23        -0.14411
      13 -> 18        -0.21085
      13 -> 19        -0.17405
      13 -> 20         0.21433
      13 -> 21        -0.16331
      13 -> 22         0.22561
 
 Excited State  12:      Singlet-A      7.3059 eV  169.71 nm  f=0.0003  <S**2>=0.000
      10 -> 14         0.44087
      10 -> 15        -0.26332
      11 -> 14         0.33863
      11 -> 15         0.18923
      13 -> 20         0.11813
 
 Excited State  13:      Singlet-A      7.3981 eV  167.59 nm  f=0.0006  <S**2>=0.000
      10 -> 14         0.13175
      12 -> 17         0.26996
      12 -> 19         0.18138
      12 -> 20         0.26466
      12 -> 23        -0.17919
      13 -> 17         0.20680
      13 -> 19         0.26081
      13 -> 21         0.14052
      13 -> 22        -0.25978
      13 -> 24         0.11214
 
 Excited State  14:      Singlet-A      7.5418 eV  164.40 nm  f=0.0090  <S**2>=0.000
       9 -> 15         0.10135
      10 -> 14        -0.10934
      11 -> 15        -0.12946
      12 -> 17         0.14859
      12 -> 18        -0.28296
      12 -> 19         0.21991
      13 -> 18         0.20975
      13 -> 20         0.38203
      13 -> 21         0.12410
      13 -> 23        -0.23916
 
 Excited State  15:      Singlet-A      7.6626 eV  161.80 nm  f=0.0006  <S**2>=0.000
      11 -> 14        -0.12615
      11 -> 15         0.10488
      12 -> 18         0.24021
      12 -> 19         0.24522
      12 -> 20        -0.10023
      12 -> 22         0.27599
      12 -> 23         0.20844
      13 -> 18        -0.23009
      13 -> 20         0.31520
      13 -> 24         0.16643
 SavETr:  write IOETrn=   770 NScale= 10 NData=  16 NLR=1 NState=   15 LETran=     280.
 The selected state is a singlet
 CISAX will form     1 AO SS matrices at one time.
 NMat=     1 NSing=     1 JSym2X= 0.
 Leave Link  914 at Tue Dec 15 16:16:23 2015, MaxMem=    33554432 cpu:         0.1
 (Enter /home/Applications/g09/g09/l1002.exe)
 Minotr:  Closed shell wavefunction.
          Computing CIS/TD-HF/TD-KS derivatives.
          Using Z-Vector for PSCF gradient.
          Skipping F1 and S1 gradient terms here.
          IDoAtm=111111111
          Direct CPHF calculation.
          Differentiating once with respect to electric field.
                with respect to dipole field.
          Differentiating once with respect to nuclear coordinates.
          Electric field/nuclear overlap derivatives assumed to be zero.
          Requested convergence is 1.0D-10 RMS, and 1.0D-09 maximum.
          NewPWx=T KeepS1=F KeepF1=F KeepIn=T MapXYZ=F SortEE=F KeepMc=T.
          MDV=      33495423 using IRadAn=       0.
 Keep J ints in memory in canonical form, NReq=871704.
 FoFCou: FMM=F IPFlag=           0 FMFlag=           0 FMFlg1=           0
         NFxFlg=           0 DoJE=F BraDBF=F KetDBF=F FulRan=T
         wScrn=  0.000000 ICntrl=     600 IOpCl=  2 I1Cent=           0 NGrid=           0
         NMat0=    1 NMatS0=     54 NMatT0=    0 NMatD0=    1 NMtDS0=    0 NMtDT0=    0
 Symmetry not used in FoFCou.
          Solving linear equations separately, MaxMat=       0.
          There are     1 degrees of freedom in the 1st order CPHF.  IDoFFX=0 NUNeed=     1.
 LinEq1:  Iter=  0 NonCon=     1 RMS=1.26D-02 Max=8.75D-02 NDo=     1
 AX will form     1 AO Fock derivatives at one time.
 LinEq1:  Iter=  1 NonCon=     1 RMS=2.23D-03 Max=1.54D-02 NDo=     1
 LinEq1:  Iter=  2 NonCon=     1 RMS=3.59D-04 Max=2.80D-03 NDo=     1
 LinEq1:  Iter=  3 NonCon=     1 RMS=5.25D-05 Max=2.76D-04 NDo=     1
 LinEq1:  Iter=  4 NonCon=     1 RMS=6.98D-06 Max=3.09D-05 NDo=     1
 LinEq1:  Iter=  5 NonCon=     1 RMS=1.14D-06 Max=6.60D-06 NDo=     1
 LinEq1:  Iter=  6 NonCon=     1 RMS=1.26D-07 Max=3.95D-07 NDo=     1
 LinEq1:  Iter=  7 NonCon=     1 RMS=1.68D-08 Max=7.70D-08 NDo=     1
 LinEq1:  Iter=  8 NonCon=     1 RMS=2.00D-09 Max=6.11D-09 NDo=     1
 LinEq1:  Iter=  9 NonCon=     1 RMS=2.48D-10 Max=1.19D-09 NDo=     1
 LinEq1:  Iter= 10 NonCon=     0 RMS=3.06D-11 Max=1.08D-10 NDo=     1
 Linear equations converged to 1.000D-10 1.000D-09 after    10 iterations.
 End of Minotr F.D. properties file   721 does not exist.
 End of Minotr F.D. properties file   722 does not exist.
 End of Minotr F.D. properties file   788 does not exist.
 Leave Link 1002 at Tue Dec 15 16:16:23 2015, MaxMem=    33554432 cpu:         0.0
 (Enter /home/Applications/g09/g09/l601.exe)
 Copying SCF densities to generalized density rwf, IOpCl= 0 IROHF=0.

 **********************************************************************

            Population analysis using the SCF density.

 **********************************************************************

 Orbital symmetries:
       Occupied  (A) (A) (A) (A) (A) (A) (A) (A) (A) (A) (A) (A)
                 (A)
       Virtual   (A) (A) (A) (A) (A) (A) (A) (A) (A) (A) (A)
 The electronic state is 1-A.
 Alpha  occ. eigenvalues --   -1.61672  -1.24929  -1.10670  -0.83494  -0.81307
 Alpha  occ. eigenvalues --   -0.69417  -0.62603  -0.57086  -0.51382  -0.49799
 Alpha  occ. eigenvalues --   -0.48929  -0.39693  -0.34276
 Alpha virt. eigenvalues --    0.03544   0.06736   0.09243   0.13914   0.15151
 Alpha virt. eigenvalues --    0.15602   0.18058   0.18588   0.19364   0.20760
 Alpha virt. eigenvalues --    0.23348
     Molecular Orbital Coefficients:
                           1         2         3         4         5
                           O         O         O         O         O
     Eigenvalues --    -1.61672  -1.24929  -1.10670  -0.83494  -0.81307
   1 1   C  1S          0.26405  -0.49283  -0.24968   0.39362  -0.17715
   2        1PX         0.10106  -0.10569   0.09804  -0.18694  -0.13301
   3        1PY        -0.07947   0.00812   0.15988  -0.01047  -0.33295
   4        1PZ        -0.00077   0.00092  -0.00034   0.00523  -0.00405
   5 2   C  1S          0.35907  -0.13842  -0.51565  -0.14083   0.37174
   6        1PX         0.18408   0.12936  -0.00267  -0.20829  -0.17040
   7        1PY         0.05006  -0.20422   0.01263   0.30458   0.00899
   8        1PZ         0.00518   0.00059  -0.00647  -0.00129  -0.00246
   9 3   O  1S          0.65044   0.56211  -0.02897   0.05959  -0.29935
  10        1PX        -0.06722   0.02716   0.35590   0.48283   0.02378
  11        1PY         0.19530  -0.03067   0.14130   0.13161   0.21691
  12        1PZ        -0.00555  -0.00170   0.00171   0.00779  -0.00688
  13 4   C  1S          0.36521  -0.09467   0.51810   0.00280   0.39919
  14        1PX        -0.17928   0.03214  -0.01181   0.01317   0.11234
  15        1PY        -0.08641  -0.23973   0.01349  -0.38298  -0.00810
  16        1PZ         0.00189   0.00229   0.00294   0.00820  -0.00069
  17 5   C  1S          0.27463  -0.47413   0.28570  -0.30180  -0.29503
  18        1PX        -0.02356   0.09245   0.17882  -0.22738   0.25683
  19        1PY        -0.12979   0.05937  -0.06441  -0.03377  -0.22023
  20        1PZ         0.00212  -0.00319   0.00200   0.00108  -0.00472
  21 6   H  1S          0.05514  -0.14690   0.10253  -0.17296  -0.20925
  22 7   H  1S          0.06811  -0.02172   0.18925   0.01575   0.23502
  23 8   H  1S          0.07780  -0.03217  -0.21116  -0.11115   0.23212
  24 9   H  1S          0.05549  -0.15229  -0.10710   0.25801  -0.09489
                           6         7         8         9        10
                           O         O         O         O         O
     Eigenvalues --    -0.69417  -0.62603  -0.57086  -0.51382  -0.49799
   1 1   C  1S         -0.07945  -0.00342   0.18649   0.02501  -0.03887
   2        1PX         0.23468  -0.00045  -0.17803   0.54223   0.07810
   3        1PY        -0.13357  -0.00992   0.07604  -0.18273   0.10120
   4        1PZ        -0.01290   0.20922   0.01173  -0.03583   0.00477
   5 2   C  1S         -0.09393  -0.00961  -0.15739   0.04541   0.10599
   6        1PX         0.30084   0.00672   0.39303  -0.03084   0.21336
   7        1PY         0.23500   0.01032   0.13294   0.13379  -0.04208
   8        1PZ        -0.00828   0.38098   0.00268  -0.00552   0.00169
   9 3   O  1S         -0.18878  -0.00077   0.01804   0.05148  -0.17493
  10        1PX        -0.17115  -0.02596  -0.38670   0.11826  -0.15773
  11        1PY         0.46665   0.02536  -0.13692  -0.34073   0.43546
  12        1PZ        -0.02345   0.77664  -0.02406   0.02839  -0.01324
  13 4   C  1S         -0.12153  -0.00136   0.14931  -0.02413   0.01694
  14        1PX        -0.37436  -0.00641   0.33821   0.31797   0.27879
  15        1PY        -0.04631   0.01676   0.21209  -0.06256  -0.38474
  16        1PZ        -0.01207   0.39672  -0.01235   0.01122   0.01741
  17 5   C  1S         -0.09546  -0.00831  -0.18140   0.01162  -0.03926
  18        1PX        -0.10678   0.00936   0.03486  -0.35904  -0.20698
  19        1PY        -0.25813  -0.00929  -0.15426  -0.12178   0.48229
  20        1PZ        -0.00840   0.21938  -0.00420  -0.00912   0.01564
  21 6   H  1S         -0.21233  -0.00565  -0.20122  -0.15611   0.31756
  22 7   H  1S         -0.27461   0.00039   0.31305   0.23458   0.26761
  23 8   H  1S         -0.27543  -0.01082  -0.35270  -0.03284  -0.01197
  24 9   H  1S         -0.20488   0.00305   0.24262  -0.43134  -0.04643
                          11        12        13        14        15
                           O         O         O         V         V
     Eigenvalues --    -0.48929  -0.39693  -0.34276   0.03544   0.06736
   1 1   C  1S         -0.04479  -0.00389  -0.00292   0.00653   0.01717
   2        1PX        -0.13317   0.03138   0.01813  -0.01701  -0.02354
   3        1PY        -0.50466  -0.03073  -0.01357   0.00139   0.01941
   4        1PZ        -0.02025   0.60349   0.35614  -0.34332  -0.58506
   5 2   C  1S          0.05402   0.00114  -0.00732  -0.01554  -0.01684
   6        1PX         0.01179  -0.00287  -0.00756  -0.00874  -0.01722
   7        1PY         0.50513   0.00913   0.00165   0.00130   0.00709
   8        1PZ        -0.00600   0.15494   0.61319   0.59217   0.32035
   9 3   O  1S          0.11290  -0.00041  -0.00240   0.00132   0.00627
  10        1PX         0.07538   0.01903   0.00258  -0.00053  -0.01771
  11        1PY        -0.10632  -0.02742   0.00080  -0.00010   0.00722
  12        1PZ         0.00447  -0.47784   0.01446  -0.40589   0.02938
  13 4   C  1S         -0.11237  -0.00543   0.00395  -0.00623   0.01428
  14        1PX         0.05009  -0.00129   0.00898  -0.00983   0.00295
  15        1PY         0.08078   0.00076  -0.01876   0.01042   0.00598
  16        1PZ        -0.00581   0.13787  -0.60003   0.54786  -0.40236
  17 5   C  1S          0.03454  -0.00308   0.00583   0.00622  -0.01810
  18        1PX         0.34247   0.00149  -0.00633  -0.00031  -0.00425
  19        1PY         0.29479  -0.00937   0.00778   0.00313  -0.00301
  20        1PZ        -0.01022   0.60082  -0.36826  -0.25550   0.62322
  21 6   H  1S          0.32225   0.00240   0.00299  -0.00716   0.01124
  22 7   H  1S         -0.04345  -0.00351  -0.00054   0.00880  -0.00841
  23 8   H  1S         -0.29641  -0.00342   0.00563   0.00962   0.01080
  24 9   H  1S         -0.12800  -0.01241  -0.00533  -0.01047  -0.02722
                          16        17        18        19        20
                           V         V         V         V         V
     Eigenvalues --     0.09243   0.13914   0.15151   0.15602   0.18058
   1 1   C  1S          0.02426  -0.25445   0.21521  -0.06635  -0.36343
   2        1PX        -0.02080  -0.09153  -0.03926   0.28776   0.06033
   3        1PY         0.03386  -0.21734  -0.41096  -0.09753  -0.32636
   4        1PZ         0.02380  -0.02356   0.00292  -0.03025  -0.01603
   5 2   C  1S         -0.26039   0.11929  -0.45661  -0.11311  -0.08139
   6        1PX        -0.35161  -0.02871   0.11557   0.38478  -0.26710
   7        1PY         0.20958  -0.17770  -0.15919   0.12598   0.01243
   8        1PZ        -0.02313   0.01219  -0.01772   0.00927  -0.00024
   9 3   O  1S          0.24966  -0.06368  -0.02811  -0.02511   0.09650
  10        1PX        -0.15113   0.04839  -0.17033   0.20397  -0.16634
  11        1PY         0.41793  -0.09121  -0.08944   0.06320   0.13051
  12        1PZ        -0.01313   0.00554   0.00298   0.00347  -0.00958
  13 4   C  1S         -0.31888  -0.31928   0.08506  -0.26754   0.16458
  14        1PX         0.00656  -0.30938  -0.12215   0.26464   0.30951
  15        1PY         0.37436  -0.22570  -0.09408  -0.15223   0.09527
  16        1PZ        -0.01239  -0.01525   0.00604  -0.00509   0.00465
  17 5   C  1S          0.03742   0.24559  -0.21718   0.18047   0.14080
  18        1PX        -0.01853  -0.09813  -0.12349   0.37224  -0.40061
  19        1PY         0.03677  -0.23849  -0.24444  -0.08646  -0.00989
  20        1PZ        -0.00333   0.01866  -0.01427   0.01540   0.00584
  21 6   H  1S         -0.10878   0.05008   0.47076  -0.16100  -0.01193
  22 7   H  1S          0.40618   0.53969   0.03933  -0.03224  -0.32651
  23 8   H  1S          0.26107  -0.26880   0.34631   0.41941  -0.07163
  24 9   H  1S         -0.10609   0.27484  -0.03781   0.36440   0.44831
                          21        22        23        24
                           V         V         V         V
     Eigenvalues --     0.18588   0.19364   0.20760   0.23348
   1 1   C  1S         -0.22438   0.23824   0.19081   0.03848
   2        1PX         0.29733   0.15301   0.50714  -0.20928
   3        1PY         0.33984   0.01567  -0.22226  -0.18740
   4        1PZ        -0.00721  -0.00333  -0.02433  -0.00161
   5 2   C  1S          0.21836   0.05113  -0.06587   0.11371
   6        1PX         0.01022  -0.26473  -0.09353   0.38566
   7        1PY         0.29613  -0.35227  -0.30755  -0.30260
   8        1PZ         0.01229   0.00174   0.00244   0.00947
   9 3   O  1S          0.01640   0.08646  -0.00024   0.00934
  10        1PX         0.13594  -0.00178   0.02100   0.51697
  11        1PY        -0.02507   0.25997   0.00269   0.20342
  12        1PZ        -0.00339  -0.00744   0.00016   0.00442
  13 4   C  1S         -0.00085  -0.21626   0.10548  -0.10768
  14        1PX        -0.08640   0.38478  -0.26706   0.12018
  15        1PY         0.24793  -0.07241   0.18975   0.49685
  16        1PZ         0.00066   0.00545  -0.00669  -0.01113
  17 5   C  1S         -0.39663  -0.02755  -0.27351  -0.02274
  18        1PX        -0.06041   0.32740   0.17256  -0.27308
  19        1PY        -0.23377  -0.37048   0.42758   0.02323
  20        1PZ        -0.01074  -0.00695   0.00385   0.00356
  21 6   H  1S          0.48294   0.23606  -0.15441   0.03865
  22 7   H  1S          0.07198  -0.13137   0.11662  -0.00363
  23 8   H  1S          0.02442  -0.35205  -0.15956  -0.03179
  24 9   H  1S          0.25889  -0.07339   0.28189  -0.07965
     Density Matrix:
                           1         2         3         4         5
   1 1   C  1S          1.21306
   2        1PX        -0.06251   0.97911
   3        1PY         0.05808  -0.03406   0.93215
   4        1PZ         0.00227   0.00634  -0.00857   1.07375
   5 2   C  1S          0.28650   0.01766  -0.51698  -0.01850   1.24394
   6        1PX        -0.05294   0.13008   0.11205  -0.00166  -0.10544
   7        1PY         0.43481   0.00706  -0.63023  -0.01422  -0.02803
   8        1PZ         0.00029   0.02343  -0.02391   0.78412  -0.00727
   9 3   O  1S         -0.00031  -0.03239  -0.02031  -0.00406   0.11166
  10        1PX         0.02609   0.00581  -0.06606   0.00102  -0.40133
  11        1PY        -0.07700  -0.04036   0.04210  -0.00512   0.13198
  12        1PZ         0.00158  -0.00658   0.00443  -0.24363  -0.01658
  13 4   C  1S         -0.02920  -0.01582   0.02130   0.00449   0.01521
  14        1PX         0.02548  -0.00100  -0.00878  -0.00282   0.01159
  15        1PY        -0.00871  -0.06615  -0.06423  -0.00598  -0.04437
  16        1PZ         0.00071  -0.00070   0.00754  -0.09526   0.00658
  17 5   C  1S          0.28474   0.42014   0.19384  -0.00970  -0.02895
  18        1PX        -0.46548  -0.54812  -0.32645   0.01029  -0.00243
  19        1PY        -0.12988  -0.18198   0.03899  -0.00343   0.02267
  20        1PZ         0.00077   0.01933  -0.00950   0.55604   0.00337
  21 6   H  1S         -0.04199  -0.05064  -0.01333   0.00405   0.05892
  22 7   H  1S          0.04725   0.05422   0.02599  -0.00454   0.05642
  23 8   H  1S         -0.05337  -0.00131   0.09631   0.00535   0.61176
  24 9   H  1S          0.58628  -0.67326   0.38216   0.03231  -0.05149
                           6         7         8         9        10
   6        1PX         0.82949
   7        1PY         0.06724   0.97028
   8        1PZ        -0.00352   0.00115   1.09075
   9 3   O  1S          0.28772  -0.07569   0.00615   1.83002
  10        1PX        -0.70913   0.22334  -0.01933   0.10082   1.18007
  11        1PY         0.31242   0.06743   0.00861  -0.29536  -0.08012
  12        1PZ        -0.03074   0.00797   0.46121   0.01148  -0.01117
  13 4   C  1S          0.02026  -0.04174   0.00162   0.11746   0.23425
  14        1PX         0.03953   0.00475   0.00831  -0.16207  -0.10278
  15        1PY         0.04933  -0.01166  -0.01000  -0.25190  -0.39239
  16        1PZ         0.00135  -0.00026  -0.39075   0.00627   0.00137
  17 5   C  1S         -0.01368  -0.01278   0.00061   0.00056   0.02888
  18        1PX        -0.07325   0.05713  -0.00218   0.03643  -0.03075
  19        1PY         0.00056  -0.00143   0.00318   0.00662   0.00306
  20        1PZ         0.00481  -0.00272  -0.09789  -0.00277   0.00885
  21 6   H  1S         -0.00822   0.06269   0.00202   0.02380   0.02081
  22 7   H  1S          0.11138  -0.01524   0.00064  -0.04991  -0.03299
  23 8   H  1S         -0.46460  -0.57867   0.00679  -0.04980   0.06004
  24 9   H  1S         -0.02213  -0.05228   0.00437   0.02382  -0.07217
                          11        12        13        14        15
  11        1PY         1.35668
  12        1PZ         0.01598   1.66797
  13 4   C  1S          0.36980  -0.00853   1.24149
  14        1PX        -0.44991   0.00443   0.11543   0.96419
  15        1PY        -0.52970   0.02004   0.03386  -0.06529   0.83617
  16        1PZ         0.01576   0.46851  -0.00323   0.00018   0.00854
  17 5   C  1S         -0.07946   0.00431   0.30866  -0.27199   0.38925
  18        1PX        -0.03001  -0.00211   0.32398  -0.14426   0.41932
  19        1PY         0.06475   0.00076  -0.37597   0.31171  -0.32872
  20        1PZ        -0.00727  -0.24444  -0.00552  -0.00767   0.00901
  21 6   H  1S          0.09415  -0.00531  -0.05630   0.04985  -0.03920
  22 7   H  1S         -0.07184   0.00458   0.60547   0.73432  -0.09616
  23 8   H  1S         -0.04171   0.00592   0.05834  -0.06511  -0.08158
  24 9   H  1S          0.05139  -0.00517   0.05442  -0.03729   0.05563
                          16        17        18        19        20
  16        1PZ         1.07456
  17 5   C  1S         -0.01316   1.20993
  18        1PX        -0.00479   0.02634   0.92104
  19        1PY         0.00054   0.07115   0.03008   0.99831
  20        1PZ         0.78247  -0.00320   0.00224  -0.00333   1.09057
  21 6   H  1S          0.00409   0.56339   0.21063   0.76502   0.01283
  22 7   H  1S          0.01518  -0.06174  -0.05449   0.07139   0.00232
  23 8   H  1S         -0.00187   0.04322  -0.05590  -0.01849  -0.00187
  24 9   H  1S         -0.00223  -0.05021   0.06689   0.02150   0.00301
                          21        22        23        24
  21 6   H  1S          0.84704
  22 7   H  1S          0.00822   0.79672
  23 8   H  1S         -0.01330  -0.02793   0.81482
  24 9   H  1S         -0.00872  -0.01440   0.00926   0.83788
    Full Mulliken population analysis:
                           1         2         3         4         5
   1 1   C  1S          1.21306
   2        1PX         0.00000   0.97911
   3        1PY         0.00000   0.00000   0.93215
   4        1PZ         0.00000   0.00000   0.00000   1.07375
   5 2   C  1S          0.00000   0.00000   0.00000   0.00000   1.24394
   6        1PX         0.00000   0.00000   0.00000   0.00000   0.00000
   7        1PY         0.00000   0.00000   0.00000   0.00000   0.00000
   8        1PZ         0.00000   0.00000   0.00000   0.00000   0.00000
   9 3   O  1S          0.00000   0.00000   0.00000   0.00000   0.00000
  10        1PX         0.00000   0.00000   0.00000   0.00000   0.00000
  11        1PY         0.00000   0.00000   0.00000   0.00000   0.00000
  12        1PZ         0.00000   0.00000   0.00000   0.00000   0.00000
  13 4   C  1S          0.00000   0.00000   0.00000   0.00000   0.00000
  14        1PX         0.00000   0.00000   0.00000   0.00000   0.00000
  15        1PY         0.00000   0.00000   0.00000   0.00000   0.00000
  16        1PZ         0.00000   0.00000   0.00000   0.00000   0.00000
  17 5   C  1S          0.00000   0.00000   0.00000   0.00000   0.00000
  18        1PX         0.00000   0.00000   0.00000   0.00000   0.00000
  19        1PY         0.00000   0.00000   0.00000   0.00000   0.00000
  20        1PZ         0.00000   0.00000   0.00000   0.00000   0.00000
  21 6   H  1S          0.00000   0.00000   0.00000   0.00000   0.00000
  22 7   H  1S          0.00000   0.00000   0.00000   0.00000   0.00000
  23 8   H  1S          0.00000   0.00000   0.00000   0.00000   0.00000
  24 9   H  1S          0.00000   0.00000   0.00000   0.00000   0.00000
                           6         7         8         9        10
   6        1PX         0.82949
   7        1PY         0.00000   0.97028
   8        1PZ         0.00000   0.00000   1.09075
   9 3   O  1S          0.00000   0.00000   0.00000   1.83002
  10        1PX         0.00000   0.00000   0.00000   0.00000   1.18007
  11        1PY         0.00000   0.00000   0.00000   0.00000   0.00000
  12        1PZ         0.00000   0.00000   0.00000   0.00000   0.00000
  13 4   C  1S          0.00000   0.00000   0.00000   0.00000   0.00000
  14        1PX         0.00000   0.00000   0.00000   0.00000   0.00000
  15        1PY         0.00000   0.00000   0.00000   0.00000   0.00000
  16        1PZ         0.00000   0.00000   0.00000   0.00000   0.00000
  17 5   C  1S          0.00000   0.00000   0.00000   0.00000   0.00000
  18        1PX         0.00000   0.00000   0.00000   0.00000   0.00000
  19        1PY         0.00000   0.00000   0.00000   0.00000   0.00000
  20        1PZ         0.00000   0.00000   0.00000   0.00000   0.00000
  21 6   H  1S          0.00000   0.00000   0.00000   0.00000   0.00000
  22 7   H  1S          0.00000   0.00000   0.00000   0.00000   0.00000
  23 8   H  1S          0.00000   0.00000   0.00000   0.00000   0.00000
  24 9   H  1S          0.00000   0.00000   0.00000   0.00000   0.00000
                          11        12        13        14        15
  11        1PY         1.35668
  12        1PZ         0.00000   1.66797
  13 4   C  1S          0.00000   0.00000   1.24149
  14        1PX         0.00000   0.00000   0.00000   0.96419
  15        1PY         0.00000   0.00000   0.00000   0.00000   0.83617
  16        1PZ         0.00000   0.00000   0.00000   0.00000   0.00000
  17 5   C  1S          0.00000   0.00000   0.00000   0.00000   0.00000
  18        1PX         0.00000   0.00000   0.00000   0.00000   0.00000
  19        1PY         0.00000   0.00000   0.00000   0.00000   0.00000
  20        1PZ         0.00000   0.00000   0.00000   0.00000   0.00000
  21 6   H  1S          0.00000   0.00000   0.00000   0.00000   0.00000
  22 7   H  1S          0.00000   0.00000   0.00000   0.00000   0.00000
  23 8   H  1S          0.00000   0.00000   0.00000   0.00000   0.00000
  24 9   H  1S          0.00000   0.00000   0.00000   0.00000   0.00000
                          16        17        18        19        20
  16        1PZ         1.07456
  17 5   C  1S          0.00000   1.20993
  18        1PX         0.00000   0.00000   0.92104
  19        1PY         0.00000   0.00000   0.00000   0.99831
  20        1PZ         0.00000   0.00000   0.00000   0.00000   1.09057
  21 6   H  1S          0.00000   0.00000   0.00000   0.00000   0.00000
  22 7   H  1S          0.00000   0.00000   0.00000   0.00000   0.00000
  23 8   H  1S          0.00000   0.00000   0.00000   0.00000   0.00000
  24 9   H  1S          0.00000   0.00000   0.00000   0.00000   0.00000
                          21        22        23        24
  21 6   H  1S          0.84704
  22 7   H  1S          0.00000   0.79672
  23 8   H  1S          0.00000   0.00000   0.81482
  24 9   H  1S          0.00000   0.00000   0.00000   0.83788
     Gross orbital populations:
                           1
   1 1   C  1S          1.21306
   2        1PX         0.97911
   3        1PY         0.93215
   4        1PZ         1.07375
   5 2   C  1S          1.24394
   6        1PX         0.82949
   7        1PY         0.97028
   8        1PZ         1.09075
   9 3   O  1S          1.83002
  10        1PX         1.18007
  11        1PY         1.35668
  12        1PZ         1.66797
  13 4   C  1S          1.24149
  14        1PX         0.96419
  15        1PY         0.83617
  16        1PZ         1.07456
  17 5   C  1S          1.20993
  18        1PX         0.92104
  19        1PY         0.99831
  20        1PZ         1.09057
  21 6   H  1S          0.84704
  22 7   H  1S          0.79672
  23 8   H  1S          0.81482
  24 9   H  1S          0.83788
          Condensed to atoms (all electrons):
               1          2          3          4          5          6
     1  C    4.198075   0.000000   0.000000   0.000000   0.000000   0.000000
     2  C    0.000000   4.134462   0.000000   0.000000   0.000000   0.000000
     3  O    0.000000   0.000000   6.034741   0.000000   0.000000   0.000000
     4  C    0.000000   0.000000   0.000000   4.116403   0.000000   0.000000
     5  C    0.000000   0.000000   0.000000   0.000000   4.219864   0.000000
     6  H    0.000000   0.000000   0.000000   0.000000   0.000000   0.847035
     7  H    0.000000   0.000000   0.000000   0.000000   0.000000   0.000000
     8  H    0.000000   0.000000   0.000000   0.000000   0.000000   0.000000
     9  H    0.000000   0.000000   0.000000   0.000000   0.000000   0.000000
               7          8          9
     1  C    0.000000   0.000000   0.000000
     2  C    0.000000   0.000000   0.000000
     3  O    0.000000   0.000000   0.000000
     4  C    0.000000   0.000000   0.000000
     5  C    0.000000   0.000000   0.000000
     6  H    0.000000   0.000000   0.000000
     7  H    0.796722   0.000000   0.000000
     8  H    0.000000   0.814819   0.000000
     9  H    0.000000   0.000000   0.837880
 Mulliken charges:
               1
     1  C   -0.198075
     2  C   -0.134462
     3  O   -0.034741
     4  C   -0.116403
     5  C   -0.219864
     6  H    0.152965
     7  H    0.203278
     8  H    0.185181
     9  H    0.162120
 Sum of Mulliken charges =   0.00000
 Mulliken charges with hydrogens summed into heavy atoms:
               1
     1  C   -0.035955
     2  C    0.050719
     3  O   -0.034741
     4  C    0.086875
     5  C   -0.066899
 Charge=              0.0000 electrons
 Dipole moment (field-independent basis, Debye):
    X=              0.0313    Y=              0.1176    Z=              0.1333  Tot=              0.1805
 N-N= 1.043917870702D+02 E-N=-1.725464646059D+02  KE=-1.666244477621D+01
 Orbital energies and kinetic energies (alpha):
                                 1                 2
   1         O                -1.616721         -1.347346
   2         O                -1.249287         -1.062420
   3         O                -1.106702         -0.960474
   4         O                -0.834943         -0.706176
   5         O                -0.813069         -0.720071
   6         O                -0.694174         -0.607799
   7         O                -0.626025         -0.501895
   8         O                -0.570861         -0.512227
   9         O                -0.513821         -0.440019
  10         O                -0.497993         -0.406559
  11         O                -0.489294         -0.412260
  12         O                -0.396931         -0.344456
  13         O                -0.342759         -0.309518
  14         V                 0.035443         -0.185524
  15         V                 0.067358         -0.188674
  16         V                 0.092425         -0.198239
  17         V                 0.139138         -0.227501
  18         V                 0.151512         -0.206124
  19         V                 0.156023         -0.179867
  20         V                 0.180581         -0.171309
  21         V                 0.185879         -0.175101
  22         V                 0.193643         -0.128197
  23         V                 0.207597         -0.120236
  24         V                 0.233482         -0.027741
 Total kinetic energy from orbitals=-1.666244477621D+01
 Leave Link  601 at Tue Dec 15 16:16:23 2015, MaxMem=    33554432 cpu:         0.0
 (Enter /home/Applications/g09/g09/l701.exe)
 Compute integral first derivatives.
 ... and contract with generalized density number  6.
 Leave Link  701 at Tue Dec 15 16:16:23 2015, MaxMem=    33554432 cpu:         0.0
 (Enter /home/Applications/g09/g09/l702.exe)
 L702 exits ... SP integral derivatives will be done elsewhere.
 Leave Link  702 at Tue Dec 15 16:16:23 2015, MaxMem=    33554432 cpu:         0.0
 (Enter /home/Applications/g09/g09/l703.exe)
 Compute integral first derivatives, UseDBF=F ICtDFT=           0.
 Integral derivatives from FoFJK, PRISM(SPDF).
 Calling FoFJK, ICntrl=  10005127 FMM=F ISym2X=0 I1Cent= 0 IOpClX= 0 NMat=1 NMatS=1 NMatT=0.
 FoFJK:  IHMeth= 8 ICntrl=10005127 DoSepK=F KAlg= 0 I1Cent=   0 FoldK=F
 IRaf=         0 NMat=   1 IRICut=       1 DoRegI=T DoRafI=F ISym2E= 0.
 FoFCou: FMM=F IPFlag=           0 FMFlag=      100000 FMFlg1=         800
         NFxFlg=           0 DoJE=F BraDBF=F KetDBF=F FulRan=T
         wScrn=  0.000000 ICntrl=10005127 IOpCl=  0 I1Cent=           0 NGrid=           0
         NMat0=    1 NMatS0=      1 NMatT0=    0 NMatD0=    1 NMtDS0=    0 NMtDT0=    0
 Symmetry not used in FoFCou.
 Leave Link  703 at Tue Dec 15 16:16:23 2015, MaxMem=    33554432 cpu:         0.0
 (Enter /home/Applications/g09/g09/l716.exe)
 Dipole        = 5.06227600D-02 1.87748846D-01 7.23751167D-02
 ***** Axes restored to original set *****
 -------------------------------------------------------------------
 Center     Atomic                   Forces (Hartrees/Bohr)
 Number     Number              X              Y              Z
 -------------------------------------------------------------------
      1        6           0.066722854   -0.019744280    0.001184982
      2        6          -0.001552181   -0.099218943   -0.001208616
      3        8          -0.196970049   -0.011535205   -0.006752867
      4        6          -0.014205376    0.147254005    0.001772883
      5        6           0.144750446    0.028880421    0.001093045
      6        1          -0.006006210    0.002686985    0.001485187
      7        1           0.002615285   -0.026292475    0.000459204
      8        1          -0.013480351   -0.024021419    0.000292093
      9        1           0.018125581    0.001990912    0.001674090
 -------------------------------------------------------------------
 Cartesian Forces:  Max     0.196970049 RMS     0.060608622
 Z-matrix is all fixed cartesians, so copy forces.
 Force constants in Cartesian coordinates: 
                1             2             3             4             5 
      1  0.878425D+00
      2 -0.578507D-01  0.892270D+00
      3 -0.768033D-02  0.206609D-01  0.227464D+00
      4 -0.476931D+00 -0.103168D+00 -0.101955D-02  0.944130D+00
      5 -0.798494D-01 -0.208386D+00 -0.146985D-02 -0.103213D-01  0.961800D+00
      6 -0.456057D-02 -0.268384D-02 -0.980361D-01  0.220431D-01 -0.204007D-02
      7 -0.888189D-02  0.294915D-01 -0.143502D-02 -0.324259D+00  0.201342D+00
      8 -0.663887D-02  0.220297D-01 -0.520583D-03  0.246897D+00 -0.425880D+00
      9 -0.189201D-03  0.804993D-03  0.977476D-02 -0.156966D-01  0.128586D-01
     10  0.102076D-01  0.582661D-03  0.496772D-03  0.267840D-01  0.200496D-01
     11  0.358864D-01  0.201792D-02  0.100353D-02 -0.179829D-01 -0.134662D-01
     12  0.460588D-03 -0.144629D-03 -0.273885D-02  0.173084D-02  0.140745D-02
     13 -0.179496D+00  0.323567D-01  0.732629D-03  0.106255D-01 -0.352517D-01
     14  0.712741D-02 -0.484341D+00 -0.941397D-02  0.599354D-03 -0.200260D-02
     15  0.141083D-03 -0.593695D-02 -0.993760D-01  0.241226D-03  0.915427D-04
     16  0.169413D-01  0.961924D-03 -0.176555D-04  0.000000D+00 -0.192044D-05
     17 -0.240927D-01 -0.137162D-02  0.212458D-03  0.000000D+00  0.188379D-05
     18  0.984898D-04 -0.434989D-03  0.226369D-01 -0.197915D-04 -0.102390D-03
     19  0.550354D-05  0.334204D-05 -0.155664D-03  0.255725D-04  0.111919D-05
     20 -0.496839D-05 -0.301707D-05  0.140527D-03  0.000000D+00  0.000000D+00
     21 -0.236635D-03 -0.143697D-03  0.669305D-02 -0.394259D-03 -0.172549D-04
     22  0.798469D-02 -0.264454D-01 -0.125791D-02 -0.174378D+00 -0.115800D+00
     23 -0.402459D-02  0.133599D-01 -0.305753D-03 -0.109595D+00 -0.333383D+00
     24 -0.686794D-04 -0.620952D-03  0.262805D-01 -0.675813D-02 -0.104470D-01
     25 -0.248254D+00  0.124068D+00  0.103367D-01 -0.599563D-02  0.198313D-01
     26  0.129447D+00 -0.235576D+00 -0.103072D-01 -0.642787D-02  0.213151D-01
     27  0.120353D-01 -0.115008D-01 -0.926981D-01 -0.126792D-03 -0.281019D-03
                6             7             8             9            10 
      6  0.199565D+00
      7 -0.142534D-01  0.613739D+00
      8  0.140921D-01  0.147326D-01  0.884187D+00
      9 -0.539060D-01  0.303374D-01  0.251789D-02  0.693355D-01
     10  0.189157D-02 -0.317389D+00 -0.262699D+00 -0.165367D-01  0.939259D+00
     11 -0.114707D-02 -0.212836D+00 -0.485859D+00 -0.145650D-01  0.518262D-01
     12 -0.250081D-02 -0.154244D-01 -0.166077D-01 -0.549127D-01  0.310741D-01
     13 -0.692389D-03 -0.894894D-02  0.601834D-02 -0.799895D-03 -0.513123D+00
     14 -0.139774D-04 -0.315777D-01  0.211781D-01 -0.136566D-02  0.108045D+00
     15 -0.214922D-02 -0.153066D-02  0.393081D-03  0.970070D-02 -0.105677D-01
     16  0.975895D-04  0.466457D-05  0.246216D-05 -0.135543D-03 -0.474958D-02
     17 -0.957271D-04 -0.865181D-05 -0.456680D-05  0.251405D-03  0.674784D-02
     18  0.520305D-02 -0.243830D-03 -0.128704D-03  0.708522D-02 -0.828976D-03
     19 -0.442470D-03  0.229251D-01 -0.153911D-01  0.146031D-02 -0.140999D+00
     20  0.149859D-04  0.104008D-01 -0.698720D-02  0.771036D-03  0.754425D-01
     21  0.682172D-02  0.133180D-02 -0.103595D-02  0.352916D-02 -0.491799D-02
     22 -0.584358D-02  0.228111D-01  0.170776D-01  0.149944D-02  0.226192D-04
     23 -0.833746D-02 -0.115520D-01 -0.865339D-02 -0.880039D-03  0.184209D-05
     24 -0.767218D-01  0.132452D-02  0.112852D-02  0.346057D-02 -0.370375D-03
     25  0.176017D-02 -0.109031D-05  0.165356D-05  0.607844D-04 -0.136859D-04
     26  0.211060D-03  0.705359D-05 -0.106974D-04 -0.393235D-03  0.390817D-05
     27  0.217238D-01 -0.106417D-03  0.161392D-03  0.593272D-02 -0.240713D-03
               11            12            13            14            15 
     11  0.960892D+00
     12  0.678035D-02  0.199217D+00
     13  0.809210D-01 -0.136695D-01  0.926133D+00
     14 -0.214804D+00  0.327922D-02 -0.245855D-02  0.850905D+00
     15  0.163552D-02 -0.105843D+00  0.118041D-01  0.496580D-02  0.226249D+00
     16 -0.166530D-01  0.185039D-03 -0.263111D+00 -0.108585D+00  0.965355D-03
     17  0.236810D-01 -0.520643D-04 -0.106934D+00 -0.183874D+00  0.708721D-03
     18 -0.292090D-03  0.255058D-01  0.240256D-02  0.185485D-02 -0.867984D-01
     19  0.788452D-01 -0.435240D-02  0.735063D-02  0.256840D-01 -0.115129D-02
     20 -0.272464D+00  0.547984D-02  0.330938D-02  0.116462D-01  0.288450D-03
     21  0.674714D-02 -0.719445D-01 -0.382170D-03  0.129291D-02  0.256678D-01
     22  0.000000D+00 -0.391372D-03  0.000000D+00  0.000000D+00  0.825642D-05
     23  0.000000D+00 -0.318729D-04  0.000000D+00  0.478265D-05 -0.243036D-03
     24 -0.162097D-04  0.640846D-02 -0.253988D-04 -0.131398D-03  0.667714D-02
     25 -0.831083D-05  0.387097D-03  0.205698D-01  0.116578D-02  0.897097D-04
     26  0.237325D-05 -0.110540D-03  0.220376D-01  0.128788D-02 -0.190313D-02
     27 -0.146174D-03  0.680841D-02  0.630139D-03 -0.467771D-03  0.258717D-01
               16            17            18            19            20 
     16  0.250929D+00
     17  0.124269D+00  0.161577D+00
     18 -0.111542D-02 -0.833404D-03  0.459470D-01
     19 -0.455502D-05  0.844861D-05  0.238103D-03  0.110696D+00
     20  0.411210D-05 -0.762710D-05 -0.214951D-03 -0.891510D-01  0.267815D+00
     21  0.195851D-03 -0.363264D-03 -0.102377D-01  0.440341D-02 -0.647988D-02
     22  0.000000D+00  0.000000D+00  0.000000D+00  0.000000D+00  0.000000D+00
     23  0.000000D+00  0.000000D+00  0.000000D+00  0.000000D+00  0.000000D+00
     24  0.000000D+00  0.000000D+00  0.000000D+00  0.000000D+00  0.000000D+00
     25 -0.996225D-05  0.977213D-05 -0.531143D-03  0.000000D+00  0.000000D+00
     26  0.284483D-05 -0.279054D-05  0.151674D-03  0.000000D+00  0.000000D+00
     27 -0.175220D-03  0.171876D-03 -0.934195D-02  0.000000D+00  0.000000D+00
               21            22            23            24            25 
     21  0.394705D-01
     22  0.000000D+00  0.143560D+00
     23  0.000000D+00  0.125166D+00  0.328695D+00
     24  0.000000D+00  0.599711D-02  0.944630D-02  0.435621D-01
     25  0.000000D+00  0.000000D+00  0.360504D-05 -0.990446D-04  0.233705D+00
     26  0.000000D+00  0.000000D+00 -0.233222D-04  0.640752D-03 -0.145072D+00
     27  0.000000D+00 -0.119535D-04  0.351862D-03 -0.966702D-02 -0.120043D-01
               26            27 
     26  0.213007D+00
     27  0.117106D-01  0.513705D-01
 Leave Link  716 at Tue Dec 15 16:16:23 2015, MaxMem=    33554432 cpu:         0.0
 (Enter /home/Applications/g09/g09/l103.exe)

 GradGradGradGradGradGradGradGradGradGradGradGradGradGradGradGradGradGrad
 Berny optimization.
 Search for a local minimum.
 Step number   1 out of a maximum of    2
 All quantities printed in internal units (Hartrees-Bohrs-Radians)
 Second derivative matrix not updated -- first step.
 ITU=  0
     Eigenvalues ---    0.02103   0.03588   0.06942   0.07472   0.07900
     Eigenvalues ---    0.09336   0.13352   0.16290   0.16587   0.24713
     Eigenvalues ---    0.26770   0.31717   0.42093   0.43662   0.63410
     Eigenvalues ---    0.83938   1.18580   1.47301   1.50898   1.57361
     Eigenvalues ---    1.76662
 Quadratic step=5.814D-01 exceeds max=3.000D-01 adjusted using Lamda=-2.959D-01.
 Angle between NR and scaled steps=  20.26 degrees.
 Angle between quadratic step and forces=  25.90 degrees.
 Linear search not attempted -- first point.
 TrRot= -0.010283  0.003766 -0.000471 -0.226447  0.000483  0.225029
 Variable       Old X    -DE/DX   Delta X   Delta X   Delta X     New X
                                 (Linear)    (Quad)   (Total)
    X1        1.88114   0.06672   0.00000   0.07677   0.06462   1.94576
    Y1       -1.29786  -0.01974   0.00000  -0.01987  -0.01888  -1.31674
    Z1        0.01259   0.00118   0.00000   0.00293   0.00140   0.01399
    X2       -0.60185  -0.00155   0.00000  -0.02861  -0.04190  -0.64375
    Y2       -2.04640  -0.09922   0.00000  -0.06826  -0.06359  -2.10999
    Z2       -0.01158  -0.00121   0.00000  -0.00726  -0.00767  -0.01925
    X3       -2.09914  -0.19697   0.00000  -0.18677  -0.19715  -2.29629
    Y3       -0.03927  -0.01154   0.00000   0.00077   0.00779  -0.03148
    Z3       -0.09304  -0.00675   0.00000  -0.00079  -0.00019  -0.09323
    X4       -0.72753  -0.01421   0.00000  -0.00631  -0.01363  -0.74116
    Y4        2.01175   0.14725   0.00000   0.07739   0.08220   2.09395
    Z4       -0.00858   0.00177   0.00000   0.00009   0.00019  -0.00839
    X5        1.73308   0.14475   0.00000   0.13603   0.12769   1.86076
    Y5        1.31077   0.02888   0.00000   0.03791   0.03902   1.34978
    Z5        0.06336   0.00109   0.00000  -0.00074  -0.00195   0.06142
    X6        3.43139  -0.00601   0.00000   0.05510   0.04845   3.47984
    Y6        2.50494   0.00269   0.00000   0.03898   0.03780   2.54273
    Z6        0.05348   0.00149   0.00000   0.00460   0.00276   0.05624
    X7       -1.60440   0.00262   0.00000  -0.00555  -0.01028  -1.61468
    Y7        3.95234  -0.02629   0.00000  -0.00945  -0.00340   3.94894
    Z7       -0.06972   0.00046   0.00000   0.00016   0.00087  -0.06885
    X8       -1.49902  -0.01348   0.00000  -0.02322  -0.03907  -1.53809
    Y8       -3.82527  -0.02402   0.00000  -0.07968  -0.07375  -3.89902
    Z8       -0.07522   0.00029   0.00000   0.00002  -0.00016  -0.07538
    X9        3.36164   0.01813   0.00000   0.07540   0.06127   3.42291
    Y9       -2.67670   0.00199   0.00000  -0.00609  -0.00718  -2.68388
    Z9       -0.09397   0.00167   0.00000   0.00711   0.00473  -0.08923
         Item               Value     Threshold  Converged?
 Maximum Force            0.196970     0.000450     NO 
 RMS     Force            0.060609     0.000300     NO 
 Maximum Displacement     0.197150     0.001800     NO 
 RMS     Displacement     0.057345     0.001200     NO 
 Predicted change in Energy=-5.582792D-02
 GradGradGradGradGradGradGradGradGradGradGradGradGradGradGradGradGradGrad

 Leave Link  103 at Tue Dec 15 16:16:23 2015, MaxMem=    33554432 cpu:         0.0
 (Enter /home/Applications/g09/g09/l9999.exe)
 1\1\GINC-DUSTIN-DESKTOP\Force\RAM1-FC\STO-3G\C4H4O1\DUSTIN\15-Dec-2015
 \0\\#P AM1(Input,print) CIS(Singlets,NStates=15) pop(full) force\\AM1-
 Reparam Input\\0,1\C,0.995457,-0.686796,0.006664\C,-0.318485,-1.082907
 ,-0.006129\O,-1.110816,-0.020782,-0.049235\C,-0.384994,1.064574,-0.004
 541\C,0.917105,0.693627,0.033531\H,1.815814,1.325555,0.028301\H,-0.849
 011,2.091488,-0.036894\H,-0.793246,-2.024247,-0.039805\H,1.778905,-1.4
 16449,-0.049726\\Version=ES64L-G09RevD.01\State=1-A\HF=0.0347517\RMSD=
 7.626e-09\RMSF=6.061e-02\Dipole=0.1571511,0.1173503,-0.067697\PG=C01 [
 X(C4H4O1)]\\@


 THE NUMBERS ARE MEANINGLESS, BUT THE TRENDS ARE IMPORTANT.
     -- LARRY BURGGRAF
 Job cpu time:       0 days  0 hours  0 minutes  0.5 seconds.
 File lengths (MBytes):  RWF=      7 Int=      0 D2E=      0 Chk=      2 Scr=      1
 Normal termination of Gaussian 09 at Tue Dec 15 16:16:23 2015.
