 Entering Gaussian System, Link 0=g09
 Input=FuranDFT_35.com
 Output=FuranDFT_35.log
 Initial command:
 /home/Applications/g09/g09/l1.exe "/home/Applications/g09/scratch/Gau-5783.inp" -scrdir="/home/Applications/g09/scratch/"
 Entering Link 1 = /home/Applications/g09/g09/l1.exe PID=      5785.
  
 Copyright (c) 1988,1990,1992,1993,1995,1998,2003,2009,2013,
            Gaussian, Inc.  All Rights Reserved.
  
 This is part of the Gaussian(R) 09 program.  It is based on
 the Gaussian(R) 03 system (copyright 2003, Gaussian, Inc.),
 the Gaussian(R) 98 system (copyright 1998, Gaussian, Inc.),
 the Gaussian(R) 94 system (copyright 1995, Gaussian, Inc.),
 the Gaussian 92(TM) system (copyright 1992, Gaussian, Inc.),
 the Gaussian 90(TM) system (copyright 1990, Gaussian, Inc.),
 the Gaussian 88(TM) system (copyright 1988, Gaussian, Inc.),
 the Gaussian 86(TM) system (copyright 1986, Carnegie Mellon
 University), and the Gaussian 82(TM) system (copyright 1983,
 Carnegie Mellon University). Gaussian is a federally registered
 trademark of Gaussian, Inc.
  
 This software contains proprietary and confidential information,
 including trade secrets, belonging to Gaussian, Inc.
  
 This software is provided under written license and may be
 used, copied, transmitted, or stored only in accord with that
 written license.
  
 The following legend is applicable only to US Government
 contracts under FAR:
  
                    RESTRICTED RIGHTS LEGEND
  
 Use, reproduction and disclosure by the US Government is
 subject to restrictions as set forth in subparagraphs (a)
 and (c) of the Commercial Computer Software - Restricted
 Rights clause in FAR 52.227-19.
  
 Gaussian, Inc.
 340 Quinnipiac St., Bldg. 40, Wallingford CT 06492
  
  
 ---------------------------------------------------------------
 Warning -- This program may not be used in any manner that
 competes with the business of Gaussian, Inc. or will provide
 assistance to any competitor of Gaussian, Inc.  The licensee
 of this program is prohibited from giving any competitor of
 Gaussian, Inc. access to this program.  By using this program,
 the user acknowledges that Gaussian, Inc. is engaged in the
 business of creating and licensing software in the field of
 computational chemistry and represents and warrants to the
 licensee that it is not a competitor of Gaussian, Inc. and that
 it will not use this program in any manner prohibited above.
 ---------------------------------------------------------------
  

 Cite this work as:
 Gaussian 09, Revision D.01,
 M. J. Frisch, G. W. Trucks, H. B. Schlegel, G. E. Scuseria, 
 M. A. Robb, J. R. Cheeseman, G. Scalmani, V. Barone, B. Mennucci, 
 G. A. Petersson, H. Nakatsuji, M. Caricato, X. Li, H. P. Hratchian, 
 A. F. Izmaylov, J. Bloino, G. Zheng, J. L. Sonnenberg, M. Hada, 
 M. Ehara, K. Toyota, R. Fukuda, J. Hasegawa, M. Ishida, T. Nakajima, 
 Y. Honda, O. Kitao, H. Nakai, T. Vreven, J. A. Montgomery, Jr., 
 J. E. Peralta, F. Ogliaro, M. Bearpark, J. J. Heyd, E. Brothers, 
 K. N. Kudin, V. N. Staroverov, T. Keith, R. Kobayashi, J. Normand, 
 K. Raghavachari, A. Rendell, J. C. Burant, S. S. Iyengar, J. Tomasi, 
 M. Cossi, N. Rega, J. M. Millam, M. Klene, J. E. Knox, J. B. Cross, 
 V. Bakken, C. Adamo, J. Jaramillo, R. Gomperts, R. E. Stratmann, 
 O. Yazyev, A. J. Austin, R. Cammi, C. Pomelli, J. W. Ochterski, 
 R. L. Martin, K. Morokuma, V. G. Zakrzewski, G. A. Voth, 
 P. Salvador, J. J. Dannenberg, S. Dapprich, A. D. Daniels, 
 O. Farkas, J. B. Foresman, J. V. Ortiz, J. Cioslowski, 
 and D. J. Fox, Gaussian, Inc., Wallingford CT, 2013.
 
 ******************************************
 Gaussian 09:  ES64L-G09RevD.01 24-Apr-2013
                15-Dec-2015 
 ******************************************
 -------------------------------------------------------
 #P B3LYP/3-21G CIS(Singlets,NStates=15) pop(full) force
 -------------------------------------------------------
 1/10=7,30=1,38=1/1,3;
 2/12=2,17=6,18=5,40=1/2;
 3/5=5,11=9,16=1,25=1,30=1,71=1,74=-5/1,2,8,3;
 4//1;
 5/5=2,38=5/2;
 8/6=1,10=1,108=15/1;
 9/15=2,41=15,42=1,48=1/14;
 10/5=4/2;
 6/7=3,18=1/1;
 7/12=6,13=5,29=1/1,2,3,16;
 1/10=7,30=1/3;
 99//99;
 Leave Link    1 at Tue Dec 15 16:17:16 2015, MaxMem=           0 cpu:         0.0
 (Enter /home/Applications/g09/g09/l101.exe)
 --------
 FuranDFT
 --------
 Symbolic Z-matrix:
 Charge =  0 Multiplicity = 1
 6                     0.99889  -0.7237    0.04313 
 6                    -0.38683  -1.11821  -0.01311 
 8                    -1.12367  -0.02553   0.04626 
 6                    -0.36447   1.1153   -0.02338 
 6                     0.94467   0.74959   0.04154 
 1                     1.81988   1.32981  -0.00689 
 1                    -0.84225   2.04493   0.00704 
 1                    -0.82148  -2.08705  -0.01346 
 1                     1.85421  -1.32119   0.03511 
 
 NAtoms=      9 NQM=        9 NQMF=       0 NMMI=      0 NMMIF=      0
                NMic=       0 NMicF=      0.
                    Isotopes and Nuclear Properties:
 (Nuclear quadrupole moments (NQMom) in fm**2, nuclear magnetic moments (NMagM)
  in nuclear magnetons)

  Atom         1           2           3           4           5           6           7           8           9
 IAtWgt=          12          12          16          12          12           1           1           1           1
 AtmWgt=  12.0000000  12.0000000  15.9949146  12.0000000  12.0000000   1.0078250   1.0078250   1.0078250   1.0078250
 NucSpn=           0           0           0           0           0           1           1           1           1
 AtZEff=   0.0000000   0.0000000   0.0000000   0.0000000   0.0000000   0.0000000   0.0000000   0.0000000   0.0000000
 NQMom=    0.0000000   0.0000000   0.0000000   0.0000000   0.0000000   0.0000000   0.0000000   0.0000000   0.0000000
 NMagM=    0.0000000   0.0000000   0.0000000   0.0000000   0.0000000   2.7928460   2.7928460   2.7928460   2.7928460
 AtZNuc=   6.0000000   6.0000000   8.0000000   6.0000000   6.0000000   1.0000000   1.0000000   1.0000000   1.0000000
 Leave Link  101 at Tue Dec 15 16:17:16 2015, MaxMem=    33554432 cpu:         0.0
 (Enter /home/Applications/g09/g09/l103.exe)

 GradGradGradGradGradGradGradGradGradGradGradGradGradGradGradGradGradGrad
 Berny optimization.
 Initialization pass.
 Trust Radius=3.00D-01 FncErr=1.00D-07 GrdErr=1.00D-07
 Number of steps in this run=      2 maximum allowed number of steps=      2.
 GradGradGradGradGradGradGradGradGradGradGradGradGradGradGradGradGradGrad

 Leave Link  103 at Tue Dec 15 16:17:16 2015, MaxMem=    33554432 cpu:         0.0
 (Enter /home/Applications/g09/g09/l202.exe)
                          Input orientation:                          
 ---------------------------------------------------------------------
 Center     Atomic      Atomic             Coordinates (Angstroms)
 Number     Number       Type             X           Y           Z
 ---------------------------------------------------------------------
      1          6           0        0.998891   -0.723700    0.043126
      2          6           0       -0.386830   -1.118215   -0.013112
      3          8           0       -1.123672   -0.025527    0.046263
      4          6           0       -0.364473    1.115298   -0.023375
      5          6           0        0.944674    0.749585    0.041542
      6          1           0        1.819876    1.329811   -0.006885
      7          1           0       -0.842245    2.044927    0.007042
      8          1           0       -0.821475   -2.087052   -0.013458
      9          1           0        1.854206   -1.321193    0.035112
 ---------------------------------------------------------------------
                    Distance matrix (angstroms):
                    1          2          3          4          5
     1  C    0.000000
     2  C    1.441883   0.000000
     3  O    2.234442   1.319253   0.000000
     4  C    2.290218   2.233648   1.372120   0.000000
     5  C    1.474283   2.294464   2.208818   1.360818   0.000000
     6  H    2.212109   3.295819   3.241025   2.194919   1.051183
     7  H    3.325113   3.195822   2.089861   1.045658   2.207302
     8  H    2.275008   1.061867   2.084412   3.234810   3.341978
     9  H    1.043372   2.250726   3.247558   3.295822   2.261728
                    6          7          8          9
     6  H    0.000000
     7  H    2.756533   0.000000
     8  H    4.318765   4.132082   0.000000
     9  H    2.651559   4.313050   2.783553   0.000000
 Stoichiometry    C4H4O
 Framework group  C1[X(C4H4O)]
 Deg. of freedom    21
 Full point group                 C1      NOp   1
 Largest Abelian subgroup         C1      NOp   1
 Largest concise Abelian subgroup C1      NOp   1
                         Standard orientation:                         
 ---------------------------------------------------------------------
 Center     Atomic      Atomic             Coordinates (Angstroms)
 Number     Number       Type             X           Y           Z
 ---------------------------------------------------------------------
      1          6           0       -0.604638    1.068931   -0.015413
      2          6           0       -1.152340   -0.264023    0.032375
      3          8           0       -0.149541   -1.118586   -0.035039
      4          6           0        1.069541   -0.492961    0.036707
      5          6           0        0.853211    0.849429   -0.018215
      6          1           0        1.528250    1.653489    0.034645
      7          1           0        1.939498   -1.071980    0.000474
      8          1           0       -2.163899   -0.586992    0.032373
      9          1           0       -1.102162    1.985913    0.000107
 ---------------------------------------------------------------------
 Rotational constants (GHZ):      9.3276742      9.1094212      4.6134562
 Leave Link  202 at Tue Dec 15 16:17:16 2015, MaxMem=    33554432 cpu:         0.0
 (Enter /home/Applications/g09/g09/l301.exe)
 Standard basis: 3-21G (6D, 7F)
 Ernie: Thresh=  0.10000D-02 Tol=  0.10000D-05 Strict=F.
 There are    53 symmetry adapted cartesian basis functions of A   symmetry.
 There are    53 symmetry adapted basis functions of A   symmetry.
    53 basis functions,    87 primitive gaussians,    53 cartesian basis functions
    18 alpha electrons       18 beta electrons
       nuclear repulsion energy       159.9643098525 Hartrees.
 IExCor=  402 DFT=T Ex+Corr=B3LYP ExCW=0 ScaHFX=  0.200000
 ScaDFX=  0.800000  0.720000  1.000000  0.810000 ScalE2=  1.000000  1.000000
 IRadAn=      0 IRanWt=     -1 IRanGd=            0 ICorTp=0 IEmpDi=  4
 NAtoms=    9 NActive=    9 NUniq=    9 SFac= 1.00D+00 NAtFMM=   60 NAOKFM=F Big=F
 Integral buffers will be    131072 words long.
 Regular integral format.
 Two-electron integral symmetry is turned on.
 Leave Link  301 at Tue Dec 15 16:17:16 2015, MaxMem=    33554432 cpu:         0.0
 (Enter /home/Applications/g09/g09/l302.exe)
 NPDir=0 NMtPBC=     1 NCelOv=     1 NCel=       1 NClECP=     1 NCelD=      1
         NCelK=      1 NCelE2=     1 NClLst=     1 CellRange=     0.0.
 One-electron integrals computed using PRISM.
 NBasis=    53 RedAO= T EigKep=  3.95D-03  NBF=    53
 NBsUse=    53 1.00D-06 EigRej= -1.00D+00 NBFU=    53
 Precomputing XC quadrature grid using
 IXCGrd= 4 IRadAn=           0 IRanWt=          -1 IRanGd=           0 AccXCQ= 0.00D+00.
 Generated NRdTot=       0 NPtTot=           0 NUsed=           0 NTot=          32
 NSgBfM=    53    53    53    53    53 MxSgAt=     9 MxSgA2=     9.
 Leave Link  302 at Tue Dec 15 16:17:16 2015, MaxMem=    33554432 cpu:         0.1
 (Enter /home/Applications/g09/g09/l308.exe)
 Leave Link  308 at Tue Dec 15 16:17:16 2015, MaxMem=    33554432 cpu:         0.0
 (Enter /home/Applications/g09/g09/l303.exe)
 DipDrv:  MaxL=1.
 Leave Link  303 at Tue Dec 15 16:17:16 2015, MaxMem=    33554432 cpu:         0.0
 (Enter /home/Applications/g09/g09/l401.exe)
 ExpMin= 1.83D-01 ExpMax= 3.22D+02 ExpMxC= 3.22D+02 IAcc=1 IRadAn=         1 AccDes= 0.00D+00
 Harris functional with IExCor=  402 and IRadAn=       1 diagonalized for initial guess.
 HarFok:  IExCor=  402 AccDes= 0.00D+00 IRadAn=         1 IDoV= 1 UseB2=F ITyADJ=14
 ICtDFT=  3500011 ScaDFX=  1.000000  1.000000  1.000000  1.000000
 FoFCou: FMM=F IPFlag=           0 FMFlag=      100000 FMFlg1=           0
         NFxFlg=           0 DoJE=T BraDBF=F KetDBF=T FulRan=T
         wScrn=  0.000000 ICntrl=     500 IOpCl=  0 I1Cent=   200000004 NGrid=           0
         NMat0=    1 NMatS0=      1 NMatT0=    0 NMatD0=    1 NMtDS0=    0 NMtDT0=    0
 Petite list used in FoFCou.
 Harris En= -228.725517651892    
 JPrj=0 DoOrth=F DoCkMO=F.
 Leave Link  401 at Tue Dec 15 16:17:16 2015, MaxMem=    33554432 cpu:         0.2
 (Enter /home/Applications/g09/g09/l502.exe)
 Closed shell SCF:
 Using DIIS extrapolation, IDIIS=  1040.
 Integral symmetry usage will be decided dynamically.
 Keep R1 ints in memory in canonical form, NReq=1925595.
 IVT=       27707 IEndB=       27707 NGot=    33554432 MDV=    32502130
 LenX=    32502130 LenY=    32498880
 Requested convergence on RMS density matrix=1.00D-08 within 128 cycles.
 Requested convergence on MAX density matrix=1.00D-06.
 Requested convergence on             energy=1.00D-06.
 No special actions if energy rises.
 FoFCou: FMM=F IPFlag=           0 FMFlag=           0 FMFlg1=           0
         NFxFlg=           0 DoJE=F BraDBF=F KetDBF=F FulRan=T
         wScrn=  0.000000 ICntrl=     600 IOpCl=  0 I1Cent=           0 NGrid=           0
         NMat0=    1 NMatS0=   1431 NMatT0=    0 NMatD0=    1 NMtDS0=    0 NMtDT0=    0
 Symmetry not used in FoFCou.
 Integral accuracy reduced to 1.0D-05 until final iterations.

 Cycle   1  Pass 0  IDiag  1:
 E= -228.662405437450    
 DIIS: error= 3.12D-02 at cycle   1 NSaved=   1.
 NSaved= 1 IEnMin= 1 EnMin= -228.662405437450     IErMin= 1 ErrMin= 3.12D-02
 ErrMax= 3.12D-02  0.00D+00 EMaxC= 1.00D-01 BMatC= 7.06D-02 BMatP= 7.06D-02
 IDIUse=3 WtCom= 6.88D-01 WtEn= 3.12D-01
 Coeff-Com:  0.100D+01
 Coeff-En:   0.100D+01
 Coeff:      0.100D+01
 Gap=     0.219 Goal=   None    Shift=    0.000
 GapD=    0.219 DampG=1.000 DampE=0.500 DampFc=0.5000 IDamp=-1.
 Damping current iteration by 5.00D-01
 RMSDP=1.18D-02 MaxDP=1.01D-01              OVMax= 2.09D-01

 Cycle   2  Pass 0  IDiag  1:
 E= -228.689112856617     Delta-E=       -0.026707419167 Rises=F Damp=T
 DIIS: error= 1.53D-02 at cycle   2 NSaved=   2.
 NSaved= 2 IEnMin= 2 EnMin= -228.689112856617     IErMin= 2 ErrMin= 1.53D-02
 ErrMax= 1.53D-02  0.00D+00 EMaxC= 1.00D-01 BMatC= 9.93D-03 BMatP= 7.06D-02
 IDIUse=3 WtCom= 8.47D-01 WtEn= 1.53D-01
 Coeff-Com:  0.136D+00 0.864D+00
 Coeff-En:   0.242D+00 0.758D+00
 Coeff:      0.153D+00 0.847D+00
 Gap=     0.239 Goal=   None    Shift=    0.000
 RMSDP=4.25D-03 MaxDP=3.77D-02 DE=-2.67D-02 OVMax= 1.68D-01

 Cycle   3  Pass 0  IDiag  1:
 E= -228.726862805588     Delta-E=       -0.037749948971 Rises=F Damp=F
 DIIS: error= 1.96D-02 at cycle   3 NSaved=   3.
 NSaved= 3 IEnMin= 3 EnMin= -228.726862805588     IErMin= 2 ErrMin= 1.53D-02
 ErrMax= 1.96D-02  0.00D+00 EMaxC= 1.00D-01 BMatC= 1.14D-02 BMatP= 9.93D-03
 IDIUse=2 WtCom= 0.00D+00 WtEn= 1.00D+00
 Coeff-En:   0.000D+00 0.000D+00 0.100D+01
 Coeff:      0.000D+00 0.000D+00 0.100D+01
 Gap=     0.229 Goal=   None    Shift=    0.000
 RMSDP=5.83D-03 MaxDP=5.08D-02 DE=-3.77D-02 OVMax= 1.23D-01

 Cycle   4  Pass 0  IDiag  1:
 E= -228.694133470335     Delta-E=        0.032729335253 Rises=F Damp=F
 DIIS: error= 4.31D-02 at cycle   4 NSaved=   4.
 NSaved= 4 IEnMin= 3 EnMin= -228.726862805588     IErMin= 2 ErrMin= 1.53D-02
 ErrMax= 4.31D-02  0.00D+00 EMaxC= 1.00D-01 BMatC= 4.57D-02 BMatP= 9.93D-03
 IDIUse=2 WtCom= 0.00D+00 WtEn= 1.00D+00
 Coeff-En:   0.000D+00 0.000D+00 0.753D+00 0.247D+00
 Coeff:      0.000D+00 0.000D+00 0.753D+00 0.247D+00
 Gap=     0.240 Goal=   None    Shift=    0.000
 RMSDP=2.97D-03 MaxDP=2.43D-02 DE= 3.27D-02 OVMax= 6.45D-02

 Cycle   5  Pass 0  IDiag  1:
 E= -228.735280681451     Delta-E=       -0.041147211116 Rises=F Damp=F
 DIIS: error= 9.70D-03 at cycle   5 NSaved=   5.
 NSaved= 5 IEnMin= 5 EnMin= -228.735280681451     IErMin= 5 ErrMin= 9.70D-03
 ErrMax= 9.70D-03  0.00D+00 EMaxC= 1.00D-01 BMatC= 2.55D-03 BMatP= 9.93D-03
 IDIUse=3 WtCom= 9.03D-01 WtEn= 9.70D-02
 Coeff-Com: -0.801D-02 0.292D-01 0.242D+00-0.893D-01 0.826D+00
 Coeff-En:   0.000D+00 0.000D+00 0.223D+00 0.000D+00 0.777D+00
 Coeff:     -0.723D-02 0.264D-01 0.240D+00-0.807D-01 0.821D+00
 Gap=     0.245 Goal=   None    Shift=    0.000
 RMSDP=1.00D-03 MaxDP=8.54D-03 DE=-4.11D-02 OVMax= 2.07D-02

 Cycle   6  Pass 0  IDiag  1:
 E= -228.737694091064     Delta-E=       -0.002413409612 Rises=F Damp=F
 DIIS: error= 5.51D-04 at cycle   6 NSaved=   6.
 NSaved= 6 IEnMin= 6 EnMin= -228.737694091064     IErMin= 6 ErrMin= 5.51D-04
 ErrMax= 5.51D-04  0.00D+00 EMaxC= 1.00D-01 BMatC= 1.37D-05 BMatP= 2.55D-03
 IDIUse=3 WtCom= 9.94D-01 WtEn= 5.51D-03
 Coeff-Com: -0.662D-02 0.165D-01 0.887D-01-0.540D-01 0.412D+00 0.544D+00
 Coeff-En:   0.000D+00 0.000D+00 0.000D+00 0.000D+00 0.000D+00 0.100D+01
 Coeff:     -0.658D-02 0.164D-01 0.882D-01-0.537D-01 0.409D+00 0.546D+00
 Gap=     0.245 Goal=   None    Shift=    0.000
 RMSDP=7.87D-05 MaxDP=7.13D-04 DE=-2.41D-03 OVMax= 1.64D-03

 Cycle   7  Pass 0  IDiag  1:
 E= -228.737707143237     Delta-E=       -0.000013052173 Rises=F Damp=F
 DIIS: error= 1.80D-04 at cycle   7 NSaved=   7.
 NSaved= 7 IEnMin= 7 EnMin= -228.737707143237     IErMin= 7 ErrMin= 1.80D-04
 ErrMax= 1.80D-04  0.00D+00 EMaxC= 1.00D-01 BMatC= 7.92D-07 BMatP= 1.37D-05
 IDIUse=3 WtCom= 9.98D-01 WtEn= 1.80D-03
 Coeff-Com: -0.305D-02 0.639D-02 0.198D-01-0.223D-01 0.142D+00 0.338D+00
 Coeff-Com:  0.519D+00
 Coeff-En:   0.000D+00 0.000D+00 0.000D+00 0.000D+00 0.000D+00 0.000D+00
 Coeff-En:   0.100D+01
 Coeff:     -0.304D-02 0.638D-02 0.198D-01-0.223D-01 0.142D+00 0.338D+00
 Coeff:      0.520D+00
 Gap=     0.245 Goal=   None    Shift=    0.000
 RMSDP=1.66D-05 MaxDP=2.10D-04 DE=-1.31D-05 OVMax= 4.50D-04

 Cycle   8  Pass 0  IDiag  1:
 E= -228.737707940348     Delta-E=       -0.000000797111 Rises=F Damp=F
 DIIS: error= 2.05D-05 at cycle   8 NSaved=   8.
 NSaved= 8 IEnMin= 8 EnMin= -228.737707940348     IErMin= 8 ErrMin= 2.05D-05
 ErrMax= 2.05D-05  0.00D+00 EMaxC= 1.00D-01 BMatC= 1.59D-08 BMatP= 7.92D-07
 IDIUse=1 WtCom= 1.00D+00 WtEn= 0.00D+00
 Coeff-Com: -0.214D-03 0.557D-04 0.230D-02-0.222D-02 0.194D-01 0.934D-01
 Coeff-Com:  0.177D+00 0.710D+00
 Coeff:     -0.214D-03 0.557D-04 0.230D-02-0.222D-02 0.194D-01 0.934D-01
 Coeff:      0.177D+00 0.710D+00
 Gap=     0.245 Goal=   None    Shift=    0.000
 RMSDP=2.12D-06 MaxDP=1.88D-05 DE=-7.97D-07 OVMax= 3.98D-05

 Initial convergence to 1.0D-05 achieved.  Increase integral accuracy.
 Cycle   9  Pass 1  IDiag  1:
 E= -228.737747607995     Delta-E=       -0.000039667647 Rises=F Damp=F
 DIIS: error= 1.53D-05 at cycle   1 NSaved=   1.
 NSaved= 1 IEnMin= 1 EnMin= -228.737747607995     IErMin= 1 ErrMin= 1.53D-05
 ErrMax= 1.53D-05  0.00D+00 EMaxC= 1.00D-01 BMatC= 9.13D-09 BMatP= 9.13D-09
 IDIUse=1 WtCom= 1.00D+00 WtEn= 0.00D+00
 Coeff-Com:  0.100D+01
 Coeff:      0.100D+01
 Gap=     0.245 Goal=   None    Shift=    0.000
 RMSDP=2.12D-06 MaxDP=1.88D-05 DE=-3.97D-05 OVMax= 4.43D-05

 Cycle  10  Pass 1  IDiag  1:
 E= -228.737747620879     Delta-E=       -0.000000012884 Rises=F Damp=F
 DIIS: error= 4.36D-06 at cycle   2 NSaved=   2.
 NSaved= 2 IEnMin= 2 EnMin= -228.737747620879     IErMin= 2 ErrMin= 4.36D-06
 ErrMax= 4.36D-06  0.00D+00 EMaxC= 1.00D-01 BMatC= 8.78D-10 BMatP= 9.13D-09
 IDIUse=1 WtCom= 1.00D+00 WtEn= 0.00D+00
 Coeff-Com:  0.880D-01 0.912D+00
 Coeff:      0.880D-01 0.912D+00
 Gap=     0.245 Goal=   None    Shift=    0.000
 RMSDP=1.21D-06 MaxDP=9.40D-06 DE=-1.29D-08 OVMax= 2.93D-05

 Cycle  11  Pass 1  IDiag  1:
 E= -228.737747620129     Delta-E=        0.000000000750 Rises=F Damp=F
 DIIS: error= 7.81D-06 at cycle   3 NSaved=   3.
 NSaved= 3 IEnMin= 2 EnMin= -228.737747620879     IErMin= 2 ErrMin= 4.36D-06
 ErrMax= 7.81D-06  0.00D+00 EMaxC= 1.00D-01 BMatC= 1.75D-09 BMatP= 8.78D-10
 IDIUse=1 WtCom= 1.00D+00 WtEn= 0.00D+00
 Coeff-Com: -0.229D-01 0.599D+00 0.424D+00
 Coeff:     -0.229D-01 0.599D+00 0.424D+00
 Gap=     0.245 Goal=   None    Shift=    0.000
 RMSDP=7.39D-07 MaxDP=6.29D-06 DE= 7.50D-10 OVMax= 2.10D-05

 Cycle  12  Pass 1  IDiag  1:
 E= -228.737747621666     Delta-E=       -0.000000001537 Rises=F Damp=F
 DIIS: error= 9.43D-07 at cycle   4 NSaved=   4.
 NSaved= 4 IEnMin= 4 EnMin= -228.737747621666     IErMin= 4 ErrMin= 9.43D-07
 ErrMax= 9.43D-07  0.00D+00 EMaxC= 1.00D-01 BMatC= 3.67D-11 BMatP= 8.78D-10
 IDIUse=1 WtCom= 1.00D+00 WtEn= 0.00D+00
 Coeff-Com: -0.154D-01 0.288D+00 0.232D+00 0.496D+00
 Coeff:     -0.154D-01 0.288D+00 0.232D+00 0.496D+00
 Gap=     0.245 Goal=   None    Shift=    0.000
 RMSDP=1.46D-07 MaxDP=1.70D-06 DE=-1.54D-09 OVMax= 2.96D-06

 Cycle  13  Pass 1  IDiag  1:
 E= -228.737747621701     Delta-E=       -0.000000000035 Rises=F Damp=F
 DIIS: error= 2.87D-07 at cycle   5 NSaved=   5.
 NSaved= 5 IEnMin= 5 EnMin= -228.737747621701     IErMin= 5 ErrMin= 2.87D-07
 ErrMax= 2.87D-07  0.00D+00 EMaxC= 1.00D-01 BMatC= 3.26D-12 BMatP= 3.67D-11
 IDIUse=1 WtCom= 1.00D+00 WtEn= 0.00D+00
 Coeff-Com: -0.732D-02 0.115D+00 0.987D-01 0.290D+00 0.504D+00
 Coeff:     -0.732D-02 0.115D+00 0.987D-01 0.290D+00 0.504D+00
 Gap=     0.245 Goal=   None    Shift=    0.000
 RMSDP=4.63D-08 MaxDP=4.50D-07 DE=-3.54D-11 OVMax= 1.01D-06

 Cycle  14  Pass 1  IDiag  1:
 E= -228.737747621704     Delta-E=       -0.000000000003 Rises=F Damp=F
 DIIS: error= 7.02D-08 at cycle   6 NSaved=   6.
 NSaved= 6 IEnMin= 6 EnMin= -228.737747621704     IErMin= 6 ErrMin= 7.02D-08
 ErrMax= 7.02D-08  0.00D+00 EMaxC= 1.00D-01 BMatC= 2.45D-13 BMatP= 3.26D-12
 IDIUse=1 WtCom= 1.00D+00 WtEn= 0.00D+00
 Coeff-Com: -0.606D-03 0.379D-02 0.785D-02 0.510D-01 0.239D+00 0.699D+00
 Coeff:     -0.606D-03 0.379D-02 0.785D-02 0.510D-01 0.239D+00 0.699D+00
 Gap=     0.245 Goal=   None    Shift=    0.000
 RMSDP=1.11D-08 MaxDP=1.33D-07 DE=-2.96D-12 OVMax= 3.01D-07

 Cycle  15  Pass 1  IDiag  1:
 E= -228.737747621705     Delta-E=       -0.000000000001 Rises=F Damp=F
 DIIS: error= 3.56D-08 at cycle   7 NSaved=   7.
 NSaved= 7 IEnMin= 7 EnMin= -228.737747621705     IErMin= 7 ErrMin= 3.56D-08
 ErrMax= 3.56D-08  0.00D+00 EMaxC= 1.00D-01 BMatC= 3.38D-14 BMatP= 2.45D-13
 IDIUse=1 WtCom= 1.00D+00 WtEn= 0.00D+00
 Coeff-Com: -0.521D-04-0.263D-02 0.891D-03 0.138D-01 0.106D+00 0.376D+00
 Coeff-Com:  0.506D+00
 Coeff:     -0.521D-04-0.263D-02 0.891D-03 0.138D-01 0.106D+00 0.376D+00
 Coeff:      0.506D+00
 Gap=     0.245 Goal=   None    Shift=    0.000
 RMSDP=3.68D-09 MaxDP=4.80D-08 DE=-1.36D-12 OVMax= 1.01D-07

 SCF Done:  E(RB3LYP) =  -228.737747622     A.U. after   15 cycles
            NFock= 15  Conv=0.37D-08     -V/T= 2.0085
 KE= 2.268047855349D+02 PE=-8.523867948870D+02 EE= 2.368799518778D+02
 Leave Link  502 at Tue Dec 15 16:17:22 2015, MaxMem=    33554432 cpu:         5.7
 (Enter /home/Applications/g09/g09/l801.exe)
 DoSCS=F DFT=T ScalE2(SS,OS)=  1.000000  1.000000
 ExpMin= 1.83D-01 ExpMax= 3.22D+02 ExpMxC= 3.22D+02 IAcc=3 IRadAn=         5 AccDes= 0.00D+00
 HarFok:  IExCor=  205 AccDes= 0.00D+00 IRadAn=         5 IDoV=-2 UseB2=F ITyADJ=14
 ICtDFT= 12500011 ScaDFX=  1.000000  1.000000  1.000000  1.000000
 Largest valence mixing into a core orbital is  1.99D-04
 Largest core mixing into a valence orbital is  4.55D-05
 Range of M.O.s used for correlation:     6    53
 NBasis=    53 NAE=    18 NBE=    18 NFC=     5 NFV=     0
 NROrb=     48 NOA=    13 NOB=    13 NVA=    35 NVB=    35
 Leave Link  801 at Tue Dec 15 16:17:22 2015, MaxMem=    33554432 cpu:         0.3
 (Enter /home/Applications/g09/g09/l914.exe)
 RHF ground state
 MDV=    33554432 DFT=T DoStab=F Mixed=T DoRPA=F DoScal=F NonHer=F
 Keep R1, R2, and R3 ints in memory in canonical form, NReq=5596273.
 FoFCou: FMM=F IPFlag=           0 FMFlag=           0 FMFlg1=           0
         NFxFlg=           0 DoJE=F BraDBF=F KetDBF=F FulRan=T
         wScrn=  0.000000 ICntrl=     600 IOpCl=  0 I1Cent=           0 NGrid=           0
         NMat0=    1 NMatS0=   1431 NMatT0=    0 NMatD0=    1 NMtDS0=    0 NMtDT0=    0
 Symmetry not used in FoFCou.
 Making orbital integer symmetry assigments:
 Orbital symmetries:
       Occupied  (A) (A) (A) (A) (A) (A) (A) (A) (A) (A) (A) (A)
                 (A) (A) (A) (A) (A) (A)
       Virtual   (A) (A) (A) (A) (A) (A) (A) (A) (A) (A) (A) (A)
                 (A) (A) (A) (A) (A) (A) (A) (A) (A) (A) (A) (A)
                 (A) (A) (A) (A) (A) (A) (A) (A) (A) (A) (A)
    60 initial guesses have been made.
 Convergence on wavefunction:    0.000001000000000
 Davidson Disk Diagonalization:  ConvIn= 1.00D-06 SkipCon=T Conv= 1.00D-06.
 Max sub-space:   240 roots to seek:    60 dimension of matrix:          910
 Iteration     1 Dimension    60 NMult     0 NNew     60
 CISAX will form    60 AO SS matrices at one time.
 NMat=    60 NSing=    60 JSym2X= 0.
 New state      1 was old state      3
 New state      2 was old state      1
 New state      3 was old state      5
 New state      4 was old state      6
 New state      5 was old state      7
 New state      6 was old state      4
 New state      7 was old state      9
 New state      9 was old state     11
 New state     11 was old state     12
 New state     12 was old state     13
 New state     13 was old state     15
 New state     15 was old state      2
 Excitation Energies [eV] at current iteration:
 Root      1 :     6.984198244904105
 Root      2 :     8.052007644875593
 Root      3 :     8.384125166875554
 Root      4 :     8.880793678969997
 Root      5 :     9.113856640429089
 Root      6 :     9.516158859916775
 Root      7 :     9.689255325944075
 Root      8 :     9.855277754580717
 Root      9 :     9.922861783880979
 Root     10 :    10.045247985709250
 Root     11 :    10.228071331789830
 Root     12 :    10.531381035890610
 Root     13 :    10.578873896449420
 Root     14 :    10.608589231271500
 Root     15 :    10.714386706439770
 Root     16 :    10.814296387365910
 Root     17 :    11.155408840837730
 Root     18 :    11.217061144587530
 Root     19 :    11.640971944900890
 Root     20 :    11.720882454453570
 Root     21 :    11.822623573607600
 Root     22 :    11.931725179941690
 Root     23 :    12.101980030655130
 Root     24 :    12.273773044277060
 Root     25 :    12.544802667057830
 Root     26 :    13.287347455018840
 Root     27 :    13.440326338658390
 Root     28 :    13.497388629510820
 Root     29 :    13.657425370790240
 Root     30 :    13.769312883685940
 Root     31 :    13.924168876393330
 Root     32 :    13.996121819958030
 Root     33 :    14.191140602312280
 Root     34 :    14.269113795098230
 Root     35 :    14.435983215083330
 Root     36 :    14.648673204904700
 Root     37 :    14.701824308863830
 Root     38 :    14.732258773918730
 Root     39 :    14.859222479710250
 Root     40 :    14.945790377781630
 Root     41 :    15.112434577094470
 Root     42 :    15.172276816651810
 Root     43 :    15.219149711339160
 Root     44 :    15.363828357387960
 Root     45 :    15.403818055852970
 Root     46 :    15.512773246450550
 Root     47 :    15.553062253379660
 Root     48 :    15.807756098539790
 Root     49 :    15.896706443253690
 Root     50 :    15.946626603568650
 Root     51 :    16.008272362284640
 Root     52 :    16.048242809129330
 Root     53 :    16.325107919227960
 Root     54 :    16.479556269672030
 Root     55 :    16.598774239149170
 Root     56 :    16.741409853046990
 Root     57 :    16.852065839407100
 Root     58 :    17.273639241695950
 Root     59 :    17.639610238968550
 Root     60 :    17.925933329528810
 Iteration     2 Dimension   120 NMult    60 NNew     60
 CISAX will form    60 AO SS matrices at one time.
 NMat=    60 NSing=    60 JSym2X= 0.
 Root      1 not converged, maximum delta is    0.108531212817061
 Root      2 not converged, maximum delta is    0.099057982072002
 Root      3 not converged, maximum delta is    0.037551738501752
 Root      4 not converged, maximum delta is    0.027997051312174
 New state      5 was old state      6
 Root      5 not converged, maximum delta is    0.201619791320211
 New state      6 was old state      5
 Root      6 not converged, maximum delta is    0.135702076257241
 New state      7 was old state     14
 Root      7 not converged, maximum delta is    0.400348845533343
 New state      8 was old state      7
 Root      8 not converged, maximum delta is    0.163650648500348
 New state      9 was old state      8
 Root      9 not converged, maximum delta is    0.114692550689011
 New state     10 was old state      9
 Root     10 not converged, maximum delta is    0.132047440219662
 New state     11 was old state     10
 Root     11 not converged, maximum delta is    0.043539403977528
 New state     12 was old state     11
 Root     12 not converged, maximum delta is    0.127422847572473
 New state     13 was old state     12
 Root     13 not converged, maximum delta is    0.094884327504750
 New state     14 was old state     13
 Root     14 not converged, maximum delta is    0.073223541056458
 Root     15 not converged, maximum delta is    0.204852853512677
 Excitation Energies [eV] at current iteration:
 Root      1 :     6.842806655512261   Change is   -0.141391589391844
 Root      2 :     7.202142554965296   Change is   -0.849865089910296
 Root      3 :     8.351846424685020   Change is   -0.032278742190535
 Root      4 :     8.862702993560342   Change is   -0.018090685409656
 Root      5 :     8.935868094927583   Change is   -0.580290764989191
 Root      6 :     9.109329434480227   Change is   -0.004527205948864
 Root      7 :     9.474864302034455   Change is   -1.133724929237044
 Root      8 :     9.657679857638662   Change is   -0.031575468305413
 Root      9 :     9.817368461800113   Change is   -0.037909292780603
 Root     10 :     9.917073180317107   Change is   -0.005788603563871
 Root     11 :    10.018117584325250   Change is   -0.027130401383997
 Root     12 :    10.247343474122750   Change is    0.019272142332924
 Root     13 :    10.522495588137380   Change is   -0.008885447753230
 Root     14 :    10.566400826990350   Change is   -0.012473069459072
 Root     15 :    10.656885619547560   Change is   -0.057501086892217
 Root     16 :    10.795148986407090   Change is   -0.019147400958821
 Root     17 :    11.136851540149970   Change is   -0.018557300687754
 Root     18 :    11.197001092362050   Change is   -0.020060052225472
 Root     19 :    11.622463399871310   Change is   -0.018508545029576
 Root     20 :    11.693696782938600   Change is   -0.027185671514976
 Root     21 :    11.778152497662480   Change is   -0.044471075945119
 Root     22 :    11.879092125157550   Change is   -0.052633054784138
 Root     23 :    11.959058237719560   Change is   -0.142921792935573
 Root     24 :    12.239350938958080   Change is   -0.034422105318982
 Root     25 :    12.406105035976780   Change is   -0.138697631081043
 Root     26 :    12.890891564678110   Change is   -0.396455890340729
 Root     27 :    13.167525772303870   Change is   -0.329862857206957
 Root     28 :    13.316321930467540   Change is   -0.341103440322699
 Root     29 :    13.407184673518470   Change is   -0.033141665139922
 Root     30 :    13.580034465228960   Change is   -0.689079329869274
 Root     31 :    13.732035625499150   Change is   -0.037277258186794
 Root     32 :    13.920868316748560   Change is   -0.003300559644774
 Root     33 :    13.950834390308670   Change is   -0.045287429649365
 Root     34 :    14.152969361758220   Change is   -0.038171240554060
 Root     35 :    14.298669239846380   Change is   -0.137313975236949
 Root     36 :    14.337780903100020   Change is   -0.394477870818714
 Root     37 :    14.558422587924650   Change is   -0.143401720939180
 Root     38 :    14.586586691704120   Change is   -0.062086513200585
 Root     39 :    14.700556984264700   Change is   -0.245233393516927
 Root     40 :    14.833378781328770   Change is   -0.025843698381480
 Root     41 :    15.018204169706370   Change is   -0.094230407388095
 Root     42 :    15.130039094671530   Change is   -0.042237721980284
 Root     43 :    15.191519515054730   Change is   -0.027630196284431
 Root     44 :    15.320023562500160   Change is   -0.043804794887795
 Root     45 :    15.353497945667400   Change is   -0.050320110185576
 Root     46 :    15.399733230506910   Change is   -0.648509578622417
 Root     47 :    15.445571780198680   Change is   -0.067201466251877
 Root     48 :    15.499406149724740   Change is   -0.053656103654920
 Root     49 :    15.582572094010550   Change is   -0.225184004529237
 Root     50 :    15.675499590093140   Change is   -0.271127013475509
 Root     51 :    15.882334010092290   Change is   -0.014372433161394
 Root     52 :    15.983237552509970   Change is   -0.025034809774674
 Root     53 :    16.027089877307700   Change is   -0.298018041920265
 Root     54 :    16.166348147060990   Change is   -0.432426092088174
 Root     55 :    16.333998882682200   Change is   -0.145557386989841
 Root     56 :    16.474825148756480   Change is   -1.164785090212078
 Root     57 :    16.649382050818940   Change is   -0.624257190877017
 Root     58 :    16.661502186064300   Change is   -0.079907666982688
 Root     59 :    16.766747319496910   Change is   -0.085318519910188
 Root     60 :    17.021411248938360
 Iteration     3 Dimension   135 NMult   120 NNew     15
 CISAX will form    15 AO SS matrices at one time.
 NMat=    15 NSing=    15 JSym2X= 0.
 Root      1 not converged, maximum delta is    0.001352699181183
 Root      2 not converged, maximum delta is    0.002380407515856
 Root      3 not converged, maximum delta is    0.000438830702686
 Root      4 not converged, maximum delta is    0.001229112085945
 Root      5 not converged, maximum delta is    0.002670437965403
 Root      6 not converged, maximum delta is    0.001628658624095
 Root      7 not converged, maximum delta is    0.002966546055491
 Root      8 not converged, maximum delta is    0.000363348902195
 Root      9 not converged, maximum delta is    0.000633859527564
 Root     10 not converged, maximum delta is    0.000711695748018
 Root     11 not converged, maximum delta is    0.000260589490607
 Root     12 not converged, maximum delta is    0.000367991437089
 Root     13 not converged, maximum delta is    0.000280562835696
 Root     14 not converged, maximum delta is    0.000225693135273
 Root     15 not converged, maximum delta is    0.000265180616908
 Excitation Energies [eV] at current iteration:
 Root      1 :     6.841901173209348   Change is   -0.000905482302913
 Root      2 :     7.200031285443440   Change is   -0.002111269521857
 Root      3 :     8.351746202787893   Change is   -0.000100221897126
 Root      4 :     8.862666070265657   Change is   -0.000036923294684
 Root      5 :     8.933340987211066   Change is   -0.002527107716517
 Root      6 :     9.109236393855477   Change is   -0.000093040624749
 Root      7 :     9.470551364437103   Change is   -0.004312937597351
 Root      8 :     9.657636911984795   Change is   -0.000042945653867
 Root      9 :     9.817284878082267   Change is   -0.000083583717846
 Root     10 :     9.916932795286614   Change is   -0.000140385030493
 Root     11 :    10.018073738700530   Change is   -0.000043845624719
 Root     12 :    10.247256682432630   Change is   -0.000086791690127
 Root     13 :    10.522471758685420   Change is   -0.000023829451961
 Root     14 :    10.566389187414870   Change is   -0.000011639575478
 Root     15 :    10.656845262920570   Change is   -0.000040356626984
 Iteration     4 Dimension   150 NMult   135 NNew     15
 CISAX will form    15 AO SS matrices at one time.
 NMat=    15 NSing=    15 JSym2X= 0.
 Root      1 not converged, maximum delta is    0.000030330443928
 Root      2 not converged, maximum delta is    0.000058875160605
 Root      3 not converged, maximum delta is    0.000014966665918
 Root      4 not converged, maximum delta is    0.000007428517624
 Root      5 not converged, maximum delta is    0.000081932454733
 Root      6 not converged, maximum delta is    0.000015457894690
 Root      7 not converged, maximum delta is    0.000105526332010
 Root      8 not converged, maximum delta is    0.000009218358452
 Root      9 not converged, maximum delta is    0.000014221085038
 Root     10 not converged, maximum delta is    0.000016740863636
 Root     11 not converged, maximum delta is    0.000005805790062
 Root     12 not converged, maximum delta is    0.000018133025949
 Root     13 not converged, maximum delta is    0.000005626061739
 Root     14 not converged, maximum delta is    0.000004223596442
 Root     15 not converged, maximum delta is    0.000009577419779
 Excitation Energies [eV] at current iteration:
 Root      1 :     6.841899926461477   Change is   -0.000001246747871
 Root      2 :     7.200028953325130   Change is   -0.000002332118310
 Root      3 :     8.351746063646184   Change is   -0.000000139141709
 Root      4 :     8.862666028474418   Change is   -0.000000041791238
 Root      5 :     8.933336669003896   Change is   -0.000004318207169
 Root      6 :     9.109236242749413   Change is   -0.000000151106064
 Root      7 :     9.470544680157818   Change is   -0.000006684279286
 Root      8 :     9.657636849515924   Change is   -0.000000062468871
 Root      9 :     9.817284752244314   Change is   -0.000000125837953
 Root     10 :     9.916932602495967   Change is   -0.000000192790646
 Root     11 :    10.018073708080620   Change is   -0.000000030619906
 Root     12 :    10.247256556318790   Change is   -0.000000126113834
 Root     13 :    10.522471744385530   Change is   -0.000000014299884
 Root     14 :    10.566389177762630   Change is   -0.000000009652246
 Root     15 :    10.656845214495080   Change is   -0.000000048425493
 Iteration     5 Dimension   165 NMult   150 NNew     15
 CISAX will form    15 AO SS matrices at one time.
 NMat=    15 NSing=    15 JSym2X= 0.
 Root      1 not converged, maximum delta is    0.000001364646433
 Root      2 not converged, maximum delta is    0.000001601725982
 Root      3 has converged.
 Root      4 has converged.
 Root      5 not converged, maximum delta is    0.000002739081677
 Root      6 has converged.
 Root      7 not converged, maximum delta is    0.000003088632962
 Root      8 has converged.
 Root      9 has converged.
 Root     10 has converged.
 Root     11 has converged.
 Root     12 has converged.
 Root     13 has converged.
 Root     14 has converged.
 Root     15 has converged.
 Excitation Energies [eV] at current iteration:
 Root      1 :     6.841899924999416   Change is   -0.000000001462061
 Root      2 :     7.200028951890679   Change is   -0.000000001434451
 Root      3 :     8.351746063537201   Change is   -0.000000000108984
 Root      4 :     8.862666028443192   Change is   -0.000000000031227
 Root      5 :     8.933336665039080   Change is   -0.000000003964817
 Root      6 :     9.109236242600044   Change is   -0.000000000149369
 Root      7 :     9.470544674735681   Change is   -0.000000005422137
 Root      8 :     9.657636849449366   Change is   -0.000000000066557
 Root      9 :     9.817284752100019   Change is   -0.000000000144295
 Root     10 :     9.916932602328986   Change is   -0.000000000166981
 Root     11 :    10.018073708062120   Change is   -0.000000000018501
 Root     12 :    10.247256556151080   Change is   -0.000000000167718
 Root     13 :    10.522471744368660   Change is   -0.000000000016870
 Root     14 :    10.566389177752740   Change is   -0.000000000009885
 Root     15 :    10.656845214447020   Change is   -0.000000000048059
 Iteration     6 Dimension   169 NMult   165 NNew      4
 CISAX will form     4 AO SS matrices at one time.
 NMat=     4 NSing=     4 JSym2X= 0.
 Root      1 has converged.
 Root      2 has converged.
 Root      3 has converged.
 Root      4 has converged.
 Root      5 has converged.
 Root      6 has converged.
 Root      7 has converged.
 Root      8 has converged.
 Root      9 has converged.
 Root     10 has converged.
 Root     11 has converged.
 Root     12 has converged.
 Root     13 has converged.
 Root     14 has converged.
 Root     15 has converged.
 Excitation Energies [eV] at current iteration:
 Root      1 :     6.841899924998674   Change is   -0.000000000000743
 Root      2 :     7.200028951890196   Change is   -0.000000000000483
 Root      3 :     8.351746063537156   Change is   -0.000000000000045
 Root      4 :     8.862666028443179   Change is   -0.000000000000012
 Root      5 :     8.933336665037093   Change is   -0.000000000001988
 Root      6 :     9.109236242599970   Change is   -0.000000000000074
 Root      7 :     9.470544674732347   Change is   -0.000000000003334
 Root      8 :     9.657636849449332   Change is   -0.000000000000035
 Root      9 :     9.817284752099908   Change is   -0.000000000000110
 Root     10 :     9.916932602328854   Change is   -0.000000000000131
 Root     11 :    10.018073708062090   Change is   -0.000000000000033
 Root     12 :    10.247256556151000   Change is   -0.000000000000073
 Root     13 :    10.522471744368660   Change is   -0.000000000000005
 Root     14 :    10.566389177752720   Change is   -0.000000000000018
 Root     15 :    10.656845214447010   Change is   -0.000000000000009
 Convergence achieved on expansion vectors.
 ***********************************************************************
 Excited states from <AA,BB:AA,BB> singles matrix:
 ***********************************************************************
 
 1PDM for each excited state written to RWF  633
 Ground to excited state transition densities written to RWF  633
 Ground to excited state transition electric dipole moments (Au):
       state          X           Y           Z        Dip. S.      Osc.
         1         0.3143      0.0407      0.0332      0.1015      0.0170
         2         1.1060      0.0971     -0.0022      1.2326      0.2174
         3        -0.0766      0.1823     -0.1443      0.0599      0.0123
         4        -0.0049     -0.0980     -0.0375      0.0110      0.0024
         5        -0.7503      0.7879     -0.0055      1.1839      0.2591
         6         0.1214     -0.1393      0.0232      0.0347      0.0077
         7        -0.3834     -1.2793      0.0982      1.7933      0.4161
         8        -0.0728      0.0887      0.0044      0.0132      0.0031
         9         0.1119      0.1127      0.0352      0.0265      0.0064
        10        -0.0993     -0.1616      0.0192      0.0364      0.0088
        11         0.0664      0.0442      0.0305      0.0073      0.0018
        12         0.0636      0.1692      0.0432      0.0345      0.0087
        13         0.0073      0.0087     -0.0435      0.0020      0.0005
        14         0.0240      0.0104     -0.0189      0.0010      0.0003
        15        -0.0389      0.0733      0.0900      0.0150      0.0039
 Ground to excited state transition velocity dipole moments (Au):
       state          X           Y           Z        Dip. S.      Osc.
         1         0.0034      0.0457      0.0026      0.0021      0.0056
         2         0.0053      0.0044     -0.0008      0.0000      0.0001
         3         0.0048      0.0003      0.0748      0.0056      0.0122
         4         0.0003     -0.0011      0.0134      0.0002      0.0004
         5         0.0606     -0.0105     -0.0092      0.0039      0.0079
         6        -0.0010      0.0020      0.0141      0.0002      0.0004
         7         0.0273      0.0353      0.0020      0.0020      0.0038
         8         0.0085     -0.0076     -0.0038      0.0001      0.0003
         9        -0.0097     -0.0101     -0.0463      0.0023      0.0043
        10         0.0152      0.0026     -0.0093      0.0003      0.0006
        11        -0.0124     -0.0099      0.0264      0.0009      0.0017
        12        -0.0090     -0.0135      0.0400      0.0019      0.0033
        13        -0.0059      0.0036      0.0276      0.0008      0.0014
        14        -0.0068     -0.0014      0.0076      0.0001      0.0002
        15         0.0149     -0.0031      0.0013      0.0002      0.0004
 Ground to excited state transition magnetic dipole moments (Au):
       state          X           Y           Z
         1        -0.0814      0.0182      0.1332
         2         0.0170     -0.0067      0.3393
         3        -1.5503      0.3374      0.0000
         4        -0.0430     -0.4636      0.0243
         5         0.2225      0.1056      0.1792
         6         0.0672      0.2557     -0.0008
         7        -0.0882      0.2086      0.2399
         8        -0.0815     -0.3223      0.0034
         9        -0.0173      0.4335     -0.0386
        10        -0.1878     -0.3276      0.0682
        11        -0.2373      0.3629     -0.0167
        12         0.1078     -0.1072     -0.0353
        13         0.0303      0.1101      0.0048
        14        -0.1148      0.0717      0.0418
        15         0.0879      0.1001      0.0016
 Ground to excited state transition velocity quadrupole moments (Au):
       state          XX          YY          ZZ          XY          XZ          YZ
         1         0.0388      0.0072     -0.0202      0.0301      0.0011     -0.0047
         2         0.0670     -0.0695     -0.0018      0.1926     -0.0034     -0.0024
         3         0.0315      0.0005     -0.0108      0.0098     -0.0268     -0.1581
         4        -0.0368      0.0213      0.0019     -0.0137     -0.0920     -0.0406
         5         0.1746     -0.1365     -0.0153      0.1896     -0.0434      0.0245
         6        -0.0368      0.0363      0.0028     -0.0636     -0.1681      0.0269
         7        -0.2116      0.1627      0.0338      0.2393     -0.0133      0.0025
         8         0.0515     -0.0103     -0.0105      0.0138     -0.0112     -0.0162
         9         0.0480     -0.0197     -0.0033     -0.0797     -0.0560      0.0658
        10         0.0064      0.0044      0.0096      0.0525      0.0042      0.0229
        11         0.0176     -0.0193     -0.0035     -0.0146      0.0233     -0.1310
        12         0.0856     -0.0131     -0.0100     -0.0361      0.0411      0.0660
        13        -0.0037      0.0093     -0.0006     -0.0064     -0.0349      0.0747
        14         0.0039     -0.0112     -0.0005      0.0169     -0.0461     -0.0450
        15         0.0124     -0.0345      0.0116      0.0346     -0.0190      0.0559
 <0|del|b> * <b|rxdel|0> + <0|del|b> * <b|delr+rdel|0>
 Rotatory Strengths (R) in cgs (10**-40 erg-esu-cm/Gauss)
       state          XX          YY          ZZ    R(velocity)    E-M Angle
         1         1.6954     -0.0349      0.8718      0.8441       82.83
         2        -0.5881     -0.0532      0.0781     -0.1877       95.16
         3         0.9522    -10.2491     -7.5737     -5.6235       93.53
         4         0.5906      0.5222      0.6522      0.5883       82.57
         5        -5.3512     16.2286     12.2212      7.6995       55.52
         6        -0.0474      0.8391      0.1465      0.3127       83.26
         7         8.9225     -2.3745      4.4941      3.6807       68.36
         8         2.3001     -0.7910      1.9797      1.1629       64.12
         9         0.5351     -2.3316     -2.9395     -1.5787       96.58
        10        -1.9302     -2.5781     -3.9272     -2.8119      128.88
        11        -4.0230      4.3390     -2.4056     -0.6965       94.67
        12        -0.8012     -1.4335      0.4885     -0.5821       97.93
        13         0.4388     -0.2814      0.4868      0.2148       83.79
        14         0.2530      1.1684      0.4028      0.6081       46.66
        15        -0.2909      1.8959      0.2029      0.6027       60.57
 1/2[<0|r|b>*<b|rxdel|0> + (<0|rxdel|b>*<b|r|0>)*]
 Rotatory Strengths (R) in cgs (10**-40 erg-esu-cm/Gauss)
       state          XX          YY          ZZ     R(length)
         1        18.0989     -0.5231     -3.1226      4.8177
         2       -13.3166      0.4602      0.5240     -4.1108
         3       -83.9407    -43.5107      0.0010    -42.4835
         4        -0.1477    -32.1162      0.6428    -10.5404
         5       118.0635    -58.8441      0.6949     19.9714
         6        -5.7700     25.1831      0.0129      6.4754
         7       -23.9058    188.6935    -16.6523     49.3785
         8        -4.1946     20.2147     -0.0106      5.3365
         9         1.3711    -34.5430      0.9604    -10.7371
        10       -13.1919    -37.4488     -0.9241    -17.1883
        11        11.1418    -11.3464      0.3597      0.0517
        12        -4.8472     12.8262      1.0790      3.0193
        13        -0.1567     -0.6756      0.1488     -0.2278
        14         1.9449     -0.5275      0.5588      0.6587
        15         2.4183     -5.1935     -0.1017     -0.9590
  1/2[<0|del|b>*<b|r|0> + (<0|r|b>*<b|del|0>)*] (Au)
       state          X           Y           Z        Dip. S.   Osc.(frdel)
         1         0.0011      0.0019      0.0001     -0.0030     -0.0020
         2         0.0059      0.0004      0.0000     -0.0063     -0.0042
         3        -0.0004      0.0000     -0.0108      0.0111      0.0074
         4         0.0000      0.0001     -0.0005      0.0004      0.0003
         5        -0.0455     -0.0082      0.0001      0.0537      0.0358
         6        -0.0001     -0.0003      0.0003      0.0001      0.0001
         7        -0.0105     -0.0452      0.0002      0.0554      0.0370
         8        -0.0006     -0.0007      0.0000      0.0013      0.0009
         9        -0.0011     -0.0011     -0.0016      0.0039      0.0026
        10        -0.0015     -0.0004     -0.0002      0.0021      0.0014
        11        -0.0008     -0.0004      0.0008      0.0005      0.0003
        12        -0.0006     -0.0023      0.0017      0.0011      0.0008
        13         0.0000      0.0000     -0.0012      0.0012      0.0008
        14        -0.0002      0.0000     -0.0001      0.0003      0.0002
        15        -0.0006     -0.0002      0.0001      0.0007      0.0005

 Excitation energies and oscillator strengths:
 
 Excited State   1:      Singlet-A      6.8419 eV  181.21 nm  f=0.0170  <S**2>=0.000
      17 -> 19         0.47414
      18 -> 19         0.21372
      18 -> 20        -0.46742
 This state for optimization and/or second-order correction.
 Total Energy, E(CIS) =  -228.486312415    
 Copying the excited state density for this state as the 1-particle RhoCI density.
 
 Excited State   2:      Singlet-A      7.2000 eV  172.20 nm  f=0.2174  <S**2>=0.000
      17 -> 19        -0.19358
      18 -> 19         0.64519
      18 -> 20         0.11561
 
 Excited State   3:      Singlet-A      8.3517 eV  148.45 nm  f=0.0123  <S**2>=0.000
      16 -> 19         0.69026
 
 Excited State   4:      Singlet-A      8.8627 eV  139.89 nm  f=0.0024  <S**2>=0.000
      18 -> 21         0.57463
      18 -> 22        -0.39439
 
 Excited State   5:      Singlet-A      8.9333 eV  138.79 nm  f=0.2591  <S**2>=0.000
      16 -> 19        -0.11165
      17 -> 19         0.27343
      17 -> 20         0.49464
      18 -> 20         0.32460
 
 Excited State   6:      Singlet-A      9.1092 eV  136.11 nm  f=0.0077  <S**2>=0.000
      18 -> 21         0.38215
      18 -> 22         0.57308
 
 Excited State   7:      Singlet-A      9.4705 eV  130.92 nm  f=0.4161  <S**2>=0.000
      16 -> 20         0.11365
      17 -> 19        -0.33723
      17 -> 20         0.43660
      18 -> 20        -0.33528
 
 Excited State   8:      Singlet-A      9.6576 eV  128.38 nm  f=0.0031  <S**2>=0.000
      15 -> 19         0.64395
      16 -> 20        -0.19956
      18 -> 23         0.17106
 
 Excited State   9:      Singlet-A      9.8173 eV  126.29 nm  f=0.0064  <S**2>=0.000
      14 -> 19        -0.14581
      16 -> 20         0.48196
      17 -> 22        -0.12806
      18 -> 23         0.44332
 
 Excited State  10:      Singlet-A      9.9169 eV  125.02 nm  f=0.0088  <S**2>=0.000
      14 -> 19         0.11623
      15 -> 19        -0.26455
      16 -> 20        -0.37210
      17 -> 21         0.13192
      17 -> 22        -0.21954
      18 -> 23         0.42619
 
 Excited State  11:      Singlet-A     10.0181 eV  123.76 nm  f=0.0018  <S**2>=0.000
      16 -> 20         0.12538
      17 -> 21         0.53269
      17 -> 22        -0.38260
      18 -> 23        -0.18967
 
 Excited State  12:      Singlet-A     10.2473 eV  120.99 nm  f=0.0087  <S**2>=0.000
      17 -> 21         0.42482
      17 -> 22         0.51539
      18 -> 23         0.17991
 
 Excited State  13:      Singlet-A     10.5225 eV  117.83 nm  f=0.0005  <S**2>=0.000
      14 -> 19         0.28605
      18 -> 24         0.59399
      18 -> 25        -0.17018
 
 Excited State  14:      Singlet-A     10.5664 eV  117.34 nm  f=0.0003  <S**2>=0.000
      14 -> 19         0.60109
      16 -> 20         0.18210
      18 -> 24        -0.27735
 
 Excited State  15:      Singlet-A     10.6568 eV  116.34 nm  f=0.0039  <S**2>=0.000
      18 -> 24         0.19731
      18 -> 25         0.66310
 SavETr:  write IOETrn=   770 NScale= 10 NData=  16 NLR=1 NState=   15 LETran=     280.
 The selected state is a singlet
 CISAX will form     1 AO SS matrices at one time.
 NMat=     1 NSing=     1 JSym2X= 0.
 CISAX will form     1 AO SS matrices at one time.
 NMat=     1 NSing=     1 JSym2X= 0.
 Leave Link  914 at Tue Dec 15 16:17:56 2015, MaxMem=    33554432 cpu:        33.5
 (Enter /home/Applications/g09/g09/l1002.exe)
 Minotr:  Closed shell wavefunction.
          Computing CIS/TD-HF/TD-KS derivatives.
          Using Z-Vector for PSCF gradient.
          Skipping F1 and S1 gradient terms here.
          IDoAtm=111111111
          Frozen-core window.
          Direct CPHF calculation.
          Differentiating once with respect to electric field.
                with respect to dipole field.
          Differentiating once with respect to nuclear coordinates.
          Requested convergence is 1.0D-10 RMS, and 1.0D-09 maximum.
          NewPWx=F KeepS1=T KeepF1=T KeepIn=T MapXYZ=F SortEE=F KeepMc=T.
          MDV=      33554290 using IRadAn=       0.
 Using stored XC quadrature information.
 Keep R1 ints in memory in canonical form, NReq=1898913.
 FoFCou: FMM=F IPFlag=           0 FMFlag=           0 FMFlg1=           0
         NFxFlg=           0 DoJE=F BraDBF=F KetDBF=F FulRan=T
         wScrn=  0.000000 ICntrl=     600 IOpCl=  0 I1Cent=           0 NGrid=           0
         NMat0=    1 NMatS0=   1431 NMatT0=    0 NMatD0=    1 NMtDS0=    0 NMtDT0=    0
 Symmetry not used in FoFCou.
          Solving linear equations separately, MaxMat=       0.
          There are     1 degrees of freedom in the 1st order CPHF.  IDoFFX=0 NUNeed=     1.
 LinEq1:  Iter=  0 NonCon=     1 RMS=2.46D-02 Max=2.85D-01 NDo=     1
 AX will form     1 AO Fock derivatives at one time.
 LinEq1:  Iter=  1 NonCon=     1 RMS=9.64D-03 Max=1.19D-01 NDo=     1
 LinEq1:  Iter=  2 NonCon=     1 RMS=7.01D-03 Max=7.96D-02 NDo=     1
 LinEq1:  Iter=  3 NonCon=     1 RMS=3.11D-03 Max=4.27D-02 NDo=     1
 LinEq1:  Iter=  4 NonCon=     1 RMS=2.22D-03 Max=2.39D-02 NDo=     1
 LinEq1:  Iter=  5 NonCon=     1 RMS=6.82D-04 Max=4.93D-03 NDo=     1
 LinEq1:  Iter=  6 NonCon=     1 RMS=2.81D-04 Max=2.03D-03 NDo=     1
 LinEq1:  Iter=  7 NonCon=     1 RMS=1.74D-04 Max=2.01D-03 NDo=     1
 LinEq1:  Iter=  8 NonCon=     1 RMS=5.04D-05 Max=3.80D-04 NDo=     1
 LinEq1:  Iter=  9 NonCon=     1 RMS=5.91D-06 Max=4.63D-05 NDo=     1
 LinEq1:  Iter= 10 NonCon=     1 RMS=6.54D-07 Max=4.61D-06 NDo=     1
 LinEq1:  Iter= 11 NonCon=     1 RMS=9.76D-08 Max=6.14D-07 NDo=     1
 LinEq1:  Iter= 12 NonCon=     1 RMS=1.05D-08 Max=7.15D-08 NDo=     1
 LinEq1:  Iter= 13 NonCon=     1 RMS=1.36D-09 Max=7.03D-09 NDo=     1
 LinEq1:  Iter= 14 NonCon=     1 RMS=1.81D-10 Max=1.05D-09 NDo=     1
 LinEq1:  Iter= 15 NonCon=     0 RMS=1.99D-11 Max=1.09D-10 NDo=     1
 Linear equations converged to 1.000D-10 1.000D-09 after    15 iterations.
 End of Minotr F.D. properties file   721 does not exist.
 End of Minotr F.D. properties file   722 does not exist.
 End of Minotr F.D. properties file   788 does not exist.
 Leave Link 1002 at Tue Dec 15 16:18:05 2015, MaxMem=    33554432 cpu:         8.9
 (Enter /home/Applications/g09/g09/l601.exe)
 Copying SCF densities to generalized density rwf, IOpCl= 0 IROHF=0.

 **********************************************************************

            Population analysis using the SCF density.

 **********************************************************************

 Orbital symmetries:
       Occupied  (A) (A) (A) (A) (A) (A) (A) (A) (A) (A) (A) (A)
                 (A) (A) (A) (A) (A) (A)
       Virtual   (A) (A) (A) (A) (A) (A) (A) (A) (A) (A) (A) (A)
                 (A) (A) (A) (A) (A) (A) (A) (A) (A) (A) (A) (A)
                 (A) (A) (A) (A) (A) (A) (A) (A) (A) (A) (A)
 The electronic state is 1-A.
 Alpha  occ. eigenvalues --  -19.11606 -10.18300 -10.17467 -10.12650 -10.12511
 Alpha  occ. eigenvalues --   -1.13540  -0.78883  -0.75232  -0.60248  -0.57638
 Alpha  occ. eigenvalues --   -0.54372  -0.46900  -0.45190  -0.42231  -0.39232
 Alpha  occ. eigenvalues --   -0.34918  -0.26993  -0.22708
 Alpha virt. eigenvalues --    0.01834   0.06787   0.14427   0.15038   0.18062
 Alpha virt. eigenvalues --    0.19951   0.21138   0.23126   0.34697   0.39601
 Alpha virt. eigenvalues --    0.46389   0.68319   0.69858   0.70073   0.74122
 Alpha virt. eigenvalues --    0.76987   0.78529   0.78804   0.81152   0.83823
 Alpha virt. eigenvalues --    0.91906   0.99538   1.02715   1.04989   1.18088
 Alpha virt. eigenvalues --    1.22088   1.33753   1.36168   1.50625   1.56962
 Alpha virt. eigenvalues --    1.61444   1.74129   1.96070   2.09820   3.19742
     Molecular Orbital Coefficients:
                           1         2         3         4         5
                           O         O         O         O         O
     Eigenvalues --   -19.11606 -10.18300 -10.17467 -10.12650 -10.12511
   1 1   C  1S          0.00016  -0.00963  -0.00141   0.88435   0.43607
   2        2S          0.00065  -0.00406  -0.00030   0.09961   0.04533
   3        2PX         0.00122   0.00111  -0.00014   0.00101  -0.00002
   4        2PY         0.00068   0.00144   0.00065  -0.00151   0.00004
   5        2PZ         0.00001  -0.00002  -0.00001   0.00009   0.00008
   6        3S         -0.00541   0.02746  -0.01227  -0.09702  -0.01322
   7        3PX        -0.00434  -0.00536  -0.00135  -0.02007   0.00908
   8        3PY         0.00758  -0.01483   0.00947   0.02768   0.00055
   9        3PZ        -0.00011   0.00041  -0.00035  -0.00067  -0.00022
  10 2   C  1S         -0.00032   0.98507   0.02632   0.00789   0.00501
  11        2S         -0.00036   0.10601  -0.00021  -0.00216  -0.00153
  12        2PX         0.00173   0.00237  -0.00130  -0.00040  -0.00063
  13        2PY        -0.00200  -0.00093  -0.00049  -0.00047  -0.00135
  14        2PZ        -0.00007  -0.00023  -0.00007  -0.00002   0.00005
  15        3S          0.01777  -0.06692   0.01109   0.03260   0.00801
  16        3PX         0.01736  -0.00774   0.01683   0.01540   0.00475
  17        3PY        -0.00178  -0.01254   0.00755   0.01346   0.00606
  18        3PZ        -0.00100   0.00071   0.00003  -0.00069  -0.00028
  19 3   O  1S          0.98282   0.00031   0.00024   0.00003   0.00009
  20        2S          0.10822   0.00167   0.00176   0.00015   0.00030
  21        2PX         0.00026  -0.00015   0.00064  -0.00004  -0.00002
  22        2PY         0.00421   0.00046   0.00065  -0.00004  -0.00019
  23        2PZ         0.00037   0.00009   0.00012   0.00000   0.00005
  24        3S         -0.06259  -0.00090  -0.00036  -0.00190  -0.00492
  25        3PX        -0.00057   0.00106  -0.00079   0.00289  -0.00121
  26        3PY        -0.01394  -0.00406  -0.00341  -0.00114  -0.00180
  27        3PZ        -0.00112  -0.00061  -0.00058  -0.00004  -0.00027
  28 4   C  1S         -0.00045  -0.02734   0.98503  -0.00385   0.01044
  29        2S         -0.00072  -0.00605   0.10641   0.00106  -0.00333
  30        2PX        -0.00202   0.00128  -0.00221  -0.00018   0.00068
  31        2PY        -0.00135  -0.00076  -0.00002  -0.00002  -0.00243
  32        2PZ        -0.00009  -0.00009  -0.00036   0.00002   0.00005
  33        3S          0.01689   0.01589  -0.07406  -0.02366   0.03140
  34        3PX        -0.01541  -0.01480   0.00645   0.00873  -0.01067
  35        3PY         0.00315   0.01362  -0.01661  -0.01027   0.01852
  36        3PZ        -0.00089   0.00015   0.00130   0.00051  -0.00063
  37 5   C  1S          0.00012  -0.00068  -0.01145  -0.43660   0.88403
  38        2S          0.00040  -0.00021  -0.00555  -0.05183   0.09688
  39        2PX        -0.00091   0.00030  -0.00078   0.00112  -0.00080
  40        2PY         0.00099   0.00058   0.00279   0.00085  -0.00095
  41        2PZ         0.00000   0.00000  -0.00006  -0.00005   0.00021
  42        3S         -0.00527  -0.01528   0.03515   0.07317  -0.07445
  43        3PX         0.00487   0.00221   0.00052  -0.02592   0.00836
  44        3PY         0.00684   0.00968  -0.01944  -0.01520   0.01805
  45        3PZ        -0.00004  -0.00060   0.00050   0.00058  -0.00110
  46 6   H  1S         -0.00090  -0.00037  -0.00091   0.00139  -0.00380
  47        2S         -0.00298  -0.00117   0.00239   0.00117   0.00697
  48 7   H  1S          0.00043   0.00154  -0.00393   0.00005  -0.00029
  49        2S          0.00453   0.00789   0.00997  -0.00225   0.00542
  50 8   H  1S          0.00056  -0.00367   0.00127  -0.00021  -0.00012
  51        2S          0.00498   0.01026   0.00804   0.00423   0.00273
  52 9   H  1S         -0.00092  -0.00095  -0.00056  -0.00388  -0.00210
  53        2S         -0.00319   0.00142  -0.00173   0.00296   0.00671
                           6         7         8         9        10
                           O         O         O         O         O
     Eigenvalues --    -1.13540  -0.78883  -0.75232  -0.60248  -0.57638
   1 1   C  1S         -0.02294  -0.11761  -0.10281  -0.12072   0.02600
   2        2S          0.02160   0.12477   0.10909   0.12289  -0.02640
   3        2PX         0.00390   0.06281  -0.03032  -0.08774  -0.12866
   4        2PY        -0.02901  -0.03401  -0.05643   0.02472  -0.06979
   5        2PZ         0.00027   0.00274   0.00269   0.00343   0.00240
   6        3S          0.04396   0.24369   0.21399   0.38950  -0.07560
   7        3PX         0.02368   0.01054   0.02517  -0.01938  -0.05313
   8        3PY        -0.04118  -0.03075  -0.00674  -0.02558  -0.02267
   9        3PZ         0.00060   0.00204   0.00047   0.00372   0.00122
  10 2   C  1S         -0.07966  -0.00442  -0.15002   0.02109  -0.10790
  11        2S          0.08803   0.00880   0.16413  -0.02327   0.11924
  12        2PX         0.08822   0.00139   0.03347  -0.01868  -0.16773
  13        2PY        -0.04804   0.11463   0.00401   0.19382   0.03032
  14        2PZ        -0.00521   0.00171  -0.00810   0.00413   0.00216
  15        3S          0.06046  -0.01704   0.34543  -0.08553   0.33261
  16        3PX        -0.05578   0.00668   0.02434  -0.01037  -0.09097
  17        3PY        -0.00688   0.02166   0.03810   0.05598   0.01675
  18        3PZ         0.00185   0.00004  -0.00307   0.00154   0.00027
  19 3   O  1S         -0.21336   0.07811   0.02928  -0.00861   0.04618
  20        2S          0.19367  -0.07593  -0.02724   0.00766  -0.04622
  21        2PX        -0.00019   0.07409  -0.22833   0.24400   0.01689
  22        2PY         0.11144   0.02145   0.03913  -0.02444  -0.03076
  23        2PZ         0.00916  -0.00292  -0.00052  -0.00045   0.00007
  24        3S          0.68543  -0.28573  -0.10875   0.03586  -0.20382
  25        3PX         0.00503   0.06025  -0.19068   0.21652   0.01456
  26        3PY         0.14283   0.00678   0.02624  -0.01961  -0.03188
  27        3PZ         0.01189  -0.00234  -0.00078  -0.00044   0.00082
  28 4   C  1S         -0.06960  -0.09853   0.12577   0.00734  -0.10517
  29        2S          0.07837   0.11204  -0.13360  -0.01164   0.11556
  30        2PX        -0.08228  -0.00653   0.03577  -0.09398   0.14687
  31        2PY        -0.01672   0.11695   0.05094  -0.18976  -0.05144
  32        2PZ        -0.00484  -0.00521   0.00989  -0.00385  -0.00405
  33        3S          0.05224   0.18587  -0.32242   0.01859   0.33581
  34        3PX         0.04249  -0.00785   0.01873  -0.04986   0.07851
  35        3PY        -0.02481   0.04502  -0.02359  -0.05148  -0.01452
  36        3PZ         0.00081  -0.00270   0.00472  -0.00174  -0.00399
  37 5   C  1S         -0.02460  -0.16175   0.01110   0.10366   0.05590
  38        2S          0.02446   0.17295  -0.01339  -0.10644  -0.05473
  39        2PX        -0.01167  -0.04299  -0.05927  -0.12328   0.07867
  40        2PY        -0.02946  -0.06465   0.06091   0.03826  -0.10987
  41        2PZ         0.00052   0.00638  -0.00082  -0.00827  -0.00071
  42        3S          0.04598   0.33174  -0.00074  -0.34427  -0.18958
  43        3PX        -0.02554  -0.03183   0.00625  -0.02896   0.04334
  44        3PY        -0.03804  -0.02311  -0.01845   0.03850  -0.02534
  45        3PZ         0.00076   0.00348   0.00108  -0.00643  -0.00074
  46 6   H  1S          0.00719   0.07266  -0.00441  -0.10654  -0.06352
  47        2S          0.01583   0.01611   0.00145  -0.05664  -0.04065
  48 7   H  1S          0.01183   0.04244  -0.08073   0.00385   0.17089
  49        2S         -0.02832   0.01110  -0.02983   0.01137   0.08509
  50 8   H  1S          0.01241  -0.00485   0.08633  -0.03475   0.17141
  51        2S         -0.03204  -0.00010   0.03163  -0.02002   0.08603
  52 9   H  1S          0.00723   0.05261   0.05436   0.12834  -0.02241
  53        2S          0.01736   0.01281   0.01560   0.07162  -0.01347
                          11        12        13        14        15
                           O         O         O         O         O
     Eigenvalues --    -0.54372  -0.46900  -0.45190  -0.42231  -0.39232
   1 1   C  1S         -0.04185  -0.04438  -0.00111   0.00569   0.02710
   2        2S          0.03900   0.04791   0.00165  -0.00356  -0.02641
   3        2PX        -0.01592  -0.03591  -0.00184   0.07589  -0.31158
   4        2PY         0.20580   0.04960   0.01042  -0.26246   0.03404
   5        2PZ        -0.00108  -0.00665   0.09216   0.00099   0.00583
   6        3S          0.17356   0.14468   0.00609  -0.03483  -0.12768
   7        3PX        -0.02799  -0.01031  -0.00123   0.07772  -0.17903
   8        3PY         0.11189   0.03712   0.01006  -0.15877   0.04885
   9        3PZ         0.00037  -0.00507   0.06884  -0.00095   0.00169
  10 2   C  1S          0.02048   0.03023  -0.00271  -0.03896  -0.02072
  11        2S         -0.02589  -0.02895   0.00372   0.04525   0.02474
  12        2PX        -0.12661   0.26774   0.03028   0.11361   0.09199
  13        2PY        -0.09243  -0.03339  -0.01174   0.16043   0.10005
  14        2PZ         0.00235  -0.02347   0.19155  -0.00632  -0.00969
  15        3S         -0.03265  -0.11850   0.00432   0.13680   0.08126
  16        3PX        -0.09082   0.15492   0.02238   0.08703   0.06684
  17        3PY        -0.09177   0.00310  -0.00156   0.11135   0.13105
  18        3PZ         0.00065  -0.01641   0.17568  -0.00479  -0.00821
  19 3   O  1S         -0.05656   0.00709   0.00790   0.00936   0.00850
  20        2S          0.05624  -0.00605  -0.00764  -0.00873  -0.01239
  21        2PX        -0.02868  -0.24289  -0.01356   0.05207   0.05563
  22        2PY        -0.19206   0.06071   0.00699   0.01866   0.20566
  23        2PZ        -0.00427  -0.02290   0.39514  -0.00403  -0.00880
  24        3S          0.21814  -0.02572  -0.03231  -0.04162  -0.00018
  25        3PX        -0.02737  -0.23023  -0.01283   0.05937   0.05839
  26        3PY        -0.17722   0.05566   0.00576   0.01766   0.21194
  27        3PZ        -0.00444  -0.02260   0.39830  -0.00411  -0.00734
  28 4   C  1S          0.01519  -0.03460  -0.00714   0.03375  -0.00142
  29        2S         -0.02081   0.03658   0.00798  -0.04141   0.00364
  30        2PX         0.12388   0.24671   0.00334   0.09427  -0.06383
  31        2PY        -0.12194  -0.03022  -0.01320  -0.25284   0.04494
  32        2PZ         0.00254  -0.00605   0.18149   0.00260  -0.00504
  33        3S         -0.01367   0.11783   0.02360  -0.11798   0.01721
  34        3PX         0.07579   0.15173  -0.00621   0.07146  -0.03471
  35        3PY        -0.11161  -0.01980   0.00123  -0.15625   0.08828
  36        3PZ        -0.00083  -0.00735   0.16850   0.00069  -0.00459
  37 5   C  1S         -0.04303   0.04579   0.00557  -0.00351   0.01991
  38        2S          0.04011  -0.04886  -0.00519  -0.00058  -0.02014
  39        2PX         0.07851  -0.01402   0.00103  -0.00118   0.33672
  40        2PY         0.21056  -0.04392   0.00931   0.27364   0.04244
  41        2PZ         0.00141  -0.00843   0.09973  -0.00336   0.00950
  42        3S          0.18407  -0.15920  -0.02185   0.03397  -0.10556
  43        3PX         0.06605  -0.00870   0.00821   0.02417   0.21802
  44        3PY         0.11168  -0.03654   0.01341   0.14449   0.05382
  45        3PZ         0.00397  -0.00604   0.07332  -0.00006   0.00441
  46 6   H  1S          0.14624  -0.07729   0.00170   0.14544   0.16398
  47        2S          0.07688  -0.04711  -0.00386   0.12431   0.15531
  48 7   H  1S          0.07162   0.18313   0.01190   0.10761  -0.06370
  49        2S          0.03037   0.13083   0.01567   0.09494  -0.05343
  50 8   H  1S          0.05387  -0.19043  -0.01317  -0.05643  -0.06262
  51        2S          0.01930  -0.14098  -0.00767  -0.04888  -0.05446
  52 9   H  1S          0.13383   0.08781   0.00888  -0.19104   0.09970
  53        2S          0.07006   0.05833   0.00432  -0.15706   0.09699
                          16        17        18        19        20
                           O         O         O         V         V
     Eigenvalues --    -0.34918  -0.26993  -0.22708   0.01834   0.06787
   1 1   C  1S          0.02464   0.00326   0.00233   0.00234  -0.00532
   2        2S         -0.02215  -0.00262  -0.00397  -0.00400   0.00522
   3        2PX         0.13303   0.01923   0.00708  -0.00152   0.00244
   4        2PY         0.18303   0.01578   0.00745   0.00819  -0.00281
   5        2PZ        -0.02321   0.24269   0.25134  -0.19513  -0.32163
   6        3S         -0.14839  -0.02655   0.00272  -0.01822   0.03525
   7        3PX         0.12643   0.01747   0.01523   0.00593  -0.00966
   8        3PY         0.12472   0.01468  -0.00475   0.00949   0.00125
   9        3PZ        -0.02125   0.25713   0.27863  -0.32534  -0.60702
  10 2   C  1S         -0.01140   0.00114  -0.00520  -0.00581  -0.00224
  11        2S          0.01893  -0.00189   0.00688  -0.00007   0.00187
  12        2PX        -0.03270  -0.00719   0.01483   0.00616   0.00847
  13        2PY        -0.22523  -0.01001  -0.00295   0.00174  -0.01173
  14        2PZ        -0.00941  -0.00925   0.32568   0.34832   0.18230
  15        3S          0.01714  -0.00110   0.01527   0.06273   0.02296
  16        3PX        -0.03831  -0.00138   0.00383   0.01870   0.01799
  17        3PY        -0.05000   0.00192  -0.00474   0.00852  -0.02294
  18        3PZ        -0.00702  -0.03553   0.34724   0.52192   0.32802
  19 3   O  1S          0.06210  -0.00012  -0.00115  -0.00102  -0.00124
  20        2S         -0.06176  -0.00006   0.00126  -0.00080   0.00133
  21        2PX         0.04413   0.00211  -0.00014   0.00165   0.01489
  22        2PY         0.38816   0.02916   0.00534   0.00591  -0.00219
  23        2PZ         0.00963  -0.27785  -0.06621  -0.29309   0.02032
  24        3S         -0.23266   0.00276   0.00580   0.00994   0.00702
  25        3PX         0.04996   0.00359  -0.00493   0.00489   0.02817
  26        3PY         0.42537   0.03213   0.00589   0.00858  -0.00423
  27        3PZ         0.01212  -0.31688  -0.08021  -0.41297   0.02825
  28 4   C  1S         -0.02132  -0.00416   0.00789  -0.00580   0.00880
  29        2S          0.02700   0.00457  -0.01022  -0.00032  -0.00444
  30        2PX        -0.05667  -0.00236   0.01351   0.00531   0.00824
  31        2PY        -0.16918  -0.00658   0.00158   0.00076   0.01924
  32        2PZ        -0.01764   0.15301  -0.30606   0.29404  -0.24207
  33        3S          0.07791   0.01454  -0.02154   0.06423  -0.09223
  34        3PX        -0.00993   0.00214   0.00071   0.01162   0.01027
  35        3PY        -0.00604   0.00060   0.01354   0.00729   0.03296
  36        3PZ        -0.01347   0.11940  -0.34126   0.43729  -0.45799
  37 5   C  1S          0.01774   0.00682  -0.00171   0.00204   0.00803
  38        2S         -0.01777  -0.00811   0.00358  -0.00472  -0.00466
  39        2PX        -0.09754  -0.02028   0.00357   0.00643  -0.00728
  40        2PY         0.14162   0.01395  -0.00300   0.01075  -0.00975
  41        2PZ        -0.02585   0.32584  -0.11144  -0.13218   0.35890
  42        3S         -0.12254  -0.02770  -0.01461  -0.01142  -0.07365
  43        3PX        -0.11849  -0.02800   0.01155   0.00235  -0.02924
  44        3PY         0.10294   0.00644   0.00991   0.01197  -0.02298
  45        3PZ        -0.02574   0.34057  -0.11101  -0.23175   0.68505
  46 6   H  1S          0.01464   0.00059  -0.00212  -0.00372   0.01393
  47        2S          0.04147   0.00446  -0.00667  -0.00281   0.05600
  48 7   H  1S          0.07464   0.00639   0.00752  -0.01120   0.01410
  49        2S          0.07847   0.00806   0.01465  -0.03242   0.05939
  50 8   H  1S          0.10796   0.00960  -0.00431  -0.00679  -0.00180
  51        2S          0.11247   0.01465  -0.00924  -0.01694  -0.00311
  52 9   H  1S          0.04876   0.00258   0.00299  -0.00053  -0.00313
  53        2S          0.07247   0.00438   0.00886   0.00499  -0.01468
                          21        22        23        24        25
                           V         V         V         V         V
     Eigenvalues --     0.14427   0.15038   0.18062   0.19951   0.21138
   1 1   C  1S         -0.02715   0.05407   0.05343   0.11296  -0.02155
   2        2S          0.02822  -0.03287  -0.04901  -0.07738   0.01647
   3        2PX         0.04229   0.00044  -0.06566   0.09167  -0.25443
   4        2PY         0.00179  -0.16745   0.06940  -0.15413  -0.01430
   5        2PZ         0.00226   0.00184  -0.00182  -0.01256  -0.00544
   6        3S          0.15440  -0.69818  -0.34376  -1.38278   0.35211
   7        3PX         0.04816   0.03152  -0.09117   0.41235  -1.12134
   8        3PY         0.12259  -0.51476  -0.04032  -0.83008  -0.11646
   9        3PZ        -0.00560   0.01172  -0.00100  -0.04726  -0.00642
  10 2   C  1S          0.10406   0.03868  -0.04929  -0.02925   0.08802
  11        2S         -0.07729  -0.02411   0.03930   0.03946  -0.05238
  12        2PX         0.05206   0.10630  -0.22408   0.09749   0.08676
  13        2PY         0.16020  -0.00989   0.00818   0.07040  -0.07601
  14        2PZ         0.00936   0.00167  -0.00061  -0.00279   0.01444
  15        3S         -1.05091  -0.56434   0.67427   0.00288  -1.22515
  16        3PX         0.41047   0.23386  -0.84350   0.04964   0.27393
  17        3PY         0.50629  -0.11833   0.03509   0.18449  -0.33412
  18        3PZ         0.01390   0.00336   0.00307   0.01156   0.04359
  19 3   O  1S         -0.10319   0.03520  -0.02284   0.00055   0.04702
  20        2S          0.07469  -0.02220   0.01509  -0.00252  -0.01917
  21        2PX         0.06117  -0.05573   0.00935   0.03799  -0.18443
  22        2PY         0.12087  -0.09388   0.03453  -0.01834   0.01774
  23        2PZ         0.01220  -0.01110  -0.00011   0.00347  -0.01531
  24        3S          0.83536  -0.31524   0.20345   0.00939  -0.49231
  25        3PX         0.11159  -0.10379  -0.04745   0.01136  -0.38501
  26        3PY         0.18959  -0.17798   0.06554  -0.01617  -0.02197
  27        3PZ         0.02325  -0.02234   0.00023   0.00709  -0.03157
  28 4   C  1S          0.10222   0.02995   0.07964   0.00731  -0.02324
  29        2S         -0.08078  -0.01464  -0.06208  -0.02686   0.02576
  30        2PX         0.12747  -0.18476  -0.17601   0.11439  -0.18472
  31        2PY         0.16211   0.01908   0.11225  -0.07513  -0.15440
  32        2PZ         0.02533   0.01111   0.01682  -0.00600  -0.00930
  33        3S         -0.90318  -0.58890  -0.92856   0.31323   0.06073
  34        3PX         0.09857  -0.47378  -0.83487   0.12840  -0.53071
  35        3PY         0.53719  -0.00272   0.47937  -0.15451  -0.53469
  36        3PZ         0.05082   0.03749   0.03629  -0.04307  -0.03564
  37 5   C  1S         -0.01043   0.03591  -0.07133  -0.08429  -0.10013
  38        2S          0.01434  -0.01800   0.06630   0.06463   0.03705
  39        2PX         0.03640  -0.12785  -0.05374   0.06081   0.02388
  40        2PY         0.01802  -0.15253   0.00703   0.12677   0.09152
  41        2PZ        -0.00618  -0.01804   0.00212   0.02125   0.01537
  42        3S          0.00688  -0.54558   0.49580   0.93760   1.65797
  43        3PX         0.21833  -0.38482   0.06916   0.38984  -0.12420
  44        3PY         0.12613  -0.46734   0.31531   0.68364   0.26117
  45        3PZ        -0.02308  -0.05397  -0.00869   0.07376   0.05510
  46 6   H  1S         -0.04876   0.08934  -0.02248  -0.04482   0.05514
  47        2S         -0.34856   1.13606  -0.53082  -1.32039  -0.82067
  48 7   H  1S          0.06133   0.04832   0.07005   0.00007   0.02040
  49        2S          0.77823   0.82220   1.59815  -0.40258   0.11958
  50 8   H  1S          0.10347   0.02140  -0.04881  -0.00739  -0.02788
  51        2S          1.25133   0.55112  -1.25646   0.14520   0.74121
  52 9   H  1S         -0.02815   0.07126  -0.00003   0.05448  -0.00189
  53        2S         -0.20371   1.01970   0.08744   1.73073  -0.65714
                          26        27        28        29        30
                           V         V         V         V         V
     Eigenvalues --     0.23126   0.34697   0.39601   0.46389   0.68319
   1 1   C  1S         -0.07600   0.07786   0.00862   0.11533   0.05539
   2        2S          0.01591  -0.02208  -0.02384  -0.02397  -0.07761
   3        2PX         0.05911   0.02372  -0.21451  -0.14854   0.04113
   4        2PY         0.00900   0.22365  -0.10014   0.20537   0.23169
   5        2PZ         0.00903  -0.00740   0.01479   0.01263  -0.03192
   6        3S          1.37100  -1.21594   0.12150  -2.19948   0.04663
   7        3PX         0.54542   0.45382  -0.85533  -1.37990  -0.06624
   8        3PY        -0.20725   1.66675  -0.68677   1.64322  -0.01011
   9        3PZ         0.02239  -0.04675   0.05118  -0.01143   0.01569
  10 2   C  1S         -0.04734  -0.08833  -0.00213  -0.09230  -0.03682
  11        2S          0.04347   0.00588  -0.02501   0.03526   0.02459
  12        2PX         0.16573   0.21106   0.07422   0.22733   0.10315
  13        2PY        -0.19069   0.26539  -0.06291  -0.11394   0.18602
  14        2PZ        -0.01456  -0.01304  -0.00858   0.00089  -0.00139
  15        3S          0.29137   1.43789  -0.24235   1.44134   0.16690
  16        3PX         0.42499   1.16366   0.38022   1.30324   0.07627
  17        3PY        -0.79333   1.24833  -1.14624   0.50359  -0.05788
  18        3PZ        -0.03819  -0.06992  -0.03144  -0.07150  -0.00973
  19 3   O  1S          0.06570   0.06199   0.02494   0.00310   0.01563
  20        2S         -0.03103  -0.02562  -0.00752   0.00139  -0.06150
  21        2PX         0.22686  -0.09584   0.19878   0.26435  -0.10731
  22        2PY        -0.05648  -0.14559  -0.07782  -0.01838  -0.11751
  23        2PZ        -0.01457  -0.00277   0.00066   0.00131  -0.00389
  24        3S         -0.69493  -0.78527  -0.36202  -0.06683   0.19926
[...]
     1  C    5.242281   0.470355  -0.077433  -0.124325   0.436537  -0.031084
     2  C    0.470355   5.017283   0.282898  -0.137181  -0.114842   0.004397
     3  O   -0.077433   0.282898   8.131869   0.290802  -0.075783   0.002343
     4  C   -0.124325  -0.137181   0.290802   5.047512   0.466659  -0.027195
     5  C    0.436537  -0.114842  -0.075783   0.466659   5.227935   0.382367
     6  H   -0.031084   0.004397   0.002343  -0.027195   0.382367   0.480706
     7  H    0.002670   0.003057  -0.025828   0.389719  -0.041910  -0.000444
     8  H   -0.038222   0.381827  -0.028578   0.003623   0.002315  -0.000020
     9  H    0.383915  -0.025236   0.002166   0.004274  -0.028445  -0.000700
               7          8          9
     1  C    0.002670  -0.038222   0.383915
     2  C    0.003057   0.381827  -0.025236
     3  O   -0.025828  -0.028578   0.002166
     4  C    0.389719   0.003623   0.004274
     5  C   -0.041910   0.002315  -0.028445
     6  H   -0.000444  -0.000020  -0.000700
     7  H    0.450524  -0.000029  -0.000026
     8  H   -0.000029   0.456150   0.000085
     9  H   -0.000026   0.000085   0.480290
 Mulliken charges:
               1
     1  C   -0.264694
     2  C    0.117442
     3  O   -0.502456
     4  C    0.086113
     5  C   -0.254831
     6  H    0.189631
     7  H    0.222268
     8  H    0.222850
     9  H    0.183678
 Sum of Mulliken charges =   0.00000
 Mulliken charges with hydrogens summed into heavy atoms:
               1
     1  C   -0.081016
     2  C    0.340292
     3  O   -0.502456
     4  C    0.308381
     5  C   -0.065201
 Electronic spatial extent (au):  <R**2>=            293.4364
 Charge=              0.0000 electrons
 Dipole moment (field-independent basis, Debye):
    X=              0.0715    Y=              0.5390    Z=              0.0871  Tot=              0.5506
 Quadrupole moment (field-independent basis, Debye-Ang):
   XX=            -23.5101   YY=            -27.8309   ZZ=            -31.9110
   XY=             -0.4344   XZ=             -0.0440   YZ=              0.0413
 Traceless Quadrupole moment (field-independent basis, Debye-Ang):
   XX=              4.2406   YY=             -0.0802   ZZ=             -4.1603
   XY=             -0.4344   XZ=             -0.0440   YZ=              0.0413
 Octapole moment (field-independent basis, Debye-Ang**2):
  XXX=             -1.9419  YYY=              1.9527  ZZZ=             -0.2389  XYY=              1.3609
  XXY=             -4.5234  XXZ=              0.1357  XZZ=             -0.3489  YZZ=             -3.5073
  YYZ=              0.1327  XYZ=              0.1771
 Hexadecapole moment (field-independent basis, Debye-Ang**3):
 XXXX=           -158.1657 YYYY=           -156.6306 ZZZZ=            -31.2789 XXXY=              1.4646
 XXXZ=             -0.1757 YYYX=             -2.6786 YYYZ=              0.3762 ZZZX=             -0.0059
 ZZZY=              0.4143 XXYY=            -47.3455 XXZZ=            -39.8953 YYZZ=            -34.6706
 XXYZ=              0.4371 YYXZ=              0.0583 ZZXY=              0.5675
 N-N= 1.599643098525D+02 E-N=-8.523867948408D+02  KE= 2.268047855349D+02
 Orbital energies and kinetic energies (alpha):
                                 1                 2
   1         O               -19.116056         28.828536
   2         O               -10.182996         15.801743
   3         O               -10.174666         15.799875
   4         O               -10.126499         15.806908
   5         O               -10.125109         15.807442
   6         O                -1.135402          2.555856
   7         O                -0.788834          1.745153
   8         O                -0.752318          1.807171
   9         O                -0.602478          1.656073
  10         O                -0.576380          1.371711
  11         O                -0.543718          1.332407
  12         O                -0.468999          1.499535
  13         O                -0.451899          1.654828
  14         O                -0.422311          1.370802
  15         O                -0.392317          1.510759
  16         O                -0.349178          2.172247
  17         O                -0.269932          1.461821
  18         O                -0.227082          1.219525
  19         V                 0.018342          1.842510
  20         V                 0.067873          1.490621
  21         V                 0.144274          1.858304
  22         V                 0.150381          1.149078
  23         V                 0.180619          1.246332
  24         V                 0.199511          1.241767
  25         V                 0.211383          1.720027
  26         V                 0.231261          1.889731
  27         V                 0.346973          2.044658
  28         V                 0.396006          1.759018
  29         V                 0.463893          2.923572
  30         V                 0.683186          2.612009
  31         V                 0.698581          2.549722
  32         V                 0.700728          2.537328
  33         V                 0.741217          2.592457
  34         V                 0.769873          2.532219
  35         V                 0.785286          2.659077
  36         V                 0.788041          2.607854
  37         V                 0.811519          2.755791
  38         V                 0.838227          2.578419
  39         V                 0.919058          2.739704
  40         V                 0.995385          3.278137
  41         V                 1.027147          3.019568
  42         V                 1.049887          3.189849
  43         V                 1.180876          2.673586
  44         V                 1.220884          2.813322
  45         V                 1.337528          2.538142
  46         V                 1.361677          3.027582
  47         V                 1.506246          4.908314
  48         V                 1.569618          3.425502
  49         V                 1.614435          3.734101
  50         V                 1.741289          4.362060
  51         V                 1.960697          4.015736
  52         V                 2.098195          4.290119
  53         V                 3.197425          6.824776
 Total kinetic energy from orbitals= 2.268047855349D+02
 No NMR shielding tensors so no spin-rotation constants.
 Leave Link  601 at Tue Dec 15 16:18:05 2015, MaxMem=    33554432 cpu:         0.1
 (Enter /home/Applications/g09/g09/l701.exe)
 Compute integral first derivatives.
 ... and contract with generalized density number  6.
 Leave Link  701 at Tue Dec 15 16:18:05 2015, MaxMem=    33554432 cpu:         0.1
 (Enter /home/Applications/g09/g09/l702.exe)
 L702 exits ... SP integral derivatives will be done elsewhere.
 Leave Link  702 at Tue Dec 15 16:18:05 2015, MaxMem=    33554432 cpu:         0.0
 (Enter /home/Applications/g09/g09/l703.exe)
 Compute integral first derivatives, UseDBF=F ICtDFT=           0.
 Integral derivatives from FoFJK, PRISM(SPDF).
 Calling FoFJK, ICntrl=  10005127 FMM=F ISym2X=0 I1Cent= 0 IOpClX= 0 NMat=1 NMatS=1 NMatT=0.
 FoFJK:  IHMeth= 1 ICntrl=10005127 DoSepK=F KAlg= 0 I1Cent=   0 FoldK=F
 IRaf=         0 NMat=   1 IRICut=       1 DoRegI=T DoRafI=F ISym2E= 0.
 FoFCou: FMM=F IPFlag=           0 FMFlag=      100000 FMFlg1=         800
         NFxFlg=           0 DoJE=F BraDBF=F KetDBF=F FulRan=T
         wScrn=  0.000000 ICntrl=10005127 IOpCl=  0 I1Cent=           0 NGrid=           0
         NMat0=    1 NMatS0=      1 NMatT0=    0 NMatD0=    1 NMtDS0=    0 NMtDT0=    0
 Symmetry not used in FoFCou.
 Leave Link  703 at Tue Dec 15 16:18:07 2015, MaxMem=    33554432 cpu:         1.8
 (Enter /home/Applications/g09/g09/l716.exe)
 Dipole        =-2.52555693D-01 3.64687382D-01 1.32768671D-02
 ***** Axes restored to original set *****
 -------------------------------------------------------------------
 Center     Atomic                   Forces (Hartrees/Bohr)
 Number     Number              X              Y              Z
 -------------------------------------------------------------------
      1        6          -0.017237794    0.008767649   -0.003504120
      2        6           0.041866728   -0.044102794   -0.000143396
      3        8          -0.088924690    0.003709541    0.001295895
      4        6          -0.020189270    0.037137119   -0.004870304
      5        6           0.076217486   -0.015888560    0.005363750
      6        1           0.011632228    0.015682758   -0.001251226
      7        1          -0.013708465    0.016184360    0.001341248
      8        1          -0.008995161   -0.005594654    0.001114385
      9        1           0.019338937   -0.015895419    0.000653768
 -------------------------------------------------------------------
 Cartesian Forces:  Max     0.088924690 RMS     0.028207607
 Z-matrix is all fixed cartesians, so copy forces.
 Force constants in Cartesian coordinates: 
                1             2             3             4             5 
      1  0.820594D+00
      2 -0.848288D-01  0.718763D+00
      3  0.118441D-01  0.734436D-02  0.158017D+00
      4 -0.374764D+00 -0.716211D-01 -0.148771D-01  0.814265D+00
      5 -0.501870D-01 -0.184822D+00 -0.587517D-02 -0.503934D-01  0.970377D+00
      6 -0.128959D-01 -0.534723D-02 -0.771275D-01 -0.347356D-02  0.261679D-01
      7 -0.842714D-02  0.292391D-01  0.250707D-02 -0.308670D+00  0.201891D+00
      8 -0.561400D-02  0.196403D-01  0.624746D-03  0.245316D+00 -0.459627D+00
      9 -0.712916D-03  0.141995D-02  0.852577D-02  0.199359D-01 -0.217114D-01
     10  0.934440D-02  0.370356D-03  0.330625D-03  0.263724D-01  0.179376D-01
     11  0.334902D-01  0.123678D-02  0.298230D-02 -0.177011D-01 -0.120397D-01
     12  0.477221D-03  0.318968D-03 -0.183337D-02 -0.236237D-02 -0.167933D-02
     13 -0.156767D+00  0.158976D-01 -0.839568D-03  0.901093D-02 -0.316132D-01
     14 -0.134281D-02 -0.352055D+00 -0.362788D-02  0.306910D-03 -0.116628D-02
     15 -0.687455D-03  0.220185D-02 -0.645326D-01  0.637269D-05 -0.171358D-02
     16  0.159223D-01  0.585545D-03 -0.370078D-03 -0.530692D-05  0.000000D+00
     17 -0.240597D-01 -0.883574D-03  0.169811D-02  0.000000D+00  0.000000D+00
     18 -0.512601D-03 -0.417992D-05  0.136575D-01 -0.995319D-04 -0.101830D-05
     19  0.229318D-04  0.000000D+00 -0.460490D-03  0.351136D-04  0.152212D-05
     20  0.227275D-04  0.000000D+00 -0.456387D-03  0.359425D-05  0.000000D+00
     21 -0.334418D-03 -0.508658D-05  0.671537D-02  0.441693D-03  0.191467D-04
     22  0.728032D-02 -0.256265D-01  0.382696D-03 -0.161570D+00 -0.103996D+00
     23 -0.326607D-02  0.114974D-01 -0.178530D-03 -0.992374D-01 -0.336118D+00
     24 -0.187272D-03 -0.207364D-02  0.191612D-01  0.167658D-02  0.305325D-02
     25 -0.313206D+00  0.135983D+00  0.148279D-02 -0.467318D-02  0.163598D-01
     26  0.135785D+00 -0.213376D+00 -0.251154D-02 -0.667295D-02  0.233958D-01
     27  0.300933D-02 -0.385499D-02 -0.625836D-01 -0.124795D-02  0.174014D-02
                6             7             8             9            10 
      6  0.158483D+00
      7  0.177862D-01  0.542009D+00
      8 -0.225305D-01 -0.505122D-01  0.814981D+00
      9 -0.467943D-01 -0.348141D-01  0.235153D-02  0.612850D-01
     10 -0.270099D-02 -0.263442D+00 -0.195697D+00  0.199107D-01  0.913005D+00
     11  0.190072D-02 -0.151732D+00 -0.379539D+00  0.207197D-01 -0.453443D-01
     12 -0.956535D-03  0.161921D-01  0.201290D-01 -0.494361D-01  0.440958D-03
     13  0.501075D-04 -0.849006D-02  0.556587D-02 -0.115114D-02 -0.501142D+00
     14 -0.284469D-03 -0.299038D-01  0.197366D-01 -0.268118D-02  0.100270D+00
     15  0.468137D-03  0.275945D-02 -0.102612D-02  0.766601D-02 -0.239120D-01
     16  0.131145D-03  0.351516D-05 -0.101604D-04 -0.128128D-03 -0.470747D-02
     17  0.747062D-05 -0.211749D-04  0.612052D-04  0.771826D-03  0.690080D-02
     18  0.245964D-02 -0.190178D-03  0.549702D-03  0.693200D-02 -0.239461D-02
     19  0.407747D-03  0.229119D-01 -0.153640D-01 -0.190829D-02 -0.179457D+00
     20  0.417372D-04  0.118470D-01 -0.795195D-02 -0.111366D-02  0.115576D+00
     21  0.512904D-02 -0.219047D-02  0.170570D-02  0.406242D-02  0.789057D-02
     22  0.312248D-03  0.241022D-01  0.163086D-01 -0.102191D-02  0.277597D-04
     23 -0.255281D-03 -0.108122D-01 -0.731591D-02  0.457186D-03 -0.126600D-04
     24 -0.602037D-01 -0.196123D-02 -0.151526D-02  0.354674D-02  0.577480D-03
     25  0.383053D-03  0.231819D-05  0.754208D-05 -0.110029D-03 -0.148217D-05
     26  0.299636D-03  0.450890D-05  0.146694D-04 -0.214008D-03  0.000000D+00
     27  0.185427D-01 -0.887514D-04 -0.288746D-03  0.421244D-02 -0.142685D-03
               11            12            13            14            15 
     11  0.920525D+00
     12 -0.184331D-01  0.196780D+00
     13  0.780835D-01 -0.225110D-01  0.944557D+00
     14 -0.212049D+00  0.747526D-02  0.325678D-01  0.732211D+00
     15  0.968168D-02 -0.105661D+00  0.907612D-02 -0.166368D-01  0.193111D+00
     16 -0.165716D-01  0.157640D-02 -0.311275D+00 -0.129272D+00  0.120962D-01
     17  0.247108D-01  0.444076D-04 -0.128192D+00 -0.201173D+00  0.832151D-02
     18 -0.342044D-02  0.290216D-01  0.157361D-01  0.116054D-01 -0.788185D-01
     19  0.119774D+00  0.583460D-02  0.742565D-02  0.267601D-01  0.100519D-02
     20 -0.342845D+00 -0.771231D-02  0.382745D-02  0.136179D-01 -0.469230D-03
     21 -0.134537D-01 -0.774850D-01 -0.339929D-03  0.413144D-02  0.301299D-01
     22  0.120334D-05  0.322352D-03  0.691667D-05  0.000000D+00 -0.170925D-03
     23  0.000000D+00 -0.147010D-03 -0.304977D-05  0.000000D+00  0.753661D-04
     24  0.250329D-04  0.670583D-02 -0.149034D-03 -0.152476D-05  0.368295D-02
     25  0.000000D+00  0.297632D-04  0.166734D-01  0.613396D-03 -0.172927D-03
     26  0.000000D+00  0.417582D-05  0.238663D-01  0.877815D-03 -0.434709D-03
     27 -0.217027D-05  0.286522D-02  0.128350D-03  0.197260D-04  0.139541D-01
               16            17            18            19            20 
     16  0.300079D+00
     17  0.145283D+00  0.177196D+00
     18 -0.133021D-01 -0.952216D-02  0.426398D-01
     19 -0.148963D-04  0.897334D-04  0.805922D-03  0.149076D+00
     20 -0.147635D-04  0.889339D-04  0.798742D-03 -0.131262D+00  0.337089D+00
     21  0.217234D-03 -0.130859D-02 -0.117529D-01 -0.568467D-02  0.891111D-02
     22  0.000000D+00  0.000000D+00  0.000000D+00  0.000000D+00  0.000000D+00
     23  0.000000D+00  0.000000D+00  0.000000D+00  0.000000D+00  0.000000D+00
     24  0.000000D+00  0.000000D+00  0.000000D+00  0.000000D+00  0.000000D+00
     25 -0.229257D-05  0.000000D+00 -0.429974D-04  0.000000D+00  0.000000D+00
     26  0.000000D+00  0.000000D+00 -0.603261D-05  0.000000D+00  0.000000D+00
     27 -0.220699D-03 -0.125720D-04 -0.413924D-02  0.000000D+00  0.000000D+00
               21            22            23            24            25 
     21  0.432011D-01
     22  0.000000D+00  0.130161D+00
     23  0.000000D+00  0.113328D+00  0.331930D+00
     24  0.000000D+00 -0.126543D-03  0.181464D-03  0.336159D-01
     25  0.000000D+00 -0.789029D-05  0.347907D-05  0.170013D-03  0.301215D+00
     26  0.000000D+00 -0.153467D-04  0.676682D-05  0.330677D-03 -0.152968D+00
     27  0.000000D+00  0.302078D-03 -0.133195D-03 -0.650890D-02 -0.173967D-02
               26            27 
     26  0.189081D+00
     27  0.253180D-02  0.336573D-01
 Leave Link  716 at Tue Dec 15 16:18:07 2015, MaxMem=    33554432 cpu:         0.0
 (Enter /home/Applications/g09/g09/l103.exe)

 GradGradGradGradGradGradGradGradGradGradGradGradGradGradGradGradGradGrad
 Berny optimization.
 Search for a local minimum.
 Step number   1 out of a maximum of    2
 All quantities printed in internal units (Hartrees-Bohrs-Radians)
 Second derivative matrix not updated -- first step.
 ITU=  0
     Eigenvalues ---    0.01420   0.03061   0.07264   0.07388   0.07805
     Eigenvalues ---    0.08079   0.11616   0.12834   0.16336   0.23862
     Eigenvalues ---    0.24972   0.27282   0.35183   0.43482   0.64836
     Eigenvalues ---    0.87010   1.11354   1.31178   1.32815   1.56004
     Eigenvalues ---    1.65860
 Quadratic step=3.375D-01 exceeds max=3.000D-01 adjusted using Lamda=-1.793D-02.
 Angle between NR and scaled steps=   7.94 degrees.
 Angle between quadratic step and forces=  43.19 degrees.
 Linear search not attempted -- first point.
 TrRot= -0.007306 -0.002097 -0.006753  0.210699 -0.002888 -0.210810
 Variable       Old X    -DE/DX   Delta X   Delta X   Delta X     New X
                                 (Linear)    (Quad)   (Total)
    X1        1.88763  -0.01724   0.00000   0.03178   0.02414   1.91177
    Y1       -1.36759   0.00877   0.00000  -0.01201  -0.01436  -1.38196
    Z1        0.08150  -0.00350   0.00000  -0.01857  -0.02073   0.06076
    X2       -0.73100   0.04187   0.00000   0.00349  -0.00403  -0.73504
    Y2       -2.11312  -0.04410   0.00000  -0.03872  -0.04073  -2.15385
    Z2       -0.02478  -0.00014   0.00000   0.01745   0.00734  -0.01743
    X3       -2.12343  -0.08892   0.00000  -0.14183  -0.14927  -2.27270
    Y3       -0.04824   0.00371   0.00000  -0.01672  -0.01859  -0.06683
    Z3        0.08742   0.00130   0.00000  -0.03991  -0.05310   0.03432
    X4       -0.68875  -0.02019   0.00000  -0.02218  -0.02915  -0.71790
    Y4        2.10761   0.03714   0.00000   0.03545   0.03345   2.14106
    Z4       -0.04417  -0.00487   0.00000   0.01079   0.00333  -0.04085
    X5        1.78518   0.07622   0.00000   0.11991   0.11252   1.89769
    Y5        1.41651  -0.01589   0.00000   0.02293   0.02057   1.43708
    Z5        0.07850   0.00536   0.00000   0.00650   0.00600   0.08450
    X6        3.43907   0.01163   0.00000   0.12022   0.11322   3.55229
    Y6        2.51298   0.01568   0.00000   0.09390   0.09141   2.60439
    Z6       -0.01301  -0.00125   0.00000   0.00164   0.00652  -0.00650
    X7       -1.59161  -0.01371   0.00000  -0.07395  -0.08093  -1.67255
    Y7        3.86435   0.01618   0.00000   0.06128   0.05934   3.92369
    Z7        0.01331   0.00134   0.00000   0.02852   0.01944   0.03275
    X8       -1.55236  -0.00900   0.00000  -0.02598  -0.03379  -1.58615
    Y8       -3.94396  -0.00559   0.00000  -0.04775  -0.04968  -3.99364
    Z8       -0.02543   0.00111   0.00000   0.04861   0.03499   0.00956
    X9        3.50394   0.01934   0.00000   0.05507   0.04730   3.55124
    Y9       -2.49669  -0.01590   0.00000  -0.07888  -0.08141  -2.57811
    Z9        0.06635   0.00065   0.00000  -0.00552  -0.00378   0.06258
         Item               Value     Threshold  Converged?
 Maximum Force            0.088925     0.000450     NO 
 RMS     Force            0.028208     0.000300     NO 
 Maximum Displacement     0.149268     0.001800     NO 
 RMS     Displacement     0.057372     0.001200     NO 
 Predicted change in Energy=-1.684071D-02
 GradGradGradGradGradGradGradGradGradGradGradGradGradGradGradGradGradGrad

 Leave Link  103 at Tue Dec 15 16:18:07 2015, MaxMem=    33554432 cpu:         0.0
 (Enter /home/Applications/g09/g09/l9999.exe)
 1\1\GINC-DUSTIN-DESKTOP\Force\RB3LYP-FC\3-21G\C4H4O1\DUSTIN\15-Dec-201
 5\0\\#P B3LYP/3-21G CIS(Singlets,NStates=15) pop(full) force\\FuranDFT
 \\0,1\C,0.998891,-0.7237,0.043126\C,-0.38683,-1.118215,-0.013112\O,-1.
 123672,-0.025527,0.046263\C,-0.364473,1.115298,-0.023375\C,0.944674,0.
 749585,0.041542\H,1.819876,1.329811,-0.006885\H,-0.842245,2.044927,0.0
 07042\H,-0.821475,-2.087052,-0.013458\H,1.854206,-1.321193,0.035112\\V
 ersion=ES64L-G09RevD.01\State=1-A\HF=-228.7377476\RMSD=3.680e-09\RMSF=
 2.821e-02\Dipole=0.3340625,-0.2919863,-0.0101858\PG=C01 [X(C4H4O1)]\\@


 A MAN THINKING OR WORKING IS ALWAYS ALONE, 
 LET HIM BE WHERE HE WILL.

                                    -- THOREAU
 Job cpu time:       0 days  0 hours  0 minutes 50.9 seconds.
 File lengths (MBytes):  RWF=     14 Int=      0 D2E=      0 Chk=      3 Scr=      1
 Normal termination of Gaussian 09 at Tue Dec 15 16:18:07 2015.
