 Entering Gaussian System, Link 0=g09
 Input=FuranDFT_7.com
 Output=FuranDFT_7.log
 Initial command:
 /home/Applications/g09/g09/l1.exe "/home/Applications/g09/scratch/Gau-5478.inp" -scrdir="/home/Applications/g09/scratch/"
 Entering Link 1 = /home/Applications/g09/g09/l1.exe PID=      5480.
  
 Copyright (c) 1988,1990,1992,1993,1995,1998,2003,2009,2013,
            Gaussian, Inc.  All Rights Reserved.
  
 This is part of the Gaussian(R) 09 program.  It is based on
 the Gaussian(R) 03 system (copyright 2003, Gaussian, Inc.),
 the Gaussian(R) 98 system (copyright 1998, Gaussian, Inc.),
 the Gaussian(R) 94 system (copyright 1995, Gaussian, Inc.),
 the Gaussian 92(TM) system (copyright 1992, Gaussian, Inc.),
 the Gaussian 90(TM) system (copyright 1990, Gaussian, Inc.),
 the Gaussian 88(TM) system (copyright 1988, Gaussian, Inc.),
 the Gaussian 86(TM) system (copyright 1986, Carnegie Mellon
 University), and the Gaussian 82(TM) system (copyright 1983,
 Carnegie Mellon University). Gaussian is a federally registered
 trademark of Gaussian, Inc.
  
 This software contains proprietary and confidential information,
 including trade secrets, belonging to Gaussian, Inc.
  
 This software is provided under written license and may be
 used, copied, transmitted, or stored only in accord with that
 written license.
  
 The following legend is applicable only to US Government
 contracts under FAR:
  
                    RESTRICTED RIGHTS LEGEND
  
 Use, reproduction and disclosure by the US Government is
 subject to restrictions as set forth in subparagraphs (a)
 and (c) of the Commercial Computer Software - Restricted
 Rights clause in FAR 52.227-19.
  
 Gaussian, Inc.
 340 Quinnipiac St., Bldg. 40, Wallingford CT 06492
  
  
 ---------------------------------------------------------------
 Warning -- This program may not be used in any manner that
 competes with the business of Gaussian, Inc. or will provide
 assistance to any competitor of Gaussian, Inc.  The licensee
 of this program is prohibited from giving any competitor of
 Gaussian, Inc. access to this program.  By using this program,
 the user acknowledges that Gaussian, Inc. is engaged in the
 business of creating and licensing software in the field of
 computational chemistry and represents and warrants to the
 licensee that it is not a competitor of Gaussian, Inc. and that
 it will not use this program in any manner prohibited above.
 ---------------------------------------------------------------
  

 Cite this work as:
 Gaussian 09, Revision D.01,
 M. J. Frisch, G. W. Trucks, H. B. Schlegel, G. E. Scuseria, 
 M. A. Robb, J. R. Cheeseman, G. Scalmani, V. Barone, B. Mennucci, 
 G. A. Petersson, H. Nakatsuji, M. Caricato, X. Li, H. P. Hratchian, 
 A. F. Izmaylov, J. Bloino, G. Zheng, J. L. Sonnenberg, M. Hada, 
 M. Ehara, K. Toyota, R. Fukuda, J. Hasegawa, M. Ishida, T. Nakajima, 
 Y. Honda, O. Kitao, H. Nakai, T. Vreven, J. A. Montgomery, Jr., 
 J. E. Peralta, F. Ogliaro, M. Bearpark, J. J. Heyd, E. Brothers, 
 K. N. Kudin, V. N. Staroverov, T. Keith, R. Kobayashi, J. Normand, 
 K. Raghavachari, A. Rendell, J. C. Burant, S. S. Iyengar, J. Tomasi, 
 M. Cossi, N. Rega, J. M. Millam, M. Klene, J. E. Knox, J. B. Cross, 
 V. Bakken, C. Adamo, J. Jaramillo, R. Gomperts, R. E. Stratmann, 
 O. Yazyev, A. J. Austin, R. Cammi, C. Pomelli, J. W. Ochterski, 
 R. L. Martin, K. Morokuma, V. G. Zakrzewski, G. A. Voth, 
 P. Salvador, J. J. Dannenberg, S. Dapprich, A. D. Daniels, 
 O. Farkas, J. B. Foresman, J. V. Ortiz, J. Cioslowski, 
 and D. J. Fox, Gaussian, Inc., Wallingford CT, 2013.
 
 ******************************************
 Gaussian 09:  ES64L-G09RevD.01 24-Apr-2013
                15-Dec-2015 
 ******************************************
 -------------------------------------------------------
 #P B3LYP/3-21G CIS(Singlets,NStates=15) pop(full) force
 -------------------------------------------------------
 1/10=7,30=1,38=1/1,3;
 2/12=2,17=6,18=5,40=1/2;
 3/5=5,11=9,16=1,25=1,30=1,71=1,74=-5/1,2,8,3;
 4//1;
 5/5=2,38=5/2;
 8/6=1,10=1,108=15/1;
 9/15=2,41=15,42=1,48=1/14;
 10/5=4/2;
 6/7=3,18=1/1;
 7/12=6,13=5,29=1/1,2,3,16;
 1/10=7,30=1/3;
 99//99;
 Leave Link    1 at Tue Dec 15 16:11:17 2015, MaxMem=           0 cpu:         0.0
 (Enter /home/Applications/g09/g09/l101.exe)
 --------
 FuranDFT
 --------
 Symbolic Z-matrix:
 Charge =  0 Multiplicity = 1
 6                     0.99037  -0.7063    0.0349 
 6                    -0.39467  -1.04827  -0.04484 
 8                    -1.16843   0.0071   -0.01214 
 6                    -0.37911   1.08197  -0.01162 
 6                     0.98665   0.73764   0.00763 
 1                     1.85658   1.33093  -0.04617 
 1                    -0.88505   2.02457  -0.03938 
 1                    -0.81658  -2.05926  -0.03863 
 1                     1.7845   -1.37448  -0.03139 
 
 NAtoms=      9 NQM=        9 NQMF=       0 NMMI=      0 NMMIF=      0
                NMic=       0 NMicF=      0.
                    Isotopes and Nuclear Properties:
 (Nuclear quadrupole moments (NQMom) in fm**2, nuclear magnetic moments (NMagM)
  in nuclear magnetons)

  Atom         1           2           3           4           5           6           7           8           9
 IAtWgt=          12          12          16          12          12           1           1           1           1
 AtmWgt=  12.0000000  12.0000000  15.9949146  12.0000000  12.0000000   1.0078250   1.0078250   1.0078250   1.0078250
 NucSpn=           0           0           0           0           0           1           1           1           1
 AtZEff=   0.0000000   0.0000000   0.0000000   0.0000000   0.0000000   0.0000000   0.0000000   0.0000000   0.0000000
 NQMom=    0.0000000   0.0000000   0.0000000   0.0000000   0.0000000   0.0000000   0.0000000   0.0000000   0.0000000
 NMagM=    0.0000000   0.0000000   0.0000000   0.0000000   0.0000000   2.7928460   2.7928460   2.7928460   2.7928460
 AtZNuc=   6.0000000   6.0000000   8.0000000   6.0000000   6.0000000   1.0000000   1.0000000   1.0000000   1.0000000
 Leave Link  101 at Tue Dec 15 16:11:17 2015, MaxMem=    33554432 cpu:         0.0
 (Enter /home/Applications/g09/g09/l103.exe)

 GradGradGradGradGradGradGradGradGradGradGradGradGradGradGradGradGradGrad
 Berny optimization.
 Initialization pass.
 Trust Radius=3.00D-01 FncErr=1.00D-07 GrdErr=1.00D-07
 Number of steps in this run=      2 maximum allowed number of steps=      2.
 GradGradGradGradGradGradGradGradGradGradGradGradGradGradGradGradGradGrad

 Leave Link  103 at Tue Dec 15 16:11:17 2015, MaxMem=    33554432 cpu:         0.0
 (Enter /home/Applications/g09/g09/l202.exe)
                          Input orientation:                          
 ---------------------------------------------------------------------
 Center     Atomic      Atomic             Coordinates (Angstroms)
 Number     Number       Type             X           Y           Z
 ---------------------------------------------------------------------
      1          6           0        0.990371   -0.706295    0.034904
      2          6           0       -0.394667   -1.048267   -0.044838
      3          8           0       -1.168427    0.007096   -0.012138
      4          6           0       -0.379112    1.081969   -0.011616
      5          6           0        0.986653    0.737637    0.007625
      6          1           0        1.856579    1.330928   -0.046174
      7          1           0       -0.885046    2.024566   -0.039375
      8          1           0       -0.816576   -2.059261   -0.038634
      9          1           0        1.784504   -1.374484   -0.031393
 ---------------------------------------------------------------------
                    Distance matrix (angstroms):
                    1          2          3          4          5
     1  C    0.000000
     2  C    1.428858   0.000000
     3  O    2.274104   1.309032   0.000000
     4  C    2.252895   2.130552   1.333556   0.000000
     5  C    1.444194   2.258373   2.275621   1.408634   0.000000
     6  H    2.215213   3.275466   3.302174   2.249775   1.054353
     7  H    3.313655   3.111720   2.037457   1.070154   2.271927
     8  H    2.258535   1.095516   2.096266   3.171661   3.328125
     9  H    1.039961   2.203494   3.260205   3.273498   2.258128
                    6          7          8          9
     6  H    0.000000
     7  H    2.828018   0.000000
     8  H    4.317314   4.084401   0.000000
     9  H    2.706412   4.322048   2.689719   0.000000
 Stoichiometry    C4H4O
 Framework group  C1[X(C4H4O)]
 Deg. of freedom    21
 Full point group                 C1      NOp   1
 Largest Abelian subgroup         C1      NOp   1
 Largest concise Abelian subgroup C1      NOp   1
                         Standard orientation:                         
 ---------------------------------------------------------------------
 Center     Atomic      Atomic             Coordinates (Angstroms)
 Number     Number       Type             X           Y           Z
 ---------------------------------------------------------------------
      1          6           0        0.956267    0.768817   -0.033050
      2          6           0       -0.446032    1.036165    0.027912
      3          8           0       -1.161625   -0.059223   -0.012288
      4          6           0       -0.315899   -1.090225   -0.000004
      5          6           0        1.029584   -0.673188   -0.002364
      6          1           0        1.929279   -1.218888    0.064128
      7          1           0       -0.770907   -2.058547    0.023451
      8          1           0       -0.921401    2.023070    0.013819
      9          1           0        1.712513    1.478739    0.041936
 ---------------------------------------------------------------------
 Rotational constants (GHZ):      9.7452024      8.8660741      4.6450648
 Leave Link  202 at Tue Dec 15 16:11:17 2015, MaxMem=    33554432 cpu:         0.0
 (Enter /home/Applications/g09/g09/l301.exe)
 Standard basis: 3-21G (6D, 7F)
 Ernie: Thresh=  0.10000D-02 Tol=  0.10000D-05 Strict=F.
 There are    53 symmetry adapted cartesian basis functions of A   symmetry.
 There are    53 symmetry adapted basis functions of A   symmetry.
    53 basis functions,    87 primitive gaussians,    53 cartesian basis functions
    18 alpha electrons       18 beta electrons
       nuclear repulsion energy       160.5924072751 Hartrees.
 IExCor=  402 DFT=T Ex+Corr=B3LYP ExCW=0 ScaHFX=  0.200000
 ScaDFX=  0.800000  0.720000  1.000000  0.810000 ScalE2=  1.000000  1.000000
 IRadAn=      0 IRanWt=     -1 IRanGd=            0 ICorTp=0 IEmpDi=  4
 NAtoms=    9 NActive=    9 NUniq=    9 SFac= 1.00D+00 NAtFMM=   60 NAOKFM=F Big=F
 Integral buffers will be    131072 words long.
 Regular integral format.
 Two-electron integral symmetry is turned on.
 Leave Link  301 at Tue Dec 15 16:11:17 2015, MaxMem=    33554432 cpu:         0.0
 (Enter /home/Applications/g09/g09/l302.exe)
 NPDir=0 NMtPBC=     1 NCelOv=     1 NCel=       1 NClECP=     1 NCelD=      1
         NCelK=      1 NCelE2=     1 NClLst=     1 CellRange=     0.0.
 One-electron integrals computed using PRISM.
 NBasis=    53 RedAO= T EigKep=  3.94D-03  NBF=    53
 NBsUse=    53 1.00D-06 EigRej= -1.00D+00 NBFU=    53
 Precomputing XC quadrature grid using
 IXCGrd= 4 IRadAn=           0 IRanWt=          -1 IRanGd=           0 AccXCQ= 0.00D+00.
 Generated NRdTot=       0 NPtTot=           0 NUsed=           0 NTot=          32
 NSgBfM=    53    53    53    53    53 MxSgAt=     9 MxSgA2=     9.
 Leave Link  302 at Tue Dec 15 16:11:18 2015, MaxMem=    33554432 cpu:         0.1
 (Enter /home/Applications/g09/g09/l308.exe)
 Leave Link  308 at Tue Dec 15 16:11:18 2015, MaxMem=    33554432 cpu:         0.0
 (Enter /home/Applications/g09/g09/l303.exe)
 DipDrv:  MaxL=1.
 Leave Link  303 at Tue Dec 15 16:11:18 2015, MaxMem=    33554432 cpu:         0.0
 (Enter /home/Applications/g09/g09/l401.exe)
 ExpMin= 1.83D-01 ExpMax= 3.22D+02 ExpMxC= 3.22D+02 IAcc=1 IRadAn=         1 AccDes= 0.00D+00
 Harris functional with IExCor=  402 and IRadAn=       1 diagonalized for initial guess.
 HarFok:  IExCor=  402 AccDes= 0.00D+00 IRadAn=         1 IDoV= 1 UseB2=F ITyADJ=14
 ICtDFT=  3500011 ScaDFX=  1.000000  1.000000  1.000000  1.000000
 FoFCou: FMM=F IPFlag=           0 FMFlag=      100000 FMFlg1=           0
         NFxFlg=           0 DoJE=T BraDBF=F KetDBF=T FulRan=T
         wScrn=  0.000000 ICntrl=     500 IOpCl=  0 I1Cent=   200000004 NGrid=           0
         NMat0=    1 NMatS0=      1 NMatT0=    0 NMatD0=    1 NMtDS0=    0 NMtDT0=    0
 Petite list used in FoFCou.
 Harris En= -228.719649878650    
 JPrj=0 DoOrth=F DoCkMO=F.
 Leave Link  401 at Tue Dec 15 16:11:18 2015, MaxMem=    33554432 cpu:         0.2
 (Enter /home/Applications/g09/g09/l502.exe)
 Closed shell SCF:
 Using DIIS extrapolation, IDIIS=  1040.
 Integral symmetry usage will be decided dynamically.
 Keep R1 ints in memory in canonical form, NReq=1925595.
 IVT=       27707 IEndB=       27707 NGot=    33554432 MDV=    32502130
 LenX=    32502130 LenY=    32498880
 Requested convergence on RMS density matrix=1.00D-08 within 128 cycles.
 Requested convergence on MAX density matrix=1.00D-06.
 Requested convergence on             energy=1.00D-06.
 No special actions if energy rises.
 FoFCou: FMM=F IPFlag=           0 FMFlag=           0 FMFlg1=           0
         NFxFlg=           0 DoJE=F BraDBF=F KetDBF=F FulRan=T
         wScrn=  0.000000 ICntrl=     600 IOpCl=  0 I1Cent=           0 NGrid=           0
         NMat0=    1 NMatS0=   1431 NMatT0=    0 NMatD0=    1 NMtDS0=    0 NMtDT0=    0
 Symmetry not used in FoFCou.
 Integral accuracy reduced to 1.0D-05 until final iterations.

 Cycle   1  Pass 0  IDiag  1:
 E= -228.657905790435    
 DIIS: error= 3.16D-02 at cycle   1 NSaved=   1.
 NSaved= 1 IEnMin= 1 EnMin= -228.657905790435     IErMin= 1 ErrMin= 3.16D-02
 ErrMax= 3.16D-02  0.00D+00 EMaxC= 1.00D-01 BMatC= 7.22D-02 BMatP= 7.22D-02
 IDIUse=3 WtCom= 6.84D-01 WtEn= 3.16D-01
 Coeff-Com:  0.100D+01
 Coeff-En:   0.100D+01
 Coeff:      0.100D+01
 Gap=     0.214 Goal=   None    Shift=    0.000
 GapD=    0.214 DampG=1.000 DampE=0.500 DampFc=0.5000 IDamp=-1.
 Damping current iteration by 5.00D-01
 RMSDP=1.23D-02 MaxDP=1.07D-01              OVMax= 2.16D-01

 Cycle   2  Pass 0  IDiag  1:
 E= -228.683427020882     Delta-E=       -0.025521230448 Rises=F Damp=T
 DIIS: error= 1.59D-02 at cycle   2 NSaved=   2.
 NSaved= 2 IEnMin= 2 EnMin= -228.683427020882     IErMin= 2 ErrMin= 1.59D-02
 ErrMax= 1.59D-02  0.00D+00 EMaxC= 1.00D-01 BMatC= 1.09D-02 BMatP= 7.22D-02
 IDIUse=3 WtCom= 8.41D-01 WtEn= 1.59D-01
 Coeff-Com:  0.160D+00 0.840D+00
 Coeff-En:   0.275D+00 0.725D+00
 Coeff:      0.179D+00 0.821D+00
 Gap=     0.231 Goal=   None    Shift=    0.000
 RMSDP=4.24D-03 MaxDP=3.49D-02 DE=-2.55D-02 OVMax= 1.86D-01

 Cycle   3  Pass 0  IDiag  1:
 E= -228.725016098393     Delta-E=       -0.041589077511 Rises=F Damp=F
 DIIS: error= 1.78D-02 at cycle   3 NSaved=   3.
 NSaved= 3 IEnMin= 3 EnMin= -228.725016098393     IErMin= 2 ErrMin= 1.59D-02
 ErrMax= 1.78D-02  0.00D+00 EMaxC= 1.00D-01 BMatC= 1.04D-02 BMatP= 1.09D-02
 IDIUse=3 WtCom= 8.22D-01 WtEn= 1.78D-01
 Coeff-Com:  0.362D-02 0.492D+00 0.504D+00
 Coeff-En:   0.000D+00 0.000D+00 0.100D+01
 Coeff:      0.298D-02 0.405D+00 0.592D+00
 Gap=     0.237 Goal=   None    Shift=    0.000
 RMSDP=2.68D-03 MaxDP=2.14D-02 DE=-4.16D-02 OVMax= 5.20D-02

 Cycle   4  Pass 0  IDiag  1:
 E= -228.733007306665     Delta-E=       -0.007991208272 Rises=F Damp=F
 DIIS: error= 8.79D-03 at cycle   4 NSaved=   4.
 NSaved= 4 IEnMin= 4 EnMin= -228.733007306665     IErMin= 4 ErrMin= 8.79D-03
 ErrMax= 8.79D-03  0.00D+00 EMaxC= 1.00D-01 BMatC= 2.01D-03 BMatP= 1.04D-02
 IDIUse=3 WtCom= 9.12D-01 WtEn= 8.79D-02
 Coeff-Com:  0.996D-02 0.430D-01 0.309D+00 0.638D+00
 Coeff-En:   0.000D+00 0.000D+00 0.182D+00 0.818D+00
 Coeff:      0.908D-02 0.393D-01 0.298D+00 0.654D+00
 Gap=     0.242 Goal=   None    Shift=    0.000
 RMSDP=8.45D-04 MaxDP=8.08D-03 DE=-7.99D-03 OVMax= 1.78D-02

 Cycle   5  Pass 0  IDiag  1:
 E= -228.734719534552     Delta-E=       -0.001712227886 Rises=F Damp=F
 DIIS: error= 1.42D-03 at cycle   5 NSaved=   5.
 NSaved= 5 IEnMin= 5 EnMin= -228.734719534552     IErMin= 5 ErrMin= 1.42D-03
 ErrMax= 1.42D-03  0.00D+00 EMaxC= 1.00D-01 BMatC= 7.91D-05 BMatP= 2.01D-03
 IDIUse=3 WtCom= 9.86D-01 WtEn= 1.42D-02
 Coeff-Com:  0.637D-02 0.203D-02 0.148D+00 0.385D+00 0.458D+00
 Coeff-En:   0.000D+00 0.000D+00 0.000D+00 0.000D+00 0.100D+01
 Coeff:      0.628D-02 0.200D-02 0.146D+00 0.379D+00 0.466D+00
 Gap=     0.241 Goal=   None    Shift=    0.000
 RMSDP=1.20D-04 MaxDP=1.30D-03 DE=-1.71D-03 OVMax= 2.53D-03

 Cycle   6  Pass 0  IDiag  1:
 E= -228.734775985471     Delta-E=       -0.000056450919 Rises=F Damp=F
 DIIS: error= 1.26D-04 at cycle   6 NSaved=   6.
 NSaved= 6 IEnMin= 6 EnMin= -228.734775985471     IErMin= 6 ErrMin= 1.26D-04
 ErrMax= 1.26D-04  0.00D+00 EMaxC= 1.00D-01 BMatC= 7.71D-07 BMatP= 7.91D-05
 IDIUse=3 WtCom= 9.99D-01 WtEn= 1.26D-03
 Coeff-Com:  0.147D-02-0.462D-02 0.810D-02 0.401D-01 0.120D+00 0.835D+00
 Coeff-En:   0.000D+00 0.000D+00 0.000D+00 0.000D+00 0.000D+00 0.100D+01
 Coeff:      0.146D-02-0.462D-02 0.809D-02 0.401D-01 0.120D+00 0.835D+00
 Gap=     0.241 Goal=   None    Shift=    0.000
 RMSDP=2.33D-05 MaxDP=2.14D-04 DE=-5.65D-05 OVMax= 3.95D-04

 Cycle   7  Pass 0  IDiag  1:
 E= -228.734776799302     Delta-E=       -0.000000813831 Rises=F Damp=F
 DIIS: error= 1.36D-05 at cycle   7 NSaved=   7.
 NSaved= 7 IEnMin= 7 EnMin= -228.734776799302     IErMin= 7 ErrMin= 1.36D-05
 ErrMax= 1.36D-05  0.00D+00 EMaxC= 1.00D-01 BMatC= 5.78D-09 BMatP= 7.71D-07
 IDIUse=1 WtCom= 1.00D+00 WtEn= 0.00D+00
 Coeff-Com:  0.102D-03-0.330D-03-0.396D-03-0.113D-02-0.810D-03 0.431D-01
 Coeff-Com:  0.959D+00
 Coeff:      0.102D-03-0.330D-03-0.396D-03-0.113D-02-0.810D-03 0.431D-01
 Coeff:      0.959D+00
 Gap=     0.241 Goal=   None    Shift=    0.000
 RMSDP=3.11D-06 MaxDP=3.13D-05 DE=-8.14D-07 OVMax= 7.28D-05

 Initial convergence to 1.0D-05 achieved.  Increase integral accuracy.
 Cycle   8  Pass 1  IDiag  1:
 E= -228.734814769727     Delta-E=       -0.000037970425 Rises=F Damp=F
 DIIS: error= 1.54D-05 at cycle   1 NSaved=   1.
 NSaved= 1 IEnMin= 1 EnMin= -228.734814769727     IErMin= 1 ErrMin= 1.54D-05
 ErrMax= 1.54D-05  0.00D+00 EMaxC= 1.00D-01 BMatC= 1.19D-08 BMatP= 1.19D-08
 IDIUse=1 WtCom= 1.00D+00 WtEn= 0.00D+00
 Coeff-Com:  0.100D+01
 Coeff:      0.100D+01
 Gap=     0.241 Goal=   None    Shift=    0.000
 RMSDP=3.11D-06 MaxDP=3.13D-05 DE=-3.80D-05 OVMax= 7.18D-05

 Cycle   9  Pass 1  IDiag  1:
 E= -228.734814773839     Delta-E=       -0.000000004112 Rises=F Damp=F
 DIIS: error= 1.32D-05 at cycle   2 NSaved=   2.
 NSaved= 2 IEnMin= 2 EnMin= -228.734814773839     IErMin= 2 ErrMin= 1.32D-05
 ErrMax= 1.32D-05  0.00D+00 EMaxC= 1.00D-01 BMatC= 1.04D-08 BMatP= 1.19D-08
 IDIUse=1 WtCom= 1.00D+00 WtEn= 0.00D+00
 Coeff-Com:  0.480D+00 0.520D+00
 Coeff:      0.480D+00 0.520D+00
 Gap=     0.241 Goal=   None    Shift=    0.000
 RMSDP=2.88D-06 MaxDP=2.58D-05 DE=-4.11D-09 OVMax= 6.96D-05

 Cycle  10  Pass 1  IDiag  1:
 E= -228.734814783531     Delta-E=       -0.000000009692 Rises=F Damp=F
 DIIS: error= 5.59D-06 at cycle   3 NSaved=   3.
 NSaved= 3 IEnMin= 3 EnMin= -228.734814783531     IErMin= 3 ErrMin= 5.59D-06
 ErrMax= 5.59D-06  0.00D+00 EMaxC= 1.00D-01 BMatC= 1.58D-09 BMatP= 1.04D-08
 IDIUse=1 WtCom= 1.00D+00 WtEn= 0.00D+00
 Coeff-Com:  0.693D-03 0.276D+00 0.723D+00
 Coeff:      0.693D-03 0.276D+00 0.723D+00
 Gap=     0.241 Goal=   None    Shift=    0.000
 RMSDP=8.64D-07 MaxDP=9.49D-06 DE=-9.69D-09 OVMax= 2.42D-05

 Cycle  11  Pass 1  IDiag  1:
 E= -228.734814785022     Delta-E=       -0.000000001491 Rises=F Damp=F
 DIIS: error= 1.78D-06 at cycle   4 NSaved=   4.
 NSaved= 4 IEnMin= 4 EnMin= -228.734814785022     IErMin= 4 ErrMin= 1.78D-06
 ErrMax= 1.78D-06  0.00D+00 EMaxC= 1.00D-01 BMatC= 1.81D-10 BMatP= 1.58D-09
 IDIUse=1 WtCom= 1.00D+00 WtEn= 0.00D+00
 Coeff-Com: -0.165D-01 0.152D+00 0.444D+00 0.421D+00
 Coeff:     -0.165D-01 0.152D+00 0.444D+00 0.421D+00
 Gap=     0.241 Goal=   None    Shift=    0.000
 RMSDP=2.60D-07 MaxDP=3.67D-06 DE=-1.49D-09 OVMax= 6.25D-06

 Cycle  12  Pass 1  IDiag  1:
 E= -228.734814785199     Delta-E=       -0.000000000177 Rises=F Damp=F
 DIIS: error= 2.80D-07 at cycle   5 NSaved=   5.
 NSaved= 5 IEnMin= 5 EnMin= -228.734814785199     IErMin= 5 ErrMin= 2.80D-07
 ErrMax= 2.80D-07  0.00D+00 EMaxC= 1.00D-01 BMatC= 2.87D-12 BMatP= 1.81D-10
 IDIUse=1 WtCom= 1.00D+00 WtEn= 0.00D+00
 Coeff-Com: -0.597D-02 0.505D-01 0.150D+00 0.180D+00 0.625D+00
 Coeff:     -0.597D-02 0.505D-01 0.150D+00 0.180D+00 0.625D+00
 Gap=     0.241 Goal=   None    Shift=    0.000
 RMSDP=5.50D-08 MaxDP=4.73D-07 DE=-1.77D-10 OVMax= 1.17D-06

 Cycle  13  Pass 1  IDiag  1:
 E= -228.734814785202     Delta-E=       -0.000000000003 Rises=F Damp=F
 DIIS: error= 1.69D-07 at cycle   6 NSaved=   6.
 NSaved= 6 IEnMin= 6 EnMin= -228.734814785202     IErMin= 6 ErrMin= 1.69D-07
 ErrMax= 1.69D-07  0.00D+00 EMaxC= 1.00D-01 BMatC= 1.41D-12 BMatP= 2.87D-12
 IDIUse=1 WtCom= 1.00D+00 WtEn= 0.00D+00
 Coeff-Com: -0.253D-02 0.133D-01 0.424D-01 0.657D-01 0.428D+00 0.453D+00
 Coeff:     -0.253D-02 0.133D-01 0.424D-01 0.657D-01 0.428D+00 0.453D+00
 Gap=     0.241 Goal=   None    Shift=    0.000
 RMSDP=2.15D-08 MaxDP=2.58D-07 DE=-2.56D-12 OVMax= 4.83D-07

 Cycle  14  Pass 1  IDiag  1:
 E= -228.734814785204     Delta-E=       -0.000000000002 Rises=F Damp=F
 DIIS: error= 1.85D-08 at cycle   7 NSaved=   7.
 NSaved= 7 IEnMin= 7 EnMin= -228.734814785204     IErMin= 7 ErrMin= 1.85D-08
 ErrMax= 1.85D-08  0.00D+00 EMaxC= 1.00D-01 BMatC= 2.42D-14 BMatP= 1.41D-12
 IDIUse=1 WtCom= 1.00D+00 WtEn= 0.00D+00
 Coeff-Com: -0.311D-03 0.177D-03 0.219D-02 0.848D-02 0.129D+00 0.169D+00
 Coeff-Com:  0.692D+00
 Coeff:     -0.311D-03 0.177D-03 0.219D-02 0.848D-02 0.129D+00 0.169D+00
 Coeff:      0.692D+00
 Gap=     0.241 Goal=   None    Shift=    0.000
 RMSDP=4.03D-09 MaxDP=3.49D-08 DE=-1.65D-12 OVMax= 6.89D-08

 SCF Done:  E(RB3LYP) =  -228.734814785     A.U. after   14 cycles
            NFock= 14  Conv=0.40D-08     -V/T= 2.0084
 KE= 2.268371297174D+02 PE=-8.535074341130D+02 EE= 2.373430823352D+02
 Leave Link  502 at Tue Dec 15 16:11:22 2015, MaxMem=    33554432 cpu:         4.4
 (Enter /home/Applications/g09/g09/l801.exe)
 DoSCS=F DFT=T ScalE2(SS,OS)=  1.000000  1.000000
 ExpMin= 1.83D-01 ExpMax= 3.22D+02 ExpMxC= 3.22D+02 IAcc=3 IRadAn=         5 AccDes= 0.00D+00
 HarFok:  IExCor=  205 AccDes= 0.00D+00 IRadAn=         5 IDoV=-2 UseB2=F ITyADJ=14
 ICtDFT= 12500011 ScaDFX=  1.000000  1.000000  1.000000  1.000000
 Largest valence mixing into a core orbital is  1.78D-04
 Largest core mixing into a valence orbital is  4.29D-05
 Range of M.O.s used for correlation:     6    53
 NBasis=    53 NAE=    18 NBE=    18 NFC=     5 NFV=     0
 NROrb=     48 NOA=    13 NOB=    13 NVA=    35 NVB=    35
 Leave Link  801 at Tue Dec 15 16:11:22 2015, MaxMem=    33554432 cpu:         0.2
 (Enter /home/Applications/g09/g09/l914.exe)
 RHF ground state
 MDV=    33554432 DFT=T DoStab=F Mixed=T DoRPA=F DoScal=F NonHer=F
 Keep R1, R2, and R3 ints in memory in canonical form, NReq=5596273.
 FoFCou: FMM=F IPFlag=           0 FMFlag=           0 FMFlg1=           0
         NFxFlg=           0 DoJE=F BraDBF=F KetDBF=F FulRan=T
         wScrn=  0.000000 ICntrl=     600 IOpCl=  0 I1Cent=           0 NGrid=           0
         NMat0=    1 NMatS0=   1431 NMatT0=    0 NMatD0=    1 NMtDS0=    0 NMtDT0=    0
 Symmetry not used in FoFCou.
 Making orbital integer symmetry assigments:
 Orbital symmetries:
       Occupied  (A) (A) (A) (A) (A) (A) (A) (A) (A) (A) (A) (A)
                 (A) (A) (A) (A) (A) (A)
       Virtual   (A) (A) (A) (A) (A) (A) (A) (A) (A) (A) (A) (A)
                 (A) (A) (A) (A) (A) (A) (A) (A) (A) (A) (A) (A)
                 (A) (A) (A) (A) (A) (A) (A) (A) (A) (A) (A)
    60 initial guesses have been made.
 Convergence on wavefunction:    0.000001000000000
 Davidson Disk Diagonalization:  ConvIn= 1.00D-06 SkipCon=T Conv= 1.00D-06.
 Max sub-space:   240 roots to seek:    60 dimension of matrix:          910
 Iteration     1 Dimension    60 NMult     0 NNew     60
 CISAX will form    60 AO SS matrices at one time.
 NMat=    60 NSing=    60 JSym2X= 0.
 New state      1 was old state      2
 New state      2 was old state      1
 New state      3 was old state      5
 New state      4 was old state      7
 New state      5 was old state      6
 New state      6 was old state      8
 New state      7 was old state     11
 New state      8 was old state      4
 New state      9 was old state     12
 New state     10 was old state      9
 New state     11 was old state     13
 New state     12 was old state     10
 New state     13 was old state     14
 New state     14 was old state      3
 Excitation Energies [eV] at current iteration:
 Root      1 :     6.961209854658175
 Root      2 :     7.966905105975281
 Root      3 :     8.735519399086504
 Root      4 :     8.745165669209896
 Root      5 :     9.127672642008053
 Root      6 :     9.741338091136818
 Root      7 :     9.841173200415152
 Root      8 :    10.007883493459400
 Root      9 :    10.132282258182550
 Root     10 :    10.180932778637750
 Root     11 :    10.304920757028790
 Root     12 :    10.370932471299580
 Root     13 :    10.577019144461740
 Root     14 :    10.685374170425550
 Root     15 :    10.921515699297510
 Root     16 :    11.101220773054920
 Root     17 :    11.308374903467900
 Root     18 :    11.348223291462170
 Root     19 :    11.436213602672810
 Root     20 :    11.644584283036550
 Root     21 :    11.798552921891040
 Root     22 :    12.240056272523440
 Root     23 :    12.547548425500480
 Root     24 :    12.636053447827040
 Root     25 :    12.852529063917720
 Root     26 :    13.163817865396350
 Root     27 :    13.599643101955650
 Root     28 :    13.689687173307810
 Root     29 :    13.883553722515330
 Root     30 :    13.982609715558180
 Root     31 :    14.076709116271690
 Root     32 :    14.092016269116580
 Root     33 :    14.147348981012450
 Root     34 :    14.281234979648810
 Root     35 :    14.405221095018270
 Root     36 :    14.901012130129530
 Root     37 :    15.026851112442500
 Root     38 :    15.088133282529730
 Root     39 :    15.188800704371920
 Root     40 :    15.228370558566730
 Root     41 :    15.373858539104300
 Root     42 :    15.404156414607060
 Root     43 :    15.431017796247140
 Root     44 :    15.469560348451590
 Root     45 :    15.565504229753310
 Root     46 :    15.621208784862140
 Root     47 :    15.689346599679280
 Root     48 :    15.761378217037150
 Root     49 :    15.874167550841350
 Root     50 :    15.982096211109880
 Root     51 :    16.022243893187530
 Root     52 :    16.067864072620100
 Root     53 :    16.272287273914050
 Root     54 :    16.369476750879430
 Root     55 :    16.418926049730040
 Root     56 :    16.865636974333750
 Root     57 :    17.101782581810630
 Root     58 :    17.293609548289070
 Root     59 :    17.704806632226560
 Root     60 :    17.750394345676560
 Iteration     2 Dimension   120 NMult    60 NNew     60
 CISAX will form    60 AO SS matrices at one time.
 NMat=    60 NSing=    60 JSym2X= 0.
 Root      1 not converged, maximum delta is    0.087384681068151
 Root      2 not converged, maximum delta is    0.071306860321541
 New state      3 was old state      4
 Root      3 not converged, maximum delta is    0.229348498644381
 New state      4 was old state      3
 Root      4 not converged, maximum delta is    0.235510178678425
 Root      5 not converged, maximum delta is    0.111248381722339
 New state      6 was old state      8
 Root      6 not converged, maximum delta is    0.368337908943078
 New state      7 was old state     14
 Root      7 not converged, maximum delta is    0.352463631047150
 New state      8 was old state      6
 Root      8 not converged, maximum delta is    0.110814945485013
 New state      9 was old state      7
 Root      9 not converged, maximum delta is    0.453501495348347
 Root     10 not converged, maximum delta is    0.453456478613298
 New state     11 was old state      9
 Root     11 not converged, maximum delta is    0.477829146541813
 New state     12 was old state     11
 Root     12 not converged, maximum delta is    0.080339838363719
 New state     13 was old state     12
 Root     13 not converged, maximum delta is    0.101198518453808
 New state     14 was old state     13
 Root     14 not converged, maximum delta is    0.158328273951644
 Root     15 not converged, maximum delta is    0.080521616935582
 Excitation Energies [eV] at current iteration:
 Root      1 :     6.841941266606056   Change is   -0.119268588052119
 Root      2 :     7.063890514567610   Change is   -0.903014591407671
 Root      3 :     8.711199169243363   Change is   -0.033966499966533
 Root      4 :     8.725347619476718   Change is   -0.010171779609787
 Root      5 :     9.090382797497201   Change is   -0.037289844510851
 Root      6 :     9.280662755470413   Change is   -0.727220737988989
 Root      7 :     9.388733912168252   Change is   -1.296640258257296
 Root      8 :     9.731622637692364   Change is   -0.009715453444455
 Root      9 :     9.888627737081180   Change is    0.047454536666027
 Root     10 :    10.154683368736320   Change is   -0.026249409901423
 Root     11 :    10.160672097303420   Change is    0.028389839120872
 Root     12 :    10.298051565324600   Change is   -0.006869191704183
 Root     13 :    10.374112402481400   Change is    0.003179931181819
 Root     14 :    10.572498340348050   Change is   -0.004520804113686
 Root     15 :    10.889700567458730   Change is   -0.031815131838775
 Root     16 :    11.074479073954830   Change is   -0.026741699100094
 Root     17 :    11.291302886612780   Change is   -0.017072016855116
 Root     18 :    11.335688521318130   Change is   -0.012534770144039
 Root     19 :    11.400512797707930   Change is   -0.035700804964880
 Root     20 :    11.608229282699900   Change is   -0.036355000336645
 Root     21 :    11.768320777258040   Change is   -0.030232144632998
 Root     22 :    12.207229339333360   Change is   -0.032826933190083
 Root     23 :    12.469555126316910   Change is   -0.166498321510135
 Root     24 :    12.521588520061210   Change is   -0.025959905439274
 Root     25 :    12.756365787059680   Change is   -0.096163276858044
 Root     26 :    13.106387730333600   Change is   -0.057430135062749
 Root     27 :    13.188497658643710   Change is   -0.695056063871622
 Root     28 :    13.504408381589930   Change is   -0.642940599422522
 Root     29 :    13.584437230638920   Change is   -0.015205871316723
 Root     30 :    13.655505920433630   Change is   -0.034181252874179
 Root     31 :    13.984274879177680   Change is    0.001665163619501
 Root     32 :    14.049698722269100   Change is   -0.042317546847479
 Root     33 :    14.062108070817450   Change is   -0.014601045454235
 Root     34 :    14.183851259351150   Change is   -0.097383720297667
 Root     35 :    14.330875420452260   Change is   -0.074345674566005
 Root     36 :    14.381181597473130   Change is   -0.519830532656401
 Root     37 :    14.951732861781260   Change is   -0.136400420748467
 Root     38 :    14.988546523839260   Change is   -0.038304588603241
 Root     39 :    15.024133505033520   Change is   -0.665213094645762
 Root     40 :    15.049337357577010   Change is   -0.139463346794910
 Root     41 :    15.075686592470180   Change is   -0.152683966096551
 Root     42 :    15.200820994433750   Change is   -0.173037544670552
 Root     43 :    15.368827818206140   Change is   -0.035328596400913
 Root     44 :    15.423222904903690   Change is   -0.046337443547892
 Root     45 :    15.434847260728660   Change is    0.003829464481522
 Root     46 :    15.470292414769390   Change is   -0.095211814983921
 Root     47 :    15.557562997779000   Change is   -0.063645787083139
 Root     48 :    15.565487240777690   Change is   -0.195890976259464
 Root     49 :    15.700871920540670   Change is   -0.321371972646865
 Root     50 :    15.759635514977700   Change is   -0.114532035863649
 Root     51 :    15.836626847783850   Change is   -0.145469363326023
 Root     52 :    16.016916925039610   Change is   -0.050947147580488
 Root     53 :    16.106213739108840   Change is   -0.166073534805210
 Root     54 :    16.176660868252650   Change is   -0.192815882626778
 Root     55 :    16.306592986193710   Change is   -0.987016562095356
 Root     56 :    16.374256174307730   Change is   -0.044669875422311
 Root     57 :    16.527289918822850   Change is   -1.177516713403709
 Root     58 :    16.736335924378280   Change is   -1.014058421298280
 Root     59 :    16.992626333310660   Change is    0.126989358976918
 Root     60 :    17.094741503292570   Change is   -0.007041078518064
 Iteration     3 Dimension   135 NMult   120 NNew     15
 CISAX will form    15 AO SS matrices at one time.
 NMat=    15 NSing=    15 JSym2X= 0.
 Root      1 not converged, maximum delta is    0.001272429063384
 Root      2 not converged, maximum delta is    0.002580274246704
 Root      3 not converged, maximum delta is    0.000407281686050
 Root      4 not converged, maximum delta is    0.000433857202360
 Root      5 not converged, maximum delta is    0.002732117497847
 Root      6 not converged, maximum delta is    0.006826514462623
 Root      7 not converged, maximum delta is    0.006705438902115
 Root      8 not converged, maximum delta is    0.000177835545429
 Root      9 not converged, maximum delta is    0.000565437773435
 Root     10 not converged, maximum delta is    0.003439423240878
 Root     11 not converged, maximum delta is    0.003547164750201
 Root     12 not converged, maximum delta is    0.000280279828143
 Root     13 not converged, maximum delta is    0.000288436578147
 Root     14 not converged, maximum delta is    0.000246790782375
 Root     15 not converged, maximum delta is    0.000418641648590
 Excitation Energies [eV] at current iteration:
 Root      1 :     6.841247755230624   Change is   -0.000693511375432
 Root      2 :     7.061759627253347   Change is   -0.002130887314262
 Root      3 :     8.711109987298768   Change is   -0.000089181944596
 Root      4 :     8.725336909617216   Change is   -0.000010709859503
 Root      5 :     9.089924024102723   Change is   -0.000458773394477
 Root      6 :     9.277572296429049   Change is   -0.003090459041364
 Root      7 :     9.384772901725798   Change is   -0.003961010442454
 Root      8 :     9.731605013234919   Change is   -0.000017624457445
 Root      9 :     9.888562965269005   Change is   -0.000064771812176
 Root     10 :    10.154602680349250   Change is   -0.000080688387069
 Root     11 :    10.160572760126390   Change is   -0.000099337177032
 Root     12 :    10.298016386768640   Change is   -0.000035178555959
 Root     13 :    10.374076384713840   Change is   -0.000036017767562
 Root     14 :    10.572467503299930   Change is   -0.000030837048117
 Root     15 :    10.889666391983990   Change is   -0.000034175474740
 Iteration     4 Dimension   150 NMult   135 NNew     15
 CISAX will form    15 AO SS matrices at one time.
 NMat=    15 NSing=    15 JSym2X= 0.
 Root      1 not converged, maximum delta is    0.000034157457137
 Root      2 not converged, maximum delta is    0.000085549079654
 Root      3 not converged, maximum delta is    0.000009401318274
 Root      4 not converged, maximum delta is    0.000004571063147
 Root      5 not converged, maximum delta is    0.000034556531865
 Root      6 not converged, maximum delta is    0.000081202826536
 Root      7 not converged, maximum delta is    0.000083340476280
 Root      8 not converged, maximum delta is    0.000004646430536
 Root      9 not converged, maximum delta is    0.000013601141799
 Root     10 not converged, maximum delta is    0.000012858021162
 Root     11 not converged, maximum delta is    0.000021011344168
 Root     12 not converged, maximum delta is    0.000013373532690
 Root     13 not converged, maximum delta is    0.000012429516857
 Root     14 not converged, maximum delta is    0.000006063713745
 Root     15 not converged, maximum delta is    0.000017054990245
 Excitation Energies [eV] at current iteration:
 Root      1 :     6.841246956580230   Change is   -0.000000798650394
 Root      2 :     7.061757206674359   Change is   -0.000002420578988
 Root      3 :     8.711109883329227   Change is   -0.000000103969540
 Root      4 :     8.725336899252710   Change is   -0.000000010364506
 Root      5 :     9.089923338742343   Change is   -0.000000685360381
 Root      6 :     9.277567667550665   Change is   -0.000004628878384
 Root      7 :     9.384766753441648   Change is   -0.000006148284150
 Root      8 :     9.731604997544071   Change is   -0.000000015690848
 Root      9 :     9.888562866644373   Change is   -0.000000098624632
 Root     10 :    10.154602563943590   Change is   -0.000000116405660
 Root     11 :    10.160572621386340   Change is   -0.000000138740049
 Root     12 :    10.298016332481590   Change is   -0.000000054287057
 Root     13 :    10.374076337553120   Change is   -0.000000047160724
 Root     14 :    10.572467471112900   Change is   -0.000000032187038
 Root     15 :    10.889666340847360   Change is   -0.000000051136633
 Iteration     5 Dimension   165 NMult   150 NNew     15
 CISAX will form    15 AO SS matrices at one time.
 NMat=    15 NSing=    15 JSym2X= 0.
 Root      1 has converged.
 Root      2 not converged, maximum delta is    0.000002206834921
 Root      3 has converged.
 Root      4 has converged.
 Root      5 not converged, maximum delta is    0.000001191746701
 Root      6 not converged, maximum delta is    0.000002389303684
 Root      7 not converged, maximum delta is    0.000003156924748
 Root      8 has converged.
 Root      9 has converged.
 Root     10 has converged.
 Root     11 has converged.
 Root     12 has converged.
 Root     13 has converged.
 Root     14 has converged.
 Root     15 has converged.
 Excitation Energies [eV] at current iteration:
 Root      1 :     6.841246955941435   Change is   -0.000000000638795
 Root      2 :     7.061757204991665   Change is   -0.000000001682694
 Root      3 :     8.711109883246335   Change is   -0.000000000082892
 Root      4 :     8.725336899244995   Change is   -0.000000000007714
 Root      5 :     9.089923338146193   Change is   -0.000000000596151
 Root      6 :     9.277567663849982   Change is   -0.000000003700683
 Root      7 :     9.384766747506060   Change is   -0.000000005935588
 Root      8 :     9.731604997527743   Change is   -0.000000000016327
 Root      9 :     9.888562866535406   Change is   -0.000000000108967
 Root     10 :    10.154602563832650   Change is   -0.000000000110949
 Root     11 :    10.160572621244830   Change is   -0.000000000141505
 Root     12 :    10.298016332416700   Change is   -0.000000000064885
 Root     13 :    10.374076337496450   Change is   -0.000000000056663
 Root     14 :    10.572467471083330   Change is   -0.000000000029563
 Root     15 :    10.889666340776680   Change is   -0.000000000070678
 Iteration     6 Dimension   169 NMult   165 NNew      4
 CISAX will form     4 AO SS matrices at one time.
 NMat=     4 NSing=     4 JSym2X= 0.
 Root      1 has converged.
 Root      2 has converged.
 Root      3 has converged.
 Root      4 has converged.
 Root      5 has converged.
 Root      6 has converged.
 Root      7 has converged.
 Root      8 has converged.
 Root      9 has converged.
 Root     10 has converged.
 Root     11 has converged.
 Root     12 has converged.
 Root     13 has converged.
 Root     14 has converged.
 Root     15 has converged.
 Excitation Energies [eV] at current iteration:
 Root      1 :     6.841246955941408   Change is   -0.000000000000027
 Root      2 :     7.061757204991117   Change is   -0.000000000000548
 Root      3 :     8.711109883246303   Change is   -0.000000000000032
 Root      4 :     8.725336899244981   Change is   -0.000000000000014
 Root      5 :     9.089923338145701   Change is   -0.000000000000491
 Root      6 :     9.277567663847554   Change is   -0.000000000002429
 Root      7 :     9.384766747500052   Change is   -0.000000000006007
 Root      8 :     9.731604997527738   Change is   -0.000000000000006
 Root      9 :     9.888562866535279   Change is   -0.000000000000127
 Root     10 :    10.154602563832590   Change is   -0.000000000000059
 Root     11 :    10.160572621244740   Change is   -0.000000000000089
 Root     12 :    10.298016332416670   Change is   -0.000000000000038
 Root     13 :    10.374076337496370   Change is   -0.000000000000080
 Root     14 :    10.572467471083320   Change is   -0.000000000000009
 Root     15 :    10.889666340776650   Change is   -0.000000000000038
 Convergence achieved on expansion vectors.
 ***********************************************************************
 Excited states from <AA,BB:AA,BB> singles matrix:
 ***********************************************************************
 
 1PDM for each excited state written to RWF  633
 Ground to excited state transition densities written to RWF  633
 Ground to excited state transition electric dipole moments (Au):
       state          X           Y           Z        Dip. S.      Osc.
         1        -0.0775     -0.2231      0.0107      0.0559      0.0094
         2        -0.1396      1.1460      0.0614      1.3365      0.2312
         3         0.1464      0.0469     -0.1505      0.0463      0.0099
         4         0.0066      0.0107     -0.0127      0.0003      0.0001
         5        -0.4476     -0.0718      0.0180      0.2058      0.0458
         6         0.8935      0.7425     -0.0559      1.3529      0.3075
         7        -1.1726      0.4635      0.0175      1.5901      0.3656
         8        -0.0302      0.0335     -0.0067      0.0021      0.0005
         9         0.0376     -0.1123      0.0408      0.0157      0.0038
        10         0.1553      0.0301      0.0085      0.0251      0.0062
        11         0.1722      0.0068      0.0181      0.0300      0.0075
        12        -0.0743      0.0291      0.0040      0.0064      0.0016
        13        -0.0802      0.0207      0.0271      0.0076      0.0019
        14         0.0239     -0.0311     -0.0387      0.0030      0.0008
        15         0.0487     -0.0394     -0.0803      0.0104      0.0028
 Ground to excited state transition velocity dipole moments (Au):
       state          X           Y           Z        Dip. S.      Osc.
         1         0.0399      0.0033     -0.0003      0.0016      0.0042
         2         0.0000     -0.0011      0.0021      0.0000      0.0000
         3         0.0024     -0.0043      0.0767      0.0059      0.0123
         4        -0.0046      0.0037     -0.0057      0.0001      0.0001
         5         0.0081     -0.0017      0.0196      0.0005      0.0009
         6        -0.0092     -0.0606     -0.0075      0.0038      0.0075
         7         0.0286     -0.0458     -0.0022      0.0029      0.0056
         8         0.0039     -0.0081      0.0423      0.0019      0.0035
         9         0.0002      0.0131     -0.0162      0.0004      0.0008
        10        -0.0091     -0.0026      0.0143      0.0003      0.0005
        11        -0.0092      0.0039      0.0300      0.0010      0.0018
        12         0.0052     -0.0108     -0.0050      0.0002      0.0003
        13         0.0062     -0.0057     -0.0166      0.0003      0.0006
        14         0.0031      0.0047     -0.0243      0.0006      0.0011
        15        -0.0014      0.0142      0.0047      0.0002      0.0004
 Ground to excited state transition magnetic dipole moments (Au):
       state          X           Y           Z
         1        -0.0261      0.0359      0.0765
         2         0.0137      0.0195     -0.3023
         3         0.0086      1.5786     -0.0041
         4        -0.4951     -0.1066     -0.0204
         5        -0.2371     -0.0081      0.0014
         6         0.0318     -0.2083      0.1486
         7         0.1928      0.1386      0.1851
         8        -0.0831     -0.1583      0.0015
         9         1.0724     -0.0205      0.0451
        10         0.1562      0.5167     -0.0013
        11         0.0013     -0.2708     -0.0096
        12        -0.1012     -0.2378     -0.0644
        13        -0.1152     -0.0046     -0.0020
        14        -0.0927     -0.1494     -0.0503
        15        -0.2758     -0.0013      0.0379
 Ground to excited state transition velocity quadrupole moments (Au):
       state          XX          YY          ZZ          XY          XZ          YZ
         1         0.0185     -0.0103     -0.0138     -0.0262     -0.0003      0.0024
         2        -0.0052      0.0027      0.0002      0.2110     -0.0003     -0.0043
         3        -0.0085      0.0196     -0.0038     -0.0030     -0.1703     -0.0075
         4        -0.0126      0.0189      0.0000      0.0041     -0.0031     -0.1228
         5         0.0481     -0.0882      0.0126      0.0610     -0.0313      0.1435
         6        -0.0954      0.1312     -0.0227     -0.2497      0.0166      0.0520
         7         0.2148     -0.2472      0.0274     -0.2061      0.0137     -0.0105
         8         0.0156     -0.0225      0.0036      0.0001     -0.0560     -0.0627
         9        -0.0240      0.0000      0.0034      0.0484     -0.0081      0.0573
        10        -0.0258      0.0334     -0.0117     -0.0197     -0.1182      0.0084
        11        -0.0181      0.0492      0.0011      0.0092      0.1221      0.0179
        12         0.0235     -0.0371      0.0053     -0.0291      0.0213     -0.0183
        13         0.0201     -0.0159     -0.0064     -0.0132     -0.0623      0.0040
        14        -0.0132     -0.0130      0.0045      0.0483      0.0648      0.0096
        15        -0.0270      0.0550     -0.0042      0.0140     -0.0100      0.0527
 <0|del|b> * <b|rxdel|0> + <0|del|b> * <b|delr+rdel|0>
 Rotatory Strengths (R) in cgs (10**-40 erg-esu-cm/Gauss)
       state          XX          YY          ZZ    R(velocity)    E-M Angle
         1         0.1453     -1.3741     -1.4310     -0.8866      105.51
         2        -0.2948     -1.4931     -0.0282     -0.6054      156.70
         3        -8.9146     -0.0931     -6.6522     -5.2200       93.35
         4        -0.3241      3.2650      1.4227      1.4545       61.58
         5         1.2492     -2.0370     -3.1879     -1.3252      111.88
         6        14.9160     -3.9064     12.2406      7.7501       45.24
         7        -5.8210      4.4528     -1.1984     -0.8555       94.41
         8         0.8859     -0.5036      1.6338      0.6720       82.43
         9        -1.6318      0.2219     -0.2110     -0.5403       92.14
        10        -1.8658     -1.1679     -2.2649     -1.7662      107.57
        11        -1.4589     -0.7038     -0.4033     -0.8554       99.09
        12         3.0518     -0.4158      1.7807      1.4722       46.92
        13        -0.0693     -0.8136     -0.3345     -0.4058      107.79
        14        -0.8669      1.9448     -0.6533      0.1415       87.07
        15         0.3272      0.3823      0.2733      0.3276       82.37
 1/2[<0|r|b>*<b|rxdel|0> + (<0|rxdel|b>*<b|r|0>)*]
 Rotatory Strengths (R) in cgs (10**-40 erg-esu-cm/Gauss)
       state          XX          YY          ZZ     R(length)
         1        -1.4282      5.6636     -0.5764      1.2196
         2         1.3568    -15.7912     13.1175     -0.4390
         3        -0.8896    -52.4066     -0.4375    -17.9112
         4         2.3017      0.8093     -0.1827      0.9761
         5       -75.0342     -0.4133     -0.0172    -25.1549
         6       -20.0715    109.3677      5.8778     31.7247
         7       159.8627    -45.4376     -2.2858     37.3798
         8        -1.7768      3.7542      0.0073      0.6615
         9       -28.4929     -1.6290     -1.3003    -10.4741
        10       -17.1549    -10.9997      0.0079     -9.3822
        11        -0.1608      1.2988      0.1234      0.4205
        12        -5.3185      4.8927      0.1800     -0.0819
        13        -6.5324      0.0668      0.0387     -2.1423
        14         1.5684     -3.2885     -1.3772     -1.0324
        15         9.4956     -0.0360      2.1487      3.8694
  1/2[<0|del|b>*<b|r|0> + (<0|r|b>*<b|del|0>)*] (Au)
       state          X           Y           Z        Dip. S.   Osc.(frdel)
         1        -0.0031     -0.0007      0.0000      0.0038      0.0026
         2         0.0000     -0.0012      0.0001      0.0011      0.0007
         3         0.0004     -0.0002     -0.0115      0.0114      0.0076
         4         0.0000      0.0000      0.0001     -0.0001     -0.0001
         5        -0.0036      0.0001      0.0004      0.0031      0.0021
         6        -0.0082     -0.0450      0.0004      0.0528      0.0352
         7        -0.0335     -0.0212      0.0000      0.0548      0.0365
         8        -0.0001     -0.0003     -0.0003      0.0007      0.0004
         9         0.0000     -0.0015     -0.0007      0.0021      0.0014
        10        -0.0014     -0.0001      0.0001      0.0014      0.0009
        11        -0.0016      0.0000      0.0005      0.0010      0.0007
        12        -0.0004     -0.0003      0.0000      0.0007      0.0005
        13        -0.0005     -0.0001     -0.0005      0.0011      0.0007
        14         0.0001     -0.0001      0.0009     -0.0009     -0.0006
        15        -0.0001     -0.0006     -0.0004      0.0010      0.0007

 Excitation energies and oscillator strengths:
 
 Excited State   1:      Singlet-A      6.8412 eV  181.23 nm  f=0.0094  <S**2>=0.000
      17 -> 19         0.46530
      18 -> 19        -0.13039
      18 -> 20         0.50965
 This state for optimization and/or second-order correction.
 Total Energy, E(CIS) =  -228.483403575    
 Copying the excited state density for this state as the 1-particle RhoCI density.
 
 Excited State   2:      Singlet-A      7.0618 eV  175.57 nm  f=0.2312  <S**2>=0.000
      18 -> 19         0.67234
 
 Excited State   3:      Singlet-A      8.7111 eV  142.33 nm  f=0.0099  <S**2>=0.000
      16 -> 19         0.69333
 
 Excited State   4:      Singlet-A      8.7253 eV  142.10 nm  f=0.0001  <S**2>=0.000
      18 -> 21         0.67214
      18 -> 22         0.19971
 
 Excited State   5:      Singlet-A      9.0899 eV  136.40 nm  f=0.0458  <S**2>=0.000
      17 -> 19        -0.15179
      18 -> 20         0.14129
      18 -> 21        -0.18637
      18 -> 22         0.62889
 
 Excited State   6:      Singlet-A      9.2776 eV  133.64 nm  f=0.3075  <S**2>=0.000
      16 -> 25        -0.11187
      17 -> 19         0.30041
      17 -> 20         0.48213
      18 -> 20        -0.28882
      18 -> 22         0.18257
 
 Excited State   7:      Singlet-A      9.3848 eV  132.11 nm  f=0.3656  <S**2>=0.000
      16 -> 26         0.10598
      17 -> 19        -0.34080
      17 -> 20         0.46794
      18 -> 20         0.30196
      18 -> 22        -0.11271
 
 Excited State   8:      Singlet-A      9.7316 eV  127.40 nm  f=0.0005  <S**2>=0.000
      17 -> 21         0.14653
      18 -> 23         0.64922
      18 -> 24        -0.14045
 
 Excited State   9:      Singlet-A      9.8886 eV  125.38 nm  f=0.0038  <S**2>=0.000
      14 -> 19         0.33841
      15 -> 19        -0.23155
      16 -> 20         0.55031
      18 -> 23         0.10421
 
 Excited State  10:      Singlet-A     10.1546 eV  122.10 nm  f=0.0062  <S**2>=0.000
      14 -> 19         0.20781
      15 -> 19         0.64348
      16 -> 20         0.12458
 
 Excited State  11:      Singlet-A     10.1606 eV  122.02 nm  f=0.0075  <S**2>=0.000
      17 -> 21         0.60673
      17 -> 22         0.18998
      18 -> 23        -0.17996
      18 -> 24        -0.21146
 
 Excited State  12:      Singlet-A     10.2980 eV  120.40 nm  f=0.0016  <S**2>=0.000
      14 -> 19         0.56001
      15 -> 19        -0.10800
      16 -> 20        -0.37924
      17 -> 21        -0.10923
 
 Excited State  13:      Singlet-A     10.3741 eV  119.51 nm  f=0.0019  <S**2>=0.000
      17 -> 21         0.22646
      18 -> 24         0.64963
 
 Excited State  14:      Singlet-A     10.5725 eV  117.27 nm  f=0.0008  <S**2>=0.000
      17 -> 21        -0.20470
      17 -> 22         0.66501
 
 Excited State  15:      Singlet-A     10.8897 eV  113.85 nm  f=0.0028  <S**2>=0.000
      18 -> 25         0.62704
      18 -> 26         0.29710
 SavETr:  write IOETrn=   770 NScale= 10 NData=  16 NLR=1 NState=   15 LETran=     280.
 The selected state is a singlet
 CISAX will form     1 AO SS matrices at one time.
 NMat=     1 NSing=     1 JSym2X= 0.
 CISAX will form     1 AO SS matrices at one time.
 NMat=     1 NSing=     1 JSym2X= 0.
 Leave Link  914 at Tue Dec 15 16:11:56 2015, MaxMem=    33554432 cpu:        33.2
 (Enter /home/Applications/g09/g09/l1002.exe)
 Minotr:  Closed shell wavefunction.
          Computing CIS/TD-HF/TD-KS derivatives.
          Using Z-Vector for PSCF gradient.
          Skipping F1 and S1 gradient terms here.
          IDoAtm=111111111
          Frozen-core window.
          Direct CPHF calculation.
          Differentiating once with respect to electric field.
                with respect to dipole field.
          Differentiating once with respect to nuclear coordinates.
          Requested convergence is 1.0D-10 RMS, and 1.0D-09 maximum.
          NewPWx=F KeepS1=T KeepF1=T KeepIn=T MapXYZ=F SortEE=F KeepMc=T.
          MDV=      33554290 using IRadAn=       0.
 Using stored XC quadrature information.
 Keep R1 ints in memory in canonical form, NReq=1898913.
 FoFCou: FMM=F IPFlag=           0 FMFlag=           0 FMFlg1=           0
         NFxFlg=           0 DoJE=F BraDBF=F KetDBF=F FulRan=T
         wScrn=  0.000000 ICntrl=     600 IOpCl=  0 I1Cent=           0 NGrid=           0
         NMat0=    1 NMatS0=   1431 NMatT0=    0 NMatD0=    1 NMtDS0=    0 NMtDT0=    0
 Symmetry not used in FoFCou.
          Solving linear equations separately, MaxMat=       0.
          There are     1 degrees of freedom in the 1st order CPHF.  IDoFFX=0 NUNeed=     1.
 LinEq1:  Iter=  0 NonCon=     1 RMS=1.70D-02 Max=2.81D-01 NDo=     1
 AX will form     1 AO Fock derivatives at one time.
 LinEq1:  Iter=  1 NonCon=     1 RMS=6.26D-03 Max=5.68D-02 NDo=     1
 LinEq1:  Iter=  2 NonCon=     1 RMS=4.40D-03 Max=4.91D-02 NDo=     1
 LinEq1:  Iter=  3 NonCon=     1 RMS=2.03D-03 Max=2.21D-02 NDo=     1
 LinEq1:  Iter=  4 NonCon=     1 RMS=1.46D-03 Max=1.46D-02 NDo=     1
 LinEq1:  Iter=  5 NonCon=     1 RMS=5.83D-04 Max=4.25D-03 NDo=     1
 LinEq1:  Iter=  6 NonCon=     1 RMS=2.04D-04 Max=1.48D-03 NDo=     1
 LinEq1:  Iter=  7 NonCon=     1 RMS=6.48D-05 Max=7.15D-04 NDo=     1
 LinEq1:  Iter=  8 NonCon=     1 RMS=4.18D-05 Max=3.31D-04 NDo=     1
 LinEq1:  Iter=  9 NonCon=     1 RMS=4.88D-06 Max=2.53D-05 NDo=     1
 LinEq1:  Iter= 10 NonCon=     1 RMS=5.10D-07 Max=3.53D-06 NDo=     1
 LinEq1:  Iter= 11 NonCon=     1 RMS=7.49D-08 Max=5.99D-07 NDo=     1
 LinEq1:  Iter= 12 NonCon=     1 RMS=8.42D-09 Max=5.02D-08 NDo=     1
 LinEq1:  Iter= 13 NonCon=     1 RMS=9.47D-10 Max=5.82D-09 NDo=     1
 LinEq1:  Iter= 14 NonCon=     1 RMS=1.15D-10 Max=8.47D-10 NDo=     1
 LinEq1:  Iter= 15 NonCon=     0 RMS=1.74D-11 Max=1.49D-10 NDo=     1
 Linear equations converged to 1.000D-10 1.000D-09 after    15 iterations.
 End of Minotr F.D. properties file   721 does not exist.
 End of Minotr F.D. properties file   722 does not exist.
 End of Minotr F.D. properties file   788 does not exist.
 Leave Link 1002 at Tue Dec 15 16:12:06 2015, MaxMem=    33554432 cpu:         9.8
 (Enter /home/Applications/g09/g09/l601.exe)
 Copying SCF densities to generalized density rwf, IOpCl= 0 IROHF=0.

 **********************************************************************

            Population analysis using the SCF density.

 **********************************************************************

 Orbital symmetries:
       Occupied  (A) (A) (A) (A) (A) (A) (A) (A) (A) (A) (A) (A)
                 (A) (A) (A) (A) (A) (A)
       Virtual   (A) (A) (A) (A) (A) (A) (A) (A) (A) (A) (A) (A)
                 (A) (A) (A) (A) (A) (A) (A) (A) (A) (A) (A) (A)
                 (A) (A) (A) (A) (A) (A) (A) (A) (A) (A) (A)
 The electronic state is 1-A.
 Alpha  occ. eigenvalues --  -19.13180 -10.18039 -10.17855 -10.13035 -10.12543
 Alpha  occ. eigenvalues --   -1.16230  -0.79662  -0.75284  -0.60910  -0.56665
 Alpha  occ. eigenvalues --   -0.54975  -0.46679  -0.45786  -0.41186  -0.40915
 Alpha  occ. eigenvalues --   -0.35933  -0.27658  -0.22236
 Alpha virt. eigenvalues --    0.01888   0.06628   0.14168   0.15579   0.17942
 Alpha virt. eigenvalues --    0.19757   0.22609   0.23341   0.33177   0.40026
 Alpha virt. eigenvalues --    0.45941   0.69969   0.70045   0.71237   0.72773
 Alpha virt. eigenvalues --    0.77138   0.78448   0.78676   0.81203   0.83520
 Alpha virt. eigenvalues --    0.95185   0.97671   1.02088   1.03029   1.18282
 Alpha virt. eigenvalues --    1.20528   1.32072   1.37299   1.49700   1.58831
 Alpha virt. eigenvalues --    1.61621   1.71654   1.94188   2.11105   3.23177
     Molecular Orbital Coefficients:
                           1         2         3         4         5
                           O         O         O         O         O
     Eigenvalues --   -19.13180 -10.18039 -10.17855 -10.13035 -10.12543
   1 1   C  1S          0.00018  -0.00987  -0.00175  -0.11822   0.97887
   2        2S          0.00085  -0.00417  -0.00053  -0.01673   0.10835
   3        2PX         0.00076   0.00163   0.00078   0.00065  -0.00110
   4        2PY        -0.00120  -0.00097   0.00002   0.00108  -0.00095
   5        2PZ        -0.00006  -0.00004  -0.00001   0.00001   0.00030
   6        3S         -0.00387   0.03134  -0.01097   0.04487  -0.08968
   7        3PX         0.00616  -0.01687   0.00768  -0.01025   0.02014
   8        3PY         0.00687   0.00211   0.00408  -0.02296   0.01617
   9        3PZ         0.00025   0.00061  -0.00038   0.00032  -0.00156
  10 2   C  1S         -0.00025   0.98000   0.10367  -0.00057   0.00966
  11        2S          0.00010   0.10627   0.00796  -0.00007  -0.00259
  12        2PX        -0.00175  -0.00046  -0.00081  -0.00101  -0.00138
  13        2PY        -0.00217  -0.00293   0.00067  -0.00002   0.00033
  14        2PZ        -0.00007  -0.00029  -0.00007  -0.00004   0.00003
  15        3S          0.01729  -0.06968   0.00829  -0.01106   0.03236
  16        3PX        -0.00058  -0.01610   0.00935  -0.00278   0.01661
  17        3PY        -0.01668   0.00732  -0.01651   0.00401  -0.01148
  18        3PZ        -0.00070   0.00114  -0.00018   0.00052  -0.00071
  19 3   O  1S          0.98286   0.00032   0.00036   0.00008   0.00010
  20        2S          0.10869   0.00179   0.00224   0.00038   0.00047
  21        2PX         0.00442   0.00038   0.00060  -0.00003  -0.00008
  22        2PY         0.00035   0.00017  -0.00026   0.00004  -0.00001
  23        2PZ         0.00013   0.00005   0.00004  -0.00002   0.00003
  24        3S         -0.06400  -0.00207  -0.00219  -0.00344  -0.00456
  25        3PX        -0.01466  -0.00410  -0.00458  -0.00206  -0.00216
  26        3PY        -0.00138  -0.00207   0.00056   0.00193  -0.00175
  27        3PZ        -0.00040  -0.00034  -0.00022   0.00004  -0.00013
  28 4   C  1S         -0.00032  -0.10485   0.97986   0.01125   0.00207
  29        2S         -0.00010  -0.01460   0.10565  -0.00266  -0.00086
  30        2PX        -0.00188  -0.00068  -0.00080  -0.00134  -0.00126
  31        2PY         0.00212  -0.00124   0.00269  -0.00062  -0.00026
  32        2PZ         0.00003  -0.00001   0.00003   0.00000   0.00006
  33        3S          0.01733   0.02374  -0.06863   0.03667  -0.00187
  34        3PX        -0.00145   0.01272  -0.01362   0.01769   0.00205
  35        3PY         0.01423   0.01895  -0.00816   0.01560  -0.00028
  36        3PZ        -0.00033   0.00004  -0.00017  -0.00018  -0.00024
  37 5   C  1S          0.00017   0.00071  -0.01177   0.97896   0.11773
  38        2S          0.00080   0.00052  -0.00474   0.10944   0.00950
  39        2PX         0.00046   0.00036   0.00189  -0.00151   0.00031
  40        2PY         0.00121  -0.00006   0.00109   0.00122  -0.00071
  41        2PZ         0.00000  -0.00003   0.00003   0.00000   0.00007
  42        3S         -0.00304  -0.01837   0.03087  -0.10150   0.02093
  43        3PX         0.00797   0.01294  -0.01601   0.02688  -0.00512
  44        3PY        -0.00447  -0.00161  -0.00308  -0.01951   0.01632
  45        3PZ         0.00000   0.00019  -0.00010   0.00058  -0.00035
  46 6   H  1S         -0.00107  -0.00046  -0.00093  -0.00412  -0.00099
  47        2S         -0.00381  -0.00232   0.00161   0.00430   0.00445
  48 7   H  1S          0.00007   0.00196  -0.00363  -0.00021  -0.00002
  49        2S          0.00320   0.00714   0.00938   0.00516   0.00134
  50 8   H  1S          0.00051  -0.00314   0.00117   0.00000  -0.00036
  51        2S          0.00415   0.00863   0.00873   0.00008   0.00413
  52 9   H  1S         -0.00106  -0.00110  -0.00057   0.00033  -0.00429
  53        2S         -0.00361   0.00121  -0.00169   0.00420   0.00665
                           6         7         8         9        10
                           O         O         O         O         O
     Eigenvalues --    -1.16230  -0.79662  -0.75284  -0.60910  -0.56665
   1 1   C  1S         -0.02062  -0.14279   0.06415   0.11331   0.05661
   2        2S          0.01859   0.15210  -0.06845  -0.11513  -0.05669
   3        2PX        -0.02494  -0.04141   0.05478   0.01734  -0.14387
   4        2PY        -0.00783  -0.06992  -0.03569  -0.12187   0.08549
   5        2PZ         0.00087   0.00731  -0.00374  -0.00880  -0.00326
   6        3S          0.03218   0.29109  -0.12497  -0.37296  -0.18897
   7        3PX        -0.03155  -0.03152  -0.00705   0.03515  -0.05141
   8        3PY        -0.03440  -0.02395   0.01965  -0.02216   0.03427
   9        3PZ        -0.00042   0.00499  -0.00135  -0.00738  -0.00315
  10 2   C  1S         -0.07876  -0.04168   0.14563   0.00754  -0.10833
  11        2S          0.08470   0.04942  -0.15744  -0.00805   0.11955
  12        2PX        -0.03566   0.11931   0.03215  -0.18657   0.00513
  13        2PY        -0.09347   0.00318   0.04047  -0.08380   0.12165
  14        2PZ        -0.00368  -0.00181   0.00718   0.00034  -0.00335
  15        3S          0.05415   0.06285  -0.34636   0.00278   0.33949
  16        3PX        -0.00635   0.03134  -0.03351  -0.05248   0.02099
  17        3PY         0.05193  -0.01107   0.01771  -0.03606   0.06745
  18        3PZ         0.00110  -0.00157   0.00420   0.00020  -0.00267
  19 3   O  1S         -0.21380   0.07841  -0.00641   0.00005   0.06038
  20        2S          0.19381  -0.07605   0.00580   0.00059  -0.06054
  21        2PX         0.11919   0.03203   0.01111  -0.00857   0.02022
  22        2PY         0.01256  -0.01670  -0.26772   0.23956   0.02248
  23        2PZ         0.00349  -0.00155  -0.00216   0.00495   0.00115
  24        3S          0.68892  -0.29029   0.02277   0.00043  -0.26052
  25        3PX         0.15038   0.01378   0.01081  -0.00827   0.01322
  26        3PY         0.01390  -0.01470  -0.22233   0.20886   0.02001
  27        3PZ         0.00435  -0.00120  -0.00228   0.00419   0.00135
  28 4   C  1S         -0.07387  -0.06262  -0.14314   0.00163  -0.10670
  29        2S          0.08030   0.07246   0.15409  -0.00079   0.11814
  30        2PX        -0.04070   0.11523  -0.05198   0.20046   0.03947
  31        2PY         0.08191   0.02039   0.03222  -0.03776  -0.12678
  32        2PZ        -0.00073   0.00014  -0.00075   0.00251   0.00292
  33        3S          0.04930   0.10574   0.34959  -0.03697   0.32868
  34        3PX        -0.00654   0.03509   0.02590   0.06008   0.03266
  35        3PY        -0.04084   0.01734   0.02572  -0.02011  -0.06330
  36        3PZ         0.00118   0.00025   0.00037   0.00086   0.00227
  37 5   C  1S         -0.02071  -0.15131  -0.04382  -0.11546   0.04644
  38        2S          0.01909   0.16185   0.04757   0.11815  -0.04622
  39        2PX        -0.02536  -0.05755  -0.05115  -0.00690  -0.14389
  40        2PY         0.00544   0.06072  -0.04952  -0.10205  -0.11337
  41        2PZ        -0.00003   0.00074   0.00054   0.00419  -0.00072
  42        3S          0.02861   0.31024   0.07783   0.37855  -0.15691
  43        3PX        -0.04005  -0.03394   0.01202  -0.03410  -0.05654
  44        3PY         0.02198   0.02732   0.01571  -0.01519  -0.04467
  45        3PZ        -0.00039   0.00001  -0.00001   0.00268  -0.00088
  46 6   H  1S          0.00686   0.06503   0.02204   0.11424  -0.07125
  47        2S          0.01895   0.01627   0.00388   0.06358  -0.03950
  48 7   H  1S          0.01265   0.01991   0.08693  -0.02149   0.14490
  49        2S         -0.02068   0.00716   0.03399  -0.01495   0.07752
  50 8   H  1S          0.01034   0.01254  -0.07967  -0.00561   0.14585
  51        2S         -0.02668   0.00592  -0.03008   0.00034   0.08011
  52 9   H  1S          0.00713   0.06227  -0.03678  -0.12458  -0.07266
  53        2S          0.01812   0.01428  -0.01069  -0.06815  -0.03998
                          11        12        13        14        15
                           O         O         O         O         O
     Eigenvalues --    -0.54975  -0.46679  -0.45786  -0.41186  -0.40915
   1 1   C  1S          0.03178  -0.00566  -0.04823   0.01636   0.02356
   2        2S         -0.02896   0.00709   0.05048  -0.01959  -0.02253
   3        2PX        -0.15760   0.02162   0.10641   0.22177  -0.03759
   4        2PY        -0.08225   0.01600   0.06103   0.19138   0.23247
   5        2PZ        -0.00528   0.08551  -0.01159   0.00491   0.00498
   6        3S         -0.13978   0.01200   0.17045  -0.05951  -0.12272
   7        3PX        -0.08380   0.02300   0.06671   0.13768   0.00927
   8        3PY        -0.06826   0.02036   0.03400   0.14574   0.11225
   9        3PZ        -0.00609   0.06120  -0.00764   0.00386  -0.00022
  10 2   C  1S          0.00613   0.00311   0.04210   0.02861  -0.03001
  11        2S         -0.00418  -0.00251  -0.04172  -0.03431   0.03729
  12        2PX         0.10539  -0.00635  -0.04268  -0.15070   0.09460
  13        2PY        -0.15480  -0.05160  -0.22476   0.11677  -0.13022
  14        2PZ        -0.00556   0.18579  -0.03619   0.00683  -0.01465
  15        3S         -0.04984  -0.01364  -0.16226  -0.10011   0.10159
  16        3PX         0.10679   0.00752  -0.01154  -0.08451   0.14984
  17        3PY        -0.10199  -0.03888  -0.12579   0.09225  -0.07259
  18        3PZ        -0.00236   0.16654  -0.03191   0.00411  -0.01266
  19 3   O  1S          0.04669   0.00555   0.00226  -0.00089   0.03085
  20        2S         -0.04601  -0.00537  -0.00166  -0.00172  -0.03485
  21        2PX         0.21142   0.01439  -0.00267   0.06902   0.28681
  22        2PY        -0.00128   0.03724   0.24425  -0.01816   0.01159
  23        2PZ        -0.00322   0.40055  -0.06818  -0.00401  -0.02072
  24        3S         -0.17211  -0.02171  -0.00834   0.02337  -0.08383
  25        3PX         0.19317   0.01369  -0.00371   0.07242   0.29818
  26        3PY        -0.00243   0.03475   0.23421  -0.01179   0.00909
  27        3PZ        -0.00300   0.40075  -0.06918  -0.00365  -0.02062
  28 4   C  1S          0.00670  -0.00782  -0.04159  -0.03247  -0.00007
  29        2S         -0.00492   0.00870   0.04324   0.03987   0.00088
  30        2PX         0.07869   0.00424   0.06088   0.20963  -0.07880
  31        2PY         0.17689  -0.02848  -0.20885   0.20359   0.00483
  32        2PZ        -0.00484   0.18027  -0.02841  -0.00684  -0.00344
  33        3S         -0.04799   0.02268   0.14971   0.11747   0.00416
  34        3PX         0.10022   0.00344   0.02711   0.16391   0.03533
  35        3PY         0.12083  -0.02126  -0.12429   0.14552  -0.00411
  36        3PZ        -0.00328   0.16363  -0.02692  -0.00504  -0.00526
  37 5   C  1S          0.04151   0.01001   0.04477  -0.00266   0.02200
  38        2S         -0.03792  -0.01141  -0.04711   0.00546  -0.02353
  39        2PX        -0.17677  -0.01425  -0.10646  -0.19709   0.20099
  40        2PY         0.07223   0.00128   0.02138  -0.13160  -0.25470
  41        2PZ        -0.00792   0.08561  -0.02085  -0.00124   0.01737
  42        3S         -0.18753  -0.02567  -0.16086  -0.00975  -0.11595
  43        3PX        -0.09066  -0.01317  -0.06962  -0.10034   0.15280
  44        3PY         0.05391   0.00763   0.01372  -0.04732  -0.15415
  45        3PZ        -0.00459   0.05962  -0.01565  -0.00207   0.01251
  46 6   H  1S         -0.13105  -0.01605  -0.11661  -0.06456   0.19235
  47        2S         -0.06897  -0.00922  -0.08075  -0.05506   0.17656
  48 7   H  1S         -0.10120   0.02635   0.15424  -0.15217   0.01441
  49        2S         -0.04153   0.01743   0.11588  -0.13275   0.01765
  50 8   H  1S         -0.09389  -0.03117  -0.16391   0.08265  -0.07393
  51        2S         -0.04150  -0.01841  -0.12914   0.07694  -0.06544
  52 9   H  1S         -0.11476   0.02666   0.13102   0.18906   0.06442
  53        2S         -0.05565   0.01136   0.09286   0.16521   0.06549
                          16        17        18        19        20
                           O         O         O         V         V
     Eigenvalues --    -0.35933  -0.27658  -0.22236   0.01888   0.06628
   1 1   C  1S          0.01263   0.00636  -0.00514  -0.00198  -0.01073
   2        2S         -0.01094  -0.00700   0.00701  -0.00045   0.00789
   3        2PX         0.21222   0.00843   0.00095   0.01228   0.00910
   4        2PY        -0.16868  -0.01803   0.00328   0.00267   0.01021
   5        2PZ        -0.01280   0.28622  -0.20173  -0.16739  -0.33837
   6        3S         -0.08999  -0.02408   0.00759   0.02365   0.07685
   7        3PX         0.14297   0.00492   0.01168   0.02639   0.03587
   8        3PY        -0.14411  -0.01875   0.01442  -0.00783   0.05553
   9        3PZ        -0.01337   0.29969  -0.22444  -0.27120  -0.64381
  10 2   C  1S         -0.01021  -0.00017   0.00714  -0.00612  -0.00298
  11        2S          0.01429   0.00001  -0.00912   0.00175  -0.00208
  12        2PX        -0.24893  -0.00572  -0.00939   0.00550  -0.01964
  13        2PY         0.02879   0.00307   0.01048   0.00045  -0.00348
  14        2PZ        -0.00026   0.05062  -0.32937   0.32618   0.21175
  15        3S          0.01867  -0.00159  -0.02186   0.06368   0.05274
  16        3PX        -0.08798  -0.00437  -0.00165   0.01922  -0.02826
  17        3PY         0.05721   0.00156   0.00021   0.00876  -0.02224
  18        3PZ        -0.00112   0.02720  -0.35944   0.48820   0.37913
  19 3   O  1S          0.06065   0.00055  -0.00025  -0.00155   0.00502
  20        2S         -0.05928  -0.00021   0.00095   0.00061  -0.00343
  21        2PX         0.31401   0.00304   0.00062   0.00402  -0.00628
  22        2PY         0.01897   0.00538  -0.00032  -0.00185  -0.00046
  23        2PZ         0.00155  -0.26827   0.01775  -0.30353  -0.00024
  24        3S         -0.23561  -0.00487  -0.00168   0.01178  -0.04195
  25        3PX         0.34421   0.00289  -0.00054   0.00455  -0.01048
  26        3PY         0.02064   0.00696  -0.00226   0.00073  -0.00581
  27        3PZ         0.00215  -0.30775   0.02249  -0.42570  -0.00179
  28 4   C  1S         -0.02205  -0.00086  -0.00082   0.00189  -0.00462
  29        2S          0.02756   0.00119   0.00182  -0.00440   0.00461
  30        2PX        -0.18187  -0.00208   0.00124   0.00336  -0.00030
  31        2PY         0.00500   0.00014   0.00980   0.00094   0.00091
  32        2PZ        -0.00757   0.09545   0.32899   0.31688  -0.21708
  33        3S          0.07302   0.00222  -0.00149   0.00060   0.01610
  34        3PX        -0.03048  -0.00222  -0.00101   0.01321  -0.01637
  35        3PY        -0.01075   0.00296   0.00454   0.01913  -0.01527
  36        3PZ        -0.00652   0.06878   0.36245   0.47413  -0.39973
  37 5   C  1S          0.01062   0.00116   0.00070   0.00033   0.00787
  38        2S         -0.00834  -0.00056  -0.00150  -0.00078  -0.01090
  39        2PX         0.10610  -0.00860  -0.00699   0.00680  -0.01194
  40        2PY         0.19912   0.02635   0.00607  -0.01288   0.00505
  41        2PZ        -0.01620   0.30855   0.16311  -0.16351   0.34492
  42        3S         -0.08860  -0.00966   0.00813  -0.01008  -0.02251
  43        3PX         0.07722  -0.00895  -0.01186   0.02052  -0.05496
  44        3PY         0.17127   0.01975   0.01471  -0.02898   0.04449
  45        3PZ        -0.01294   0.32166   0.17661  -0.26742   0.65649
  46 6   H  1S         -0.02641  -0.00477  -0.00076  -0.00570   0.01250
  47        2S         -0.01205  -0.00769   0.00110  -0.02016   0.05966
  48 7   H  1S          0.09034   0.00569  -0.00060   0.00137  -0.00371
  49        2S          0.08840   0.00773  -0.00344   0.01117  -0.02380
  50 8   H  1S          0.12749   0.00598   0.00615  -0.00874  -0.00862
  51        2S          0.13011   0.00866   0.01256  -0.03026  -0.02841
  52 9   H  1S          0.01700   0.00192  -0.00209  -0.00810  -0.01718
  53        2S          0.03785   0.00138  -0.00721  -0.01932  -0.07342
                          21        22        23        24        25
                           V         V         V         V         V
     Eigenvalues --     0.14168   0.15579   0.17942   0.19757   0.22609
   1 1   C  1S          0.03417   0.05251   0.04343   0.10090  -0.01966
   2        2S         -0.01524  -0.04323  -0.04385  -0.07284   0.01579
   3        2PX        -0.13431  -0.05719   0.03795  -0.14055  -0.07046
   4        2PY        -0.05260  -0.01624   0.06828  -0.10373   0.25649
   5        2PZ        -0.01754   0.00131  -0.00664  -0.03333   0.01242
   6        3S         -0.53061  -0.53385  -0.20575  -1.20283   0.31447
   7        3PX        -0.37246  -0.24846  -0.11788  -0.75394  -0.39906
   8        3PY        -0.12830  -0.18573   0.01501  -0.55307   1.23504
   9        3PZ        -0.05107   0.00457  -0.01491  -0.11565   0.04130
  10 2   C  1S          0.08383  -0.08537  -0.04392  -0.02792   0.08546
  11        2S         -0.05689   0.05572   0.04001   0.03833  -0.05256
  12        2PX         0.07671  -0.14296  -0.05475   0.04160  -0.07228
  13        2PY        -0.14241   0.02852   0.18648  -0.12064  -0.04545
  14        2PZ         0.01805  -0.01154  -0.00414   0.00333   0.00884
  15        3S         -0.98525   0.85946   0.51376  -0.03007  -1.18512
  16        3PX         0.16990  -0.49341  -0.16872   0.06751  -0.40686
  17        3PY        -0.43753   0.26467   0.73915  -0.10237  -0.20067
  18        3PZ         0.04352  -0.02052  -0.00244   0.04195   0.03221
  19 3   O  1S         -0.00893   0.09510  -0.01427   0.01748   0.05811
  20        2S          0.01037  -0.06793   0.01040  -0.01212  -0.02625
  21        2PX        -0.03502  -0.15277   0.03829  -0.02114  -0.03502
  22        2PY         0.02397   0.01418  -0.03003  -0.03538   0.21878
  23        2PZ        -0.00504  -0.00548   0.00666  -0.00243  -0.00835
  24        3S          0.04252  -0.80888   0.12691  -0.15230  -0.61790
  25        3PX        -0.08644  -0.26146   0.04967  -0.03930  -0.12824
  26        3PY         0.03665   0.03854  -0.00669  -0.00973   0.44676
  27        3PZ        -0.00967  -0.01165   0.01450  -0.00582  -0.01471
  28 4   C  1S          0.06778  -0.07190   0.09432   0.00298  -0.05593
  29        2S         -0.04468   0.05521  -0.07180  -0.02339   0.04906
  30        2PX         0.05340  -0.10767   0.06059  -0.10488  -0.18814
  31        2PY         0.12942   0.13657   0.21317  -0.12054   0.16744
  32        2PZ        -0.00068   0.00952  -0.01062  -0.00315   0.00342
  33        3S         -0.84603   0.55069  -1.07964   0.29704   0.44864
  34        3PX         0.11714  -0.38717   0.25698  -0.29434  -0.66473
  35        3PY         0.40162   0.20851   0.92689  -0.18005   0.43439
  36        3PZ        -0.00576   0.02649  -0.03389  -0.02166   0.00480
  37 5   C  1S          0.02647   0.04608  -0.08154  -0.09120  -0.08150
  38        2S         -0.01027  -0.03341   0.07437   0.06536   0.02130
  39        2PX        -0.12892  -0.10166  -0.01164   0.13155   0.08095
  40        2PY         0.06030   0.09106   0.00237  -0.05729   0.03230
  41        2PZ        -0.00528  -0.02162   0.01132   0.02270  -0.00633
  42        3S         -0.43061  -0.56179   0.64554   1.05878   1.50055
  43        3PX        -0.36037  -0.41567   0.28430   0.66139   0.12540
  44        3PY         0.16031   0.35805  -0.19721  -0.33978   0.45225
  45        3PZ        -0.01464  -0.05545   0.04218   0.09359  -0.02986
  46 6   H  1S          0.06500   0.08124  -0.02629  -0.03603   0.07435
  47        2S          0.78104   1.00191  -0.67873  -1.34128  -0.47043
  48 7   H  1S          0.07258  -0.02456   0.07049  -0.00712   0.02577
  49        2S          0.98892  -0.27097   1.63544  -0.50342  -0.09599
  50 8   H  1S          0.07220  -0.07906  -0.04351  -0.01531  -0.04002
  51        2S          1.10654  -0.99112  -1.08866   0.17170   0.48113
  52 9   H  1S          0.05657   0.05972   0.01362   0.05650   0.00325
  53        2S          0.80092   0.69928   0.13057   1.66567  -0.74821
                          26        27        28        29        30
                           V         V         V         V         V
     Eigenvalues --     0.23341   0.33177   0.40026   0.45941   0.69969
   1 1   C  1S         -0.08859   0.07285  -0.03758   0.11635  -0.02467
   2        2S          0.02513  -0.03455  -0.01159  -0.02153   0.04574
   3        2PX         0.04512   0.17215  -0.21304   0.13572  -0.09766
   4        2PY        -0.02287   0.07812   0.12748   0.20894  -0.01520
   5        2PZ         0.01546   0.00473   0.00238   0.01452   0.31294
   6        3S          1.55806  -1.00124   1.03781  -2.38281  -0.01599
   7        3PX         0.01751   1.28107  -1.56651   1.16446  -0.01753
   8        3PY        -0.37449   0.05626   0.39031   1.96849  -0.07787
   9        3PZ         0.06075  -0.02539   0.04063  -0.02834  -0.11983
  10 2   C  1S         -0.03721  -0.08011   0.03588  -0.09000   0.01711
  11        2S          0.03286  -0.00043  -0.02531   0.03807  -0.00149
  12        2PX        -0.17172   0.24875  -0.13105  -0.10169  -0.07307
  13        2PY        -0.22605  -0.16630  -0.00906  -0.25778   0.05358
  14        2PZ        -0.00948  -0.01089   0.00325   0.00148   0.58249
  15        3S          0.17727   1.28626  -0.94476   1.42050  -0.09047
  16        3PX        -0.73865   0.92708  -1.66004   0.57705  -0.00124
  17        3PY        -0.69608  -0.93217  -0.16293  -1.24442   0.04664
  18        3PZ        -0.02618  -0.06958   0.04387  -0.06859  -0.53402
  19 3   O  1S          0.07812   0.06590   0.00274   0.00177  -0.01128
  20        2S         -0.03800  -0.03102  -0.00117   0.00345   0.03409
  21        2PX        -0.02918  -0.18161   0.00728   0.02338   0.06707
  22        2PY        -0.19401   0.00351  -0.21174  -0.27546  -0.03918
  23        2PZ        -0.00642   0.00284  -0.00680  -0.00794   0.05095
  24        3S         -0.82709  -0.82984  -0.05046  -0.06062  -0.08305
  25        3PX        -0.13047  -0.52527   0.00504   0.03269   0.01809
  26        3PY        -0.42946  -0.01111  -0.58704  -0.60167   0.03082
  27        3PZ        -0.01610   0.00413  -0.01565  -0.00971   0.14089
  28 4   C  1S          0.06718  -0.07197  -0.04559   0.09262   0.00971
  29        2S         -0.04237  -0.00376   0.01230  -0.03220   0.01940
  30        2PX        -0.11173   0.19408   0.17861   0.14208   0.27603
  31        2PY         0.04686   0.16759   0.01443  -0.27393  -0.16433
  32        2PZ         0.00201  -0.00958   0.00550  -0.00375   0.59484
[...]
     1  C    5.237694   0.477486  -0.066613  -0.137248   0.422947  -0.031154
     2  C    0.477486   5.075767   0.278685  -0.167821  -0.131836   0.004659
     3  O   -0.066613   0.278685   8.111993   0.290139  -0.068312   0.001628
     4  C   -0.137248  -0.167821   0.290139   5.081728   0.475613  -0.023517
     5  C    0.422947  -0.131836  -0.068312   0.475613   5.226315   0.387799
     6  H   -0.031154   0.004659   0.001628  -0.023517   0.387799   0.470994
     7  H    0.002901   0.004353  -0.030851   0.387507  -0.036613  -0.000342
     8  H   -0.040572   0.380445  -0.028209   0.004471   0.002859  -0.000035
     9  H    0.387897  -0.027986   0.001931   0.004542  -0.026774  -0.001046
               7          8          9
     1  C    0.002901  -0.040572   0.387897
     2  C    0.004353   0.380445  -0.027986
     3  O   -0.030851  -0.028209   0.001931
     4  C    0.387507   0.004471   0.004542
     5  C   -0.036613   0.002859  -0.026774
     6  H   -0.000342  -0.000035  -0.001046
     7  H    0.459322  -0.000066  -0.000031
     8  H   -0.000066   0.469284  -0.000134
     9  H   -0.000031  -0.000134   0.473500
 Mulliken charges:
               1
     1  C   -0.253339
     2  C    0.106248
     3  O   -0.490390
     4  C    0.084587
     5  C   -0.251999
     6  H    0.191015
     7  H    0.213821
     8  H    0.211956
     9  H    0.188101
 Sum of Mulliken charges =   0.00000
 Mulliken charges with hydrogens summed into heavy atoms:
               1
     1  C   -0.065238
     2  C    0.318205
     3  O   -0.490390
     4  C    0.298408
     5  C   -0.060984
 Electronic spatial extent (au):  <R**2>=            292.4130
 Charge=              0.0000 electrons
 Dipole moment (field-independent basis, Debye):
    X=              0.5750    Y=              0.0765    Z=              0.1542  Tot=              0.6003
 Quadrupole moment (field-independent basis, Debye-Ang):
   XX=            -27.7966   YY=            -24.1326   ZZ=            -31.9475
   XY=             -0.1315   XZ=              0.2165   YZ=             -0.0555
 Traceless Quadrupole moment (field-independent basis, Debye-Ang):
   XX=              0.1623   YY=              3.8263   ZZ=             -3.9886
   XY=             -0.1315   XZ=              0.2165   YZ=             -0.0555
 Octapole moment (field-independent basis, Debye-Ang**2):
  XXX=              2.1620  YYY=              0.2440  ZZZ=              0.0935  XYY=             -3.9415
  XXY=              0.1258  XXZ=              0.5150  XZZ=             -3.5661  YZZ=             -0.1950
  YYZ=              0.4176  XYZ=              0.0227
 Hexadecapole moment (field-independent basis, Debye-Ang**3):
 XXXX=           -162.7436 YYYY=           -153.9466 ZZZZ=            -31.2963 XXXY=             -1.3378
 XXXZ=              1.0505 YYYX=              1.8323 YYYZ=             -0.2325 ZZZX=              0.3840
 ZZZY=             -0.0618 XXYY=            -46.5284 XXZZ=            -35.5411 YYZZ=            -38.8098
 XXYZ=             -0.1079 YYXZ=              0.5299 ZZXY=              0.2327
 N-N= 1.605924072751D+02 E-N=-8.535074362734D+02  KE= 2.268371297174D+02
 Orbital energies and kinetic energies (alpha):
                                 1                 2
   1         O               -19.131803         28.828095
   2         O               -10.180386         15.802929
   3         O               -10.178555         15.799720
   4         O               -10.130354         15.806970
   5         O               -10.125434         15.807613
   6         O                -1.162296          2.588506
   7         O                -0.796617          1.698224
   8         O                -0.752840          1.874029
   9         O                -0.609104          1.640943
  10         O                -0.566655          1.471241
  11         O                -0.549748          1.275946
  12         O                -0.466787          1.690402
  13         O                -0.457862          1.498688
  14         O                -0.411858          1.371038
  15         O                -0.409153          1.688048
  16         O                -0.359335          1.943173
  17         O                -0.276582          1.413936
  18         O                -0.222361          1.219064
  19         V                 0.018884          1.875464
  20         V                 0.066276          1.491651
  21         V                 0.141684          1.097948
  22         V                 0.155790          1.713577
  23         V                 0.179417          1.260416
  24         V                 0.197574          1.243905
  25         V                 0.226088          1.882730
  26         V                 0.233410          1.906155
  27         V                 0.331767          2.086532
  28         V                 0.400264          1.758034
  29         V                 0.459411          2.906998
  30         V                 0.699695          2.562236
  31         V                 0.700447          2.682698
  32         V                 0.712369          2.726562
  33         V                 0.727734          2.490482
  34         V                 0.771377          2.525556
  35         V                 0.784485          2.631655
  36         V                 0.786760          2.614411
  37         V                 0.812027          2.774692
  38         V                 0.835201          2.574149
  39         V                 0.951851          2.935973
  40         V                 0.976714          3.161156
  41         V                 1.020878          3.098142
  42         V                 1.030291          3.041410
  43         V                 1.182816          2.687132
  44         V                 1.205277          2.838111
  45         V                 1.320724          2.538801
  46         V                 1.372987          2.936945
  47         V                 1.496999          4.936796
  48         V                 1.588310          3.477471
  49         V                 1.616208          3.551401
  50         V                 1.716537          4.471143
  51         V                 1.941876          3.963295
  52         V                 2.111046          4.234242
  53         V                 3.231771          6.841362
 Total kinetic energy from orbitals= 2.268371297174D+02
 No NMR shielding tensors so no spin-rotation constants.
 Leave Link  601 at Tue Dec 15 16:12:06 2015, MaxMem=    33554432 cpu:         0.1
 (Enter /home/Applications/g09/g09/l701.exe)
 Compute integral first derivatives.
 ... and contract with generalized density number  6.
 Leave Link  701 at Tue Dec 15 16:12:06 2015, MaxMem=    33554432 cpu:         0.1
 (Enter /home/Applications/g09/g09/l702.exe)
 L702 exits ... SP integral derivatives will be done elsewhere.
 Leave Link  702 at Tue Dec 15 16:12:06 2015, MaxMem=    33554432 cpu:         0.0
 (Enter /home/Applications/g09/g09/l703.exe)
 Compute integral first derivatives, UseDBF=F ICtDFT=           0.
 Integral derivatives from FoFJK, PRISM(SPDF).
 Calling FoFJK, ICntrl=  10005127 FMM=F ISym2X=0 I1Cent= 0 IOpClX= 0 NMat=1 NMatS=1 NMatT=0.
 FoFJK:  IHMeth= 1 ICntrl=10005127 DoSepK=F KAlg= 0 I1Cent=   0 FoldK=F
 IRaf=         0 NMat=   1 IRICut=       1 DoRegI=T DoRafI=F ISym2E= 0.
 FoFCou: FMM=F IPFlag=           0 FMFlag=      100000 FMFlg1=         800
         NFxFlg=           0 DoJE=F BraDBF=F KetDBF=F FulRan=T
         wScrn=  0.000000 ICntrl=10005127 IOpCl=  0 I1Cent=           0 NGrid=           0
         NMat0=    1 NMatS0=      1 NMatT0=    0 NMatD0=    1 NMtDS0=    0 NMtDT0=    0
 Symmetry not used in FoFCou.
 Leave Link  703 at Tue Dec 15 16:12:07 2015, MaxMem=    33554432 cpu:         1.6
 (Enter /home/Applications/g09/g09/l716.exe)
 Dipole        = 2.80596689D-01 2.47627191D-01 7.35852477D-02
 ***** Axes restored to original set *****
 -------------------------------------------------------------------
 Center     Atomic                   Forces (Hartrees/Bohr)
 Number     Number              X              Y              Z
 -------------------------------------------------------------------
      1        6          -0.011248627   -0.002856365   -0.000456659
      2        6           0.018301515   -0.110226676    0.000265779
      3        8          -0.074640698   -0.005158902   -0.001930601
      4        6           0.002080195    0.093809945    0.001837483
      5        6           0.035487510    0.007517254    0.003246819
      6        1           0.007315324    0.014634737   -0.002125150
      7        1           0.001417296    0.003316890    0.000048882
      8        1          -0.001021611    0.015479483   -0.000106406
      9        1           0.022309096   -0.016516367   -0.000780147
 -------------------------------------------------------------------
 Cartesian Forces:  Max     0.110226676 RMS     0.033139893
 Z-matrix is all fixed cartesians, so copy forces.
 Force constants in Cartesian coordinates: 
                1             2             3             4             5 
      1  0.822723D+00
      2 -0.903704D-01  0.781631D+00
      3  0.145437D-02  0.151929D-01  0.172521D+00
      4 -0.395525D+00 -0.675494D-01 -0.209737D-01  0.848109D+00
      5 -0.472854D-01 -0.182923D+00 -0.757940D-02 -0.897717D-01  0.939501D+00
      6 -0.221794D-01 -0.784641D-02 -0.778413D-01  0.112040D-01  0.178844D-01
      7 -0.729186D-02  0.291797D-01  0.155077D-02 -0.338274D+00  0.218601D+00
      8 -0.530019D-02  0.213098D-01  0.647765D-03  0.264597D+00 -0.458663D+00
      9 -0.143767D-02  0.261338D-02  0.108253D-01  0.113561D-01 -0.149073D-01
     10  0.842949D-02  0.290459D-04 -0.382175D-04  0.260466D-01  0.190999D-01
     11  0.333476D-01  0.884741D-04  0.461355D-03 -0.191245D-01 -0.140257D-01
     12 -0.100188D-02  0.342391D-03 -0.227484D-02 -0.122375D-02 -0.107112D-02
     13 -0.161881D+00  0.107767D-01  0.143947D-02  0.806709D-02 -0.328503D-01
     14 -0.841558D-02 -0.389973D+00  0.417904D-02  0.279744D-04 -0.134023D-03
     15  0.137409D-02  0.113238D-01 -0.725661D-01  0.330018D-03 -0.257794D-02
     16  0.166129D-01  0.404456D-04 -0.123395D-03 -0.105317D-04  0.317175D-05
     17 -0.242581D-01 -0.294594D-04  0.174693D-02 -0.409822D-05  0.123423D-05
     18  0.111300D-02  0.329127D-03  0.172697D-01 -0.215491D-03  0.648980D-04
     19  0.000000D+00  0.000000D+00 -0.384957D-04 -0.291838D-05  0.221125D-05
     20 -0.117992D-05  0.238589D-05  0.126450D-03  0.208288D-05 -0.157820D-05
     21 -0.466129D-04  0.942545D-04  0.499543D-02  0.123917D-03 -0.938923D-04
     22  0.626551D-02 -0.254936D-01  0.503421D-03 -0.143655D+00 -0.865122D-01
     23 -0.261602D-02  0.106188D-01 -0.100766D-03 -0.826956D-01 -0.305694D+00
     24 -0.210731D-03 -0.330065D-02  0.178149D-01  0.112641D-02  0.524341D-02
     25 -0.289334D+00  0.143388D+00  0.162257D-01 -0.475617D-02  0.187137D-01
     26  0.144899D+00 -0.240726D+00 -0.146743D-01 -0.548123D-02  0.219397D-01
     27  0.209349D-01 -0.187488D-01 -0.707441D-01 -0.172755D-02  0.303697D-02
                6             7             8             9            10 
      6  0.161303D+00
      7  0.777807D-02  0.621441D+00
      8 -0.130985D-01 -0.268849D-01  0.847984D+00
      9 -0.504791D-01 -0.879272D-02  0.125743D-01  0.620517D-01
     10 -0.458452D-04 -0.314042D+00 -0.238488D+00 -0.661074D-03  0.882275D+00
     11  0.653418D-05 -0.194065D+00 -0.416150D+00 -0.585763D-04  0.313115D-01
     12 -0.120816D-02  0.472473D-03  0.862353D-03 -0.496200D-01  0.904271D-02
     13  0.828930D-03 -0.735044D-02  0.538169D-02 -0.240005D-03 -0.425931D+00
     14  0.413449D-04 -0.291146D-01  0.213851D-01 -0.100947D-02  0.750178D-01
     15 -0.388761D-03  0.279179D-03  0.492411D-04  0.946149D-02 -0.370401D-02
     16  0.169323D-03  0.000000D+00  0.000000D+00  0.361489D-04 -0.417215D-02
     17  0.658889D-04 -0.550039D-05  0.381635D-05  0.458725D-03  0.607597D-02
     18  0.346455D-02 -0.676667D-04  0.469493D-04  0.564331D-02 -0.458115D-03
     19 -0.140422D-03  0.222890D-01 -0.163679D-01  0.768895D-03 -0.172607D+00
     20  0.100221D-03  0.119621D-01 -0.878439D-02  0.523818D-03  0.106955D+00
     21  0.596247D-02 -0.495728D-04  0.345705D-04  0.377314D-02 -0.424052D-02
     22  0.289847D-04  0.232238D-01  0.170552D-01 -0.911662D-03  0.455062D-05
     23  0.173090D-02 -0.969776D-02 -0.712260D-02  0.403336D-03 -0.103359D-05
     24 -0.577942D-01 -0.975412D-03 -0.830669D-03  0.372853D-02  0.141037D-03
     25  0.235641D-02  0.498949D-05  0.731539D-05 -0.118034D-03 -0.358212D-05
     26  0.111564D-02  0.252889D-04  0.370775D-04 -0.598248D-03  0.000000D+00
     27  0.169818D-01 -0.195113D-03 -0.286067D-03  0.461571D-02 -0.359668D-04
               11            12            13            14            15 
     11  0.911370D+00
     12 -0.102967D-01  0.177930D+00
     13  0.516382D-01 -0.547819D-02  0.867101D+00
     14 -0.194299D+00  0.378487D-02  0.655804D-01  0.752710D+00
     15  0.337033D-02 -0.915110D-01 -0.946846D-02 -0.198061D-01  0.184371D+00
     16 -0.164532D-01  0.170625D-02 -0.305474D+00 -0.128504D+00  0.129427D-01
     17  0.240762D-01 -0.422957D-03 -0.126722D+00 -0.203357D+00  0.979732D-02
     18 -0.536015D-03  0.229256D-01  0.145404D-01  0.112483D-01 -0.754721D-01
     19  0.113341D+00 -0.412047D-02  0.640963D-02  0.253753D-01 -0.858364D-03
     20 -0.311063D+00  0.677706D-02  0.343881D-02  0.136541D-01  0.255795D-03
     21  0.708718D-02 -0.668826D-01 -0.516525D-04  0.115469D-02  0.243304D-01
     22 -0.344801D-05  0.218960D-03  0.157568D-04 -0.474538D-05 -0.253330D-03
     23  0.000000D+00 -0.497328D-04 -0.804343D-05  0.242238D-05  0.129318D-03
     24 -0.106864D-03  0.678620D-02 -0.239186D-03  0.720341D-04  0.384551D-02
     25  0.724330D-05  0.383891D-03  0.190432D-01  0.369094D-04 -0.641805D-03
     26  0.139263D-05  0.738084D-04  0.227646D-01  0.105976D-04 -0.254176D-02
     27  0.727274D-04  0.385451D-02 -0.133127D-02  0.335306D-03  0.179299D-01
               16            17            18            19            20 
     16  0.293073D+00
     17  0.144920D+00  0.179326D+00
     18 -0.143802D-01 -0.108147D-01  0.410081D-01
     19  0.000000D+00  0.552238D-05  0.679372D-04  0.143911D+00
     20 -0.142947D-05 -0.181399D-04 -0.223160D-03 -0.122356D+00  0.306210D+00
     21 -0.564714D-04 -0.716616D-03 -0.881593D-02  0.432092D-02 -0.756019D-02
     22  0.000000D+00  0.000000D+00  0.000000D+00  0.000000D+00  0.000000D+00
     23  0.000000D+00  0.000000D+00  0.000000D+00  0.000000D+00  0.000000D+00
     24  0.000000D+00  0.000000D+00  0.000000D+00  0.000000D+00  0.000000D+00
     25 -0.293173D-04 -0.114083D-04 -0.599869D-03  0.000000D+00  0.000000D+00
     26 -0.563668D-05 -0.219341D-05 -0.115333D-03  0.000000D+00  0.000000D+00
     27 -0.294365D-03 -0.114547D-03 -0.602307D-02  0.000000D+00  0.000000D+00
               21            22            23            24            25 
     21  0.366371D-01
     22  0.000000D+00  0.114156D+00
     23  0.000000D+00  0.950130D-01  0.302167D+00
     24  0.000000D+00 -0.437440D-05 -0.189967D-02  0.319642D-01
     25  0.000000D+00 -0.106892D-04  0.545656D-05  0.162261D-03  0.275085D+00
     26  0.000000D+00 -0.541776D-04  0.276562D-04  0.822407D-03 -0.162147D+00
     27  0.000000D+00  0.418001D-03 -0.213378D-03 -0.634518D-02 -0.177686D-01
               26            27 
     26  0.218712D+00
     27  0.159178D-01  0.397305D-01
 Leave Link  716 at Tue Dec 15 16:12:07 2015, MaxMem=    33554432 cpu:         0.0
 (Enter /home/Applications/g09/g09/l103.exe)

 GradGradGradGradGradGradGradGradGradGradGradGradGradGradGradGradGradGrad
 Berny optimization.
 Search for a local minimum.
 Step number   1 out of a maximum of    2
 All quantities printed in internal units (Hartrees-Bohrs-Radians)
 Second derivative matrix not updated -- first step.
 ITU=  0
     Eigenvalues ---    0.01492   0.02976   0.07148   0.07380   0.07546
     Eigenvalues ---    0.07993   0.12041   0.12925   0.15968   0.23219
     Eigenvalues ---    0.25127   0.27362   0.33763   0.42069   0.63060
     Eigenvalues ---    0.86658   1.15860   1.31318   1.37615   1.46645
     Eigenvalues ---    1.70857
 Quadratic step=3.757D-01 exceeds max=3.000D-01 adjusted using Lamda=-4.251D-02.
 Angle between NR and scaled steps=   8.82 degrees.
 Angle between quadratic step and forces=  45.20 degrees.
 Linear search not attempted -- first point.
 TrRot= -0.004753 -0.006733 -0.001980  0.356039 -0.001683 -0.355330
 Variable       Old X    -DE/DX   Delta X   Delta X   Delta X     New X
                                 (Linear)    (Quad)   (Total)
    X1        1.87153  -0.01125   0.00000   0.00751   0.00365   1.87518
    Y1       -1.33470  -0.00286   0.00000  -0.04104  -0.04647  -1.38117
    Z1        0.06596  -0.00046   0.00000  -0.01045  -0.01027   0.05569
    X2       -0.74581   0.01830   0.00000  -0.01627  -0.01940  -0.76521
    Y2       -1.98094  -0.11023   0.00000  -0.14596  -0.15318  -2.13412
    Z2       -0.08473   0.00027   0.00000   0.01086   0.00643  -0.07830
    X3       -2.20801  -0.07464   0.00000  -0.04059  -0.04526  -2.25327
    Y3        0.01341  -0.00516   0.00000  -0.02029  -0.02859  -0.01518
    Z3       -0.02294  -0.00193   0.00000  -0.02337  -0.02891  -0.05184
    X4       -0.71642   0.00208   0.00000  -0.01557  -0.02185  -0.73827
    Y4        2.04463   0.09381   0.00000   0.12604   0.11880   2.16342
    Z4       -0.02195   0.00184   0.00000   0.01252   0.01066  -0.01130
    X5        1.86450   0.03549   0.00000   0.04636   0.04054   1.90505
    Y5        1.39393   0.00752   0.00000   0.04671   0.04132   1.43525
    Z5        0.01441   0.00325   0.00000   0.00839   0.01027   0.02468
    X6        3.50843   0.00732   0.00000   0.04758   0.04113   3.54956
    Y6        2.51509   0.01463   0.00000   0.09141   0.08726   2.60234
    Z6       -0.08726  -0.00213   0.00000  -0.01168  -0.00652  -0.09378
    X7       -1.67249   0.00142   0.00000  -0.00601  -0.01347  -1.68596
    Y7        3.82588   0.00332   0.00000   0.12370   0.11581   3.94169
    Z7       -0.07441   0.00005   0.00000   0.00905   0.00674  -0.06767
    X8       -1.54311  -0.00102   0.00000  -0.05671  -0.05856  -1.60166
    Y8       -3.89144   0.01548   0.00000  -0.07247  -0.08030  -3.97174
    Z8       -0.07301  -0.00011   0.00000   0.01801   0.01118  -0.06183
    X9        3.37222   0.02231   0.00000   0.07600   0.07321   3.44544
    Y9       -2.59740  -0.01652   0.00000  -0.05039  -0.05464  -2.65204
    Z9       -0.05932  -0.00078   0.00000  -0.00149   0.00042  -0.05890
         Item               Value     Threshold  Converged?
 Maximum Force            0.110227     0.000450     NO 
 RMS     Force            0.033140     0.000300     NO 
 Maximum Displacement     0.153184     0.001800     NO 
 RMS     Displacement     0.057529     0.001200     NO 
 Predicted change in Energy=-2.012739D-02
 GradGradGradGradGradGradGradGradGradGradGradGradGradGradGradGradGradGrad

 Leave Link  103 at Tue Dec 15 16:12:08 2015, MaxMem=    33554432 cpu:         0.0
 (Enter /home/Applications/g09/g09/l9999.exe)
 1\1\GINC-DUSTIN-DESKTOP\Force\RB3LYP-FC\3-21G\C4H4O1\DUSTIN\15-Dec-201
 5\0\\#P B3LYP/3-21G CIS(Singlets,NStates=15) pop(full) force\\FuranDFT
 \\0,1\C,0.990371,-0.706295,0.034904\C,-0.394667,-1.048267,-0.044838\O,
 -1.168427,0.007096,-0.012138\C,-0.379112,1.081969,-0.011616\C,0.986653
 ,0.737637,0.007625\H,1.856579,1.330928,-0.046174\H,-0.885046,2.024566,
 -0.039375\H,-0.816576,-2.059261,-0.038634\H,1.784504,-1.374484,-0.0313
 93\\Version=ES64L-G09RevD.01\State=1-A\HF=-228.7348148\RMSD=4.035e-09\
 RMSF=3.314e-02\Dipole=0.2944013,-0.232056,-0.0703307\PG=C01 [X(C4H4O1)
 ]\\@


 CHEMISTRY BEGAN BY SAYING IT WOULD CHANGE THE BASER
 METALS INTO GOLD.  BY NOT DOING THAT IT HAS DONE MUCH
 GREATER THINGS.  --  RALPH WALDO EMERSON
 Job cpu time:       0 days  0 hours  0 minutes 50.1 seconds.
 File lengths (MBytes):  RWF=     14 Int=      0 D2E=      0 Chk=      3 Scr=      1
 Normal termination of Gaussian 09 at Tue Dec 15 16:12:08 2015.
