 Entering Gaussian System, Link 0=g09
 Input=FuranAM1_66P11.com
 Output=FuranAM1_66P11.log
 Initial command:
 /home/Applications/g09/g09/l1.exe "/home/Applications/g09/scratch/Gau-9837.inp" -scrdir="/home/Applications/g09/scratch/"
 Entering Link 1 = /home/Applications/g09/g09/l1.exe PID=      9839.
  
 Copyright (c) 1988,1990,1992,1993,1995,1998,2003,2009,2013,
            Gaussian, Inc.  All Rights Reserved.
  
 This is part of the Gaussian(R) 09 program.  It is based on
 the Gaussian(R) 03 system (copyright 2003, Gaussian, Inc.),
 the Gaussian(R) 98 system (copyright 1998, Gaussian, Inc.),
 the Gaussian(R) 94 system (copyright 1995, Gaussian, Inc.),
 the Gaussian 92(TM) system (copyright 1992, Gaussian, Inc.),
 the Gaussian 90(TM) system (copyright 1990, Gaussian, Inc.),
 the Gaussian 88(TM) system (copyright 1988, Gaussian, Inc.),
 the Gaussian 86(TM) system (copyright 1986, Carnegie Mellon
 University), and the Gaussian 82(TM) system (copyright 1983,
 Carnegie Mellon University). Gaussian is a federally registered
 trademark of Gaussian, Inc.
  
 This software contains proprietary and confidential information,
 including trade secrets, belonging to Gaussian, Inc.
  
 This software is provided under written license and may be
 used, copied, transmitted, or stored only in accord with that
 written license.
  
 The following legend is applicable only to US Government
 contracts under FAR:
  
                    RESTRICTED RIGHTS LEGEND
  
 Use, reproduction and disclosure by the US Government is
 subject to restrictions as set forth in subparagraphs (a)
 and (c) of the Commercial Computer Software - Restricted
 Rights clause in FAR 52.227-19.
  
 Gaussian, Inc.
 340 Quinnipiac St., Bldg. 40, Wallingford CT 06492
  
  
 ---------------------------------------------------------------
 Warning -- This program may not be used in any manner that
 competes with the business of Gaussian, Inc. or will provide
 assistance to any competitor of Gaussian, Inc.  The licensee
 of this program is prohibited from giving any competitor of
 Gaussian, Inc. access to this program.  By using this program,
 the user acknowledges that Gaussian, Inc. is engaged in the
 business of creating and licensing software in the field of
 computational chemistry and represents and warrants to the
 licensee that it is not a competitor of Gaussian, Inc. and that
 it will not use this program in any manner prohibited above.
 ---------------------------------------------------------------
  

 Cite this work as:
 Gaussian 09, Revision D.01,
 M. J. Frisch, G. W. Trucks, H. B. Schlegel, G. E. Scuseria, 
 M. A. Robb, J. R. Cheeseman, G. Scalmani, V. Barone, B. Mennucci, 
 G. A. Petersson, H. Nakatsuji, M. Caricato, X. Li, H. P. Hratchian, 
 A. F. Izmaylov, J. Bloino, G. Zheng, J. L. Sonnenberg, M. Hada, 
 M. Ehara, K. Toyota, R. Fukuda, J. Hasegawa, M. Ishida, T. Nakajima, 
 Y. Honda, O. Kitao, H. Nakai, T. Vreven, J. A. Montgomery, Jr., 
 J. E. Peralta, F. Ogliaro, M. Bearpark, J. J. Heyd, E. Brothers, 
 K. N. Kudin, V. N. Staroverov, T. Keith, R. Kobayashi, J. Normand, 
 K. Raghavachari, A. Rendell, J. C. Burant, S. S. Iyengar, J. Tomasi, 
 M. Cossi, N. Rega, J. M. Millam, M. Klene, J. E. Knox, J. B. Cross, 
 V. Bakken, C. Adamo, J. Jaramillo, R. Gomperts, R. E. Stratmann, 
 O. Yazyev, A. J. Austin, R. Cammi, C. Pomelli, J. W. Ochterski, 
 R. L. Martin, K. Morokuma, V. G. Zakrzewski, G. A. Voth, 
 P. Salvador, J. J. Dannenberg, S. Dapprich, A. D. Daniels, 
 O. Farkas, J. B. Foresman, J. V. Ortiz, J. Cioslowski, 
 and D. J. Fox, Gaussian, Inc., Wallingford CT, 2013.
 
 ******************************************
 Gaussian 09:  ES64L-G09RevD.01 24-Apr-2013
                15-Dec-2015 
 ******************************************
 ------------------------------------------------------------
 #P AM1(Input,print) CIS(Singlets,NStates=15) pop(full) force
 ------------------------------------------------------------
 1/10=7,30=1,38=1/1,3;
 2/12=2,17=6,18=5,40=1/2;
 3/5=2,16=1,25=1,41=700000,71=1,135=100,136=1/1,2,8,3;
 4/35=1/1;
 5/5=2,35=1,38=5/2;
 8/6=1,10=1,108=15/1;
 9/15=2,41=15,42=1,48=1,49=10/14;
 10/5=4/2;
 6/7=3,18=1/1;
 7/12=6,13=5,29=1/1,2,3,16;
 1/10=7,30=1/3;
 99//99;
 Leave Link    1 at Tue Dec 15 17:08:03 2015, MaxMem=           0 cpu:         0.0
 (Enter /home/Applications/g09/g09/l101.exe)
 -----------------
 AM1-Reparam Input
 -----------------
 Symbolic Z-matrix:
 Charge =  0 Multiplicity = 1
 6                     0.91069  -0.7282   -0.03911 
 6                    -0.31239  -1.09331   0.02641 
 8                    -1.17181   0.04519   0.02449 
 6                    -0.30241   1.07355  -0.0164 
 6                     0.95346   0.68149  -0.03048 
 1                     1.78104   1.41511   0.02753 
 1                    -0.79597   2.08686  -0.01859 
 1                    -0.88516  -2.0123    0.03157 
 1                     1.84809  -1.37046  -0.032 
 
 NAtoms=      9 NQM=        9 NQMF=       0 NMMI=      0 NMMIF=      0
                NMic=       0 NMicF=      0.
                    Isotopes and Nuclear Properties:
 (Nuclear quadrupole moments (NQMom) in fm**2, nuclear magnetic moments (NMagM)
  in nuclear magnetons)

  Atom         1           2           3           4           5           6           7           8           9
 IAtWgt=          12          12          16          12          12           1           1           1           1
 AtmWgt=  12.0000000  12.0000000  15.9949146  12.0000000  12.0000000   1.0078250   1.0078250   1.0078250   1.0078250
 NucSpn=           0           0           0           0           0           1           1           1           1
 AtZEff=   0.0000000   0.0000000   0.0000000   0.0000000   0.0000000   0.0000000   0.0000000   0.0000000   0.0000000
 NQMom=    0.0000000   0.0000000   0.0000000   0.0000000   0.0000000   0.0000000   0.0000000   0.0000000   0.0000000
 NMagM=    0.0000000   0.0000000   0.0000000   0.0000000   0.0000000   2.7928460   2.7928460   2.7928460   2.7928460
 AtZNuc=   6.0000000   6.0000000   8.0000000   6.0000000   6.0000000   1.0000000   1.0000000   1.0000000   1.0000000
 Leave Link  101 at Tue Dec 15 17:08:03 2015, MaxMem=    33554432 cpu:         0.0
 (Enter /home/Applications/g09/g09/l103.exe)

 GradGradGradGradGradGradGradGradGradGradGradGradGradGradGradGradGradGrad
 Berny optimization.
 Initialization pass.
 Trust Radius=3.00D-01 FncErr=1.00D-07 GrdErr=1.00D-07
 Number of steps in this run=      2 maximum allowed number of steps=      2.
 GradGradGradGradGradGradGradGradGradGradGradGradGradGradGradGradGradGrad

 Leave Link  103 at Tue Dec 15 17:08:03 2015, MaxMem=    33554432 cpu:         0.0
 (Enter /home/Applications/g09/g09/l202.exe)
                          Input orientation:                          
 ---------------------------------------------------------------------
 Center     Atomic      Atomic             Coordinates (Angstroms)
 Number     Number       Type             X           Y           Z
 ---------------------------------------------------------------------
      1          6           0        0.910690   -0.728204   -0.039108
      2          6           0       -0.312386   -1.093313    0.026407
      3          8           0       -1.171811    0.045194    0.024489
      4          6           0       -0.302413    1.073553   -0.016403
      5          6           0        0.953455    0.681487   -0.030479
      6          1           0        1.781040    1.415109    0.027528
      7          1           0       -0.795973    2.086858   -0.018594
      8          1           0       -0.885161   -2.012304    0.031570
      9          1           0        1.848089   -1.370458   -0.032004
 ---------------------------------------------------------------------
                    Distance matrix (angstroms):
                    1          2          3          4          5
     1  C    0.000000
     2  C    1.278089   0.000000
     3  O    2.222386   1.426469   0.000000
     4  C    2.172202   2.167312   1.347237   0.000000
     5  C    1.410366   2.180712   2.219154   1.315720   0.000000
     6  H    2.314247   3.267203   3.255151   2.111721   1.107458
     7  H    3.292065   3.217044   2.076416   1.127117   2.244038
     8  H    2.208843   1.082886   2.077382   3.140766   3.262034
     9  H    1.136335   2.178962   3.335725   3.255471   2.238493
                    6          7          8          9
     6  H    0.000000
     7  H    2.663526   0.000000
     8  H    4.342327   4.100439   0.000000
     9  H    2.787010   4.352502   2.808320   0.000000
 Stoichiometry    C4H4O
 Framework group  C1[X(C4H4O)]
 Deg. of freedom    21
 Full point group                 C1      NOp   1
 Largest Abelian subgroup         C1      NOp   1
 Largest concise Abelian subgroup C1      NOp   1
                         Standard orientation:                         
 ---------------------------------------------------------------------
 Center     Atomic      Atomic             Coordinates (Angstroms)
 Number     Number       Type             X           Y           Z
 ---------------------------------------------------------------------
      1          6           0        0.863239    0.784245   -0.020767
      2          6           0        1.033205   -0.481976    0.015390
      3          8           0       -0.225510   -1.153029    0.003608
      4          6           0       -1.105698   -0.133167   -0.010492
      5          6           0       -0.522442    1.046167   -0.000348
      6          1           0       -1.117619    1.976527    0.081247
      7          1           0       -2.183631   -0.462451   -0.015577
      8          1           0        1.851522   -1.191054    0.001046
      9          1           0        1.643985    1.609587    0.001716
 ---------------------------------------------------------------------
 Rotational constants (GHZ):      9.6996399      9.4281899      4.7824224
 Leave Link  202 at Tue Dec 15 17:08:03 2015, MaxMem=    33554432 cpu:         0.0
 (Enter /home/Applications/g09/g09/l301.exe)

 Semi-emprical parameters in input format:
 Method=8 CoreType=1 PeptideFC=0.0106250000 RIJScale=0.5404210000
 ****
 H       
 PQN=1 NValence=1 F0ss=0.4721550000 ZetaOverlap=0.9835670000 U=-0.4188110000
 Beta=-0.2268830000 CoreKO=1.1349760000 KON=0,0,0,1.0589200000 KON=1,0,1,1.0589200000
 KON=0,1,1,1.1396950000 KON=2,1,1,1.0589200000 EISol=-0.4188110042 EHeat=0.0830298228
 Alpha=1.5853010000
 GCore=0.0082130000,1.5127750000,2.2676710000
 GCore=0.0003530000,1.4368830000,3.4779940000
 GCore=-0.0013010000,0.5600570000,3.5492140000
 ****
 C       
 PQN=2,2 NValence=4 F0ss=0.4494440000 F0sp=0.4215150000 F0pp=0.3768030000 F2pp=0.1878900000
 G1sp=0.2568940000
 ZetaOverlap=1.8086650000,1.3781170000
 U=-1.7561760000,-1.4847700000
 Beta=-0.5453250000,-0.3336900000 DDN=0,1,0.7474020000 DDN=1,1,0.7852540000
 CoreKO=1.1124280000 KON=0,0,0,1.1124280000 KON=1,0,1,0.8998210000 KON=0,1,1,1.0382390000
 KON=2,1,1,0.8516400000 EISol=-4.4398989268 EHeat=0.2723305520 Alpha=1.3653470000
 DipHyp=1.4947180026
 GCore=0.0007890000,1.4001430000,2.6678360000
 GCore=0.0028980000,1.3403210000,3.0480430000
 GCore=-0.0015090000,1.4001430000,3.8739390000
 GCore=-0.0001030000,1.2693240000,4.6088130000
 ****
 O       
 PQN=2,2 NValence=6 F0ss=0.5666750000 F0sp=0.5321300000 F0pp=0.4958710000 F2pp=0.2358080000
 G1sp=0.4473530000
 ZetaOverlap=2.7336680000,2.5079050000
 U=-3.6309050000,-2.1535170000
 Beta=-1.1573400000,-1.2994290000 DDN=0,1,0.4953610000 DDN=1,1,0.4852320000
 CoreKO=0.8515990000 KON=0,0,0,0.8822960000 KON=1,0,1,0.4685440000 KON=0,1,1,0.8671530000
 KON=2,1,1,0.5515580000 EISol=-11.6164441184 EHeat=0.0949133088 Alpha=2.4031680000
 DipHyp=0.9906650029
 GCore=0.0195120000,1.2640290000,1.6023330000
 GCore=0.0051530000,1.9602000000,2.7307880000
 ****
 
 Standard basis: VSTO-6G (5D, 7F)
 Ernie: Thresh=  0.10000D-02 Tol=  0.10000D-05 Strict=F.
  NNHCO=     0 NNPyr=     0 NCTC=     0               EPep=         0.000000000
    EC=        68.953404522  ECS=         1.984363610   EG=         0.369953973
   EHC=         0.000000000  EAt=       -31.051283842  AtH=         1.516354808
 EPDDG=         0.000000000  ECC=        71.307722105 EAtT=        32.567638650
 There are    24 symmetry adapted cartesian basis functions of A   symmetry.
 There are    24 symmetry adapted basis functions of A   symmetry.
    24 basis functions,   144 primitive gaussians,    24 cartesian basis functions
    13 alpha electrons       13 beta electrons
       nuclear repulsion energy       103.8753607555 Hartrees.
 IExCor=    0 DFT=F Ex=HF Corr=None ExCW=0 ScaHFX=  1.000000
 ScaDFX=  1.000000  1.000000  1.000000  1.000000 ScalE2=  1.000000  1.000000
 IRadAn=      0 IRanWt=     -1 IRanGd=            0 ICorTp=0 IEmpDi=  4
 Integral buffers will be    131072 words long.
 Regular integral format.
 Two-electron integral symmetry is turned off.
 Leave Link  301 at Tue Dec 15 17:08:03 2015, MaxMem=    33554432 cpu:         0.0
 (Enter /home/Applications/g09/g09/l302.exe)
 Do NDO integrals.
 NPDir=0 NMtPBC=     1 NCelOv=     1 NCel=       1 NClECP=     1 NCelD=      1
         NCelK=      1 NCelE2=     1 NClLst=     1 CellRange=     0.0.
 One-electron integrals computed using PRISM.
 NBasis=    24 RedAO= F EigKep=  0.00D+00  NBF=    24
 NBsUse=    24 1.00D-04 EigRej=  0.00D+00 NBFU=    24
 Leave Link  302 at Tue Dec 15 17:08:03 2015, MaxMem=    33554432 cpu:         0.0
 (Enter /home/Applications/g09/g09/l308.exe)
 Leave Link  308 at Tue Dec 15 17:08:03 2015, MaxMem=    33554432 cpu:         0.0
 (Enter /home/Applications/g09/g09/l303.exe)
 DipDrv:  MaxL=1.
 Leave Link  303 at Tue Dec 15 17:08:03 2015, MaxMem=    33554432 cpu:         0.0
 (Enter /home/Applications/g09/g09/l401.exe)
 Simple Huckel Guess.
 JPrj=0 DoOrth=F DoCkMO=F.
 Leave Link  401 at Tue Dec 15 17:08:03 2015, MaxMem=    33554432 cpu:         0.0
 (Enter /home/Applications/g09/g09/l502.exe)
 Closed shell SCF:
 Using DIIS extrapolation, IDIIS=  1040.
 Overlap will be assumed to be unity.
 Two-electron integral symmetry not used.
 Keep J ints in memory in canonical form, NReq=888082.
 IVT=       79475 IEndB=       79475 NGot=    33554432 MDV=    33473473
 LenX=    33473473 LenY=    33472456
 Requested convergence on RMS density matrix=1.00D-08 within 128 cycles.
 Requested convergence on MAX density matrix=1.00D-06.
 Requested convergence on             energy=1.00D-06.
 No special actions if energy rises.
 FoFCou: FMM=F IPFlag=           0 FMFlag=           0 FMFlg1=           0
         NFxFlg=           0 DoJE=F BraDBF=F KetDBF=F FulRan=T
         wScrn=  0.000000 ICntrl=     600 IOpCl=  2 I1Cent=           0 NGrid=           0
         NMat0=    1 NMatS0=     54 NMatT0=    0 NMatD0=    1 NMtDS0=    0 NMtDT0=    0
 Symmetry not used in FoFCou.

 Cycle   1  Pass 1  IDiag  1:
 E=  3.19542444541939    
 DIIS: error= 1.20D-01 at cycle   1 NSaved=   1.
 NSaved= 1 IEnMin= 1 EnMin=  3.19542444541939     IErMin= 1 ErrMin= 1.20D-01
 ErrMax= 1.20D-01  0.00D+00 EMaxC= 1.00D-01 BMatC= 3.89D-01 BMatP= 3.89D-01
 IDIUse=3 WtCom= 0.00D+00 WtEn= 1.00D+00
 Coeff-Com:  0.100D+01
 Coeff-En:   0.100D+01
 Coeff:      0.100D+01
 GapD=    2.000 DampG=2.000 DampE=0.250 DampFc=0.5000 IDamp=-1.
 Damping current iteration by 5.00D-01
 RMSDP=6.08D-02 MaxDP=6.66D-01              OVMax= 0.00D+00

 Cycle   2  Pass 1  IDiag  1:
 E=  2.41613389842618     Delta-E=       -0.779290546993 Rises=F Damp=T
 DIIS: error= 7.01D-02 at cycle   2 NSaved=   2.
 NSaved= 2 IEnMin= 2 EnMin=  2.41613389842618     IErMin= 2 ErrMin= 7.01D-02
 ErrMax= 7.01D-02  0.00D+00 EMaxC= 1.00D-01 BMatC= 1.29D-01 BMatP= 3.89D-01
 IDIUse=3 WtCom= 2.99D-01 WtEn= 7.01D-01
 Coeff-Com: -0.111D+01 0.211D+01
 Coeff-En:   0.000D+00 0.100D+01
 Coeff:     -0.332D+00 0.133D+01
 RMSDP=3.30D-02 MaxDP=3.37D-01 DE=-7.79D-01 OVMax= 0.00D+00

 Cycle   3  Pass 1  IDiag  1:
 E=  1.47351460805619     Delta-E=       -0.942619290370 Rises=F Damp=F
 DIIS: error= 1.26D-02 at cycle   3 NSaved=   3.
 NSaved= 3 IEnMin= 3 EnMin=  1.47351460805619     IErMin= 3 ErrMin= 1.26D-02
 ErrMax= 1.26D-02  0.00D+00 EMaxC= 1.00D-01 BMatC= 5.73D-03 BMatP= 1.29D-01
 IDIUse=3 WtCom= 8.74D-01 WtEn= 1.26D-01
 Coeff-Com:  0.335D+00-0.692D+00 0.136D+01
 Coeff-En:   0.000D+00 0.000D+00 0.100D+01
 Coeff:      0.293D+00-0.605D+00 0.131D+01
 RMSDP=7.14D-03 MaxDP=3.67D-02 DE=-9.43D-01 OVMax= 0.00D+00

 Cycle   4  Pass 1  IDiag  3:
 E=  1.45119203190504     Delta-E=       -0.022322576151 Rises=F Damp=F
 DIIS: error= 3.45D-03 at cycle   4 NSaved=   4.
 NSaved= 4 IEnMin= 4 EnMin=  1.45119203190504     IErMin= 4 ErrMin= 3.45D-03
 ErrMax= 3.45D-03  0.00D+00 EMaxC= 1.00D-01 BMatC= 4.27D-04 BMatP= 5.73D-03
 IDIUse=3 WtCom= 9.65D-01 WtEn= 3.45D-02
 Coeff-Com: -0.668D-01 0.121D+00-0.412D+00 0.136D+01
 Coeff-En:   0.000D+00 0.000D+00 0.000D+00 0.100D+01
 Coeff:     -0.645D-01 0.117D+00-0.398D+00 0.135D+01
 Gap=     0.422 Goal=   None    Shift=    0.000
 RMSDP=2.54D-03 MaxDP=1.29D-02 DE=-2.23D-02 OVMax= 2.69D-02

 Cycle   5  Pass 1  IDiag  3:
 E=  1.44925559138649     Delta-E=       -0.001936440519 Rises=F Damp=F
 DIIS: error= 4.67D-04 at cycle   5 NSaved=   5.
 NSaved= 5 IEnMin= 5 EnMin=  1.44925559138649     IErMin= 5 ErrMin= 4.67D-04
 ErrMax= 4.67D-04  0.00D+00 EMaxC= 1.00D-01 BMatC= 1.28D-05 BMatP= 4.27D-04
 IDIUse=3 WtCom= 9.95D-01 WtEn= 4.67D-03
 Coeff-Com:  0.101D-01-0.173D-01 0.929D-01-0.433D+00 0.135D+01
 Coeff-En:   0.000D+00 0.000D+00 0.000D+00 0.000D+00 0.100D+01
 Coeff:      0.100D-01-0.172D-01 0.924D-01-0.431D+00 0.135D+01
 Gap=     0.422 Goal=   None    Shift=    0.000
 RMSDP=4.78D-04 MaxDP=2.45D-03 DE=-1.94D-03 OVMax= 4.00D-03

 Cycle   6  Pass 1  IDiag  3:
 E=  1.44918936132056     Delta-E=       -0.000066230066 Rises=F Damp=F
 DIIS: error= 1.44D-04 at cycle   6 NSaved=   6.
 NSaved= 6 IEnMin= 6 EnMin=  1.44918936132056     IErMin= 6 ErrMin= 1.44D-04
 ErrMax= 1.44D-04  0.00D+00 EMaxC= 1.00D-01 BMatC= 7.58D-07 BMatP= 1.28D-05
 IDIUse=3 WtCom= 9.99D-01 WtEn= 1.44D-03
 Coeff-Com: -0.106D-02 0.188D-02-0.344D-01 0.182D+00-0.721D+00 0.157D+01
 Coeff-En:   0.000D+00 0.000D+00 0.000D+00 0.000D+00 0.000D+00 0.100D+01
 Coeff:     -0.106D-02 0.188D-02-0.344D-01 0.182D+00-0.720D+00 0.157D+01
 Gap=     0.422 Goal=   None    Shift=    0.000
 RMSDP=1.29D-04 MaxDP=6.60D-04 DE=-6.62D-05 OVMax= 8.64D-04

 Cycle   7  Pass 1  IDiag  3:
 E=  1.44918546054642     Delta-E=       -0.000003900774 Rises=F Damp=F
 DIIS: error= 1.54D-05 at cycle   7 NSaved=   7.
 NSaved= 7 IEnMin= 7 EnMin=  1.44918546054642     IErMin= 7 ErrMin= 1.54D-05
 ErrMax= 1.54D-05  0.00D+00 EMaxC= 1.00D-01 BMatC= 1.28D-08 BMatP= 7.58D-07
 IDIUse=1 WtCom= 1.00D+00 WtEn= 0.00D+00
 Coeff-Com: -0.144D-03 0.300D-03 0.839D-02-0.494D-01 0.213D+00-0.544D+00
 Coeff-Com:  0.137D+01
 Coeff:     -0.144D-03 0.300D-03 0.839D-02-0.494D-01 0.213D+00-0.544D+00
 Coeff:      0.137D+01
 Gap=     0.422 Goal=   None    Shift=    0.000
 RMSDP=1.49D-05 MaxDP=8.49D-05 DE=-3.90D-06 OVMax= 1.06D-04

 Cycle   8  Pass 1  IDiag  3:
 E=  1.44918540035056     Delta-E=       -0.000000060196 Rises=F Damp=F
 DIIS: error= 2.98D-06 at cycle   8 NSaved=   8.
 NSaved= 8 IEnMin= 8 EnMin=  1.44918540035056     IErMin= 8 ErrMin= 2.98D-06
 ErrMax= 2.98D-06  0.00D+00 EMaxC= 1.00D-01 BMatC= 3.61D-10 BMatP= 1.28D-08
 IDIUse=1 WtCom= 1.00D+00 WtEn= 0.00D+00
 Coeff-Com: -0.205D-04 0.185D-04-0.123D-02 0.745D-02-0.327D-01 0.860D-01
 Coeff-Com: -0.300D+00 0.124D+01
 Coeff:     -0.205D-04 0.185D-04-0.123D-02 0.745D-02-0.327D-01 0.860D-01
 Coeff:     -0.300D+00 0.124D+01
 Gap=     0.422 Goal=   None    Shift=    0.000
 RMSDP=2.34D-06 MaxDP=1.61D-05 DE=-6.02D-08 OVMax= 2.12D-05

 Cycle   9  Pass 1  IDiag  3:
 E=  1.44918539866647     Delta-E=       -0.000000001684 Rises=F Damp=F
 DIIS: error= 6.16D-07 at cycle   9 NSaved=   9.
 NSaved= 9 IEnMin= 9 EnMin=  1.44918539866647     IErMin= 9 ErrMin= 6.16D-07
 ErrMax= 6.16D-07  0.00D+00 EMaxC= 1.00D-01 BMatC= 1.82D-11 BMatP= 3.61D-10
 IDIUse=1 WtCom= 1.00D+00 WtEn= 0.00D+00
 Coeff-Com:  0.291D-05-0.610D-06 0.679D-05-0.204D-03 0.116D-02-0.382D-02
 Coeff-Com:  0.287D-01-0.340D+00 0.131D+01
 Coeff:      0.291D-05-0.610D-06 0.679D-05-0.204D-03 0.116D-02-0.382D-02
 Coeff:      0.287D-01-0.340D+00 0.131D+01
 Gap=     0.422 Goal=   None    Shift=    0.000
 RMSDP=6.27D-07 MaxDP=4.27D-06 DE=-1.68D-09 OVMax= 5.17D-06

 Cycle  10  Pass 1  IDiag  3:
 E=  1.44918539856586     Delta-E=       -0.000000000101 Rises=F Damp=F
 DIIS: error= 1.79D-07 at cycle  10 NSaved=  10.
 NSaved=10 IEnMin=10 EnMin=  1.44918539856586     IErMin=10 ErrMin= 1.79D-07
 ErrMax= 1.79D-07  0.00D+00 EMaxC= 1.00D-01 BMatC= 1.02D-12 BMatP= 1.82D-11
 IDIUse=1 WtCom= 1.00D+00 WtEn= 0.00D+00
 Coeff-Com:  0.182D-05-0.406D-05 0.396D-04-0.172D-03 0.700D-03-0.164D-02
 Coeff-Com: -0.643D-03 0.938D-01-0.550D+00 0.146D+01
 Coeff:      0.182D-05-0.406D-05 0.396D-04-0.172D-03 0.700D-03-0.164D-02
 Coeff:     -0.643D-03 0.938D-01-0.550D+00 0.146D+01
 Gap=     0.422 Goal=   None    Shift=    0.000
 RMSDP=1.66D-07 MaxDP=1.49D-06 DE=-1.01D-10 OVMax= 1.59D-06

 Cycle  11  Pass 1  IDiag  3:
 E=  1.44918539855964     Delta-E=       -0.000000000006 Rises=F Damp=F
 DIIS: error= 2.72D-08 at cycle  11 NSaved=  11.
 NSaved=11 IEnMin=11 EnMin=  1.44918539855964     IErMin=11 ErrMin= 2.72D-08
 ErrMax= 2.72D-08  0.00D+00 EMaxC= 1.00D-01 BMatC= 4.18D-14 BMatP= 1.02D-12
 IDIUse=1 WtCom= 1.00D+00 WtEn= 0.00D+00
 Coeff-Com: -0.132D-06 0.242D-06-0.865D-05 0.478D-04-0.240D-03 0.651D-03
 Coeff-Com: -0.544D-03-0.225D-01 0.148D+00-0.527D+00 0.140D+01
 Coeff:     -0.132D-06 0.242D-06-0.865D-05 0.478D-04-0.240D-03 0.651D-03
 Coeff:     -0.544D-03-0.225D-01 0.148D+00-0.527D+00 0.140D+01
 Gap=     0.422 Goal=   None    Shift=    0.000
 RMSDP=3.44D-08 MaxDP=2.93D-07 DE=-6.22D-12 OVMax= 3.29D-07

 Cycle  12  Pass 1  IDiag  3:
 E=  1.44918539855946     Delta-E=        0.000000000000 Rises=F Damp=F
 DIIS: error= 5.17D-09 at cycle  12 NSaved=  12.
 NSaved=12 IEnMin=12 EnMin=  1.44918539855946     IErMin=12 ErrMin= 5.17D-09
 ErrMax= 5.17D-09  0.00D+00 EMaxC= 1.00D-01 BMatC= 1.56D-15 BMatP= 4.18D-14
 IDIUse=1 WtCom= 1.00D+00 WtEn= 0.00D+00
 Coeff-Com: -0.336D-07 0.105D-06 0.199D-05-0.134D-04 0.695D-04-0.193D-03
 Coeff-Com:  0.285D-03 0.348D-02-0.267D-01 0.110D+00-0.455D+00 0.137D+01
 Coeff:     -0.336D-07 0.105D-06 0.199D-05-0.134D-04 0.695D-04-0.193D-03
 Coeff:      0.285D-03 0.348D-02-0.267D-01 0.110D+00-0.455D+00 0.137D+01
 Gap=     0.422 Goal=   None    Shift=    0.000
 RMSDP=7.05D-09 MaxDP=5.23D-08 DE=-1.71D-13 OVMax= 5.82D-08

 Cycle  13  Pass 2  IDiag  1:
 SCF Done:  E(RAM1) =   1.44918539856     A.U. after   13 cycles
            NFock= 12  Conv=0.71D-08     -V/T= 1.0913
 KE=-1.587187483498D+01 PE=-1.705337796594D+02 EE= 8.397947913744D+01
 Leave Link  502 at Tue Dec 15 17:08:03 2015, MaxMem=    33554432 cpu:         0.0
 (Enter /home/Applications/g09/g09/l801.exe)
 Range of M.O.s used for correlation:     1    24
 NBasis=    24 NAE=    13 NBE=    13 NFC=     0 NFV=     0
 NROrb=     24 NOA=    13 NOB=    13 NVA=    11 NVB=    11
 Leave Link  801 at Tue Dec 15 17:08:04 2015, MaxMem=    33554432 cpu:         0.0
 (Enter /home/Applications/g09/g09/l914.exe)
 RHF ground state
 MDV=    33554432 DFT=F DoStab=F Mixed=F DoRPA=F DoScal=F NonHer=F
 Making orbital integer symmetry assigments:
 Orbital symmetries:
       Occupied  (A) (A) (A) (A) (A) (A) (A) (A) (A) (A) (A) (A)
                 (A)
       Virtual   (A) (A) (A) (A) (A) (A) (A) (A) (A) (A) (A)
    60 initial guesses have been made.
 Convergence on wavefunction:    0.000001000000000
 Davidson Disk Diagonalization:  ConvIn= 1.00D-06 SkipCon=T Conv= 1.00D-06.
 Max sub-space:   240 roots to seek:    60 dimension of matrix:          286
 Iteration     1 Dimension    60 NMult     0 NNew     60
 CISAX will form    60 AO SS matrices at one time.
 NMat=    60 NSing=    60 JSym2X= 0.
 FoFJK:  IHMeth= 8 ICntrl=       0 DoSepK=F KAlg= 0 I1Cent=   0 FoldK=F
 IRaf=         1 NMat= 120 IRICut=       1 DoRegI=T DoRafI=F ISym2E= 0.
 FoFCou: FMM=F IPFlag=           0 FMFlag=      100000 FMFlg1=           0
         NFxFlg=           0 DoJE=F BraDBF=F KetDBF=F FulRan=T
         wScrn=  0.000000 ICntrl=       0 IOpCl=  0 I1Cent=           0 NGrid=           0
         NMat0=  120 NMatS0=     60 NMatT0=    0 NMatD0=  120 NMtDS0=    0 NMtDT0=    0
 Symmetry not used in FoFCou.
 New state      1 was old state      2
 New state      2 was old state      1
 New state      5 was old state      7
 New state      7 was old state      5
 New state      8 was old state     12
 New state      9 was old state     13
 New state     10 was old state     11
 New state     11 was old state     10
 New state     12 was old state     17
 New state     13 was old state      9
 New state     14 was old state      8
 New state     15 was old state     16
 Excitation Energies [eV] at current iteration:
 Root      1 :     5.595033271535132
 Root      2 :     5.961342476114844
 Root      3 :     6.234201476419037
 Root      4 :     7.298540943105362
 Root      5 :     7.557287387890067
 Root      6 :     7.866306378830616
 Root      7 :     8.116739034479096
 Root      8 :     8.441056412821863
 Root      9 :     8.492053850324636
 Root     10 :     8.731674402727149
 Root     11 :     8.870847357740283
 Root     12 :     9.087508908757783
 Root     13 :     9.212652774550300
 Root     14 :     9.429235187613564
 Root     15 :     9.785002978939563
 Root     16 :     9.839542321839390
 Root     17 :     9.998233644360626
 Root     18 :    10.076747196004180
 Root     19 :    10.204798732346510
 Root     20 :    10.678446691183480
 Root     21 :    11.082362454452750
 Root     22 :    11.097318013536860
 Root     23 :    11.114047076314240
 Root     24 :    11.217448989206720
 Root     25 :    11.299359269077840
 Root     26 :    11.345281206487610
 Root     27 :    11.472284705260240
 Root     28 :    11.562206360836360
 Root     29 :    11.787173100602990
 Root     30 :    11.951687502729660
 Root     31 :    11.981836364323380
 Root     32 :    12.101748349046990
 Root     33 :    12.338194776089810
 Root     34 :    12.503725390702900
 Root     35 :    12.533351336720920
 Root     36 :    12.635830612030280
 Root     37 :    12.711506216746500
 Root     38 :    12.769083704987580
 Root     39 :    12.793672106481420
 Root     40 :    12.954106760847630
 Root     41 :    13.126449303369660
 Root     42 :    13.269485136380170
 Root     43 :    13.283760276810960
 Root     44 :    13.407725712852280
 Root     45 :    13.655914540031690
 Root     46 :    13.713519100403930
 Root     47 :    13.890726467425430
 Root     48 :    14.137009446682080
 Root     49 :    14.474035546224450
 Root     50 :    14.676079234530550
 Root     51 :    14.993448352091570
 Root     52 :    15.139030195556120
 Root     53 :    15.447255493749400
 Root     54 :    15.509540340218630
 Root     55 :    15.717016796307260
 Root     56 :    15.731817412611370
 Root     57 :    15.960048891288970
 Root     58 :    16.224793492823420
 Root     59 :    16.343603326574740
 Root     60 :    16.501410220945420
 Iteration     2 Dimension   120 NMult    60 NNew     60
 CISAX will form    60 AO SS matrices at one time.
 NMat=    60 NSing=    60 JSym2X= 0.
 Root      1 not converged, maximum delta is    0.011281303212380
 Root      2 not converged, maximum delta is    0.020713876889924
 Root      3 not converged, maximum delta is    0.052192402443561
 Root      4 not converged, maximum delta is    0.043475229313938
 Root      5 not converged, maximum delta is    0.034915863806443
 Root      6 not converged, maximum delta is    0.042225418477030
 Root      7 not converged, maximum delta is    0.033689648885675
 New state      8 was old state      9
 Root      8 not converged, maximum delta is    0.120089308804758
 New state      9 was old state      8
 Root      9 not converged, maximum delta is    0.068437604825686
 Root     10 not converged, maximum delta is    0.106532438645970
 Root     11 not converged, maximum delta is    0.120147486962071
 Root     12 not converged, maximum delta is    0.046723048289676
 Root     13 not converged, maximum delta is    0.132423496636831
 Root     14 not converged, maximum delta is    0.167938773275809
 Root     15 not converged, maximum delta is    0.087411770147842
 Excitation Energies [eV] at current iteration:
 Root      1 :     5.581368045091216   Change is   -0.013665226443916
 Root      2 :     5.887628308008860   Change is   -0.073714168105985
 Root      3 :     6.159315477803787   Change is   -0.074885998615250
 Root      4 :     7.243303137801279   Change is   -0.055237805304083
 Root      5 :     7.489467187675400   Change is   -0.067820200214667
 Root      6 :     7.791725179285141   Change is   -0.074581199545476
 Root      7 :     8.018856028394922   Change is   -0.097883006084175
 Root      8 :     8.391968253794213   Change is   -0.100085596530422
 Root      9 :     8.415479266364111   Change is   -0.025577146457753
 Root     10 :     8.698827333431641   Change is   -0.032847069295509
 Root     11 :     8.823485361687441   Change is   -0.047361996052843
 Root     12 :     9.028627698569956   Change is   -0.058881210187827
 Root     13 :     9.131863930333337   Change is   -0.080788844216964
 Root     14 :     9.235950704907406   Change is   -0.193284482706158
 Root     15 :     9.614453580839562   Change is   -0.170549398100001
 Root     16 :     9.671259247270305   Change is   -0.168283074569085
 Root     17 :     9.777151311638921   Change is   -0.221082332721706
 Root     18 :     9.907742626543339   Change is   -0.297056105803176
 Root     19 :     9.990613244885829   Change is   -0.086133951118348
 Root     20 :    10.434912499282020   Change is   -0.243534191901468
 Root     21 :    10.842580918769260   Change is   -0.254737094767600
 Root     22 :    10.903372038121510   Change is   -0.178990416331231
 Root     23 :    10.985732203677240   Change is   -0.128314872637003
 Root     24 :    11.027488417016450   Change is   -0.189960572190277
 Root     25 :    11.129002726496400   Change is   -0.216278479991213
 Root     26 :    11.138759195669290   Change is   -0.160600073408547
 Root     27 :    11.293760853600710   Change is   -0.178523851659530
 Root     28 :    11.400929733613910   Change is   -0.161276627222455
 Root     29 :    11.593486622238440   Change is   -0.193686478364546
 Root     30 :    11.727930981826310   Change is   -0.253905382497070
 Root     31 :    11.869302653263300   Change is   -0.082384849466365
 Root     32 :    11.980585835241000   Change is   -0.121162513805986
 Root     33 :    12.149548510827560   Change is   -0.188646265262253
 Root     34 :    12.250341742386810   Change is   -0.253383648316089
 Root     35 :    12.349738922861420   Change is   -0.183612413859495
 Root     36 :    12.517939556655460   Change is   -0.251144148332121
 Root     37 :    12.543514263703700   Change is   -0.092316348326577
 Root     38 :    12.619695140857070   Change is   -0.091811075889428
 Root     39 :    12.649626012748200   Change is   -0.619859123631974
 Root     40 :    12.669024240607130   Change is   -0.124647865874290
 Root     41 :    12.816636681941910   Change is   -0.137470078905720
 Root     42 :    12.914649168888970   Change is   -0.211800134480687
 Root     43 :    13.039872359596870   Change is   -0.243887917214091
 Root     44 :    13.326093797596410   Change is   -0.329820742435281
 Root     45 :    13.384305046219360   Change is   -0.023420666632928
 Root     46 :    13.543906133678860   Change is   -0.169612966725073
 Root     47 :    13.755696934160710   Change is   -0.135029533264725
 Root     48 :    13.931522824024640   Change is   -0.205486622657447
 Root     49 :    14.343765935398780   Change is   -0.130269610825668
 Root     50 :    14.547870939206810   Change is   -0.128208295323739
 Root     51 :    14.787376094668960   Change is   -0.206072257422611
 Root     52 :    14.904445164240630   Change is   -0.234585031315494
 Root     53 :    15.220803747621460   Change is   -0.226451746127935
 Root     54 :    15.254972391892120   Change is   -0.254567948326510
 Root     55 :    15.487516535616640   Change is   -0.229500260690628
 Root     56 :    15.566214160128440   Change is   -0.393834731160540
 Root     57 :    15.722123592285970   Change is   -0.009693820325399
 Root     58 :    15.754906063919620   Change is   -0.588697262655124
 Root     59 :    16.017989463263620   Change is   -0.206804029559795
 Root     60 :    16.399250668027820   Change is   -0.102159552917606
 Iteration     3 Dimension   135 NMult   120 NNew     15
 CISAX will form    15 AO SS matrices at one time.
 NMat=    15 NSing=    15 JSym2X= 0.
 Root      1 not converged, maximum delta is    0.000037495845992
 Root      2 not converged, maximum delta is    0.002196154197915
 Root      3 not converged, maximum delta is    0.000129385982699
 Root      4 not converged, maximum delta is    0.000142228926750
 Root      5 not converged, maximum delta is    0.000182844132286
 Root      6 not converged, maximum delta is    0.000253002594373
 Root      7 not converged, maximum delta is    0.003690179377093
 Root      8 not converged, maximum delta is    0.000106539911742
 Root      9 not converged, maximum delta is    0.000329977572286
 Root     10 not converged, maximum delta is    0.000222772948787
 Root     11 not converged, maximum delta is    0.000358279278847
 Root     12 not converged, maximum delta is    0.000663811435793
 Root     13 not converged, maximum delta is    0.003058829946960
 Root     14 not converged, maximum delta is    0.003520476579219
 Root     15 not converged, maximum delta is    0.003178923843298
 Excitation Energies [eV] at current iteration:
 Root      1 :     5.581367746419485   Change is   -0.000000298671732
 Root      2 :     5.886816023626396   Change is   -0.000812284382463
 Root      3 :     6.159312113579254   Change is   -0.000003364224532
 Root      4 :     7.243298400993680   Change is   -0.000004736807598
 Root      5 :     7.489457800182964   Change is   -0.000009387492436
 Root      6 :     7.791717651547828   Change is   -0.000007527737312
 Root      7 :     8.017919485477133   Change is   -0.000936542917787
 Root      8 :     8.391965268509113   Change is   -0.000002985285100
 Root      9 :     8.415463364600701   Change is   -0.000015901763410
 Root     10 :     8.698820540542139   Change is   -0.000006792889501
 Root     11 :     8.823452658490167   Change is   -0.000032703197273
 Root     12 :     9.028579046975230   Change is   -0.000048651594726
 Root     13 :     9.130675109857298   Change is   -0.001188820476037
 Root     14 :     9.234688745062993   Change is   -0.001261959844413
 Root     15 :     9.614286451778565   Change is   -0.000167129060999
 Iteration     4 Dimension   143 NMult   135 NNew      8
 CISAX will form     8 AO SS matrices at one time.
 NMat=     8 NSing=     8 JSym2X= 0.
 Root      1 not converged, maximum delta is    0.000001407046889
 Root      2 not converged, maximum delta is    0.000071847977583
 Root      3 not converged, maximum delta is    0.000004438872790
 Root      4 not converged, maximum delta is    0.000004302889748
 Root      5 not converged, maximum delta is    0.000006036779185
 Root      6 not converged, maximum delta is    0.000006395889122
 Root      7 not converged, maximum delta is    0.000067446336214
 Root      8 not converged, maximum delta is    0.000006674729091
 Root      9 not converged, maximum delta is    0.000007399981419
 Root     10 not converged, maximum delta is    0.000008298124061
 Root     11 not converged, maximum delta is    0.000022329639203
 Root     12 not converged, maximum delta is    0.000019893477845
 Root     13 not converged, maximum delta is    0.000092020539945
 Root     14 not converged, maximum delta is    0.000133294380369
 Root     15 not converged, maximum delta is    0.000050053071148
 Excitation Energies [eV] at current iteration:
 Root      1 :     5.581367745877448   Change is   -0.000000000542037
 Root      2 :     5.886814227516998   Change is   -0.000001796109399
 Root      3 :     6.159312106166308   Change is   -0.000000007412947
 Root      4 :     7.243298393361894   Change is   -0.000000007631787
 Root      5 :     7.489457790800365   Change is   -0.000000009382599
 Root      6 :     7.791717640543217   Change is   -0.000000011004612
 Root      7 :     8.017917910994177   Change is   -0.000001574482957
 Root      8 :     8.391965259544218   Change is   -0.000000008964895
 Root      9 :     8.415463341323996   Change is   -0.000000023276705
 Root     10 :     8.698820520717016   Change is   -0.000000019825124
 Root     11 :     8.823452524751723   Change is   -0.000000133738445
 Root     12 :     9.028578986622708   Change is   -0.000000060352520
 Root     13 :     9.130672843632745   Change is   -0.000002266224554
 Root     14 :     9.234684246728580   Change is   -0.000004498334413
 Root     15 :     9.614285970296836   Change is   -0.000000481481729
 Convergence achieved on expansion vectors.
 ***********************************************************************
 Excited states from <AA,BB:AA,BB> singles matrix:
 ***********************************************************************
 
 1PDM for each excited state written to RWF  633
 Ground to excited state transition densities written to RWF  633
 Ground to excited state transition electric dipole moments (Au):
       state          X           Y           Z        Dip. S.      Osc.
         1         0.0220      0.0109     -0.0113      0.0007      0.0001
         2        -1.3640      0.3735      0.0195      2.0005      0.2885
         3         0.0832     -0.0218     -0.0303      0.0083      0.0013
         4        -0.0946      0.0176     -0.1706      0.0384      0.0068
         5        -0.0399      0.0050     -0.0335      0.0027      0.0005
         6        -0.0371     -0.0026     -0.0657      0.0057      0.0011
         7        -0.0909     -0.4165     -0.0172      0.1820      0.0358
         8        -0.0007      0.0195     -0.0564      0.0036      0.0007
         9        -0.1112     -0.0333      0.0413      0.0152      0.0031
        10        -0.0380     -0.0057      0.2419      0.0600      0.0128
        11         0.1300     -0.0096      0.2685      0.0891      0.0193
        12        -0.0653      0.0839      0.3216      0.1147      0.0254
        13         0.3500      0.4723     -0.0921      0.3541      0.0792
        14        -0.5725      0.2273     -0.0319      0.3805      0.0861
        15         0.0592      0.3463      0.0628      0.1274      0.0300
 Ground to excited state transition velocity dipole moments (Au):
       state          X           Y           Z        Dip. S.      Osc.
         1        -0.0028      0.0002     -0.1192      0.0142      0.0462
         2         0.1439     -0.0447     -0.0208      0.0231      0.0713
         3        -0.0085     -0.0039     -0.1276      0.0164      0.0482
         4         0.0143     -0.0037      0.1336      0.0181      0.0452
         5         0.0114     -0.0006     -0.0046      0.0002      0.0004
         6         0.0091     -0.0059      0.0269      0.0008      0.0020
         7         0.0102      0.0529     -0.0050      0.0029      0.0066
         8         0.0066     -0.0060     -0.0411      0.0018      0.0038
         9         0.0197      0.0050     -0.0071      0.0005      0.0010
        10         0.0082      0.0055      0.0565      0.0033      0.0069
        11        -0.0172      0.0115      0.1257      0.0162      0.0334
        12        -0.0002     -0.0533     -0.0277      0.0036      0.0072
        13        -0.0863     -0.1957      0.0077      0.0458      0.0910
        14         0.0807     -0.0755      0.0249      0.0128      0.0252
        15        -0.0047     -0.0503     -0.1492      0.0248      0.0468
 Ground to excited state transition magnetic dipole moments (Au):
       state          X           Y           Z
         1         0.0565     -0.3196      0.0052
         2        -0.0062      0.0430     -0.4635
         3         0.2432      0.3814      0.0145
         4         0.7878     -0.2305     -0.0386
         5         0.0164     -0.6741     -0.0403
         6         0.2750      0.7564     -0.0300
         7         0.0002     -0.0937     -0.0494
         8        -0.0149     -0.2344     -0.0383
         9        -0.7032     -0.0718     -0.0507
        10        -0.0546     -0.1476     -0.0096
        11        -0.0855      0.3917      0.0117
        12         0.1711     -0.2291      0.0190
        13        -0.0596      0.0248      0.0230
        14        -0.0462      0.1088     -0.1355
        15         0.2584      0.2416      0.0031
 Ground to excited state transition velocity quadrupole moments (Au):
       state          XX          YY          ZZ          XY          XZ          YZ
         1        -0.0040      0.0069      0.0049     -0.0070      0.1481     -0.0835
         2         0.1435     -0.1285      0.0105      0.2661     -0.0026     -0.0334
         3        -0.0045      0.0210     -0.0076     -0.0360     -0.2234      0.0304
         4        -0.0027     -0.0283      0.0069      0.0359      0.0853      0.2261
         5        -0.0072     -0.0064      0.0042      0.0290     -0.3175      0.0286
         6         0.0039     -0.0490      0.0208      0.0078     -0.4259      0.1458
         7         0.1122     -0.3176      0.1320     -0.1594      0.0269     -0.0162
         8        -0.0026     -0.0205      0.0009      0.0131     -0.0371     -0.0791
         9        -0.0096     -0.0611      0.0047      0.0308     -0.0121      0.2213
        10        -0.0182     -0.0217      0.0056      0.0212      0.0467      0.1067
        11         0.0260      0.0352      0.0077     -0.0154     -0.2606     -0.0435
        12        -0.0163     -0.0620     -0.0191      0.0127      0.1139      0.1313
        13         0.0919     -0.1083     -0.0544      0.0055     -0.0374     -0.0065
        14        -0.1172     -0.1474     -0.0617     -0.0302     -0.0906     -0.0103
        15         0.1527      0.0349      0.0154     -0.0561     -0.1415      0.2320
 <0|del|b> * <b|rxdel|0> + <0|del|b> * <b|delr+rdel|0>
 Rotatory Strengths (R) in cgs (10**-40 erg-esu-cm/Gauss)
       state          XX          YY          ZZ    R(velocity)    E-M Angle
         1         0.2200     -2.3708     -0.7201     -0.9569       91.23
         2         3.3962     15.5385      3.4566      7.4638       84.45
         3         0.5726    -13.6670     -3.7827     -5.6257       95.35
         4         1.0833      6.0388     11.3749      6.1657       86.38
         5         0.3283      1.0660      0.5504      0.6483       84.78
         6        -9.3357      3.4817     -0.9493     -2.2678       96.77
         7        -6.4089     -0.8489     -4.0421     -3.7667      145.26
         8         2.5387      1.7153      2.3396      2.1979       73.32
         9        -0.1764    -10.1858    -21.2920    -10.5514      155.15
        10        -0.4550     -1.4549     -2.0716     -1.3272      101.48
        11         7.6549      6.1321      2.4270      5.4047       81.63
        12        18.5348     -0.2516      6.5334      8.2722       47.40
        13       -12.6027      6.1568      7.4194      0.3245       88.20
        14       -19.9950     -7.4789     -4.4474    -10.6404      138.74
        15       -11.3583    -11.1229     -5.1582     -9.2131      104.35
 1/2[<0|r|b>*<b|rxdel|0> + (<0|rxdel|b>*<b|r|0>)*]
 Rotatory Strengths (R) in cgs (10**-40 erg-esu-cm/Gauss)
       state          XX          YY          ZZ     R(length)
         1        -0.8776      2.4611      0.0412      0.5416
         2        -5.9708    -11.3458      6.4076     -3.6364
         3       -14.3053      5.8742      0.3097     -2.7071
         4        52.6912      2.8607     -4.6516     16.9667
         5         0.4631      2.4032     -0.9562      0.6367
         6         7.2198      1.4016     -1.3942      2.4091
         7         0.0132    -27.5983     -0.6030     -9.3960
         8        -0.0077      3.2331     -1.5289      0.5655
         9       -55.2873     -1.6931      1.4817    -18.4996
        10        -1.4657     -0.5972      1.6376     -0.1418
        11         7.8579      2.6730     -2.2194      2.7705
        12         7.8978     13.5894     -4.3233      5.7213
        13        14.7597     -8.2941      1.4970      2.6542
        14       -18.6849    -17.4923     -3.0536    -13.0769
        15       -10.8193    -59.1700     -0.1358    -23.3750
  1/2[<0|del|b>*<b|r|0> + (<0|r|b>*<b|del|0>)*] (Au)
       state          X           Y           Z        Dip. S.   Osc.(frdel)
         1        -0.0001      0.0000      0.0013     -0.0013     -0.0009
         2        -0.1963     -0.0167     -0.0004      0.2134      0.1423
         3        -0.0007      0.0001      0.0039     -0.0032     -0.0022
         4        -0.0014     -0.0001     -0.0228      0.0242      0.0161
         5        -0.0005      0.0000      0.0002      0.0003      0.0002
         6        -0.0003      0.0000     -0.0018      0.0021      0.0014
         7        -0.0009     -0.0220      0.0001      0.0229      0.0152
         8         0.0000     -0.0001      0.0023     -0.0022     -0.0015
         9        -0.0022     -0.0002     -0.0003      0.0026      0.0018
        10        -0.0003      0.0000      0.0137     -0.0133     -0.0089
        11        -0.0022     -0.0001      0.0337     -0.0314     -0.0209
        12         0.0000     -0.0045     -0.0089      0.0134      0.0089
        13        -0.0302     -0.0924     -0.0007      0.1233      0.0822
        14        -0.0462     -0.0172     -0.0008      0.0642      0.0428
        15        -0.0003     -0.0174     -0.0094      0.0271      0.0180

 Excitation energies and oscillator strengths:
 
 Excited State   1:      Singlet-A      5.5814 eV  222.14 nm  f=0.0001  <S**2>=0.000
      11 -> 15        -0.10840
      13 -> 15         0.67950
      13 -> 17        -0.10360
 This state for optimization and/or second-order correction.
 Total Energy, E(CIS) =   1.65429689801    
 Copying the excited state density for this state as the 1-particle RhoCI density.
 
 Excited State   2:      Singlet-A      5.8868 eV  210.61 nm  f=0.2885  <S**2>=0.000
      13 -> 14         0.69055
 
 Excited State   3:      Singlet-A      6.1593 eV  201.30 nm  f=0.0013  <S**2>=0.000
      11 -> 16         0.12259
      13 -> 16         0.67541
      13 -> 21         0.11321
 
 Excited State   4:      Singlet-A      7.2433 eV  171.17 nm  f=0.0068  <S**2>=0.000
      13 -> 15         0.11347
      13 -> 17         0.64825
      13 -> 18        -0.18667
 
 Excited State   5:      Singlet-A      7.4895 eV  165.54 nm  f=0.0005  <S**2>=0.000
      11 -> 14         0.11159
      12 -> 14         0.67668
      13 -> 22        -0.12643
 
 Excited State   6:      Singlet-A      7.7917 eV  159.12 nm  f=0.0011  <S**2>=0.000
      13 -> 19         0.55333
      13 -> 22        -0.39433
 
 Excited State   7:      Singlet-A      8.0179 eV  154.63 nm  f=0.0358  <S**2>=0.000
      11 -> 14         0.29798
      13 -> 17         0.17258
      13 -> 18         0.59848
 
 Excited State   8:      Singlet-A      8.3920 eV  147.74 nm  f=0.0007  <S**2>=0.000
      10 -> 14        -0.11361
      11 -> 15        -0.14372
      13 -> 17        -0.11972
      13 -> 19         0.33483
      13 -> 20        -0.27961
      13 -> 21         0.35868
      13 -> 22         0.32435
 
 Excited State   9:      Singlet-A      8.4155 eV  147.33 nm  f=0.0031  <S**2>=0.000
      10 -> 14         0.65172
      11 -> 14        -0.11440
      13 -> 20        -0.19486
 
 Excited State  10:      Singlet-A      8.6988 eV  142.53 nm  f=0.0128  <S**2>=0.000
      10 -> 14         0.16751
      13 -> 19         0.24066
      13 -> 20         0.50130
      13 -> 22         0.35905
 
 Excited State  11:      Singlet-A      8.8235 eV  140.52 nm  f=0.0193  <S**2>=0.000
      11 -> 15         0.52030
      12 -> 15        -0.22898
      13 -> 15         0.11051
      13 -> 21         0.34013
 
 Excited State  12:      Singlet-A      9.0286 eV  137.32 nm  f=0.0254  <S**2>=0.000
      11 -> 14         0.12527
      11 -> 15        -0.24476
      11 -> 16        -0.11109
      12 -> 15         0.16260
      13 -> 20         0.29264
      13 -> 21         0.41440
      13 -> 22        -0.26944
      13 -> 23         0.11195
 
 Excited State  13:      Singlet-A      9.1307 eV  135.79 nm  f=0.0792  <S**2>=0.000
       8 -> 16        -0.11723
      10 -> 14         0.10360
      10 -> 17        -0.11067
      11 -> 14         0.46679
      12 -> 16         0.28306
      12 -> 17         0.14681
      13 -> 18        -0.22922
 
 Excited State  14:      Singlet-A      9.2347 eV  134.26 nm  f=0.0861  <S**2>=0.000
       8 -> 15         0.16547
       9 -> 15         0.17389
      10 -> 15         0.15173
      11 -> 14         0.13219
      11 -> 15         0.25988
      12 -> 15         0.45559
      12 -> 16        -0.21439
      13 -> 18        -0.10989
 
 Excited State  15:      Singlet-A      9.6143 eV  128.96 nm  f=0.0300  <S**2>=0.000
      11 -> 16         0.54091
      12 -> 15        -0.11175
      12 -> 16        -0.25466
      13 -> 16        -0.13829
      13 -> 20         0.11841
      13 -> 21         0.15190
      13 -> 23        -0.12479
 SavETr:  write IOETrn=   770 NScale= 10 NData=  16 NLR=1 NState=   15 LETran=     280.
 The selected state is a singlet
 CISAX will form     1 AO SS matrices at one time.
 NMat=     1 NSing=     1 JSym2X= 0.
 Leave Link  914 at Tue Dec 15 17:08:04 2015, MaxMem=    33554432 cpu:         0.1
 (Enter /home/Applications/g09/g09/l1002.exe)
 Minotr:  Closed shell wavefunction.
          Computing CIS/TD-HF/TD-KS derivatives.
          Using Z-Vector for PSCF gradient.
          Skipping F1 and S1 gradient terms here.
          IDoAtm=111111111
          Direct CPHF calculation.
          Differentiating once with respect to electric field.
                with respect to dipole field.
          Differentiating once with respect to nuclear coordinates.
          Electric field/nuclear overlap derivatives assumed to be zero.
          Requested convergence is 1.0D-10 RMS, and 1.0D-09 maximum.
          NewPWx=T KeepS1=F KeepF1=F KeepIn=T MapXYZ=F SortEE=F KeepMc=T.
          MDV=      33495423 using IRadAn=       0.
 Keep J ints in memory in canonical form, NReq=871704.
 FoFCou: FMM=F IPFlag=           0 FMFlag=           0 FMFlg1=           0
         NFxFlg=           0 DoJE=F BraDBF=F KetDBF=F FulRan=T
         wScrn=  0.000000 ICntrl=     600 IOpCl=  2 I1Cent=           0 NGrid=           0
         NMat0=    1 NMatS0=     54 NMatT0=    0 NMatD0=    1 NMtDS0=    0 NMtDT0=    0
 Symmetry not used in FoFCou.
          Solving linear equations separately, MaxMat=       0.
          There are     1 degrees of freedom in the 1st order CPHF.  IDoFFX=0 NUNeed=     1.
 LinEq1:  Iter=  0 NonCon=     1 RMS=2.76D-02 Max=1.63D-01 NDo=     1
 AX will form     1 AO Fock derivatives at one time.
 LinEq1:  Iter=  1 NonCon=     1 RMS=5.06D-03 Max=4.43D-02 NDo=     1
 LinEq1:  Iter=  2 NonCon=     1 RMS=6.68D-04 Max=2.82D-03 NDo=     1
 LinEq1:  Iter=  3 NonCon=     1 RMS=8.50D-05 Max=3.95D-04 NDo=     1
 LinEq1:  Iter=  4 NonCon=     1 RMS=1.18D-05 Max=5.67D-05 NDo=     1
 LinEq1:  Iter=  5 NonCon=     1 RMS=1.43D-06 Max=7.21D-06 NDo=     1
 LinEq1:  Iter=  6 NonCon=     1 RMS=1.78D-07 Max=8.41D-07 NDo=     1
 LinEq1:  Iter=  7 NonCon=     1 RMS=1.90D-08 Max=8.22D-08 NDo=     1
 LinEq1:  Iter=  8 NonCon=     1 RMS=2.20D-09 Max=8.91D-09 NDo=     1
 LinEq1:  Iter=  9 NonCon=     1 RMS=2.73D-10 Max=7.81D-10 NDo=     1
 LinEq1:  Iter= 10 NonCon=     0 RMS=2.89D-11 Max=1.29D-10 NDo=     1
 Linear equations converged to 1.000D-10 1.000D-09 after    10 iterations.
 End of Minotr F.D. properties file   721 does not exist.
 End of Minotr F.D. properties file   722 does not exist.
 End of Minotr F.D. properties file   788 does not exist.
 Leave Link 1002 at Tue Dec 15 17:08:04 2015, MaxMem=    33554432 cpu:         0.0
 (Enter /home/Applications/g09/g09/l601.exe)
 Copying SCF densities to generalized density rwf, IOpCl= 0 IROHF=0.

 **********************************************************************

            Population analysis using the SCF density.

 **********************************************************************

 Orbital symmetries:
       Occupied  (A) (A) (A) (A) (A) (A) (A) (A) (A) (A) (A) (A)
                 (A)
       Virtual   (A) (A) (A) (A) (A) (A) (A) (A) (A) (A) (A)
 The electronic state is 1-A.
 Alpha  occ. eigenvalues --   -1.89000  -1.21160  -0.96039  -0.78183  -0.77283
 Alpha  occ. eigenvalues --   -0.67232  -0.62573  -0.48725  -0.47200  -0.38812
 Alpha  occ. eigenvalues --   -0.37047  -0.36133  -0.22947
 Alpha virt. eigenvalues --    0.19284   0.20086   0.22724   0.28903   0.29012
 Alpha virt. eigenvalues --    0.31117   0.34410   0.35590   0.37031   0.40201
 Alpha virt. eigenvalues --    0.44347
     Molecular Orbital Coefficients:
                           1         2         3         4         5
                           O         O         O         O         O
     Eigenvalues --    -1.89000  -1.21160  -0.96039  -0.78183  -0.77283
   1 1   C  1S          0.09073   0.46956  -0.25012  -0.20776  -0.27933
   2        1PX        -0.07279  -0.17356  -0.18516  -0.23379   0.06561
   3        1PY        -0.09402  -0.09856   0.17026   0.07516  -0.35285
   4        1PZ         0.00159   0.00690  -0.00222   0.00212  -0.00616
   5 2   C  1S          0.21841   0.27938  -0.49326   0.04208   0.39139
   6        1PX        -0.22174  -0.09555  -0.05550  -0.21411   0.00066
   7        1PY        -0.06723   0.26924   0.01683  -0.38937  -0.26658
   8        1PZ        -0.00305  -0.00527   0.00845   0.00853  -0.00844
   9 3   O  1S          0.84551  -0.31873  -0.02068   0.09222  -0.24838
  10        1PX         0.00380   0.04012  -0.23317   0.32707   0.09955
  11        1PY         0.06970   0.17184   0.05469  -0.11036   0.15077
  12        1PZ        -0.00038  -0.00063   0.00000   0.00811  -0.00236
  13 4   C  1S          0.24784   0.25247   0.50671  -0.23864   0.32177
  14        1PX         0.19916   0.17781  -0.07076  -0.01778  -0.09880
  15        1PY        -0.16277   0.24080   0.01073   0.52411  -0.01243
  16        1PZ         0.00292   0.00158   0.00471   0.00679  -0.00370
  17 5   C  1S          0.08913   0.45870   0.26505   0.30403  -0.15602
  18        1PX         0.03473   0.13368  -0.22894  -0.15177  -0.27641
  19        1PY        -0.11454  -0.15224  -0.09086   0.12219  -0.25659
  20        1PZ         0.00005  -0.00020   0.00207   0.00809  -0.00428
  21 6   H  1S          0.00909   0.13878   0.14827   0.24159  -0.11368
  22 7   H  1S          0.05704   0.03448   0.26543  -0.15408   0.21146
  23 8   H  1S          0.05662   0.04536  -0.26428   0.04500   0.27920
  24 9   H  1S          0.00831   0.14105  -0.12052  -0.15137  -0.24251
                           6         7         8         9        10
                           O         O         O         O         O
     Eigenvalues --    -0.67232  -0.62573  -0.48725  -0.47200  -0.38812
   1 1   C  1S         -0.16776  -0.01507  -0.09254  -0.10885  -0.07435
   2        1PX        -0.24552   0.00170  -0.10132   0.17479  -0.08692
   3        1PY        -0.12327  -0.00863   0.28112  -0.25956  -0.36765
   4        1PZ        -0.01763   0.40948  -0.00608  -0.00080  -0.03763
   5 2   C  1S         -0.12623   0.01076  -0.01537  -0.12987   0.13925
   6        1PX        -0.40688  -0.01781   0.32923   0.45310  -0.02790
   7        1PY         0.02302   0.00866  -0.39824   0.31249   0.26755
   8        1PZ        -0.01637   0.51114   0.00105  -0.00822  -0.11591
   9 3   O  1S         -0.17474  -0.01375  -0.13310   0.17605  -0.02984
  10        1PX         0.04497  -0.00454  -0.14671  -0.15005  -0.09945
  11        1PY         0.24150   0.01910   0.12806  -0.08942   0.06824
  12        1PZ        -0.01064   0.29062  -0.00624  -0.00229  -0.01284
  13 4   C  1S         -0.09873  -0.00263   0.12790  -0.01693  -0.11071
  14        1PX         0.43178   0.01853   0.44772   0.32465   0.01331
  15        1PY        -0.10372  -0.02010  -0.29882   0.36076  -0.31866
  16        1PZ        -0.02086   0.56035  -0.00185   0.01081   0.07167
  17 5   C  1S         -0.15505  -0.01437   0.15093   0.04430   0.07128
  18        1PX         0.17949   0.00515   0.11165  -0.29404  -0.13195
  19        1PY        -0.20616  -0.00702   0.14209  -0.23384   0.49804
  20        1PZ        -0.02238   0.41212  -0.00028   0.00489   0.05139
  21 6   H  1S         -0.25849   0.00214   0.13147  -0.01888   0.47377
  22 7   H  1S         -0.31243  -0.01383  -0.22323  -0.33187  -0.03140
  23 8   H  1S         -0.29527  -0.00955   0.38423   0.06691  -0.07103
  24 9   H  1S         -0.25406  -0.00782   0.05392  -0.12161  -0.32677
                          11        12        13        14        15
                           O         O         O         V         V
     Eigenvalues --    -0.37047  -0.36133  -0.22947   0.19284   0.20086
   1 1   C  1S          0.00900  -0.04568  -0.00850  -0.01469  -0.10220
   2        1PX         0.12193   0.50904  -0.00446  -0.01101   0.09116
   3        1PY         0.08257   0.13032   0.01178   0.00774   0.01319
   4        1PZ        -0.31004   0.06352   0.51085   0.67728   0.02919
   5 2   C  1S         -0.01353   0.07704  -0.01417   0.00991  -0.08660
   6        1PX        -0.06853  -0.30508   0.00323  -0.00669   0.05821
   7        1PY        -0.05430  -0.02236  -0.01277   0.00964   0.07059
   8        1PZ        -0.62742   0.12218  -0.38810  -0.28144  -0.01192
   9 3   O  1S         -0.01619  -0.07675   0.00084   0.00001   0.02144
  10        1PX         0.03418   0.08693   0.00859  -0.00506   0.07706
  11        1PY         0.03821   0.21125  -0.00690   0.00005   0.17510
  12        1PZ         0.04387  -0.01888  -0.35395  -0.00840  -0.00055
  13 4   C  1S          0.03557   0.10549   0.00037   0.01933  -0.28191
  14        1PX         0.03921   0.22225  -0.00338  -0.02345   0.48453
  15        1PY         0.04052  -0.00151   0.00859  -0.00673   0.19842
  16        1PZ         0.64110  -0.15312  -0.28700   0.23257   0.01474
  17 5   C  1S         -0.03537  -0.10594  -0.00448   0.01420  -0.07208
  18        1PX        -0.06392  -0.41446   0.02268  -0.02187   0.08740
  19        1PY        -0.04639   0.12604  -0.03449   0.03382   0.11619
  20        1PZ         0.18194  -0.02934   0.61482  -0.63404  -0.03079
  21 6   H  1S         -0.01889   0.21917  -0.00995  -0.02984   0.00288
  22 7   H  1S         -0.02648  -0.15193   0.00613  -0.03889   0.73603
  23 8   H  1S         -0.03270  -0.19295   0.00415   0.00460   0.06181
  24 9   H  1S          0.13277   0.39095   0.00821   0.00727  -0.02165
                          16        17        18        19        20
                           V         V         V         V         V
     Eigenvalues --     0.22724   0.28903   0.29012   0.31117   0.34410
   1 1   C  1S         -0.04172  -0.09507   0.03478   0.24239  -0.22071
   2        1PX        -0.08552  -0.26306   0.09613   0.32702  -0.08636
   3        1PY         0.11097  -0.37485   0.11159   0.16472  -0.15396
   4        1PZ        -0.01027   0.03790   0.08556   0.02414  -0.00521
   5 2   C  1S         -0.29599  -0.16722   0.04040  -0.12014  -0.06977
   6        1PX        -0.38941   0.00576  -0.00014  -0.04556   0.18380
   7        1PY         0.36744  -0.13071   0.02873  -0.09099   0.05635
   8        1PZ         0.00234  -0.08426  -0.28084   0.00408   0.00277
   9 3   O  1S          0.01711  -0.02908   0.00806  -0.01202   0.08175
  10        1PX        -0.00659  -0.04947   0.00765   0.07203   0.20066
  11        1PY         0.14761  -0.05542   0.01695  -0.03353   0.29377
  12        1PZ         0.00538   0.25725   0.84871  -0.02826  -0.00231
  13 4   C  1S         -0.02757  -0.26811   0.08386  -0.01808   0.36552
  14        1PX        -0.11230  -0.01707   0.00889  -0.01367  -0.11229
  15        1PY         0.03192  -0.17911   0.05426  -0.02464   0.32129
  16        1PZ        -0.00710  -0.08963  -0.31717   0.01901   0.00293
  17 5   C  1S         -0.11402  -0.03618   0.00649  -0.19419  -0.36610
  18        1PX        -0.11270  -0.04780   0.03082   0.22859   0.45738
  19        1PY         0.02030  -0.39214   0.10434  -0.42452   0.21336
  20        1PZ         0.01004  -0.00086   0.09794  -0.04688  -0.00607
  21 6   H  1S         -0.00291   0.34843  -0.08444   0.56027   0.22081
  22 7   H  1S         -0.07755   0.06945  -0.02079  -0.00235  -0.12646
  23 8   H  1S          0.73154   0.02167  -0.00778   0.03551  -0.04432
  24 9   H  1S          0.01621   0.50866  -0.16727  -0.43070   0.20016
                          21        22        23        24
                           V         V         V         V
     Eigenvalues --     0.35590   0.37031   0.40201   0.44347
   1 1   C  1S         -0.13824   0.57388   0.21371  -0.08216
   2        1PX        -0.37861  -0.34940   0.06806  -0.10010
   3        1PY         0.50910  -0.07317  -0.07188   0.12444
   4        1PZ        -0.00693   0.01487   0.00417  -0.00388
   5 2   C  1S          0.43167  -0.17683  -0.22517  -0.06863
   6        1PX         0.16379   0.05490   0.23986   0.19060
   7        1PY         0.24538  -0.21477  -0.12896   0.27490
   8        1PZ        -0.01141   0.00207   0.00464  -0.00143
   9 3   O  1S          0.05751  -0.01540   0.11829  -0.01992
  10        1PX        -0.13967   0.04219   0.20587   0.80294
  11        1PY         0.24426  -0.08106   0.73209  -0.22001
  12        1PZ         0.00636   0.00196  -0.00013   0.01202
  13 4   C  1S         -0.16298   0.13742  -0.22434   0.13160
  14        1PX        -0.07575   0.14881  -0.26219   0.11028
  15        1PY         0.04329   0.10438  -0.09995  -0.32349
  16        1PZ        -0.00467   0.00015  -0.00382   0.00143
  17 5   C  1S         -0.24960  -0.47204   0.22056   0.05297
  18        1PX        -0.20831  -0.37440  -0.14572  -0.11750
  19        1PY        -0.20666   0.18401  -0.04424  -0.07748
  20        1PZ         0.00109   0.00719   0.00310   0.00030
  21 6   H  1S          0.15387  -0.00562  -0.11901  -0.00348
  22 7   H  1S          0.00656   0.03062  -0.04786   0.01644
  23 8   H  1S         -0.12637  -0.02260  -0.05112  -0.01789
  24 9   H  1S         -0.00321  -0.06072  -0.08543   0.01075
     Density Matrix:
                           1         2         3         4         5
   1 1   C  1S          0.93803
   2        1PX         0.00863   1.02267
   3        1PY         0.06124   0.03282   0.99693
   4        1PZ        -0.00915  -0.00156   0.00159   1.06134
   5 2   C  1S          0.35800   0.15637  -0.52915   0.00898   1.16575
   6        1PX        -0.00540   0.15514  -0.01074   0.00149  -0.19149
   7        1PY         0.50213   0.15346  -0.50888   0.01334  -0.13862
   8        1PZ        -0.01550  -0.00427   0.01612   0.43598   0.01326
   9 3   O  1S          0.02137   0.01685  -0.03768   0.00146   0.00743
  10        1PX         0.01567   0.00122  -0.02308   0.00460   0.37612
  11        1PY        -0.00618   0.01819  -0.08177  -0.00331   0.19070
  12        1PZ         0.00419  -0.00029   0.00180  -0.15175   0.01040
  13 4   C  1S         -0.03132  -0.00561   0.03310  -0.00310  -0.00897
  14        1PX        -0.01939  -0.02482   0.00142  -0.00201   0.00762
  15        1PY         0.04069  -0.00936  -0.01422   0.00282  -0.06185
  16        1PZ         0.00675   0.00049  -0.00031  -0.25588  -0.00307
  17 5   C  1S          0.28859  -0.50083   0.15324  -0.00102  -0.03549
  18        1PX         0.50278  -0.56033   0.21146   0.02284   0.01479
  19        1PY        -0.01756   0.03377   0.13045  -0.02616   0.03259
  20        1PZ        -0.02024   0.00918  -0.00022   0.84612  -0.00409
  21 6   H  1S         -0.00327  -0.00234  -0.00922   0.00674   0.09925
  22 7   H  1S          0.09262  -0.09192   0.00377   0.00490   0.07491
  23 8   H  1S          0.05161  -0.01213  -0.04896   0.00190   0.52954
  24 9   H  1S          0.50973   0.59183   0.59848   0.00726   0.05808
                           6         7         8         9        10
   6        1PX         1.37066
   7        1PY         0.15086   1.26402
   8        1PZ         0.00151   0.00840   1.66898
   9 3   O  1S         -0.08628  -0.02845  -0.00007   1.94715
  10        1PX        -0.44452  -0.33051  -0.00969  -0.03651   0.47530
  11        1PY        -0.35427  -0.03278   0.00083  -0.27745  -0.01690
  12        1PZ        -0.00712   0.00098   0.51570   0.00066  -0.00011
  13 4   C  1S         -0.02554  -0.05091   0.00250   0.01718  -0.30471
  14        1PX        -0.01173  -0.00739   0.00213   0.07968  -0.13404
  15        1PY         0.02902   0.03369   0.00006  -0.06502   0.38975
  16        1PZ         0.00026  -0.00284  -0.06219   0.00099  -0.00999
  17 5   C  1S          0.04469   0.03728   0.00234   0.02408  -0.02479
  18        1PX        -0.02094   0.01511  -0.00704  -0.03023  -0.01477
  19        1PY        -0.01158  -0.03014   0.01122  -0.03844  -0.01277
  20        1PZ        -0.00184  -0.00132  -0.30242  -0.00140   0.00400
  21 6   H  1S         -0.02853   0.06862  -0.00659   0.00911  -0.03631
  22 7   H  1S         -0.08995  -0.02445  -0.00272   0.00826  -0.06402
  23 8   H  1S          0.65711  -0.47989  -0.00249   0.00702   0.03147
  24 9   H  1S         -0.05889  -0.01979  -0.00133   0.00871   0.06035
                          11        12        13        14        15
  11        1PY         0.41233
  12        1PZ         0.00050   0.42482
  13 4   C  1S          0.34661  -0.00512   1.18690
  14        1PX         0.41990  -0.00860   0.12659   1.26023
  15        1PY        -0.29125   0.00669  -0.20130  -0.12659   1.38661
  16        1PZ         0.00581   0.58959  -0.00105  -0.00428  -0.00036
  17 5   C  1S          0.00253   0.00012   0.32604   0.16268   0.44660
  18        1PX        -0.05435  -0.00485  -0.31245   0.02513  -0.33983
  19        1PY        -0.08605   0.00587  -0.45117  -0.17756  -0.43625
  20        1PZ         0.00112  -0.17933  -0.00675  -0.00248  -0.00708
  21 6   H  1S          0.04581  -0.00560   0.06167   0.03681  -0.01984
  22 7   H  1S         -0.07324  -0.00078   0.51322  -0.79507  -0.18526
  23 8   H  1S         -0.08148  -0.00175   0.06841   0.06123  -0.03847
  24 9   H  1S          0.03990  -0.00128   0.10179   0.04890   0.06102
                          16        17        18        19        20
  16        1PZ         1.67322
  17 5   C  1S          0.00040   0.94389
  18        1PX         0.00299   0.02661   0.99178
  19        1PY        -0.01018   0.08031  -0.03867   1.02003
  20        1PZ         0.35979  -0.00220   0.00759  -0.01057   1.17012
  21 6   H  1S          0.00059   0.53055  -0.39768   0.72843   0.03524
  22 7   H  1S         -0.00498   0.05287  -0.00758  -0.06473  -0.00016
  23 8   H  1S          0.00278   0.09863   0.09247  -0.02790   0.00024
  24 9   H  1S         -0.00293  -0.00376   0.01132   0.00176   0.00465
                          21        22        23        24
  21 6   H  1S          0.94004
  22 7   H  1S         -0.01338   0.85186
  23 8   H  1S         -0.00611   0.00719   0.87566
  24 9   H  1S         -0.00779   0.00118  -0.00932   0.95166
    Full Mulliken population analysis:
                           1         2         3         4         5
   1 1   C  1S          0.93803
   2        1PX         0.00000   1.02267
   3        1PY         0.00000   0.00000   0.99693
   4        1PZ         0.00000   0.00000   0.00000   1.06134
   5 2   C  1S          0.00000   0.00000   0.00000   0.00000   1.16575
   6        1PX         0.00000   0.00000   0.00000   0.00000   0.00000
   7        1PY         0.00000   0.00000   0.00000   0.00000   0.00000
   8        1PZ         0.00000   0.00000   0.00000   0.00000   0.00000
   9 3   O  1S          0.00000   0.00000   0.00000   0.00000   0.00000
  10        1PX         0.00000   0.00000   0.00000   0.00000   0.00000
  11        1PY         0.00000   0.00000   0.00000   0.00000   0.00000
  12        1PZ         0.00000   0.00000   0.00000   0.00000   0.00000
  13 4   C  1S          0.00000   0.00000   0.00000   0.00000   0.00000
  14        1PX         0.00000   0.00000   0.00000   0.00000   0.00000
  15        1PY         0.00000   0.00000   0.00000   0.00000   0.00000
  16        1PZ         0.00000   0.00000   0.00000   0.00000   0.00000
  17 5   C  1S          0.00000   0.00000   0.00000   0.00000   0.00000
  18        1PX         0.00000   0.00000   0.00000   0.00000   0.00000
  19        1PY         0.00000   0.00000   0.00000   0.00000   0.00000
  20        1PZ         0.00000   0.00000   0.00000   0.00000   0.00000
  21 6   H  1S          0.00000   0.00000   0.00000   0.00000   0.00000
  22 7   H  1S          0.00000   0.00000   0.00000   0.00000   0.00000
  23 8   H  1S          0.00000   0.00000   0.00000   0.00000   0.00000
  24 9   H  1S          0.00000   0.00000   0.00000   0.00000   0.00000
                           6         7         8         9        10
   6        1PX         1.37066
   7        1PY         0.00000   1.26402
   8        1PZ         0.00000   0.00000   1.66898
   9 3   O  1S          0.00000   0.00000   0.00000   1.94715
  10        1PX         0.00000   0.00000   0.00000   0.00000   0.47530
  11        1PY         0.00000   0.00000   0.00000   0.00000   0.00000
  12        1PZ         0.00000   0.00000   0.00000   0.00000   0.00000
  13 4   C  1S          0.00000   0.00000   0.00000   0.00000   0.00000
  14        1PX         0.00000   0.00000   0.00000   0.00000   0.00000
  15        1PY         0.00000   0.00000   0.00000   0.00000   0.00000
  16        1PZ         0.00000   0.00000   0.00000   0.00000   0.00000
  17 5   C  1S          0.00000   0.00000   0.00000   0.00000   0.00000
  18        1PX         0.00000   0.00000   0.00000   0.00000   0.00000
  19        1PY         0.00000   0.00000   0.00000   0.00000   0.00000
  20        1PZ         0.00000   0.00000   0.00000   0.00000   0.00000
  21 6   H  1S          0.00000   0.00000   0.00000   0.00000   0.00000
  22 7   H  1S          0.00000   0.00000   0.00000   0.00000   0.00000
  23 8   H  1S          0.00000   0.00000   0.00000   0.00000   0.00000
  24 9   H  1S          0.00000   0.00000   0.00000   0.00000   0.00000
                          11        12        13        14        15
  11        1PY         0.41233
  12        1PZ         0.00000   0.42482
  13 4   C  1S          0.00000   0.00000   1.18690
  14        1PX         0.00000   0.00000   0.00000   1.26023
  15        1PY         0.00000   0.00000   0.00000   0.00000   1.38661
  16        1PZ         0.00000   0.00000   0.00000   0.00000   0.00000
  17 5   C  1S          0.00000   0.00000   0.00000   0.00000   0.00000
  18        1PX         0.00000   0.00000   0.00000   0.00000   0.00000
  19        1PY         0.00000   0.00000   0.00000   0.00000   0.00000
  20        1PZ         0.00000   0.00000   0.00000   0.00000   0.00000
  21 6   H  1S          0.00000   0.00000   0.00000   0.00000   0.00000
  22 7   H  1S          0.00000   0.00000   0.00000   0.00000   0.00000
  23 8   H  1S          0.00000   0.00000   0.00000   0.00000   0.00000
  24 9   H  1S          0.00000   0.00000   0.00000   0.00000   0.00000
                          16        17        18        19        20
  16        1PZ         1.67322
  17 5   C  1S          0.00000   0.94389
  18        1PX         0.00000   0.00000   0.99178
  19        1PY         0.00000   0.00000   0.00000   1.02003
  20        1PZ         0.00000   0.00000   0.00000   0.00000   1.17012
  21 6   H  1S          0.00000   0.00000   0.00000   0.00000   0.00000
  22 7   H  1S          0.00000   0.00000   0.00000   0.00000   0.00000
  23 8   H  1S          0.00000   0.00000   0.00000   0.00000   0.00000
  24 9   H  1S          0.00000   0.00000   0.00000   0.00000   0.00000
                          21        22        23        24
  21 6   H  1S          0.94004
  22 7   H  1S          0.00000   0.85186
  23 8   H  1S          0.00000   0.00000   0.87566
  24 9   H  1S          0.00000   0.00000   0.00000   0.95166
     Gross orbital populations:
                           1
   1 1   C  1S          0.93803
   2        1PX         1.02267
   3        1PY         0.99693
   4        1PZ         1.06134
   5 2   C  1S          1.16575
   6        1PX         1.37066
   7        1PY         1.26402
   8        1PZ         1.66898
   9 3   O  1S          1.94715
  10        1PX         0.47530
  11        1PY         0.41233
  12        1PZ         0.42482
  13 4   C  1S          1.18690
  14        1PX         1.26023
  15        1PY         1.38661
  16        1PZ         1.67322
  17 5   C  1S          0.94389
  18        1PX         0.99178
  19        1PY         1.02003
  20        1PZ         1.17012
  21 6   H  1S          0.94004
  22 7   H  1S          0.85186
  23 8   H  1S          0.87566
  24 9   H  1S          0.95166
          Condensed to atoms (all electrons):
               1          2          3          4          5          6
     1  C    4.018971   0.000000   0.000000   0.000000   0.000000   0.000000
     2  C    0.000000   5.469414   0.000000   0.000000   0.000000   0.000000
     3  O    0.000000   0.000000   3.259612   0.000000   0.000000   0.000000
     4  C    0.000000   0.000000   0.000000   5.506966   0.000000   0.000000
     5  C    0.000000   0.000000   0.000000   0.000000   4.125812   0.000000
     6  H    0.000000   0.000000   0.000000   0.000000   0.000000   0.940038
     7  H    0.000000   0.000000   0.000000   0.000000   0.000000   0.000000
     8  H    0.000000   0.000000   0.000000   0.000000   0.000000   0.000000
     9  H    0.000000   0.000000   0.000000   0.000000   0.000000   0.000000
               7          8          9
     1  C    0.000000   0.000000   0.000000
     2  C    0.000000   0.000000   0.000000
     3  O    0.000000   0.000000   0.000000
     4  C    0.000000   0.000000   0.000000
     5  C    0.000000   0.000000   0.000000
     6  H    0.000000   0.000000   0.000000
     7  H    0.851865   0.000000   0.000000
     8  H    0.000000   0.875660   0.000000
     9  H    0.000000   0.000000   0.951663
 Mulliken charges:
               1
     1  C   -0.018971
     2  C   -1.469414
     3  O    2.740388
     4  C   -1.506966
     5  C   -0.125812
     6  H    0.059962
     7  H    0.148135
     8  H    0.124340
     9  H    0.048337
 Sum of Mulliken charges =   0.00000
 Mulliken charges with hydrogens summed into heavy atoms:
               1
     1  C    0.029366
     2  C   -1.345074
     3  O    2.740388
     4  C   -1.358831
     5  C   -0.065849
 Charge=              0.0000 electrons
 Dipole moment (field-independent basis, Debye):
    X=             -2.2037    Y=            -10.1601    Z=              0.0253  Tot=             10.3964
 N-N= 1.038753607555D+02 E-N=-1.705337797421D+02  KE=-1.587187483498D+01
 Orbital energies and kinetic energies (alpha):
                                 1                 2
   1         O                -1.889997         -1.377211
   2         O                -1.211603         -1.091940
   3         O                -0.960392         -0.898165
   4         O                -0.781831         -0.611756
   5         O                -0.772826         -0.701956
   6         O                -0.672315         -0.619229
   7         O                -0.625731         -0.556373
   8         O                -0.487250         -0.384108
   9         O                -0.472005         -0.359472
  10         O                -0.388124         -0.419199
  11         O                -0.370474         -0.339290
  12         O                -0.361334         -0.349133
  13         O                -0.229467         -0.228105
  14         V                 0.192838         -0.150566
  15         V                 0.200857         -0.177279
  16         V                 0.227238         -0.174845
  17         V                 0.289027         -0.113527
  18         V                 0.290121          0.304999
  19         V                 0.311174         -0.174126
  20         V                 0.344097         -0.007952
  21         V                 0.355904         -0.011871
  22         V                 0.370312         -0.053346
  23         V                 0.402010          0.313114
  24         V                 0.443474          0.451198
 Total kinetic energy from orbitals=-1.587187483498D+01
 Leave Link  601 at Tue Dec 15 17:08:04 2015, MaxMem=    33554432 cpu:         0.0
 (Enter /home/Applications/g09/g09/l701.exe)
 Compute integral first derivatives.
 ... and contract with generalized density number  6.
 Leave Link  701 at Tue Dec 15 17:08:04 2015, MaxMem=    33554432 cpu:         0.0
 (Enter /home/Applications/g09/g09/l702.exe)
 L702 exits ... SP integral derivatives will be done elsewhere.
 Leave Link  702 at Tue Dec 15 17:08:04 2015, MaxMem=    33554432 cpu:         0.0
 (Enter /home/Applications/g09/g09/l703.exe)
 Compute integral first derivatives, UseDBF=F ICtDFT=           0.
 Integral derivatives from FoFJK, PRISM(SPDF).
 Calling FoFJK, ICntrl=  10005127 FMM=F ISym2X=0 I1Cent= 0 IOpClX= 0 NMat=1 NMatS=1 NMatT=0.
 FoFJK:  IHMeth= 8 ICntrl=10005127 DoSepK=F KAlg= 0 I1Cent=   0 FoldK=F
 IRaf=         0 NMat=   1 IRICut=       1 DoRegI=T DoRafI=F ISym2E= 0.
 FoFCou: FMM=F IPFlag=           0 FMFlag=      100000 FMFlg1=         800
         NFxFlg=           0 DoJE=F BraDBF=F KetDBF=F FulRan=T
         wScrn=  0.000000 ICntrl=10005127 IOpCl=  0 I1Cent=           0 NGrid=           0
         NMat0=    1 NMatS0=      1 NMatT0=    0 NMatD0=    1 NMtDS0=    0 NMtDT0=    0
 Symmetry not used in FoFCou.
 Leave Link  703 at Tue Dec 15 17:08:04 2015, MaxMem=    33554432 cpu:         0.0
 (Enter /home/Applications/g09/g09/l716.exe)
 Dipole        = 1.29469200D+00-3.09880061D+00 1.85184166D-02
 ***** Axes restored to original set *****
 -------------------------------------------------------------------
 Center     Atomic                   Forces (Hartrees/Bohr)
 Number     Number              X              Y              Z
 -------------------------------------------------------------------
      1        6           0.198344550   -0.025883657   -0.001633314
      2        6          -0.278575469   -0.012985736    0.003733449
      3        8           0.209059008    0.089003408   -0.006012538
      4        6          -0.226376691   -0.151595784    0.006866572
      5        6           0.117389525    0.068136776    0.000590404
      6        1           0.015302070   -0.002057163   -0.003155237
      7        1          -0.032304209    0.063976729    0.000370391
      8        1           0.001163637   -0.030868813    0.001548080
      9        1          -0.004002420    0.002274240   -0.002307807
 -------------------------------------------------------------------
 Cartesian Forces:  Max     0.278575469 RMS     0.099727369
 Z-matrix is all fixed cartesians, so copy forces.
 Force constants in Cartesian coordinates: 
                1             2             3             4             5 
      1  0.107166D+01
      2  0.599189D-01  0.820525D+00
      3 -0.304487D-01 -0.720531D-02  0.255359D+00
      4 -0.691432D+00 -0.158444D+00  0.308903D-01  0.108699D+01
      5 -0.130937D+00 -0.252896D+00  0.100581D-01  0.126819D+00  0.822966D+00
      6  0.310169D-01  0.945956D-02 -0.148287D+00 -0.315668D-01 -0.136355D-01
      7 -0.876408D-02  0.292821D-01 -0.512774D-03 -0.241526D+00  0.122119D+00
      8 -0.661410D-02  0.221002D-01 -0.423901D-03  0.166472D+00 -0.296012D+00
      9  0.121252D-02 -0.253147D-02  0.393521D-02  0.260764D-04  0.364884D-02
     10  0.112386D-01 -0.342291D-03 -0.166294D-03  0.221905D-01  0.167511D-01
     11  0.359933D-01 -0.109056D-02 -0.540316D-03 -0.187603D-01 -0.141614D-01
     12  0.234338D-03 -0.116386D-03  0.158427D-02 -0.190865D-03  0.355636D-04
     13 -0.172691D+00  0.516143D-02  0.210131D-03  0.110566D-01 -0.370991D-01
     14 -0.235850D-01 -0.439117D+00  0.370306D-04 -0.331934D-03  0.110478D-02
     15  0.350278D-04 -0.514919D-02 -0.920001D-01 -0.104161D-02  0.298746D-02
     16  0.189947D-01 -0.577338D-03  0.180731D-03 -0.206613D-04  0.288928D-05
     17 -0.214215D-01  0.660795D-03 -0.178779D-02 -0.127639D-05  0.000000D+00
     18 -0.770487D-04 -0.120282D-03  0.200319D-01  0.310917D-03 -0.434788D-04
     19  0.103899D-05  0.000000D+00  0.112811D-03  0.312879D-05  0.258334D-05
     20  0.000000D+00  0.000000D+00  0.723536D-04  0.176370D-05  0.145623D-05
     21  0.741385D-04 -0.515235D-04  0.804979D-02  0.110875D-03  0.915456D-04
     22  0.787657D-02 -0.261831D-01  0.112858D-02 -0.182313D+00 -0.114288D+00
     23 -0.490084D-02  0.163368D-01 -0.448459D-03 -0.108559D+00 -0.285251D+00
     24  0.148536D-02  0.316710D-02  0.453797D-01 -0.126484D-02 -0.793840D-03
     25 -0.236886D+00  0.911849D-01 -0.139471D-02 -0.495171D-02  0.166310D-01
     26  0.915461D-01 -0.166519D+00  0.238302D-03 -0.719709D-02  0.242478D-01
     27 -0.353252D-02  0.254751D-02 -0.940534D-01  0.272602D-02 -0.234869D-02
                6             7             8             9            10 
      6  0.255804D+00
      7  0.225498D-02  0.543804D+00
      8  0.929021D-03  0.658050D-01  0.635468D+00
      9 -0.457599D-01 -0.128639D-01 -0.129339D-01  0.554571D-01
     10 -0.914749D-03 -0.324439D+00 -0.230972D+00  0.113765D-01  0.103172D+01
     11  0.819665D-03 -0.186073D+00 -0.368337D+00  0.107971D-01 -0.100455D-01
     12 -0.226005D-02  0.101728D-01  0.117779D-01 -0.488445D-01 -0.160502D-01
     13 -0.371234D-03 -0.897932D-02  0.758784D-02  0.165628D-03 -0.590128D+00
     14 -0.822950D-04 -0.287583D-01  0.243579D-01  0.109522D-02  0.137870D+00
     15 -0.456575D-02  0.931621D-03 -0.628121D-03  0.854258D-02  0.438735D-02
     16 -0.369616D-03 -0.141451D-05 -0.181371D-05 -0.756850D-04 -0.608883D-02
     17 -0.228338D-04 -0.962648D-05 -0.123432D-04 -0.515077D-03  0.683784D-02
     18  0.556209D-02  0.141928D-03  0.181983D-03  0.759404D-02  0.390192D-03
     19  0.131487D-03  0.202424D-01 -0.171219D-01 -0.213092D-03 -0.144493D+00
     20  0.741195D-04  0.985833D-02 -0.833818D-02 -0.936845D-04  0.799005D-01
     21  0.465949D-02 -0.612986D-03  0.704131D-03  0.467502D-02  0.868435D-03
     22 -0.422456D-03  0.196507D-01  0.148338D-01  0.664511D-04  0.000000D+00
     23  0.168763D-02 -0.122470D-01 -0.924487D-02 -0.954526D-05  0.000000D+00
     24 -0.102955D+00  0.110391D-03  0.928880D-04  0.567297D-02  0.672694D-04
     25  0.241509D-03  0.132317D-04  0.105030D-04  0.305550D-03  0.000000D+00
     26  0.770624D-03  0.234927D-04  0.186479D-04  0.542500D-03  0.000000D+00
     27  0.378021D-01  0.377941D-03  0.299999D-03  0.872751D-02  0.415196D-04
               11            12            13            14            15 
     11  0.863347D+00
     12 -0.103417D-01  0.208983D+00
     13  0.113424D+00  0.722811D-02  0.965435D+00
     14 -0.234482D+00 -0.218329D-02 -0.409124D-02  0.843956D+00
     15 -0.164859D-02 -0.112595D+00  0.432425D-02  0.125325D-01  0.228611D+00
     16 -0.194378D-01 -0.183895D-02 -0.228627D+00 -0.106533D+00 -0.960489D-02
     17  0.218991D-01  0.108970D-03 -0.111964D+00 -0.207740D+00 -0.826098D-02
     18  0.357407D-03  0.248581D-01 -0.118107D-01 -0.998211D-02 -0.871960D-01
     19  0.848981D-01  0.488662D-03  0.809188D-02  0.259145D-01  0.151257D-03
     20 -0.267175D+00  0.734181D-03  0.394129D-02  0.126198D-01  0.139122D-03
     21  0.529796D-03 -0.790604D-01 -0.449991D-04 -0.123086D-02  0.302688D-01
     22  0.000000D+00  0.806875D-05  0.382774D-04 -0.535273D-05  0.684757D-03
     23  0.000000D+00  0.108534D-04 -0.204837D-04  0.286445D-05 -0.366439D-03
     24  0.555422D-04  0.282699D-02  0.600434D-03 -0.839650D-04  0.107414D-01
     25  0.000000D+00 -0.519902D-04  0.158020D-01 -0.480186D-03  0.132239D-03
     26  0.000000D+00 -0.260178D-04  0.230604D-01 -0.701985D-03  0.394253D-03
     27 -0.288545D-04  0.450810D-02 -0.301662D-03 -0.102217D-03  0.181939D-01
               16            17            18            19            20 
     16  0.215747D+00
     17  0.126548D+00  0.185185D+00
     18  0.111243D-01  0.966902D-02  0.477113D-01
     19  0.160554D-05  0.109266D-04 -0.161096D-03  0.116153D+00
     20  0.102974D-05  0.700795D-05 -0.103322D-03 -0.937036D-01  0.262886D+00
     21  0.114565D-03  0.779678D-03 -0.114952D-01 -0.510029D-03 -0.822770D-03
     22  0.000000D+00  0.000000D+00  0.000000D+00  0.000000D+00  0.000000D+00
     23  0.000000D+00  0.000000D+00  0.000000D+00  0.000000D+00  0.000000D+00
     24  0.000000D+00  0.000000D+00  0.000000D+00  0.000000D+00  0.000000D+00
     25 -0.541542D-05  0.000000D+00  0.814928D-04  0.000000D+00  0.000000D+00
     26 -0.271007D-05  0.000000D+00  0.407819D-04  0.000000D+00  0.000000D+00
     27  0.469574D-03  0.290089D-04 -0.706628D-02  0.000000D+00  0.000000D+00
               21            22            23            24            25 
     21  0.429024D-01
     22  0.000000D+00  0.154783D+00
     23  0.000000D+00  0.125707D+00  0.278122D+00
     24  0.000000D+00 -0.429987D-03 -0.142813D-02  0.545763D-01
     25  0.000000D+00 -0.362500D-04  0.193987D-04 -0.568631D-03  0.226065D+00
     26  0.000000D+00 -0.643614D-04  0.344422D-04 -0.100960D-02 -0.107366D+00
     27  0.000000D+00 -0.103542D-02  0.554091D-03 -0.162420D-01  0.125454D-02
               26            27 
     26  0.142920D+00
     27 -0.950847D-03  0.481300D-01
 Leave Link  716 at Tue Dec 15 17:08:04 2015, MaxMem=    33554432 cpu:         0.0
 (Enter /home/Applications/g09/g09/l103.exe)

 GradGradGradGradGradGradGradGradGradGradGradGradGradGradGradGradGradGrad
 Berny optimization.
 Search for a local minimum.
 Step number   1 out of a maximum of    2
 All quantities printed in internal units (Hartrees-Bohrs-Radians)
 Second derivative matrix not updated -- first step.
 ITU=  0
     Eigenvalues ---    0.02287   0.03115   0.06687   0.07059   0.07685
     Eigenvalues ---    0.09208   0.13115   0.15910   0.16250   0.22978
     Eigenvalues ---    0.25849   0.36214   0.41735   0.47745   0.61377
     Eigenvalues ---    0.75736   1.02210   1.29780   1.40139   1.73454
     Eigenvalues ---    1.93019
 Quadratic step=7.305D-01 exceeds max=3.000D-01 adjusted using Lamda=-4.274D-01.
 Angle between NR and scaled steps=  34.68 degrees.
 Angle between quadratic step and forces=  22.51 degrees.
 Linear search not attempted -- first point.
 TrRot=  0.006597  0.000708  0.000102  0.086431 -0.000496 -0.087441
 Variable       Old X    -DE/DX   Delta X   Delta X   Delta X     New X
                                 (Linear)    (Quad)   (Total)
    X1        1.72095   0.19834   0.00000   0.07924   0.08445   1.80540
    Y1       -1.37611  -0.02588   0.00000  -0.03325  -0.03435  -1.41046
    Z1       -0.07390  -0.00163   0.00000   0.00572   0.00665  -0.06726
    X2       -0.59032  -0.27858   0.00000  -0.14529  -0.14082  -0.73114
    Y2       -2.06606  -0.01299   0.00000  -0.01201  -0.01056  -2.07662
    Z2        0.04990   0.00373   0.00000  -0.00315  -0.00350   0.04640
    X3       -2.21440   0.20906   0.00000   0.12633   0.13304  -2.08136
    Y3        0.08540   0.08900   0.00000   0.04291   0.04573   0.13113
    Z3        0.04628  -0.00601   0.00000  -0.00235  -0.00328   0.04300
    X4       -0.57148  -0.22638   0.00000  -0.11552  -0.10693  -0.67840
    Y4        2.02872  -0.15160   0.00000  -0.06914  -0.06774   1.96098
    Z4       -0.03100   0.00687   0.00000   0.00382   0.00367  -0.02733
    X5        1.80177   0.11739   0.00000   0.05803   0.06601   1.86778
    Y5        1.28782   0.06814   0.00000   0.05476   0.05359   1.34142
    Z5       -0.05760   0.00059   0.00000  -0.00018   0.00089  -0.05670
    X6        3.36568   0.01530   0.00000   0.03879   0.04809   3.41377
    Y6        2.67417  -0.00206   0.00000   0.02613   0.02339   2.69756
    Z6        0.05202  -0.00316   0.00000  -0.00704  -0.00514   0.04688
    X7       -1.50417  -0.03230   0.00000  -0.08072  -0.07006  -1.57423
    Y7        3.94359   0.06398   0.00000   0.06476   0.06707   4.01066
    Z7       -0.03514   0.00037   0.00000   0.00203   0.00152  -0.03362
    X8       -1.67271   0.00116   0.00000  -0.04153  -0.03886  -1.71158
    Y8       -3.80270  -0.03087   0.00000  -0.06048  -0.05805  -3.86075
    Z8        0.05966   0.00155   0.00000   0.00175   0.00084   0.06050
    X9        3.49238  -0.00400   0.00000   0.02107   0.02507   3.51745
    Y9       -2.58979   0.00227   0.00000  -0.01626  -0.01909  -2.60888
    Z9       -0.06048  -0.00231   0.00000  -0.00337  -0.00165  -0.06212
         Item               Value     Threshold  Converged?
 Maximum Force            0.278575     0.000450     NO 
 RMS     Force            0.099727     0.000300     NO 
 Maximum Displacement     0.140817     0.001800     NO 
 RMS     Displacement     0.057590     0.001200     NO 
 Predicted change in Energy=-9.106967D-02
 GradGradGradGradGradGradGradGradGradGradGradGradGradGradGradGradGradGrad

 Leave Link  103 at Tue Dec 15 17:08:04 2015, MaxMem=    33554432 cpu:         0.0
 (Enter /home/Applications/g09/g09/l9999.exe)
 1\1\GINC-DUSTIN-DESKTOP\Force\RAM1-FC\STO-3G\C4H4O1\DUSTIN\15-Dec-2015
 \0\\#P AM1(Input,print) CIS(Singlets,NStates=15) pop(full) force\\AM1-
 Reparam Input\\0,1\C,0.91069,-0.728204,-0.039108\C,-0.312386,-1.093313
 ,0.026407\O,-1.171811,0.045194,0.024489\C,-0.302413,1.073553,-0.016403
 \C,0.953455,0.681487,-0.030479\H,1.78104,1.415109,0.027528\H,-0.795973
 ,2.086858,-0.018594\H,-0.885161,-2.012304,0.03157\H,1.848089,-1.370458
 ,-0.032004\\Version=ES64L-G09RevD.01\State=1-A\HF=1.4491854\RMSD=7.051
 e-09\RMSF=9.973e-02\Dipole=-2.8575454,-1.7620202,0.0940992\PG=C01 [X(C
 4H4O1)]\\@


 ... I FELL INTO A REVERIE ... THE ATOMS WERE GAMBOLING BEFORE MY EYES
 ... I SAW HOW TWO SMALL ONES UNITED TO FORM A PAIR;
 HOW THE LARGER ONES SEIZED TWO OF THE SMALLER ONES;
 HOW STILL LARGER ONES KEPT HOLD OF THREE OR FOUR
 SMALLER ONES ... I SAW HOW THE LARGER ONES FORMED A CHAIN ...
 THIS WAS THE ORIGIN OF THE STRUCTURE THEORY.

                                   -- C.F.KEKULE VON STRADONITZ
 Job cpu time:       0 days  0 hours  0 minutes  0.8 seconds.
 File lengths (MBytes):  RWF=      7 Int=      0 D2E=      0 Chk=      2 Scr=      1
 Normal termination of Gaussian 09 at Tue Dec 15 17:08:04 2015.
