 Entering Gaussian System, Link 0=g09
 Input=FuranDFT_67.com
 Output=FuranDFT_67.log
 Initial command:
 /home/Applications/g09/g09/l1.exe "/home/Applications/g09/scratch/Gau-6134.inp" -scrdir="/home/Applications/g09/scratch/"
 Entering Link 1 = /home/Applications/g09/g09/l1.exe PID=      6136.
  
 Copyright (c) 1988,1990,1992,1993,1995,1998,2003,2009,2013,
            Gaussian, Inc.  All Rights Reserved.
  
 This is part of the Gaussian(R) 09 program.  It is based on
 the Gaussian(R) 03 system (copyright 2003, Gaussian, Inc.),
 the Gaussian(R) 98 system (copyright 1998, Gaussian, Inc.),
 the Gaussian(R) 94 system (copyright 1995, Gaussian, Inc.),
 the Gaussian 92(TM) system (copyright 1992, Gaussian, Inc.),
 the Gaussian 90(TM) system (copyright 1990, Gaussian, Inc.),
 the Gaussian 88(TM) system (copyright 1988, Gaussian, Inc.),
 the Gaussian 86(TM) system (copyright 1986, Carnegie Mellon
 University), and the Gaussian 82(TM) system (copyright 1983,
 Carnegie Mellon University). Gaussian is a federally registered
 trademark of Gaussian, Inc.
  
 This software contains proprietary and confidential information,
 including trade secrets, belonging to Gaussian, Inc.
  
 This software is provided under written license and may be
 used, copied, transmitted, or stored only in accord with that
 written license.
  
 The following legend is applicable only to US Government
 contracts under FAR:
  
                    RESTRICTED RIGHTS LEGEND
  
 Use, reproduction and disclosure by the US Government is
 subject to restrictions as set forth in subparagraphs (a)
 and (c) of the Commercial Computer Software - Restricted
 Rights clause in FAR 52.227-19.
  
 Gaussian, Inc.
 340 Quinnipiac St., Bldg. 40, Wallingford CT 06492
  
  
 ---------------------------------------------------------------
 Warning -- This program may not be used in any manner that
 competes with the business of Gaussian, Inc. or will provide
 assistance to any competitor of Gaussian, Inc.  The licensee
 of this program is prohibited from giving any competitor of
 Gaussian, Inc. access to this program.  By using this program,
 the user acknowledges that Gaussian, Inc. is engaged in the
 business of creating and licensing software in the field of
 computational chemistry and represents and warrants to the
 licensee that it is not a competitor of Gaussian, Inc. and that
 it will not use this program in any manner prohibited above.
 ---------------------------------------------------------------
  

 Cite this work as:
 Gaussian 09, Revision D.01,
 M. J. Frisch, G. W. Trucks, H. B. Schlegel, G. E. Scuseria, 
 M. A. Robb, J. R. Cheeseman, G. Scalmani, V. Barone, B. Mennucci, 
 G. A. Petersson, H. Nakatsuji, M. Caricato, X. Li, H. P. Hratchian, 
 A. F. Izmaylov, J. Bloino, G. Zheng, J. L. Sonnenberg, M. Hada, 
 M. Ehara, K. Toyota, R. Fukuda, J. Hasegawa, M. Ishida, T. Nakajima, 
 Y. Honda, O. Kitao, H. Nakai, T. Vreven, J. A. Montgomery, Jr., 
 J. E. Peralta, F. Ogliaro, M. Bearpark, J. J. Heyd, E. Brothers, 
 K. N. Kudin, V. N. Staroverov, T. Keith, R. Kobayashi, J. Normand, 
 K. Raghavachari, A. Rendell, J. C. Burant, S. S. Iyengar, J. Tomasi, 
 M. Cossi, N. Rega, J. M. Millam, M. Klene, J. E. Knox, J. B. Cross, 
 V. Bakken, C. Adamo, J. Jaramillo, R. Gomperts, R. E. Stratmann, 
 O. Yazyev, A. J. Austin, R. Cammi, C. Pomelli, J. W. Ochterski, 
 R. L. Martin, K. Morokuma, V. G. Zakrzewski, G. A. Voth, 
 P. Salvador, J. J. Dannenberg, S. Dapprich, A. D. Daniels, 
 O. Farkas, J. B. Foresman, J. V. Ortiz, J. Cioslowski, 
 and D. J. Fox, Gaussian, Inc., Wallingford CT, 2013.
 
 ******************************************
 Gaussian 09:  ES64L-G09RevD.01 24-Apr-2013
                15-Dec-2015 
 ******************************************
 -------------------------------------------------------
 #P B3LYP/3-21G CIS(Singlets,NStates=15) pop(full) force
 -------------------------------------------------------
 1/10=7,30=1,38=1/1,3;
 2/12=2,17=6,18=5,40=1/2;
 3/5=5,11=9,16=1,25=1,30=1,71=1,74=-5/1,2,8,3;
 4//1;
 5/5=2,38=5/2;
 8/6=1,10=1,108=15/1;
 9/15=2,41=15,42=1,48=1/14;
 10/5=4/2;
 6/7=3,18=1/1;
 7/12=6,13=5,29=1/1,2,3,16;
 1/10=7,30=1/3;
 99//99;
 Leave Link    1 at Tue Dec 15 16:23:58 2015, MaxMem=           0 cpu:         0.0
 (Enter /home/Applications/g09/g09/l101.exe)
 --------
 FuranDFT
 --------
 Symbolic Z-matrix:
 Charge =  0 Multiplicity = 1
 6                     0.91182  -0.70035  -0.04343 
 6                    -0.39036  -1.04551   0.0431 
 8                    -1.18158  -0.01863   0.02565 
 6                    -0.33172   1.08445  -0.03647 
 6                     0.92458   0.75252   0.03009 
 1                     1.83342   1.36257   0.03011 
 1                    -0.80357   2.0808    0.0122 
 1                    -0.84599  -2.0673    0.00085 
 1                     1.853    -1.35104   0.00304 
 
 NAtoms=      9 NQM=        9 NQMF=       0 NMMI=      0 NMMIF=      0
                NMic=       0 NMicF=      0.
                    Isotopes and Nuclear Properties:
 (Nuclear quadrupole moments (NQMom) in fm**2, nuclear magnetic moments (NMagM)
  in nuclear magnetons)

  Atom         1           2           3           4           5           6           7           8           9
 IAtWgt=          12          12          16          12          12           1           1           1           1
 AtmWgt=  12.0000000  12.0000000  15.9949146  12.0000000  12.0000000   1.0078250   1.0078250   1.0078250   1.0078250
 NucSpn=           0           0           0           0           0           1           1           1           1
 AtZEff=   0.0000000   0.0000000   0.0000000   0.0000000   0.0000000   0.0000000   0.0000000   0.0000000   0.0000000
 NQMom=    0.0000000   0.0000000   0.0000000   0.0000000   0.0000000   0.0000000   0.0000000   0.0000000   0.0000000
 NMagM=    0.0000000   0.0000000   0.0000000   0.0000000   0.0000000   2.7928460   2.7928460   2.7928460   2.7928460
 AtZNuc=   6.0000000   6.0000000   8.0000000   6.0000000   6.0000000   1.0000000   1.0000000   1.0000000   1.0000000
 Leave Link  101 at Tue Dec 15 16:23:58 2015, MaxMem=    33554432 cpu:         0.0
 (Enter /home/Applications/g09/g09/l103.exe)

 GradGradGradGradGradGradGradGradGradGradGradGradGradGradGradGradGradGrad
 Berny optimization.
 Initialization pass.
 Trust Radius=3.00D-01 FncErr=1.00D-07 GrdErr=1.00D-07
 Number of steps in this run=      2 maximum allowed number of steps=      2.
 GradGradGradGradGradGradGradGradGradGradGradGradGradGradGradGradGradGrad

 Leave Link  103 at Tue Dec 15 16:23:58 2015, MaxMem=    33554432 cpu:         0.0
 (Enter /home/Applications/g09/g09/l202.exe)
                          Input orientation:                          
 ---------------------------------------------------------------------
 Center     Atomic      Atomic             Coordinates (Angstroms)
 Number     Number       Type             X           Y           Z
 ---------------------------------------------------------------------
      1          6           0        0.911821   -0.700348   -0.043428
      2          6           0       -0.390355   -1.045508    0.043098
      3          8           0       -1.181577   -0.018627    0.025651
      4          6           0       -0.331721    1.084452   -0.036472
      5          6           0        0.924581    0.752517    0.030091
      6          1           0        1.833418    1.362568    0.030112
      7          1           0       -0.803568    2.080803    0.012203
      8          1           0       -0.845991   -2.067302    0.000851
      9          1           0        1.852995   -1.351037    0.003039
 ---------------------------------------------------------------------
                    Distance matrix (angstroms):
                    1          2          3          4          5
     1  C    0.000000
     2  C    1.349920   0.000000
     3  O    2.202687   1.296465   0.000000
     4  C    2.175306   2.132252   1.393879   0.000000
     5  C    1.454780   2.227582   2.242896   1.301117   0.000000
     6  H    2.260613   3.277829   3.316310   2.183943   1.094599
     7  H    3.268097   3.153652   2.133232   1.103505   2.179716
     8  H    2.227202   1.119577   2.076127   3.193653   3.329739
     9  H    1.145148   2.264414   3.314280   3.272026   2.299483
                    6          7          8          9
     6  H    0.000000
     7  H    2.733108   0.000000
     8  H    4.352482   4.148337   0.000000
     9  H    2.713811   4.339924   2.792412   0.000000
 Stoichiometry    C4H4O
 Framework group  C1[X(C4H4O)]
 Deg. of freedom    21
 Full point group                 C1      NOp   1
 Largest Abelian subgroup         C1      NOp   1
 Largest concise Abelian subgroup C1      NOp   1
                         Standard orientation:                         
 ---------------------------------------------------------------------
 Center     Atomic      Atomic             Coordinates (Angstroms)
 Number     Number       Type             X           Y           Z
 ---------------------------------------------------------------------
      1          6           0       -0.197900    1.156390    0.043568
      2          6           0       -1.108520    0.162563   -0.029677
      3          8           0       -0.565897   -1.014703   -0.009038
      4          6           0        0.806026   -0.773399    0.040957
      5          6           0        1.094403    0.493035   -0.035791
      6          1           0        2.056486    1.014981   -0.046533
      7          1           0        1.469283   -1.654014   -0.007324
      8          1           0       -2.224715    0.233390    0.020765
      9          1           0       -0.337938    2.291729   -0.008945
 ---------------------------------------------------------------------
 Rotational constants (GHZ):      9.8681365      9.1910120      4.7652727
 Leave Link  202 at Tue Dec 15 16:23:58 2015, MaxMem=    33554432 cpu:         0.0
 (Enter /home/Applications/g09/g09/l301.exe)
 Standard basis: 3-21G (6D, 7F)
 Ernie: Thresh=  0.10000D-02 Tol=  0.10000D-05 Strict=F.
 There are    53 symmetry adapted cartesian basis functions of A   symmetry.
 There are    53 symmetry adapted basis functions of A   symmetry.
    53 basis functions,    87 primitive gaussians,    53 cartesian basis functions
    18 alpha electrons       18 beta electrons
       nuclear repulsion energy       162.0660077571 Hartrees.
 IExCor=  402 DFT=T Ex+Corr=B3LYP ExCW=0 ScaHFX=  0.200000
 ScaDFX=  0.800000  0.720000  1.000000  0.810000 ScalE2=  1.000000  1.000000
 IRadAn=      0 IRanWt=     -1 IRanGd=            0 ICorTp=0 IEmpDi=  4
 NAtoms=    9 NActive=    9 NUniq=    9 SFac= 1.00D+00 NAtFMM=   60 NAOKFM=F Big=F
 Integral buffers will be    131072 words long.
 Regular integral format.
 Two-electron integral symmetry is turned on.
 Leave Link  301 at Tue Dec 15 16:23:58 2015, MaxMem=    33554432 cpu:         0.0
 (Enter /home/Applications/g09/g09/l302.exe)
 NPDir=0 NMtPBC=     1 NCelOv=     1 NCel=       1 NClECP=     1 NCelD=      1
         NCelK=      1 NCelE2=     1 NClLst=     1 CellRange=     0.0.
 One-electron integrals computed using PRISM.
 NBasis=    53 RedAO= T EigKep=  3.53D-03  NBF=    53
 NBsUse=    53 1.00D-06 EigRej= -1.00D+00 NBFU=    53
 Precomputing XC quadrature grid using
 IXCGrd= 4 IRadAn=           0 IRanWt=          -1 IRanGd=           0 AccXCQ= 0.00D+00.
 Generated NRdTot=       0 NPtTot=           0 NUsed=           0 NTot=          32
 NSgBfM=    53    53    53    53    53 MxSgAt=     9 MxSgA2=     9.
 Leave Link  302 at Tue Dec 15 16:23:58 2015, MaxMem=    33554432 cpu:         0.1
 (Enter /home/Applications/g09/g09/l308.exe)
 Leave Link  308 at Tue Dec 15 16:23:58 2015, MaxMem=    33554432 cpu:         0.0
 (Enter /home/Applications/g09/g09/l303.exe)
 DipDrv:  MaxL=1.
 Leave Link  303 at Tue Dec 15 16:23:58 2015, MaxMem=    33554432 cpu:         0.0
 (Enter /home/Applications/g09/g09/l401.exe)
 ExpMin= 1.83D-01 ExpMax= 3.22D+02 ExpMxC= 3.22D+02 IAcc=1 IRadAn=         1 AccDes= 0.00D+00
 Harris functional with IExCor=  402 and IRadAn=       1 diagonalized for initial guess.
 HarFok:  IExCor=  402 AccDes= 0.00D+00 IRadAn=         1 IDoV= 1 UseB2=F ITyADJ=14
 ICtDFT=  3500011 ScaDFX=  1.000000  1.000000  1.000000  1.000000
 FoFCou: FMM=F IPFlag=           0 FMFlag=      100000 FMFlg1=           0
         NFxFlg=           0 DoJE=T BraDBF=F KetDBF=T FulRan=T
         wScrn=  0.000000 ICntrl=     500 IOpCl=  0 I1Cent=   200000004 NGrid=           0
         NMat0=    1 NMatS0=      1 NMatT0=    0 NMatD0=    1 NMtDS0=    0 NMtDT0=    0
 Petite list used in FoFCou.
 Harris En= -228.719156765731    
 JPrj=0 DoOrth=F DoCkMO=F.
 Leave Link  401 at Tue Dec 15 16:23:58 2015, MaxMem=    33554432 cpu:         0.2
 (Enter /home/Applications/g09/g09/l502.exe)
 Closed shell SCF:
 Using DIIS extrapolation, IDIIS=  1040.
 Integral symmetry usage will be decided dynamically.
 Keep R1 ints in memory in canonical form, NReq=1925595.
 IVT=       27707 IEndB=       27707 NGot=    33554432 MDV=    32502130
 LenX=    32502130 LenY=    32498880
 Requested convergence on RMS density matrix=1.00D-08 within 128 cycles.
 Requested convergence on MAX density matrix=1.00D-06.
 Requested convergence on             energy=1.00D-06.
 No special actions if energy rises.
 FoFCou: FMM=F IPFlag=           0 FMFlag=           0 FMFlg1=           0
         NFxFlg=           0 DoJE=F BraDBF=F KetDBF=F FulRan=T
         wScrn=  0.000000 ICntrl=     600 IOpCl=  0 I1Cent=           0 NGrid=           0
         NMat0=    1 NMatS0=   1431 NMatT0=    0 NMatD0=    1 NMtDS0=    0 NMtDT0=    0
 Symmetry not used in FoFCou.
 Integral accuracy reduced to 1.0D-05 until final iterations.

 Cycle   1  Pass 0  IDiag  1:
 E= -228.650105554440    
 DIIS: error= 3.38D-02 at cycle   1 NSaved=   1.
 NSaved= 1 IEnMin= 1 EnMin= -228.650105554440     IErMin= 1 ErrMin= 3.38D-02
 ErrMax= 3.38D-02  0.00D+00 EMaxC= 1.00D-01 BMatC= 7.70D-02 BMatP= 7.70D-02
 IDIUse=3 WtCom= 6.62D-01 WtEn= 3.38D-01
 Coeff-Com:  0.100D+01
 Coeff-En:   0.100D+01
 Coeff:      0.100D+01
 Gap=     0.242 Goal=   None    Shift=    0.000
 GapD=    0.242 DampG=1.000 DampE=0.500 DampFc=0.5000 IDamp=-1.
 Damping current iteration by 5.00D-01
 RMSDP=1.22D-02 MaxDP=1.16D-01              OVMax= 1.77D-01

 Cycle   2  Pass 0  IDiag  1:
 E= -228.681867105043     Delta-E=       -0.031761550603 Rises=F Damp=T
 DIIS: error= 1.32D-02 at cycle   2 NSaved=   2.
 NSaved= 2 IEnMin= 2 EnMin= -228.681867105043     IErMin= 2 ErrMin= 1.32D-02
 ErrMax= 1.32D-02  0.00D+00 EMaxC= 1.00D-01 BMatC= 8.41D-03 BMatP= 7.70D-02
 IDIUse=3 WtCom= 8.68D-01 WtEn= 1.32D-01
 Coeff-Com:  0.108D+00 0.892D+00
 Coeff-En:   0.191D+00 0.809D+00
 Coeff:      0.119D+00 0.881D+00
 Gap=     0.258 Goal=   None    Shift=    0.000
 RMSDP=4.26D-03 MaxDP=3.46D-02 DE=-3.18D-02 OVMax= 1.49D-01

 Cycle   3  Pass 0  IDiag  1:
 E= -228.720853065923     Delta-E=       -0.038985960879 Rises=F Damp=F
 DIIS: error= 1.93D-02 at cycle   3 NSaved=   3.
 NSaved= 3 IEnMin= 3 EnMin= -228.720853065923     IErMin= 2 ErrMin= 1.32D-02
 ErrMax= 1.93D-02  0.00D+00 EMaxC= 1.00D-01 BMatC= 1.11D-02 BMatP= 8.41D-03
 IDIUse=2 WtCom= 0.00D+00 WtEn= 1.00D+00
 Coeff-En:   0.000D+00 0.000D+00 0.100D+01
 Coeff:      0.000D+00 0.000D+00 0.100D+01
 Gap=     0.250 Goal=   None    Shift=    0.000
 RMSDP=5.74D-03 MaxDP=4.69D-02 DE=-3.90D-02 OVMax= 1.10D-01

 Cycle   4  Pass 0  IDiag  1:
 E= -228.691887631205     Delta-E=        0.028965434718 Rises=F Damp=F
 DIIS: error= 3.96D-02 at cycle   4 NSaved=   4.
 NSaved= 4 IEnMin= 3 EnMin= -228.720853065923     IErMin= 2 ErrMin= 1.32D-02
 ErrMax= 3.96D-02  0.00D+00 EMaxC= 1.00D-01 BMatC= 4.32D-02 BMatP= 8.41D-03
 IDIUse=2 WtCom= 0.00D+00 WtEn= 1.00D+00
 Coeff-En:   0.000D+00 0.000D+00 0.748D+00 0.252D+00
 Coeff:      0.000D+00 0.000D+00 0.748D+00 0.252D+00
 Gap=     0.260 Goal=   None    Shift=    0.000
 RMSDP=2.89D-03 MaxDP=2.22D-02 DE= 2.90D-02 OVMax= 5.97D-02

 Cycle   5  Pass 0  IDiag  1:
 E= -228.728693003461     Delta-E=       -0.036805372256 Rises=F Damp=F
 DIIS: error= 9.14D-03 at cycle   5 NSaved=   5.
 NSaved= 5 IEnMin= 5 EnMin= -228.728693003461     IErMin= 5 ErrMin= 9.14D-03
 ErrMax= 9.14D-03  0.00D+00 EMaxC= 1.00D-01 BMatC= 2.42D-03 BMatP= 8.41D-03
 IDIUse=3 WtCom= 9.09D-01 WtEn= 9.14D-02
 Coeff-Com: -0.948D-02 0.304D-01 0.227D+00-0.102D+00 0.853D+00
 Coeff-En:   0.000D+00 0.000D+00 0.221D+00 0.000D+00 0.779D+00
 Coeff:     -0.861D-02 0.276D-01 0.227D+00-0.923D-01 0.847D+00
 Gap=     0.265 Goal=   None    Shift=    0.000
 RMSDP=9.77D-04 MaxDP=7.93D-03 DE=-3.68D-02 OVMax= 1.95D-02

 Cycle   6  Pass 0  IDiag  1:
 E= -228.730876378396     Delta-E=       -0.002183374934 Rises=F Damp=F
 DIIS: error= 4.62D-04 at cycle   6 NSaved=   6.
 NSaved= 6 IEnMin= 6 EnMin= -228.730876378396     IErMin= 6 ErrMin= 4.62D-04
 ErrMax= 4.62D-04  0.00D+00 EMaxC= 1.00D-01 BMatC= 1.08D-05 BMatP= 2.42D-03
 IDIUse=3 WtCom= 9.95D-01 WtEn= 4.62D-03
 Coeff-Com: -0.675D-02 0.165D-01 0.779D-01-0.617D-01 0.424D+00 0.550D+00
 Coeff-En:   0.000D+00 0.000D+00 0.000D+00 0.000D+00 0.000D+00 0.100D+01
 Coeff:     -0.672D-02 0.164D-01 0.775D-01-0.615D-01 0.422D+00 0.552D+00
 Gap=     0.265 Goal=   None    Shift=    0.000
 RMSDP=6.96D-05 MaxDP=6.31D-04 DE=-2.18D-03 OVMax= 1.41D-03

 Cycle   7  Pass 0  IDiag  1:
 E= -228.730886814883     Delta-E=       -0.000010436487 Rises=F Damp=F
 DIIS: error= 1.06D-04 at cycle   7 NSaved=   7.
 NSaved= 7 IEnMin= 7 EnMin= -228.730886814883     IErMin= 7 ErrMin= 1.06D-04
 ErrMax= 1.06D-04  0.00D+00 EMaxC= 1.00D-01 BMatC= 3.31D-07 BMatP= 1.08D-05
 IDIUse=3 WtCom= 9.99D-01 WtEn= 1.06D-03
 Coeff-Com: -0.226D-02 0.478D-02 0.188D-01-0.209D-01 0.135D+00 0.302D+00
 Coeff-Com:  0.562D+00
 Coeff-En:   0.000D+00 0.000D+00 0.000D+00 0.000D+00 0.000D+00 0.000D+00
 Coeff-En:   0.100D+01
 Coeff:     -0.226D-02 0.477D-02 0.188D-01-0.209D-01 0.135D+00 0.302D+00
 Coeff:      0.562D+00
 Gap=     0.265 Goal=   None    Shift=    0.000
 RMSDP=1.15D-05 MaxDP=1.45D-04 DE=-1.04D-05 OVMax= 3.02D-04

 Cycle   8  Pass 0  IDiag  1:
 E= -228.730887140495     Delta-E=       -0.000000325613 Rises=F Damp=F
 DIIS: error= 2.33D-05 at cycle   8 NSaved=   8.
 NSaved= 8 IEnMin= 8 EnMin= -228.730887140495     IErMin= 8 ErrMin= 2.33D-05
 ErrMax= 2.33D-05  0.00D+00 EMaxC= 1.00D-01 BMatC= 1.94D-08 BMatP= 3.31D-07
 IDIUse=1 WtCom= 1.00D+00 WtEn= 0.00D+00
 Coeff-Com: -0.306D-03 0.328D-03 0.419D-02-0.369D-02 0.302D-01 0.117D+00
 Coeff-Com:  0.273D+00 0.580D+00
 Coeff:     -0.306D-03 0.328D-03 0.419D-02-0.369D-02 0.302D-01 0.117D+00
 Coeff:      0.273D+00 0.580D+00
 Gap=     0.265 Goal=   None    Shift=    0.000
 RMSDP=2.18D-06 MaxDP=2.32D-05 DE=-3.26D-07 OVMax= 3.55D-05

 Initial convergence to 1.0D-05 achieved.  Increase integral accuracy.
 Cycle   9  Pass 1  IDiag  1:
 E= -228.730866029783     Delta-E=        0.000021110712 Rises=F Damp=F
 DIIS: error= 1.97D-05 at cycle   1 NSaved=   1.
 NSaved= 1 IEnMin= 1 EnMin= -228.730866029783     IErMin= 1 ErrMin= 1.97D-05
 ErrMax= 1.97D-05  0.00D+00 EMaxC= 1.00D-01 BMatC= 7.28D-09 BMatP= 7.28D-09
 IDIUse=1 WtCom= 1.00D+00 WtEn= 0.00D+00
 Coeff-Com:  0.100D+01
 Coeff:      0.100D+01
 Gap=     0.265 Goal=   None    Shift=    0.000
 RMSDP=2.18D-06 MaxDP=2.32D-05 DE= 2.11D-05 OVMax= 4.81D-05

 Cycle  10  Pass 1  IDiag  1:
 E= -228.730866037942     Delta-E=       -0.000000008159 Rises=F Damp=F
 DIIS: error= 7.82D-06 at cycle   2 NSaved=   2.
 NSaved= 2 IEnMin= 2 EnMin= -228.730866037942     IErMin= 2 ErrMin= 7.82D-06
 ErrMax= 7.82D-06  0.00D+00 EMaxC= 1.00D-01 BMatC= 2.14D-09 BMatP= 7.28D-09
 IDIUse=1 WtCom= 1.00D+00 WtEn= 0.00D+00
 Coeff-Com:  0.263D+00 0.737D+00
 Coeff:      0.263D+00 0.737D+00
 Gap=     0.265 Goal=   None    Shift=    0.000
 RMSDP=2.04D-06 MaxDP=1.93D-05 DE=-8.16D-09 OVMax= 4.17D-05

 Cycle  11  Pass 1  IDiag  1:
 E= -228.730866036998     Delta-E=        0.000000000944 Rises=F Damp=F
 DIIS: error= 1.07D-05 at cycle   3 NSaved=   3.
 NSaved= 3 IEnMin= 2 EnMin= -228.730866037942     IErMin= 2 ErrMin= 7.82D-06
 ErrMax= 1.07D-05  0.00D+00 EMaxC= 1.00D-01 BMatC= 3.34D-09 BMatP= 2.14D-09
 IDIUse=1 WtCom= 1.00D+00 WtEn= 0.00D+00
 Coeff-Com: -0.111D-01 0.560D+00 0.451D+00
 Coeff:     -0.111D-01 0.560D+00 0.451D+00
 Gap=     0.265 Goal=   None    Shift=    0.000
 RMSDP=1.08D-06 MaxDP=1.08D-05 DE= 9.44D-10 OVMax= 2.29D-05

 Cycle  12  Pass 1  IDiag  1:
 E= -228.730866040059     Delta-E=       -0.000000003061 Rises=F Damp=F
 DIIS: error= 5.25D-07 at cycle   4 NSaved=   4.
 NSaved= 4 IEnMin= 4 EnMin= -228.730866040059     IErMin= 4 ErrMin= 5.25D-07
 ErrMax= 5.25D-07  0.00D+00 EMaxC= 1.00D-01 BMatC= 2.50D-11 BMatP= 2.14D-09
 IDIUse=1 WtCom= 1.00D+00 WtEn= 0.00D+00
 Coeff-Com: -0.123D-01 0.256D+00 0.207D+00 0.549D+00
 Coeff:     -0.123D-01 0.256D+00 0.207D+00 0.549D+00
 Gap=     0.265 Goal=   None    Shift=    0.000
 RMSDP=1.03D-07 MaxDP=1.29D-06 DE=-3.06D-09 OVMax= 1.83D-06

 Cycle  13  Pass 1  IDiag  1:
 E= -228.730866040080     Delta-E=       -0.000000000021 Rises=F Damp=F
 DIIS: error= 2.29D-07 at cycle   5 NSaved=   5.
 NSaved= 5 IEnMin= 5 EnMin= -228.730866040080     IErMin= 5 ErrMin= 2.29D-07
 ErrMax= 2.29D-07  0.00D+00 EMaxC= 1.00D-01 BMatC= 2.29D-12 BMatP= 2.50D-11
 IDIUse=1 WtCom= 1.00D+00 WtEn= 0.00D+00
 Coeff-Com: -0.467D-02 0.668D-01 0.513D-01 0.269D+00 0.618D+00
 Coeff:     -0.467D-02 0.668D-01 0.513D-01 0.269D+00 0.618D+00
 Gap=     0.265 Goal=   None    Shift=    0.000
 RMSDP=3.02D-08 MaxDP=3.70D-07 DE=-2.11D-11 OVMax= 7.86D-07

 Cycle  14  Pass 1  IDiag  1:
 E= -228.730866040083     Delta-E=       -0.000000000003 Rises=F Damp=F
 DIIS: error= 4.64D-08 at cycle   6 NSaved=   6.
 NSaved= 6 IEnMin= 6 EnMin= -228.730866040083     IErMin= 6 ErrMin= 4.64D-08
 ErrMax= 4.64D-08  0.00D+00 EMaxC= 1.00D-01 BMatC= 1.62D-13 BMatP= 2.29D-12
 IDIUse=1 WtCom= 1.00D+00 WtEn= 0.00D+00
 Coeff-Com: -0.121D-02 0.117D-01 0.894D-02 0.843D-01 0.303D+00 0.593D+00
 Coeff:     -0.121D-02 0.117D-01 0.894D-02 0.843D-01 0.303D+00 0.593D+00
 Gap=     0.265 Goal=   None    Shift=    0.000
 RMSDP=1.05D-08 MaxDP=1.37D-07 DE=-2.50D-12 OVMax= 1.71D-07

 Cycle  15  Pass 1  IDiag  1:
 E= -228.730866040082     Delta-E=        0.000000000000 Rises=F Damp=F
 DIIS: error= 1.59D-08 at cycle   7 NSaved=   7.
 NSaved= 7 IEnMin= 6 EnMin= -228.730866040083     IErMin= 7 ErrMin= 1.59D-08
 ErrMax= 1.59D-08  0.00D+00 EMaxC= 1.00D-01 BMatC= 1.27D-14 BMatP= 1.62D-13
 IDIUse=1 WtCom= 1.00D+00 WtEn= 0.00D+00
 Coeff-Com: -0.980D-04-0.113D-02-0.241D-03 0.716D-02 0.706D-01 0.239D+00
 Coeff-Com:  0.685D+00
 Coeff:     -0.980D-04-0.113D-02-0.241D-03 0.716D-02 0.706D-01 0.239D+00
 Coeff:      0.685D+00
 Gap=     0.265 Goal=   None    Shift=    0.000
 RMSDP=3.45D-09 MaxDP=4.00D-08 DE= 2.27D-13 OVMax= 7.13D-08

 SCF Done:  E(RB3LYP) =  -228.730866040     A.U. after   15 cycles
            NFock= 15  Conv=0.34D-08     -V/T= 2.0077
 KE= 2.269740224110D+02 PE=-8.566735178412D+02 EE= 2.389026216331D+02
 Leave Link  502 at Tue Dec 15 16:24:04 2015, MaxMem=    33554432 cpu:         5.8
 (Enter /home/Applications/g09/g09/l801.exe)
 DoSCS=F DFT=T ScalE2(SS,OS)=  1.000000  1.000000
 ExpMin= 1.83D-01 ExpMax= 3.22D+02 ExpMxC= 3.22D+02 IAcc=3 IRadAn=         5 AccDes= 0.00D+00
 HarFok:  IExCor=  205 AccDes= 0.00D+00 IRadAn=         5 IDoV=-2 UseB2=F ITyADJ=14
 ICtDFT= 12500011 ScaDFX=  1.000000  1.000000  1.000000  1.000000
 Largest valence mixing into a core orbital is  2.05D-04
 Largest core mixing into a valence orbital is  4.32D-05
 Range of M.O.s used for correlation:     6    53
 NBasis=    53 NAE=    18 NBE=    18 NFC=     5 NFV=     0
 NROrb=     48 NOA=    13 NOB=    13 NVA=    35 NVB=    35
 Leave Link  801 at Tue Dec 15 16:24:04 2015, MaxMem=    33554432 cpu:         0.3
 (Enter /home/Applications/g09/g09/l914.exe)
 RHF ground state
 MDV=    33554432 DFT=T DoStab=F Mixed=T DoRPA=F DoScal=F NonHer=F
 Keep R1, R2, and R3 ints in memory in canonical form, NReq=5596273.
 FoFCou: FMM=F IPFlag=           0 FMFlag=           0 FMFlg1=           0
         NFxFlg=           0 DoJE=F BraDBF=F KetDBF=F FulRan=T
         wScrn=  0.000000 ICntrl=     600 IOpCl=  0 I1Cent=           0 NGrid=           0
         NMat0=    1 NMatS0=   1431 NMatT0=    0 NMatD0=    1 NMtDS0=    0 NMtDT0=    0
 Symmetry not used in FoFCou.
 Making orbital integer symmetry assigments:
 Orbital symmetries:
       Occupied  (A) (A) (A) (A) (A) (A) (A) (A) (A) (A) (A) (A)
                 (A) (A) (A) (A) (A) (A)
       Virtual   (A) (A) (A) (A) (A) (A) (A) (A) (A) (A) (A) (A)
                 (A) (A) (A) (A) (A) (A) (A) (A) (A) (A) (A) (A)
                 (A) (A) (A) (A) (A) (A) (A) (A) (A) (A) (A)
    60 initial guesses have been made.
 Convergence on wavefunction:    0.000001000000000
 Davidson Disk Diagonalization:  ConvIn= 1.00D-06 SkipCon=T Conv= 1.00D-06.
 Max sub-space:   240 roots to seek:    60 dimension of matrix:          910
 Iteration     1 Dimension    60 NMult     0 NNew     60
 CISAX will form    60 AO SS matrices at one time.
 NMat=    60 NSing=    60 JSym2X= 0.
 New state      1 was old state      3
 New state      2 was old state      1
 New state      3 was old state      4
 New state      4 was old state      6
 New state      5 was old state      7
 New state      6 was old state      8
 New state      7 was old state     11
 New state      8 was old state      9
 New state      9 was old state      5
 New state     11 was old state     12
 New state     12 was old state     13
 New state     13 was old state     16
 Excitation Energies [eV] at current iteration:
 Root      1 :     7.531849770716473
 Root      2 :     8.299723858261945
 Root      3 :     8.416949127428769
 Root      4 :     8.974558030079942
 Root      5 :     9.222842447156516
 Root      6 :     9.595951763440713
 Root      7 :     9.757654461828412
 Root      8 :     9.840324068822909
 Root      9 :    10.004769226239910
 Root     10 :    10.208127428150540
 Root     11 :    10.384797763934450
 Root     12 :    10.555192707400950
 Root     13 :    10.784899913644680
 Root     14 :    10.943673653128660
 Root     15 :    10.990511197342360
 Root     16 :    11.107157224307660
 Root     17 :    11.184522365523160
 Root     18 :    11.420246513598930
 Root     19 :    11.624128031484210
 Root     20 :    11.834952508718240
 Root     21 :    12.063306279607490
 Root     22 :    12.189106979043040
 Root     23 :    12.250396291049720
 Root     24 :    12.659799520625550
 Root     25 :    13.003403803802370
 Root     26 :    13.058669505416160
 Root     27 :    13.153195029427490
 Root     28 :    13.284068447717460
 Root     29 :    13.401211030543670
 Root     30 :    13.648131843114200
 Root     31 :    13.936924145626800
 Root     32 :    13.956485304478670
 Root     33 :    14.116722477516660
 Root     34 :    14.203663494674340
 Root     35 :    14.219278084270710
 Root     36 :    14.393385373226900
 Root     37 :    14.484305885132780
 Root     38 :    14.608069323534570
 Root     39 :    14.802508411054440
 Root     40 :    14.915532559064580
 Root     41 :    15.110573141374250
 Root     42 :    15.157344958979400
 Root     43 :    15.324535296244480
 Root     44 :    15.395146160985270
 Root     45 :    15.523566215746620
 Root     46 :    15.560537748484920
 Root     47 :    15.615051701946730
 Root     48 :    15.693073117461300
 Root     49 :    15.739523507684460
 Root     50 :    15.896622868564260
 Root     51 :    16.000652528888310
 Root     52 :    16.116866348923630
 Root     53 :    16.314935611977030
 Root     54 :    16.401382637553520
 Root     55 :    16.416080569754040
 Root     56 :    16.483486220945340
 Root     57 :    16.628613696079290
 Root     58 :    16.885452373264670
 Root     59 :    18.498117130210420
 Root     60 :    19.806111690066230
 Iteration     2 Dimension   120 NMult    60 NNew     60
 CISAX will form    60 AO SS matrices at one time.
 NMat=    60 NSing=    60 JSym2X= 0.
 Root      1 not converged, maximum delta is    0.218521396031454
 Root      2 not converged, maximum delta is    0.402572431042079
 Root      3 not converged, maximum delta is    0.338687111026139
 Root      4 not converged, maximum delta is    0.048812206334232
 Root      5 not converged, maximum delta is    0.022346074979645
 New state      6 was old state      9
 Root      6 not converged, maximum delta is    0.402915961308591
 New state      7 was old state      6
 Root      7 not converged, maximum delta is    0.018348321070527
 New state      8 was old state      7
 Root      8 not converged, maximum delta is    0.242674907934889
 New state      9 was old state      8
 Root      9 not converged, maximum delta is    0.312608461193515
 New state     10 was old state     13
 Root     10 not converged, maximum delta is    0.379576169651385
 New state     11 was old state     10
 Root     11 not converged, maximum delta is    0.101146850964230
 New state     12 was old state     11
 Root     12 not converged, maximum delta is    0.270401004906740
 New state     13 was old state     12
 Root     13 not converged, maximum delta is    0.067088980039659
 Root     14 not converged, maximum delta is    0.282587486191362
 Root     15 not converged, maximum delta is    0.356768579878034
 Excitation Energies [eV] at current iteration:
 Root      1 :     7.288081005359792   Change is   -0.243768765356681
 Root      2 :     7.721366675614665   Change is   -0.578357182647279
 Root      3 :     8.368055675995574   Change is   -0.048893451433194
 Root      4 :     8.937980998504194   Change is   -0.036577031575748
 Root      5 :     9.190789728429795   Change is   -0.032052718726721
 Root      6 :     9.505385977710134   Change is   -0.499383248529779
 Root      7 :     9.580362260066179   Change is   -0.015589503374534
 Root      8 :     9.751900364892364   Change is   -0.005754096936049
 Root      9 :     9.852550362806035   Change is    0.012226293983126
 Root     10 :    10.037851416279800   Change is   -0.747048497364882
 Root     11 :    10.192178111701440   Change is   -0.015949316449098
 Root     12 :    10.374783228017610   Change is   -0.010014535916847
 Root     13 :    10.527656155396940   Change is   -0.027536552004012
 Root     14 :    10.892821710130520   Change is   -0.050851942998141
 Root     15 :    10.947429458194880   Change is   -0.043081739147488
 Root     16 :    11.031614255065310   Change is   -0.152908110457855
 Root     17 :    11.102650676193330   Change is   -0.004506548114324
 Root     18 :    11.391187284348730   Change is   -0.029059229250204
 Root     19 :    11.550616213662830   Change is   -0.073511817821385
 Root     20 :    11.808903684558980   Change is   -0.026048824159261
 Root     21 :    12.004261492976960   Change is   -0.059044786630527
 Root     22 :    12.145860352275950   Change is   -0.043246626767090
 Root     23 :    12.206640733187420   Change is   -0.043755557862300
 Root     24 :    12.579747081618570   Change is   -0.080052439006972
 Root     25 :    12.835133488760600   Change is   -0.168270315041772
 Root     26 :    12.990874263640700   Change is   -0.067795241775467
 Root     27 :    13.110774542721000   Change is   -0.042420486706497
 Root     28 :    13.133580172385010   Change is   -0.150488275332448
 Root     29 :    13.290950658049160   Change is   -0.110260372494511
 Root     30 :    13.415184068350750   Change is   -0.232947774763451
 Root     31 :    13.664778814449900   Change is   -0.451943663066755
 Root     32 :    13.751256766209220   Change is   -0.205228538269451
 Root     33 :    13.885063036023040   Change is   -0.051861109603764
 Root     34 :    14.148294772947630   Change is   -0.245090600279270
 Root     35 :    14.163886602900940   Change is   -0.039776891773404
 Root     36 :    14.188006709021480   Change is   -0.031271375249228
 Root     37 :    14.322689722747380   Change is   -0.161616162385400
 Root     38 :    14.503120120881450   Change is   -0.104949202653119
 Root     39 :    14.652217762542670   Change is   -0.150290648511769
 Root     40 :    14.753093565339310   Change is   -0.162438993725266
 Root     41 :    14.885871943848280   Change is   -0.224701197525971
 Root     42 :    15.002459602576940   Change is   -0.392686558408333
 Root     43 :    15.115705211024660   Change is   -0.041639747954741
 Root     44 :    15.172125294630380   Change is   -0.152410001614095
 Root     45 :    15.319197495459200   Change is   -0.204368720287418
 Root     46 :    15.411434981683820   Change is   -0.281638135777476
 Root     47 :    15.453188544066880   Change is   -0.161863157879846
 Root     48 :    15.543265125618360   Change is   -0.017272622866560
 Root     49 :    15.592638552395990   Change is   -0.408013976492323
 Root     50 :    15.701899840759200   Change is   -0.037623666925261
 Root     51 :    15.774104698353560   Change is   -0.122518170210710
 Root     52 :    15.951403262361410   Change is   -0.165463086562220
 Root     53 :    16.042929552933880   Change is   -0.585684143145409
 Root     54 :    16.141153597976850   Change is   -0.173782014000178
 Root     55 :    16.268639775364920   Change is   -0.132742862188592
 Root     56 :    16.356780322487920   Change is   -0.059300247266121
 Root     57 :    16.431747545671160   Change is   -0.051738675274177
 Root     58 :    16.445543013286670   Change is   -0.439909359978005
 Root     59 :    17.099345521390740   Change is   -1.398771608819683
 Root     60 :    17.238638419900690
 Iteration     3 Dimension   135 NMult   120 NNew     15
 CISAX will form    15 AO SS matrices at one time.
 NMat=    15 NSing=    15 JSym2X= 0.
 Root      1 not converged, maximum delta is    0.001575715510989
 Root      2 not converged, maximum delta is    0.002051319698581
 Root      3 not converged, maximum delta is    0.000223611900676
 Root      4 not converged, maximum delta is    0.000526110550854
 Root      5 not converged, maximum delta is    0.000352035183361
 Root      6 not converged, maximum delta is    0.002299899985376
 Root      7 not converged, maximum delta is    0.000240690351387
 Root      8 not converged, maximum delta is    0.000619308666522
 Root      9 not converged, maximum delta is    0.000723355700307
 Root     10 not converged, maximum delta is    0.002631249134372
 Root     11 not converged, maximum delta is    0.001493394462237
 Root     12 not converged, maximum delta is    0.001335986571222
 Root     13 not converged, maximum delta is    0.000192414468824
 Root     14 not converged, maximum delta is    0.000596224425940
 Root     15 not converged, maximum delta is    0.000476060375080
 Excitation Energies [eV] at current iteration:
 Root      1 :     7.287010647599888   Change is   -0.001070357759904
 Root      2 :     7.720069900394411   Change is   -0.001296775220254
 Root      3 :     8.368037489786744   Change is   -0.000018186208831
 Root      4 :     8.937813556501549   Change is   -0.000167442002645
 Root      5 :     9.190743061047494   Change is   -0.000046667382302
 Root      6 :     9.503551706971857   Change is   -0.001834270738278
 Root      7 :     9.580338562290560   Change is   -0.000023697775619
 Root      8 :     9.751787051435953   Change is   -0.000113313456412
 Root      9 :     9.852446658109987   Change is   -0.000103704696049
 Root     10 :    10.035099836072290   Change is   -0.002751580207514
 Root     11 :    10.192026020390750   Change is   -0.000152091310690
 Root     12 :    10.374198426851220   Change is   -0.000584801166389
 Root     13 :    10.527626649491020   Change is   -0.000029505905920
 Root     14 :    10.892721225392340   Change is   -0.000100484738178
 Root     15 :    10.947357209034810   Change is   -0.000072249160066
 Iteration     4 Dimension   150 NMult   135 NNew     15
 CISAX will form    15 AO SS matrices at one time.
 NMat=    15 NSing=    15 JSym2X= 0.
 Root      1 not converged, maximum delta is    0.000034447997994
 Root      2 not converged, maximum delta is    0.000056716068153
 Root      3 not converged, maximum delta is    0.000006013048227
 Root      4 not converged, maximum delta is    0.000017994857803
 Root      5 not converged, maximum delta is    0.000007339022884
 Root      6 not converged, maximum delta is    0.000063538199083
 Root      7 not converged, maximum delta is    0.000005322249699
 Root      8 not converged, maximum delta is    0.000012208674847
 Root      9 not converged, maximum delta is    0.000014257674758
 Root     10 not converged, maximum delta is    0.000075842510083
 Root     11 not converged, maximum delta is    0.000015419498466
 Root     12 not converged, maximum delta is    0.000034748036735
 Root     13 not converged, maximum delta is    0.000006453841867
 Root     14 not converged, maximum delta is    0.000015514038101
 Root     15 not converged, maximum delta is    0.000016988253438
 Excitation Energies [eV] at current iteration:
 Root      1 :     7.287009511372987   Change is   -0.000001136226901
 Root      2 :     7.720068560728631   Change is   -0.000001339665780
 Root      3 :     8.368037470975215   Change is   -0.000000018811529
 Root      4 :     8.937813323453691   Change is   -0.000000233047859
 Root      5 :     9.190743023363177   Change is   -0.000000037684317
 Root      6 :     9.503549110955719   Change is   -0.000002596016139
 Root      7 :     9.580338543901474   Change is   -0.000000018389085
 Root      8 :     9.751786902274238   Change is   -0.000000149161714
 Root      9 :     9.852446528949224   Change is   -0.000000129160763
 Root     10 :    10.035095737177230   Change is   -0.000004098895059
 Root     11 :    10.192025819334800   Change is   -0.000000201055948
 Root     12 :    10.374197601540880   Change is   -0.000000825310337
 Root     13 :    10.527626615846920   Change is   -0.000000033644102
 Root     14 :    10.892721070460460   Change is   -0.000000154931884
 Root     15 :    10.947357109874660   Change is   -0.000000099160151
 Iteration     5 Dimension   165 NMult   150 NNew     15
 CISAX will form    15 AO SS matrices at one time.
 NMat=    15 NSing=    15 JSym2X= 0.
 Root      1 not converged, maximum delta is    0.000001542261148
 Root      2 not converged, maximum delta is    0.000001033102739
 Root      3 has converged.
 Root      4 has converged.
 Root      5 has converged.
 Root      6 not converged, maximum delta is    0.000002178419452
 Root      7 has converged.
 Root      8 has converged.
 Root      9 has converged.
 Root     10 not converged, maximum delta is    0.000002064120221
 Root     11 has converged.
 Root     12 has converged.
 Root     13 has converged.
 Root     14 has converged.
 Root     15 has converged.
 Excitation Energies [eV] at current iteration:
 Root      1 :     7.287009510350876   Change is   -0.000000001022111
 Root      2 :     7.720068559743225   Change is   -0.000000000985405
 Root      3 :     8.368037470959393   Change is   -0.000000000015821
 Root      4 :     8.937813323284677   Change is   -0.000000000169012
 Root      5 :     9.190743023330411   Change is   -0.000000000032767
 Root      6 :     9.503549109046315   Change is   -0.000000001909403
 Root      7 :     9.580338543885265   Change is   -0.000000000016210
 Root      8 :     9.751786902143239   Change is   -0.000000000130998
 Root      9 :     9.852446528859865   Change is   -0.000000000089359
 Root     10 :    10.035095733781560   Change is   -0.000000003395670
 Root     11 :    10.192025819158580   Change is   -0.000000000176225
 Root     12 :    10.374197600817500   Change is   -0.000000000723377
 Root     13 :    10.527626615804870   Change is   -0.000000000042044
 Root     14 :    10.892721070308150   Change is   -0.000000000152312
 Root     15 :    10.947357109796290   Change is   -0.000000000078368
 Iteration     6 Dimension   169 NMult   165 NNew      4
 CISAX will form     4 AO SS matrices at one time.
 NMat=     4 NSing=     4 JSym2X= 0.
 Root      1 has converged.
 Root      2 has converged.
 Root      3 has converged.
 Root      4 has converged.
 Root      5 has converged.
 Root      6 has converged.
 Root      7 has converged.
 Root      8 has converged.
 Root      9 has converged.
 Root     10 has converged.
 Root     11 has converged.
 Root     12 has converged.
 Root     13 has converged.
 Root     14 has converged.
 Root     15 has converged.
 Excitation Energies [eV] at current iteration:
 Root      1 :     7.287009510350694   Change is   -0.000000000000181
 Root      2 :     7.720068559742984   Change is   -0.000000000000242
 Root      3 :     8.368037470959392   Change is   -0.000000000000003
 Root      4 :     8.937813323284628   Change is   -0.000000000000051
 Root      5 :     9.190743023330397   Change is   -0.000000000000014
 Root      6 :     9.503549109045284   Change is   -0.000000000001032
 Root      7 :     9.580338543885262   Change is   -0.000000000000003
 Root      8 :     9.751786902143170   Change is   -0.000000000000069
 Root      9 :     9.852446528859822   Change is   -0.000000000000042
 Root     10 :    10.035095733780080   Change is   -0.000000000001477
 Root     11 :    10.192025819158510   Change is   -0.000000000000068
 Root     12 :    10.374197600817130   Change is   -0.000000000000378
 Root     13 :    10.527626615804870   Change is   -0.000000000000005
 Root     14 :    10.892721070308100   Change is   -0.000000000000051
 Root     15 :    10.947357109796260   Change is   -0.000000000000027
 Convergence achieved on expansion vectors.
 ***********************************************************************
 Excited states from <AA,BB:AA,BB> singles matrix:
 ***********************************************************************
 
 1PDM for each excited state written to RWF  633
 Ground to excited state transition densities written to RWF  633
 Ground to excited state transition electric dipole moments (Au):
       state          X           Y           Z        Dip. S.      Osc.
         1        -0.7226      0.2609     -0.0861      0.5976      0.1067
         2        -0.7234      0.2091     -0.1119      0.5796      0.1096
         3         0.0759     -0.0768     -0.0372      0.0130      0.0027
         4        -0.0095     -0.2842      0.0593      0.0844      0.0185
         5        -0.0047     -0.0620     -0.1795      0.0361      0.0081
         6         0.4084     -0.6891     -0.1222      0.6566      0.1529
         7        -0.0121     -0.0146     -0.0080      0.0004      0.0001
         8        -0.1690     -0.1046     -0.0253      0.0401      0.0096
         9         0.1147     -0.1084      0.0328      0.0260      0.0063
        10        -0.5728     -1.1292      0.0712      1.6083      0.3954
        11        -0.1736     -0.1809     -0.0301      0.0638      0.0159
        12        -0.3806     -0.3438     -0.0253      0.2637      0.0670
        13         0.0693     -0.0405      0.0093      0.0065      0.0017
        14        -0.0545     -0.1723      0.0200      0.0330      0.0088
        15        -0.0065     -0.1226     -0.1472      0.0368      0.0099
 Ground to excited state transition velocity dipole moments (Au):
       state          X           Y           Z        Dip. S.      Osc.
         1        -0.0043     -0.0516     -0.0034      0.0027      0.0067
         2         0.0278      0.0141     -0.0055      0.0010      0.0024
         3        -0.0046      0.0117     -0.0056      0.0002      0.0004
         4        -0.0037      0.0085     -0.0393      0.0016      0.0033
         5        -0.0061      0.0029      0.0825      0.0069      0.0135
         6        -0.0626      0.0382     -0.0049      0.0054      0.0103
         7         0.0000     -0.0038     -0.0446      0.0020      0.0038
         8         0.0042      0.0060      0.0147      0.0003      0.0005
         9        -0.0230      0.0155     -0.0044      0.0008      0.0014
        10         0.0164      0.0440      0.0112      0.0023      0.0042
        11         0.0262     -0.0060      0.0246      0.0013      0.0024
        12         0.0309      0.0041     -0.0273      0.0017      0.0030
        13        -0.0174     -0.0032      0.0018      0.0003      0.0005
        14        -0.0052      0.0071      0.0158      0.0003      0.0005
        15         0.0013      0.0053     -0.0078      0.0001      0.0001
 Ground to excited state transition magnetic dipole moments (Au):
       state          X           Y           Z
         1        -0.0066     -0.0704     -0.3539
         2         0.0230     -0.0047     -0.3748
         3        -0.3044     -0.4075      0.0623
         4         0.1082     -0.0436     -0.0554
         5        -1.3286      0.9178      0.0122
         6         0.0700     -0.1308     -0.3662
         7        -0.1248      0.1618      0.0203
         8         0.0115     -0.0637      0.0224
         9         0.0243      0.2623     -0.0338
        10        -0.0883     -0.1673      0.0637
        11         0.0549     -0.0843     -0.0395
        12         0.1168      0.0123      0.2015
        13         0.5559      0.8739     -0.1183
        14        -0.1757      0.3173     -0.0324
        15        -0.1903     -0.0594      0.0435
 Ground to excited state transition velocity quadrupole moments (Au):
       state          XX          YY          ZZ          XY          XZ          YZ
         1        -0.1160      0.0766      0.0245     -0.0570     -0.0048      0.0001
         2        -0.1770      0.2170     -0.0134     -0.0987      0.0116      0.0004
         3        -0.0016      0.0033     -0.0012      0.0359      0.0380     -0.0718
         4        -0.1002      0.0548      0.0123      0.0075      0.1638     -0.0104
         5        -0.0025      0.0095     -0.0018      0.0003     -0.0890     -0.1831
         6        -0.3188      0.3098      0.0205     -0.1123     -0.0176      0.0444
         7        -0.0450      0.0764      0.0002     -0.0521     -0.0897     -0.0144
         8         0.0152     -0.0702      0.0146      0.0905      0.0242     -0.0754
         9        -0.0932      0.1000     -0.0031     -0.0572     -0.0150     -0.0636
        10        -0.1413      0.0665      0.0534      0.2788      0.0062     -0.0289
        11        -0.0343     -0.0031      0.0074      0.0661      0.0269      0.0779
        12         0.0666     -0.0749      0.0144      0.1910     -0.0541      0.0540
        13         0.0267      0.0330     -0.0123     -0.0126     -0.0539      0.0704
        14        -0.0355     -0.0051      0.0252      0.0540     -0.0643     -0.0055
        15        -0.0613      0.0155      0.0063      0.0564     -0.0120     -0.1110
 <0|del|b> * <b|rxdel|0> + <0|del|b> * <b|delr+rdel|0>
 Rotatory Strengths (R) in cgs (10**-40 erg-esu-cm/Gauss)
       state          XX          YY          ZZ    R(velocity)    E-M Angle
         1         6.3408      1.3846      5.1628      4.2961       74.91
         2         2.9831      2.7218      0.9039      2.2030       77.13
         3        -6.6314      1.8133     -3.7504     -2.8562      121.88
         4         0.1310      2.2671      0.6204      1.0062       74.39
         5         4.1576     10.6513      9.8230      8.2106       84.95
         6        -2.0178     -5.9903     -7.3646     -5.1243      105.16
         7         0.4764     -3.2398     -0.2683     -1.0106       99.45
         8         1.1129     -1.2469      0.1221     -0.0040       90.00
         9         4.5873      0.7791      1.7679      2.3781       60.63
        10        -3.6443     -4.1416     -7.7200     -5.1686      147.16
        11         1.2499      0.8306     -0.2430      0.6125       75.71
        12        -9.6983      4.6291      1.6400     -1.1431      101.02
        13        -2.9142    -10.1347    -10.1084     -7.7191      133.11
        14         2.7050     -0.3703      2.3801      1.5716       66.17
        15        -0.9025     -0.2435     -0.4192     -0.5217      117.41
 1/2[<0|r|b>*<b|rxdel|0> + (<0|rxdel|b>*<b|r|0>)*]
 Rotatory Strengths (R) in cgs (10**-40 erg-esu-cm/Gauss)
       state          XX          YY          ZZ     R(length)
         1        -3.3750     12.9872    -21.5439     -3.9772
         2        11.7910      0.7005    -29.6637     -5.7241
         3        16.3314    -22.1197      1.6407     -1.3826
         4         0.7287     -8.7566      2.3231     -1.9016
         5        -4.4286     40.2218      1.5513     12.4482
         6       -20.2135    -63.7309    -31.6456    -38.5300
         7        -1.0695      1.6658      0.1143      0.2369
         8         1.3695     -4.7146      0.4002     -0.9816
         9        -1.9737     20.1058      0.7841      6.3054
        10       -35.7770   -133.5920     -3.2098    -57.5263
        11         6.7378    -10.7855     -0.8395     -1.6291
        12        31.4476      2.9794      3.6051     12.6774
        13       -27.2257     25.0483      0.7790     -0.4661
        14        -6.7732     38.6524      0.4583     10.7792
        15        -0.8734     -5.1529      4.5281     -0.4994
  1/2[<0|del|b>*<b|r|0> + (<0|r|b>*<b|del|0>)*] (Au)
       state          X           Y           Z        Dip. S.   Osc.(frdel)
         1         0.0031     -0.0135      0.0003      0.0101      0.0067
         2        -0.0201      0.0030      0.0006      0.0166      0.0110
         3        -0.0003     -0.0009      0.0002      0.0010      0.0007
         4         0.0000     -0.0024     -0.0023      0.0047      0.0031
         5         0.0000     -0.0002     -0.0148      0.0150      0.0100
         6        -0.0256     -0.0264      0.0006      0.0513      0.0342
         7         0.0000      0.0001      0.0004     -0.0004     -0.0003
         8        -0.0007     -0.0006     -0.0004      0.0017      0.0011
         9        -0.0026     -0.0017     -0.0001      0.0045      0.0030
        10        -0.0094     -0.0496      0.0008      0.0582      0.0388
        11        -0.0046      0.0011     -0.0007      0.0042      0.0028
        12        -0.0118     -0.0014      0.0007      0.0125      0.0083
        13        -0.0012      0.0001      0.0000      0.0011      0.0007
        14         0.0003     -0.0012      0.0003      0.0006      0.0004
        15         0.0000     -0.0006      0.0011     -0.0005     -0.0003

 Excitation energies and oscillator strengths:
 
 Excited State   1:      Singlet-A      7.2870 eV  170.14 nm  f=0.1067  <S**2>=0.000
      17 -> 19         0.28436
      18 -> 19         0.52615
      18 -> 20        -0.34719
 This state for optimization and/or second-order correction.
 Total Energy, E(CIS) =  -228.463073356    
 Copying the excited state density for this state as the 1-particle RhoCI density.
 
 Excited State   2:      Singlet-A      7.7201 eV  160.60 nm  f=0.1096  <S**2>=0.000
      17 -> 19        -0.40031
      18 -> 19         0.43466
      18 -> 20         0.35990
 
 Excited State   3:      Singlet-A      8.3680 eV  148.16 nm  f=0.0027  <S**2>=0.000
      18 -> 21         0.70096
 
 Excited State   4:      Singlet-A      8.9378 eV  138.72 nm  f=0.0185  <S**2>=0.000
      17 -> 19         0.13116
      18 -> 20         0.13438
      18 -> 22         0.65159
      18 -> 23        -0.12316
 
 Excited State   5:      Singlet-A      9.1907 eV  134.90 nm  f=0.0081  <S**2>=0.000
      16 -> 19         0.68824
 
 Excited State   6:      Singlet-A      9.5035 eV  130.46 nm  f=0.1529  <S**2>=0.000
      15 -> 19        -0.14476
      17 -> 19         0.16095
      17 -> 20         0.58054
      18 -> 20         0.21786
      18 -> 22        -0.16247
 
 Excited State   7:      Singlet-A      9.5803 eV  129.42 nm  f=0.0001  <S**2>=0.000
      15 -> 19         0.11085
      17 -> 21         0.50483
      18 -> 22        -0.12741
      18 -> 23        -0.44959
 
 Excited State   8:      Singlet-A      9.7518 eV  127.14 nm  f=0.0096  <S**2>=0.000
      15 -> 19        -0.35329
      17 -> 20        -0.12241
      17 -> 21         0.42375
      17 -> 22        -0.11263
      18 -> 23         0.38668
 
 Excited State   9:      Singlet-A      9.8524 eV  125.84 nm  f=0.0063  <S**2>=0.000
      15 -> 19         0.56485
      17 -> 20         0.10703
      17 -> 21         0.17805
      18 -> 23         0.34212
 
 Excited State  10:      Singlet-A     10.0351 eV  123.55 nm  f=0.3954  <S**2>=0.000
      17 -> 19         0.37368
      17 -> 20        -0.24657
      17 -> 21        -0.12640
      17 -> 22        -0.20996
      18 -> 20         0.34703
      18 -> 22        -0.13302
      18 -> 24        -0.12917
 
 Excited State  11:      Singlet-A     10.1920 eV  121.65 nm  f=0.0159  <S**2>=0.000
      17 -> 22        -0.10249
      18 -> 24         0.67791
 
 Excited State  12:      Singlet-A     10.3742 eV  119.51 nm  f=0.0670  <S**2>=0.000
      14 -> 19        -0.10622
      17 -> 19         0.12816
      17 -> 20        -0.16134
      17 -> 22         0.62537
      18 -> 20         0.10375
 
 Excited State  13:      Singlet-A     10.5276 eV  117.77 nm  f=0.0017  <S**2>=0.000
      14 -> 19        -0.35170
      15 -> 20        -0.12862
      16 -> 20         0.57550
      17 -> 22        -0.12637
 
 Excited State  14:      Singlet-A     10.8927 eV  113.82 nm  f=0.0088  <S**2>=0.000
      13 -> 19         0.13659
      14 -> 19         0.55375
      15 -> 20        -0.15021
      16 -> 20         0.30672
      18 -> 25        -0.17957
 
 Excited State  15:      Singlet-A     10.9474 eV  113.25 nm  f=0.0099  <S**2>=0.000
      14 -> 19         0.13204
      17 -> 24         0.11490
      18 -> 25         0.65578
 SavETr:  write IOETrn=   770 NScale= 10 NData=  16 NLR=1 NState=   15 LETran=     280.
 The selected state is a singlet
 CISAX will form     1 AO SS matrices at one time.
 NMat=     1 NSing=     1 JSym2X= 0.
 CISAX will form     1 AO SS matrices at one time.
 NMat=     1 NSing=     1 JSym2X= 0.
 Leave Link  914 at Tue Dec 15 16:24:38 2015, MaxMem=    33554432 cpu:        33.4
 (Enter /home/Applications/g09/g09/l1002.exe)
 Minotr:  Closed shell wavefunction.
          Computing CIS/TD-HF/TD-KS derivatives.
          Using Z-Vector for PSCF gradient.
          Skipping F1 and S1 gradient terms here.
          IDoAtm=111111111
          Frozen-core window.
          Direct CPHF calculation.
          Differentiating once with respect to electric field.
                with respect to dipole field.
          Differentiating once with respect to nuclear coordinates.
          Requested convergence is 1.0D-10 RMS, and 1.0D-09 maximum.
          NewPWx=F KeepS1=T KeepF1=T KeepIn=T MapXYZ=F SortEE=F KeepMc=T.
          MDV=      33554290 using IRadAn=       0.
 Using stored XC quadrature information.
 Keep R1 ints in memory in canonical form, NReq=1898913.
 FoFCou: FMM=F IPFlag=           0 FMFlag=           0 FMFlg1=           0
         NFxFlg=           0 DoJE=F BraDBF=F KetDBF=F FulRan=T
         wScrn=  0.000000 ICntrl=     600 IOpCl=  0 I1Cent=           0 NGrid=           0
         NMat0=    1 NMatS0=   1431 NMatT0=    0 NMatD0=    1 NMtDS0=    0 NMtDT0=    0
 Symmetry not used in FoFCou.
          Solving linear equations separately, MaxMat=       0.
          There are     1 degrees of freedom in the 1st order CPHF.  IDoFFX=0 NUNeed=     1.
 LinEq1:  Iter=  0 NonCon=     1 RMS=4.91D-02 Max=6.63D-01 NDo=     1
 AX will form     1 AO Fock derivatives at one time.
 LinEq1:  Iter=  1 NonCon=     1 RMS=1.66D-02 Max=2.45D-01 NDo=     1
 LinEq1:  Iter=  2 NonCon=     1 RMS=1.18D-02 Max=1.72D-01 NDo=     1
 LinEq1:  Iter=  3 NonCon=     1 RMS=5.79D-03 Max=6.26D-02 NDo=     1
 LinEq1:  Iter=  4 NonCon=     1 RMS=4.22D-03 Max=5.22D-02 NDo=     1
 LinEq1:  Iter=  5 NonCon=     1 RMS=9.50D-04 Max=7.28D-03 NDo=     1
 LinEq1:  Iter=  6 NonCon=     1 RMS=2.62D-04 Max=1.78D-03 NDo=     1
 LinEq1:  Iter=  7 NonCon=     1 RMS=8.17D-05 Max=4.05D-04 NDo=     1
 LinEq1:  Iter=  8 NonCon=     1 RMS=1.83D-05 Max=2.67D-04 NDo=     1
 LinEq1:  Iter=  9 NonCon=     1 RMS=1.10D-05 Max=5.79D-05 NDo=     1
 LinEq1:  Iter= 10 NonCon=     1 RMS=1.44D-06 Max=9.19D-06 NDo=     1
 LinEq1:  Iter= 11 NonCon=     1 RMS=2.04D-07 Max=1.31D-06 NDo=     1
 LinEq1:  Iter= 12 NonCon=     1 RMS=2.07D-08 Max=1.20D-07 NDo=     1
 LinEq1:  Iter= 13 NonCon=     1 RMS=2.68D-09 Max=1.65D-08 NDo=     1
 LinEq1:  Iter= 14 NonCon=     1 RMS=3.63D-10 Max=1.85D-09 NDo=     1
 LinEq1:  Iter= 15 NonCon=     0 RMS=4.48D-11 Max=2.69D-10 NDo=     1
 Linear equations converged to 1.000D-10 1.000D-09 after    15 iterations.
 End of Minotr F.D. properties file   721 does not exist.
 End of Minotr F.D. properties file   722 does not exist.
 End of Minotr F.D. properties file   788 does not exist.
 Leave Link 1002 at Tue Dec 15 16:24:47 2015, MaxMem=    33554432 cpu:         8.8
 (Enter /home/Applications/g09/g09/l601.exe)
 Copying SCF densities to generalized density rwf, IOpCl= 0 IROHF=0.

 **********************************************************************

            Population analysis using the SCF density.

 **********************************************************************

 Orbital symmetries:
       Occupied  (A) (A) (A) (A) (A) (A) (A) (A) (A) (A) (A) (A)
                 (A) (A) (A) (A) (A) (A)
       Virtual   (A) (A) (A) (A) (A) (A) (A) (A) (A) (A) (A) (A)
                 (A) (A) (A) (A) (A) (A) (A) (A) (A) (A) (A) (A)
                 (A) (A) (A) (A) (A) (A) (A) (A) (A) (A) (A)
 The electronic state is 1-A.
 Alpha  occ. eigenvalues --  -19.11792 -10.17773 -10.17299 -10.12608 -10.12490
 Alpha  occ. eigenvalues --   -1.14942  -0.81658  -0.74939  -0.60660  -0.56418
 Alpha  occ. eigenvalues --   -0.54121  -0.46129  -0.43897  -0.42259  -0.38539
 Alpha  occ. eigenvalues --   -0.36509  -0.28355  -0.23486
 Alpha virt. eigenvalues --    0.02993   0.08086   0.11894   0.13903   0.16765
 Alpha virt. eigenvalues --    0.17773   0.21537   0.24962   0.37492   0.42772
 Alpha virt. eigenvalues --    0.46297   0.68224   0.69643   0.71104   0.75325
 Alpha virt. eigenvalues --    0.76693   0.78997   0.81388   0.82147   0.84198
 Alpha virt. eigenvalues --    0.93760   0.96401   0.97987   1.01394   1.18855
 Alpha virt. eigenvalues --    1.19752   1.32553   1.37203   1.50971   1.55418
 Alpha virt. eigenvalues --    1.63419   1.73603   1.91611   2.05881   3.22535
     Molecular Orbital Coefficients:
                           1         2         3         4         5
                           O         O         O         O         O
     Eigenvalues --   -19.11792 -10.17773 -10.17299 -10.12608 -10.12490
   1 1   C  1S          0.00018  -0.00998  -0.00087  -0.56766   0.80619
   2        2S          0.00074  -0.00508  -0.00049  -0.06573   0.08775
   3        2PX         0.00142   0.00245   0.00024  -0.00055   0.00010
   4        2PY         0.00003   0.00167   0.00052   0.00171  -0.00151
   5        2PZ         0.00012   0.00014  -0.00001   0.00024  -0.00032
   6        3S         -0.00587   0.03482  -0.01403   0.08297  -0.06175
   7        3PX        -0.00201  -0.01233   0.00225   0.01200   0.00490
   8        3PY         0.00988  -0.01338   0.00897  -0.02795   0.01583
   9        3PZ        -0.00039  -0.00090   0.00078  -0.00216   0.00195
  10 2   C  1S         -0.00024   0.98481   0.03400  -0.00529   0.00820
  11        2S          0.00009   0.10684   0.00058   0.00156  -0.00321
  12        2PX         0.00109   0.00249  -0.00088   0.00045  -0.00161
  13        2PY        -0.00265  -0.00177  -0.00026   0.00033  -0.00199
  14        2PZ         0.00011   0.00038   0.00004   0.00017   0.00000
  15        3S          0.02060  -0.07263   0.01502  -0.02790   0.02899
  16        3PX         0.01445  -0.01431   0.01877  -0.01321   0.01581
  17        3PY        -0.00951  -0.01140   0.00083  -0.00520   0.00895
  18        3PZ         0.00045  -0.00184   0.00048  -0.00115   0.00017
  19 3   O  1S          0.98285   0.00037   0.00025   0.00002   0.00011
  20        2S          0.10848   0.00196   0.00205   0.00011   0.00050
  21        2PX         0.00171   0.00015   0.00098  -0.00002  -0.00002
  22        2PY         0.00414   0.00028   0.00048   0.00002  -0.00008
  23        2PZ         0.00006  -0.00003   0.00007   0.00008  -0.00001
  24        3S         -0.06342  -0.00197  -0.00146  -0.00045  -0.00560
  25        3PX        -0.00523  -0.00047  -0.00185  -0.00232  -0.00111
  26        3PY        -0.01401  -0.00471  -0.00332   0.00062  -0.00267
  27        3PZ        -0.00016   0.00020  -0.00030  -0.00028   0.00002
  28 4   C  1S         -0.00047  -0.03517   0.98484   0.00641   0.00496
  29        2S         -0.00056  -0.00699   0.10691  -0.00318  -0.00336
  30        2PX        -0.00237   0.00058  -0.00215  -0.00020  -0.00059
  31        2PY        -0.00055  -0.00094   0.00143  -0.00189  -0.00244
  32        2PZ        -0.00015  -0.00004  -0.00045   0.00019  -0.00001
  33        3S          0.01717   0.02165  -0.07866   0.04012   0.02184
  34        3PX        -0.01310  -0.00935  -0.00042  -0.00327  -0.00104
  35        3PY         0.00677   0.01861  -0.02012   0.02066   0.01474
  36        3PZ        -0.00063  -0.00062   0.00214  -0.00143   0.00001
  37 5   C  1S          0.00014  -0.00015  -0.00851   0.80640   0.56729
  38        2S          0.00062   0.00001  -0.00598   0.09202   0.06072
  39        2PX        -0.00071   0.00025   0.00037  -0.00204  -0.00052
  40        2PY         0.00107   0.00034   0.00358  -0.00092  -0.00076
  41        2PZ        -0.00007   0.00003  -0.00019   0.00031   0.00019
  42        3S         -0.00473  -0.01790   0.04008  -0.10280  -0.03428
  43        3PX         0.00827   0.00711  -0.00620   0.03277   0.00054
  44        3PY         0.00453   0.00974  -0.01985   0.01245   0.01189
  45        3PZ         0.00029  -0.00097   0.00105  -0.00280  -0.00120
  46 6   H  1S         -0.00106  -0.00049  -0.00103  -0.00247  -0.00233
  47        2S         -0.00350  -0.00180   0.00186   0.00207   0.00504
  48 7   H  1S          0.00036   0.00145  -0.00283  -0.00047  -0.00017
  49        2S          0.00351   0.00667   0.00873   0.00287   0.00367
  50 8   H  1S          0.00030  -0.00266   0.00120   0.00028  -0.00036
  51        2S          0.00371   0.00867   0.00698  -0.00160   0.00377
  52 9   H  1S         -0.00108  -0.00102  -0.00049   0.00118  -0.00239
  53        2S         -0.00334   0.00085  -0.00102  -0.00058   0.00536
                           6         7         8         9        10
                           O         O         O         O         O
     Eigenvalues --    -1.14942  -0.81658  -0.74939  -0.60660  -0.56418
   1 1   C  1S         -0.02732   0.12319  -0.10204   0.09931   0.04718
   2        2S          0.02605  -0.13078   0.11002  -0.10137  -0.04562
   3        2PX        -0.00743  -0.03823  -0.07340   0.09331  -0.18339
   4        2PY        -0.03411   0.07712  -0.05681   0.00438  -0.05227
   5        2PZ        -0.00180   0.00833  -0.00746   0.00744   0.00535
   6        3S          0.05109  -0.24645   0.20164  -0.33169  -0.16205
   7        3PX         0.01187   0.00323   0.02305   0.02989  -0.06843
   8        3PY        -0.05250   0.04196  -0.00833   0.03568  -0.01327
   9        3PZ        -0.00035   0.00646  -0.00423   0.00677   0.00429
  10 2   C  1S         -0.08749   0.02276  -0.15127  -0.01573  -0.10382
  11        2S          0.09505  -0.02987   0.16669   0.01572   0.11466
  12        2PX         0.06785  -0.05920   0.04054  -0.07672  -0.10536
  13        2PY        -0.08368  -0.11620   0.01331  -0.22395   0.08474
  14        2PZ         0.00311  -0.00257   0.00832  -0.00544   0.01022
  15        3S          0.05194  -0.01294   0.36316   0.08127   0.33186
  16        3PX        -0.04799  -0.02121   0.04233  -0.02224  -0.05674
  17        3PY         0.02138  -0.01395   0.03439  -0.06654   0.05644
  18        3PZ         0.00016  -0.00163   0.00716  -0.00130   0.00742
  19 3   O  1S         -0.20960  -0.08656   0.02977   0.00158   0.05004
  20        2S          0.18940   0.08373  -0.02656   0.00057  -0.05084
  21        2PX         0.03543  -0.05351  -0.18235  -0.25779  -0.00496
  22        2PY         0.11613   0.00355   0.10773   0.11428   0.00429
  23        2PZ         0.00122  -0.00072  -0.00345  -0.01294   0.00252
  24        3S          0.67321   0.31641  -0.11374  -0.00831  -0.21461
  25        3PX         0.05271  -0.03729  -0.15402  -0.22620  -0.00591
  26        3PY         0.14261   0.01470   0.07962   0.09559   0.00025
  27        3PZ         0.00171  -0.00078  -0.00452  -0.01136   0.00238
  28 4   C  1S         -0.06750   0.09273   0.13457   0.00840  -0.10488
  29        2S          0.07473  -0.10563  -0.14288  -0.00258   0.11482
  30        2PX        -0.07790  -0.03828   0.03215   0.16170   0.12414
  31        2PY         0.01308  -0.13065   0.00773   0.15971  -0.04546
  32        2PZ        -0.00387   0.00647   0.00950  -0.00332  -0.00744
  33        3S          0.04874  -0.15837  -0.35484  -0.08401   0.33950
  34        3PX         0.02632  -0.00203   0.00643   0.06895   0.07697
  35        3PY        -0.02427  -0.04452  -0.03594   0.02289  -0.01263
  36        3PZ        -0.00005   0.00436   0.00701   0.00012  -0.00617
  37 5   C  1S         -0.02599   0.15750   0.03924  -0.10703   0.05711
  38        2S          0.02574  -0.16932  -0.04429   0.10934  -0.05466
  39        2PX        -0.02304   0.08094  -0.03096   0.09437   0.04905
  40        2PY        -0.02325   0.05857   0.09402  -0.06761  -0.18947
  41        2PZ         0.00148  -0.01020  -0.00273   0.00542  -0.00150
  42        3S          0.03675  -0.30843  -0.05847   0.36883  -0.20991
  43        3PX        -0.03689   0.04100  -0.00089   0.01021   0.03063
  44        3PY        -0.02309   0.01789  -0.02155  -0.04277  -0.06447
  45        3PZ         0.00033  -0.00699   0.00014   0.00569  -0.00251
  46 6   H  1S          0.00686  -0.05655  -0.01771   0.10354  -0.07025
  47        2S          0.01597  -0.01302  -0.00016   0.05640  -0.04580
  48 7   H  1S          0.00974  -0.02951  -0.07436  -0.01758   0.14197
  49        2S         -0.01833  -0.00820  -0.02780  -0.02114   0.07552
  50 8   H  1S          0.01216  -0.00133   0.07630   0.03561   0.13929
  51        2S         -0.02374  -0.00246   0.02952   0.02101   0.07577
  52 9   H  1S          0.00684  -0.03848   0.04133  -0.07248  -0.04917
  53        2S          0.01741  -0.01149   0.01128  -0.04380  -0.03222
                          11        12        13        14        15
                           O         O         O         O         O
     Eigenvalues --    -0.54121  -0.46129  -0.43897  -0.42259  -0.38539
   1 1   C  1S         -0.05296   0.00593  -0.05323   0.01803   0.01862
   2        2S          0.04964  -0.00884   0.05436  -0.01314  -0.02174
   3        2PX         0.01362   0.00513   0.01694  -0.11771  -0.20569
   4        2PY         0.17681  -0.01786   0.09671  -0.17467   0.25434
   5        2PZ        -0.00266   0.10910   0.01674  -0.00556   0.00780
   6        3S          0.22552   0.00794   0.19072  -0.10387  -0.09843
   7        3PX        -0.00989   0.01223   0.01968  -0.01696  -0.11289
   8        3PY         0.10291  -0.04068   0.06759  -0.10922   0.19784
   9        3PZ        -0.00664   0.07496   0.01192  -0.00102   0.00826
  10 2   C  1S         -0.00043  -0.00011   0.03168  -0.03899   0.00111
  11        2S         -0.00277  -0.00013  -0.02852   0.05015  -0.00020
  12        2PX        -0.17449  -0.03784   0.19117   0.22047   0.02358
  13        2PY         0.03155   0.01447  -0.14791   0.07008  -0.02164
  14        2PZ        -0.00253   0.20522   0.02954   0.00940   0.00601
  15        3S          0.02774  -0.00869  -0.12833   0.13305   0.00913
  16        3PX        -0.13884  -0.04819   0.12734   0.16739   0.04768
  17        3PY        -0.02616   0.00682  -0.06871   0.08108   0.06213
  18        3PZ         0.00028   0.18125   0.02860   0.00678   0.00611
  19 3   O  1S         -0.04936  -0.00110   0.00818   0.01857   0.01255
  20        2S          0.04807   0.00080  -0.00610  -0.01973  -0.01765
  21        2PX        -0.05668   0.01642  -0.19665   0.07195   0.12773
  22        2PY        -0.18921  -0.01990   0.14198   0.11289   0.19998
  23        2PZ        -0.00018   0.37783   0.05463   0.00923   0.00900
  24        3S          0.18719   0.00459  -0.02979  -0.06150  -0.00762
  25        3PX        -0.05278   0.01381  -0.18879   0.07853   0.13315
  26        3PY        -0.17213  -0.01736   0.13242   0.11081   0.21328
  27        3PZ        -0.00062   0.37671   0.05669   0.00992   0.00961
  28 4   C  1S          0.00007   0.00131  -0.03400   0.02613  -0.01562
  29        2S         -0.00277  -0.00184   0.03509  -0.03389   0.02211
  30        2PX         0.08082  -0.03395   0.20193   0.01533  -0.06992
  31        2PY        -0.17296   0.02148  -0.10801  -0.21727   0.14765
  32        2PZ         0.00218   0.17599   0.03158   0.00375  -0.00904
  33        3S          0.02885   0.00912   0.12283  -0.07125   0.08305
  34        3PX         0.04171  -0.03890   0.14322   0.03542  -0.02302
  35        3PY        -0.14780   0.03215  -0.06558  -0.10192   0.17085
  36        3PZ        -0.00064   0.16209   0.02921   0.00271  -0.00530
  37 5   C  1S         -0.03402  -0.00670   0.04826   0.00120   0.01727
  38        2S          0.03040   0.01027  -0.04990  -0.00648  -0.01617
  39        2PX         0.13868   0.00969  -0.05218   0.23068   0.23666
  40        2PY         0.14954   0.01059  -0.03145   0.19230  -0.14714
  41        2PZ        -0.00654   0.10833   0.02199  -0.02026  -0.00984
  42        3S          0.16835  -0.00482  -0.18367  -0.00670  -0.12448
  43        3PX         0.09676   0.03881  -0.03797   0.17036   0.16186
  44        3PY         0.06807   0.01601  -0.02393   0.10281  -0.04588
  45        3PZ         0.00051   0.07329   0.01545  -0.01567  -0.01193
  46 6   H  1S          0.12586   0.01528  -0.09617   0.19878   0.08532
  47        2S          0.07080  -0.00052  -0.07168   0.17755   0.08482
  48 7   H  1S          0.09073  -0.02833   0.17524   0.08896  -0.10517
  49        2S          0.04260  -0.01114   0.14203   0.08709  -0.09931
  50 8   H  1S          0.08462   0.02823  -0.16666  -0.09601  -0.02379
  51        2S          0.03948   0.01207  -0.13966  -0.08764  -0.01862
  52 9   H  1S          0.12372  -0.01937   0.11499  -0.11996   0.18045
  53        2S          0.07373  -0.00475   0.09486  -0.10558   0.18683
                          16        17        18        19        20
                           O         O         O         V         V
     Eigenvalues --    -0.36509  -0.28355  -0.23486   0.02993   0.08086
   1 1   C  1S          0.02231   0.00557   0.00890   0.00715   0.00986
   2        2S         -0.02372  -0.00726  -0.01109  -0.00416  -0.00018
   3        2PX         0.22328   0.00343  -0.00531  -0.01642   0.01349
   4        2PY         0.09252   0.00589   0.00807  -0.00788  -0.02500
   5        2PZ        -0.00120  -0.22412  -0.27142  -0.16618  -0.32820
   6        3S         -0.12616  -0.01023  -0.02429  -0.06814  -0.12779
   7        3PX         0.17277   0.01066  -0.00457  -0.05220   0.04204
   8        3PY         0.04509   0.00125  -0.00467  -0.01930  -0.04553
   9        3PZ         0.00322  -0.23509  -0.29160  -0.28831  -0.65229
  10 2   C  1S         -0.01724   0.00154  -0.00748   0.00945   0.01070
  11        2S          0.01956  -0.00241   0.00885  -0.00687  -0.00076
  12        2PX        -0.15319  -0.00268   0.00528   0.00633   0.02979
  13        2PY        -0.19076  -0.00282   0.01203  -0.00599   0.02345
  14        2PZ        -0.00905   0.01652  -0.31934   0.32222   0.22587
  15        3S          0.06058  -0.00786   0.02113  -0.09188  -0.11945
  16        3PX        -0.08371  -0.00441  -0.00678   0.02971   0.06637
  17        3PY        -0.02017  -0.00269   0.00819  -0.03756   0.05423
  18        3PZ        -0.00583   0.04917  -0.32428   0.49654   0.42699
  19 3   O  1S          0.07013   0.00038   0.00037   0.00158  -0.01614
  20        2S         -0.06886   0.00033  -0.00216  -0.00105   0.01157
  21        2PX         0.16951  -0.01745  -0.00293  -0.00908   0.02545
  22        2PY         0.29204  -0.00233  -0.00128  -0.00056   0.00925
  23        2PZ         0.00029   0.29725   0.09252  -0.28871  -0.01407
  24        3S         -0.27430  -0.00533   0.00535  -0.01391   0.12870
  25        3PX         0.18410  -0.02224  -0.00192  -0.00524   0.04027
  26        3PY         0.31518  -0.00209   0.00209  -0.00540   0.01616
  27        3PZ         0.00060   0.33546   0.11295  -0.40674  -0.02538
  28 4   C  1S         -0.02537   0.00279  -0.00800  -0.01104   0.02031
  29        2S          0.02659  -0.00221   0.00991   0.00765  -0.01147
  30        2PX        -0.11748   0.00017  -0.00075  -0.00274   0.03175
  31        2PY        -0.16010  -0.00063   0.00926  -0.00154   0.02912
  32        2PZ         0.00234  -0.17102   0.30065   0.31409  -0.20911
  33        3S          0.11951  -0.01070   0.02661   0.09863  -0.16832
  34        3PX        -0.02049  -0.00647   0.00021   0.02748   0.05141
  35        3PY        -0.01344  -0.00169  -0.00046  -0.00760   0.07156
  36        3PZ         0.00012  -0.12544   0.33179   0.48786  -0.43636
  37 5   C  1S          0.01137  -0.00792   0.00254  -0.00268   0.00272
  38        2S         -0.01209   0.01062  -0.00291   0.00028   0.00722
  39        2PX        -0.08885  -0.02419   0.00755  -0.01229  -0.00321
  40        2PY         0.18473  -0.01263   0.00231   0.01163   0.00071
  41        2PZ        -0.00268  -0.32448   0.11618  -0.18145   0.33260
  42        3S         -0.09935   0.02082  -0.00657   0.03280  -0.09366
  43        3PX        -0.09529  -0.00886   0.00872  -0.04214   0.02264
  44        3PY         0.14784  -0.01439  -0.00658   0.03597   0.01373
  45        3PZ        -0.00704  -0.33212   0.11062  -0.33052   0.66730
  46 6   H  1S         -0.00571  -0.00949   0.00219  -0.00130   0.00247
  47        2S          0.01321  -0.01422   0.00364   0.00176   0.01829
  48 7   H  1S          0.08089   0.00314  -0.00799  -0.01351   0.02312
  49        2S          0.08752   0.00367  -0.01220  -0.05416   0.12661
  50 8   H  1S          0.13760   0.00027  -0.00637   0.01378   0.02692
  51        2S          0.14287   0.00033  -0.01109   0.06142   0.14568
  52 9   H  1S          0.02146   0.00513   0.00509   0.01213   0.01968
  53        2S          0.04112   0.00549   0.00954   0.04806   0.10449
                          21        22        23        24        25
                           V         V         V         V         V
     Eigenvalues --     0.11894   0.13903   0.16765   0.17773   0.21537
   1 1   C  1S          0.06421  -0.02859  -0.00571  -0.10823   0.03345
   2        2S         -0.04004   0.02606  -0.00367   0.08648  -0.01217
   3        2PX        -0.01274   0.04248  -0.06903  -0.02459  -0.23781
   4        2PY        -0.18951  -0.03143   0.15903   0.14322   0.03942
   5        2PZ         0.03243   0.04419  -0.00733  -0.03011  -0.00351
   6        3S         -0.67848   0.16637   0.20355   0.93685  -0.42668
   7        3PX        -0.04870   0.11724  -0.19812  -0.16319  -1.12132
   8        3PY        -0.52017   0.04102   0.40153   0.79198   0.13281
   9        3PZ         0.08301   0.10423  -0.02975  -0.06185   0.01562
  10 2   C  1S          0.01895   0.09213  -0.00628   0.07007   0.09074
  11        2S         -0.01042  -0.06414  -0.00289  -0.06925  -0.05452
  12        2PX         0.10858   0.18039  -0.21501   0.04012   0.07760
  13        2PY        -0.03797   0.05968   0.05856  -0.03988   0.02595
  14        2PZ        -0.02683  -0.04671   0.01284  -0.00312  -0.01315
  15        3S         -0.35059  -0.92061   0.25566  -0.52392  -1.28367
  16        3PX         0.17390   0.66831  -0.59162   0.39151   0.17756
  17        3PY        -0.18166   0.17360   0.22172  -0.20706  -0.06545
  18        3PZ        -0.06943  -0.10019   0.03932   0.01752  -0.05959
  19 3   O  1S          0.03890  -0.08104  -0.02313   0.00784   0.02588
  20        2S         -0.02589   0.06128   0.01632  -0.00332  -0.01160
  21        2PX        -0.08879   0.13035   0.00032  -0.09207  -0.24308
  22        2PY        -0.09366   0.06003   0.04600   0.03706   0.09955
  23        2PZ         0.00567   0.00820  -0.01584   0.00242   0.00582
  24        3S         -0.33754   0.64195   0.20167  -0.08537  -0.26276
  25        3PX        -0.15115   0.21230  -0.02556  -0.11556  -0.50957
  26        3PY        -0.16706   0.08209   0.08812   0.03146   0.17269
  27        3PZ         0.00962   0.01633  -0.03214   0.00502   0.00648
  28 4   C  1S          0.01096   0.10880   0.06913  -0.05710  -0.05174
  29        2S         -0.00400  -0.08448  -0.03833   0.06156   0.03975
  30        2PX        -0.15075   0.15528  -0.17641  -0.02770  -0.21779
  31        2PY         0.06848   0.10382   0.23226  -0.00986  -0.05756
  32        2PZ         0.00556   0.04980   0.02534  -0.01553  -0.02145
  33        3S         -0.31487  -0.96018  -0.92530   0.26518   0.50721
  34        3PX        -0.33624   0.21588  -0.59677   0.18839  -0.59447
  35        3PY         0.11197   0.37211   0.72643  -0.23780  -0.14807
  36        3PZ         0.02531   0.11443   0.06465  -0.01780  -0.07138
  37 5   C  1S          0.05181  -0.01497  -0.01840   0.09666  -0.09451
  38        2S         -0.03108   0.01672   0.02305  -0.08506   0.03673
  39        2PX        -0.15331   0.06472  -0.11639  -0.09133   0.01602
  40        2PY        -0.08143  -0.02340  -0.03200  -0.08772   0.14560
  41        2PZ        -0.01162  -0.05119  -0.00440   0.00730   0.02696
  42        3S         -0.61489   0.07056  -0.01412  -0.79680   1.49913
  43        3PX        -0.44643   0.32997  -0.21092  -0.69976  -0.18687
  44        3PY        -0.23146  -0.07317  -0.03642  -0.45166   0.64873
  45        3PZ        -0.03187  -0.12848  -0.02462   0.05170   0.10254
  46 6   H  1S          0.10126  -0.05003   0.01765   0.07001   0.04755
  47        2S          1.03626  -0.38515   0.28307   1.30152  -0.74442
  48 7   H  1S          0.04409   0.05575   0.08359  -0.02453   0.03211
  49        2S          0.55094   0.71604   1.56468  -0.46040   0.04070
  50 8   H  1S          0.02712   0.11076  -0.04069   0.02906  -0.03533
  51        2S          0.43028   1.29014  -0.82481   0.68017   0.72773
  52 9   H  1S          0.10073  -0.01235  -0.04037  -0.06828  -0.01862
  53        2S          1.04160  -0.08976  -0.61642  -1.28764  -0.13798
                          26        27        28        29        30
                           V         V         V         V         V
     Eigenvalues --     0.24962   0.37492   0.42772   0.46297   0.68224
   1 1   C  1S         -0.07603   0.07666  -0.00336   0.11673   0.07335
   2        2S          0.01269  -0.02502  -0.02353  -0.01092  -0.10501
   3        2PX        -0.01017  -0.00252  -0.26594  -0.02543   0.12797
   4        2PY         0.05379   0.16061  -0.01215   0.19773   0.18740
   5        2PZ        -0.03188  -0.00312   0.01081  -0.00550  -0.05900
   6        3S          1.55008  -1.46939   0.62542  -3.06938  -0.74590
   7        3PX         0.08021   0.99966  -1.65146  -0.49474  -0.03511
   8        3PY        -0.13806   1.25213  -0.56998   2.32756   0.72642
   9        3PZ        -0.12647   0.07065  -0.00751   0.13250   0.07786
  10 2   C  1S         -0.02792  -0.08530   0.01430  -0.10195  -0.05581
  11        2S          0.02348  -0.00159  -0.02080   0.02668  -0.00625
  12        2PX         0.09557   0.23513  -0.00187   0.16601   0.07948
  13        2PY        -0.24703   0.15542  -0.14229  -0.23466  -0.02062
  14        2PZ         0.01281  -0.00194  -0.00672   0.00152  -0.04606
  15        3S          0.00826   1.84014  -0.83739   2.10621   0.82755
  16        3PX         0.10424   1.38140  -0.41066   1.79400   0.73461
  17        3PY        -1.08090   0.59192  -1.72602   0.36867   0.22722
  18        3PZ         0.02656   0.06985  -0.08122   0.09547   0.08061
  19 3   O  1S          0.10096   0.04956   0.01278   0.01945   0.01926
  20        2S         -0.04927  -0.02042  -0.00068  -0.00236  -0.06242
  21        2PX         0.06861  -0.09447   0.23702   0.18288  -0.11639
[...]
     1  C    5.279276   0.482737  -0.080476  -0.159368   0.430592  -0.024525
     2  C    0.482737   5.037386   0.274348  -0.163117  -0.135782   0.004449
     3  O   -0.080476   0.274348   8.122817   0.305230  -0.079142   0.001728
     4  C   -0.159368  -0.163117   0.305230   5.135183   0.448782  -0.026179
     5  C    0.430592  -0.135782  -0.079142   0.448782   5.266777   0.381416
     6  H   -0.024525   0.004449   0.001728  -0.026179   0.381416   0.469371
     7  H    0.004309   0.003736  -0.024354   0.384810  -0.045996  -0.000953
     8  H   -0.041916   0.379971  -0.030483   0.004893   0.003100  -0.000021
     9  H    0.371688  -0.022333   0.001879   0.005276  -0.027852  -0.001138
               7          8          9
     1  C    0.004309  -0.041916   0.371688
     2  C    0.003736   0.379971  -0.022333
     3  O   -0.024354  -0.030483   0.001879
     4  C    0.384810   0.004893   0.005276
     5  C   -0.045996   0.003100  -0.027852
     6  H   -0.000953  -0.000021  -0.001138
     7  H    0.469120  -0.000048  -0.000041
     8  H   -0.000048   0.475122  -0.000521
     9  H   -0.000041  -0.000521   0.495551
 Mulliken charges:
               1
     1  C   -0.262318
     2  C    0.138605
     3  O   -0.491547
     4  C    0.064491
     5  C   -0.241896
     6  H    0.195853
     7  H    0.209416
     8  H    0.209904
     9  H    0.177493
 Sum of Mulliken charges =   0.00000
 Mulliken charges with hydrogens summed into heavy atoms:
               1
     1  C   -0.084825
     2  C    0.348509
     3  O   -0.491547
     4  C    0.273906
     5  C   -0.046043
 Electronic spatial extent (au):  <R**2>=            288.2949
 Charge=              0.0000 electrons
 Dipole moment (field-independent basis, Debye):
    X=              0.4604    Y=              0.6657    Z=             -0.0608  Tot=              0.8117
 Quadrupole moment (field-independent basis, Debye-Ang):
   XX=            -24.5837   YY=            -27.4551   ZZ=            -31.7701
   XY=             -1.4051   XZ=             -0.1961   YZ=             -0.0773
 Traceless Quadrupole moment (field-independent basis, Debye-Ang):
   XX=              3.3526   YY=              0.4812   ZZ=             -3.8338
   XY=             -1.4051   XZ=             -0.1961   YZ=             -0.0773
 Octapole moment (field-independent basis, Debye-Ang**2):
  XXX=             -3.7130  YYY=             -0.4598  ZZZ=             -0.1855  XYY=              3.7043
  XXY=             -0.5879  XXZ=             -0.0821  XZZ=             -1.5932  YZZ=             -3.1870
  YYZ=             -0.3191  XYZ=              0.0036
 Hexadecapole moment (field-independent basis, Debye-Ang**3):
 XXXX=           -151.4276 YYYY=           -147.6817 ZZZZ=            -30.9537 XXXY=              3.8932
 XXXZ=             -1.0121 YYYX=             -4.7479 YYYZ=             -0.3919 ZZZX=             -0.1658
 ZZZY=             -0.0027 XXYY=            -52.0381 XXZZ=            -38.4331 YYZZ=            -35.1694
 XXYZ=              0.0662 YYXZ=             -0.2081 ZZXY=              1.7270
 N-N= 1.620660077571D+02 E-N=-8.566735178560D+02  KE= 2.269740224110D+02
 Orbital energies and kinetic energies (alpha):
                                 1                 2
   1         O               -19.117924         28.828514
   2         O               -10.177731         15.799020
   3         O               -10.172994         15.798845
   4         O               -10.126077         15.802327
   5         O               -10.124905         15.808455
   6         O                -1.149417          2.534198
   7         O                -0.816576          1.822269
   8         O                -0.749386          1.852250
   9         O                -0.606603          1.751459
  10         O                -0.564185          1.421298
  11         O                -0.541208          1.263540
  12         O                -0.461289          1.594757
  13         O                -0.438967          1.459380
  14         O                -0.422593          1.393152
  15         O                -0.385393          1.507867
  16         O                -0.365087          2.061240
  17         O                -0.283550          1.524124
  18         O                -0.234856          1.264316
  19         V                 0.029934          1.832761
  20         V                 0.080856          1.497030
  21         V                 0.118939          1.203379
  22         V                 0.139027          1.713208
  23         V                 0.167654          1.202365
  24         V                 0.177732          1.404588
  25         V                 0.215370          1.940404
  26         V                 0.249617          1.845047
  27         V                 0.374920          1.958593
  28         V                 0.427722          1.797473
  29         V                 0.462973          2.579484
  30         V                 0.682236          2.560901
  31         V                 0.696433          2.491611
  32         V                 0.711036          2.752172
  33         V                 0.753254          2.489524
  34         V                 0.766934          2.507652
  35         V                 0.789974          2.610886
  36         V                 0.813883          2.727773
  37         V                 0.821473          2.772580
  38         V                 0.841978          2.589081
  39         V                 0.937597          2.930990
  40         V                 0.964009          3.069217
  41         V                 0.979866          3.061128
  42         V                 1.013937          3.294695
  43         V                 1.188547          2.852158
  44         V                 1.197516          2.799232
  45         V                 1.325531          2.531849
  46         V                 1.372031          2.871977
  47         V                 1.509713          4.904328
  48         V                 1.554177          3.345735
  49         V                 1.634187          3.928902
  50         V                 1.736035          4.183063
  51         V                 1.916105          3.808398
  52         V                 2.058805          4.452046
  53         V                 3.225352          6.846948
 Total kinetic energy from orbitals= 2.269740224110D+02
 No NMR shielding tensors so no spin-rotation constants.
 Leave Link  601 at Tue Dec 15 16:24:47 2015, MaxMem=    33554432 cpu:         0.1
 (Enter /home/Applications/g09/g09/l701.exe)
 Compute integral first derivatives.
 ... and contract with generalized density number  6.
 Leave Link  701 at Tue Dec 15 16:24:47 2015, MaxMem=    33554432 cpu:         0.1
 (Enter /home/Applications/g09/g09/l702.exe)
 L702 exits ... SP integral derivatives will be done elsewhere.
 Leave Link  702 at Tue Dec 15 16:24:47 2015, MaxMem=    33554432 cpu:         0.0
 (Enter /home/Applications/g09/g09/l703.exe)
 Compute integral first derivatives, UseDBF=F ICtDFT=           0.
 Integral derivatives from FoFJK, PRISM(SPDF).
 Calling FoFJK, ICntrl=  10005127 FMM=F ISym2X=0 I1Cent= 0 IOpClX= 0 NMat=1 NMatS=1 NMatT=0.
 FoFJK:  IHMeth= 1 ICntrl=10005127 DoSepK=F KAlg= 0 I1Cent=   0 FoldK=F
 IRaf=         0 NMat=   1 IRICut=       1 DoRegI=T DoRafI=F ISym2E= 0.
 FoFCou: FMM=F IPFlag=           0 FMFlag=      100000 FMFlg1=         800
         NFxFlg=           0 DoJE=F BraDBF=F KetDBF=F FulRan=T
         wScrn=  0.000000 ICntrl=10005127 IOpCl=  0 I1Cent=           0 NGrid=           0
         NMat0=    1 NMatS0=      1 NMatT0=    0 NMatD0=    1 NMtDS0=    0 NMtDT0=    0
 Symmetry not used in FoFCou.
 Leave Link  703 at Tue Dec 15 16:24:49 2015, MaxMem=    33554432 cpu:         1.8
 (Enter /home/Applications/g09/g09/l716.exe)
 Dipole        =-5.38930883D-01 7.11653684D-01-5.15442128D-02
 ***** Axes restored to original set *****
 -------------------------------------------------------------------
 Center     Atomic                   Forces (Hartrees/Bohr)
 Number     Number              X              Y              Z
 -------------------------------------------------------------------
      1        6           0.112441846   -0.003393543    0.007004729
      2        6          -0.046905696   -0.129201299   -0.007741427
      3        8          -0.096612469   -0.012595487    0.009160896
      4        6          -0.088015767    0.146486102   -0.014392210
      5        6           0.159612355   -0.016285784    0.004894328
      6        1          -0.015532182   -0.006319956    0.001353730
      7        1           0.003310499   -0.020061110   -0.000515227
      8        1           0.008989145    0.024260016    0.004853568
      9        1          -0.037287731    0.017111061   -0.004618388
 -------------------------------------------------------------------
 Cartesian Forces:  Max     0.159612355 RMS     0.060707194
 Z-matrix is all fixed cartesians, so copy forces.
 Force constants in Cartesian coordinates: 
                1             2             3             4             5 
      1  0.886944D+00
      2  0.362270D-04  0.713740D+00
      3 -0.216532D-01  0.495042D-02  0.194701D+00
      4 -0.523758D+00 -0.103273D+00  0.322766D-01  0.996948D+00
      5 -0.770511D-01 -0.210690D+00  0.850893D-02 -0.784219D-01  0.951240D+00
      6  0.334688D-01  0.819558D-02 -0.104491D+00 -0.224059D-01 -0.739990D-02
      7 -0.815469D-02  0.304519D-01 -0.887129D-03 -0.361243D+00  0.237322D+00
      8 -0.621376D-02  0.234258D-01 -0.988526D-03  0.284334D+00 -0.469982D+00
      9  0.230508D-02 -0.356976D-02  0.902756D-02 -0.757973D-02  0.116319D-01
     10  0.922212D-02 -0.128661D-03  0.665736D-03  0.243195D-01  0.186897D-01
     11  0.355021D-01 -0.512765D-03  0.357463D-02 -0.186648D-01 -0.143691D-01
     12  0.264402D-02 -0.502819D-03 -0.134602D-02  0.762458D-03  0.867503D-03
     13 -0.157018D+00  0.101514D-01 -0.551378D-03  0.889056D-02 -0.342067D-01
     14 -0.144197D-01 -0.374958D+00 -0.194562D-01 -0.484777D-04  0.968620D-04
     15 -0.898435D-03 -0.210650D-01 -0.740920D-01 -0.801923D-03  0.371128D-02
     16  0.156172D-01 -0.121577D-03 -0.307950D-03  0.880556D-05 -0.564392D-05
     17 -0.232660D-01  0.181146D-03  0.458291D-03 -0.131271D-04  0.841384D-05
     18 -0.265476D-02 -0.688637D-03  0.140694D-01  0.257887D-03 -0.165293D-03
     19  0.392964D-04  0.296928D-04 -0.593603D-03  0.864028D-05  0.124094D-04
     20  0.440995D-04  0.333221D-04 -0.666158D-03  0.000000D+00 -0.129412D-05
     21 -0.521761D-03 -0.394249D-03  0.788161D-02  0.102201D-03  0.146785D-03
     22  0.678214D-02 -0.258442D-01 -0.102684D-02 -0.140891D+00 -0.821309D-01
     23 -0.304454D-02  0.113319D-01 -0.615135D-03 -0.779003D-01 -0.278881D+00
     24  0.490095D-03  0.465684D-02  0.259523D-01 -0.517486D-02 -0.136096D-01
     25 -0.229674D+00  0.886986D-01 -0.792218D-02 -0.428238D-02  0.157923D-01
     26  0.884128D-01 -0.162552D+00  0.423372D-02 -0.601110D-02  0.225788D-01
     27 -0.131798D-01  0.841766D-02 -0.717023D-01  0.256331D-02 -0.369162D-02
                6             7             8             9            10 
      6  0.196403D+00
      7 -0.186330D-02  0.604395D+00
      8  0.702994D-02 -0.973335D-01  0.767342D+00
      9 -0.513975D-01 -0.917638D-02 -0.222673D-01  0.634054D-01
     10 -0.169936D-02 -0.270051D+00 -0.187932D+00  0.164602D-01  0.102591D+01
     11  0.160724D-02 -0.140955D+00 -0.328043D+00  0.176422D-01 -0.514689D-01
     12 -0.114686D-02  0.105826D-01  0.147849D-01 -0.506523D-01  0.111852D-01
     13 -0.260602D-02 -0.792147D-02  0.599596D-02 -0.164250D-02 -0.636479D+00
     14 -0.467580D-03 -0.294150D-01  0.225194D-01 -0.270728D-02  0.127289D+00
     15  0.119469D-02  0.217503D-02 -0.158105D-02  0.490851D-02 -0.325511D-01
     16  0.110005D-03  0.107504D-04 -0.274064D-04 -0.339571D-03 -0.443679D-02
     17 -0.163994D-03 -0.160059D-04  0.408045D-04  0.505575D-03  0.660991D-02
     18  0.322172D-02 -0.282719D-03  0.720747D-03  0.893021D-02 -0.280631D-02
     19  0.338547D-03  0.206679D-01 -0.160369D-01 -0.201588D-02 -0.148499D+00
     20 -0.353055D-04  0.985973D-02 -0.766311D-02 -0.118577D-02  0.869334D-01
     21  0.400450D-02 -0.147274D-02  0.140107D-02  0.473051D-02  0.879053D-02
     22 -0.389190D-02  0.222839D-01  0.171995D-01  0.173875D-02 -0.787909D-05
     23 -0.837066D-02 -0.995952D-02 -0.768973D-02 -0.931143D-03 -0.327950D-05
     24 -0.716388D-01  0.550231D-03  0.487983D-03  0.376834D-02  0.164295D-03
     25 -0.145084D-02  0.128616D-04  0.141582D-04  0.250039D-03  0.175408D-04
     26 -0.395321D-03  0.453426D-04  0.499137D-04  0.881495D-03  0.104321D-04
     27  0.238504D-01  0.374436D-03  0.412185D-03  0.727933D-02 -0.209201D-03
               11            12            13            14            15 
     11  0.837510D+00
     12 -0.134929D-01  0.212142D+00
     13  0.103316D+00 -0.313006D-01  0.104103D+01
     14 -0.229591D+00  0.765725D-02 -0.314831D-02  0.752850D+00
     15  0.990915D-02 -0.121936D+00  0.290890D-01  0.102317D-01  0.225153D+00
     16 -0.168127D-01 -0.101883D-03 -0.270725D+00 -0.107116D+00  0.852069D-03
     17  0.250473D-01  0.150664D-03 -0.107473D+00 -0.183287D+00 -0.127814D-02
     18 -0.410426D-02  0.324989D-01  0.467273D-02  0.200485D-02 -0.886193D-01
     19  0.890814D-01  0.680193D-02  0.708943D-02  0.270450D-01  0.106265D-02
     20 -0.290044D+00 -0.917857D-02  0.339646D-02  0.126244D-01 -0.114922D-02
     21 -0.152140D-01 -0.791571D-01 -0.800047D-03  0.375494D-02  0.338251D-01
     22 -0.113162D-04 -0.308722D-03  0.435290D-04 -0.278999D-04  0.543797D-03
     23 -0.471012D-05 -0.128499D-03 -0.399128D-04  0.255821D-04 -0.498620D-03
     24  0.235966D-03  0.643748D-02  0.495876D-03 -0.317831D-03  0.619485D-02
     25  0.132541D-04 -0.264968D-03  0.150849D-01 -0.159252D-03  0.528943D-03
     26  0.788261D-05 -0.157585D-03  0.220080D-01 -0.280324D-03  0.171997D-02
     27 -0.158075D-03  0.316014D-02  0.264300D-02 -0.699851D-03  0.133716D-01
               16            17            18            19            20 
     16  0.259551D+00
     17  0.124119D+00  0.157956D+00
     18 -0.576293D-03  0.868701D-03  0.478472D-01
     19 -0.387481D-04  0.576907D-04  0.101902D-02  0.120733D+00
     20 -0.434842D-04  0.647422D-04  0.114357D-02 -0.100189D+00  0.284986D+00
     21  0.514481D-03 -0.765993D-03 -0.135301D-01 -0.661266D-02  0.110715D-01
     22  0.000000D+00  0.000000D+00  0.000000D+00  0.000000D+00  0.000000D+00
     23  0.000000D+00  0.000000D+00  0.000000D+00  0.000000D+00  0.000000D+00
     24  0.000000D+00  0.000000D+00  0.000000D+00  0.000000D+00  0.000000D+00
     25  0.126489D-04 -0.188568D-04  0.370448D-03  0.000000D+00  0.000000D+00
     26  0.752272D-05 -0.112147D-04  0.220317D-03  0.000000D+00  0.000000D+00
     27 -0.150858D-03  0.224896D-03 -0.441815D-02  0.000000D+00  0.000000D+00
               21            22            23            24            25 
     21  0.422455D-01
     22  0.000000D+00  0.111819D+00
     23  0.000000D+00  0.909202D-01  0.275122D+00
     24  0.000000D+00  0.381471D-02  0.974653D-02  0.391943D-01
     25  0.000000D+00 -0.298763D-04  0.273943D-04 -0.340346D-03  0.218858D+00
     26  0.000000D+00 -0.105327D-03  0.965767D-04 -0.119987D-02 -0.104368D+00
     27  0.000000D+00 -0.869783D-03  0.797525D-03 -0.990843D-02  0.882890D-02
               26            27 
     26  0.140110D+00
     27 -0.530272D-02  0.383674D-01
 Leave Link  716 at Tue Dec 15 16:24:49 2015, MaxMem=    33554432 cpu:         0.0
 (Enter /home/Applications/g09/g09/l103.exe)

 GradGradGradGradGradGradGradGradGradGradGradGradGradGradGradGradGradGrad
 Berny optimization.
 Search for a local minimum.
 Step number   1 out of a maximum of    2
 All quantities printed in internal units (Hartrees-Bohrs-Radians)
 Second derivative matrix not updated -- first step.
 ITU=  0
     Eigenvalues ---    0.01912   0.02978   0.06463   0.07130   0.07393
     Eigenvalues ---    0.08774   0.12547   0.12883   0.15326   0.22456
     Eigenvalues ---    0.25261   0.31305   0.38570   0.40820   0.60535
     Eigenvalues ---    0.76583   1.03146   1.28031   1.43632   1.73281
     Eigenvalues ---    1.80330
 Quadratic step=3.775D-01 exceeds max=3.000D-01 adjusted using Lamda=-8.474D-02.
 Angle between NR and scaled steps=  12.08 degrees.
 Angle between quadratic step and forces=  30.19 degrees.
 Linear search not attempted -- first point.
 TrRot=  0.000842 -0.003185  0.000520  0.234907  0.000144 -0.234051
 Variable       Old X    -DE/DX   Delta X   Delta X   Delta X     New X
                                 (Linear)    (Quad)   (Total)
    X1        1.72309   0.11244   0.00000   0.08939   0.09137   1.81446
    Y1       -1.32347  -0.00339   0.00000  -0.01700  -0.01864  -1.34210
    Z1       -0.08207   0.00700   0.00000   0.02288   0.02319  -0.05887
    X2       -0.73766  -0.04691   0.00000  -0.04027  -0.03762  -0.77529
    Y2       -1.97572  -0.12920   0.00000  -0.11777  -0.12162  -2.09734
    Z2        0.08144  -0.00774   0.00000  -0.02974  -0.02904   0.05240
    X3       -2.23286  -0.09661   0.00000  -0.10870  -0.10779  -2.34064
    Y3       -0.03520  -0.01260   0.00000  -0.03529  -0.04048  -0.07568
    Z3        0.04847   0.00916   0.00000   0.02672   0.02757   0.07604
    X4       -0.62686  -0.08802   0.00000  -0.04017  -0.04121  -0.66807
    Y4        2.04932   0.14649   0.00000   0.13321   0.12945   2.17877
    Z4       -0.06892  -0.01439   0.00000  -0.01942  -0.01887  -0.08780
    X5        1.74720   0.15961   0.00000   0.13328   0.13288   1.88009
    Y5        1.42205  -0.01629   0.00000   0.02849   0.02692   1.44897
    Z5        0.05686   0.00489   0.00000  -0.00456  -0.00435   0.05251
    X6        3.46466  -0.01553   0.00000   0.06466   0.06329   3.52795
    Y6        2.57488  -0.00632   0.00000   0.01705   0.01689   2.59177
    Z6        0.05690   0.00135   0.00000   0.00763   0.00757   0.06448
    X7       -1.51852   0.00331   0.00000  -0.04607  -0.04863  -1.56716
    Y7        3.93215  -0.02006   0.00000   0.04748   0.04295   3.97510
    Z7        0.02306  -0.00052   0.00000  -0.00424  -0.00363   0.01943
    X8       -1.59869   0.00899   0.00000  -0.00912  -0.00491  -1.60360
    Y8       -3.90663   0.02426   0.00000  -0.03283  -0.03739  -3.94403
    Z8        0.00161   0.00485   0.00000   0.00510   0.00598   0.00758
    X9        3.50165  -0.03729   0.00000  -0.05042  -0.04739   3.45426
    Y9       -2.55309   0.01711   0.00000   0.00213   0.00190  -2.55119
    Z9        0.00574  -0.00462   0.00000  -0.00853  -0.00841  -0.00266
         Item               Value     Threshold  Converged?
 Maximum Force            0.159612     0.000450     NO 
 RMS     Force            0.060707     0.000300     NO 
 Maximum Displacement     0.132882     0.001800     NO 
 RMS     Displacement     0.057691     0.001200     NO 
 Predicted change in Energy=-4.471752D-02
 GradGradGradGradGradGradGradGradGradGradGradGradGradGradGradGradGradGrad

 Leave Link  103 at Tue Dec 15 16:24:49 2015, MaxMem=    33554432 cpu:         0.0
 (Enter /home/Applications/g09/g09/l9999.exe)
 1\1\GINC-DUSTIN-DESKTOP\Force\RB3LYP-FC\3-21G\C4H4O1\DUSTIN\15-Dec-201
 5\0\\#P B3LYP/3-21G CIS(Singlets,NStates=15) pop(full) force\\FuranDFT
 \\0,1\C,0.911821,-0.700348,-0.043428\C,-0.390355,-1.045508,0.043098\O,
 -1.181577,-0.018627,0.025651\C,-0.331721,1.084452,-0.036472\C,0.924581
 ,0.752517,0.030091\H,1.833418,1.362568,0.030112\H,-0.803568,2.080803,0
 .012203\H,-0.845991,-2.067302,0.000851\H,1.852995,-1.351037,0.003039\\
 Version=ES64L-G09RevD.01\State=1-A\HF=-228.730866\RMSD=3.447e-09\RMSF=
 6.071e-02\Dipole=0.3807838,-0.807423,0.0512445\PG=C01 [X(C4H4O1)]\\@


    WHAT WE HAVE LEARNED
 IS LIKE A HANDFUL OF EARTH;
  WHAT WE HAVE YET TO LEARN
   IS LIKE THE WHOLE WORLD.

         -- AVVAYIAR
 Job cpu time:       0 days  0 hours  0 minutes 50.8 seconds.
 File lengths (MBytes):  RWF=     14 Int=      0 D2E=      0 Chk=      3 Scr=      1
 Normal termination of Gaussian 09 at Tue Dec 15 16:24:49 2015.
