 Entering Gaussian System, Link 0=g09
 Input=FuranDFT_69.com
 Output=FuranDFT_69.log
 Initial command:
 /home/Applications/g09/g09/l1.exe "/home/Applications/g09/scratch/Gau-6166.inp" -scrdir="/home/Applications/g09/scratch/"
 Entering Link 1 = /home/Applications/g09/g09/l1.exe PID=      6168.
  
 Copyright (c) 1988,1990,1992,1993,1995,1998,2003,2009,2013,
            Gaussian, Inc.  All Rights Reserved.
  
 This is part of the Gaussian(R) 09 program.  It is based on
 the Gaussian(R) 03 system (copyright 2003, Gaussian, Inc.),
 the Gaussian(R) 98 system (copyright 1998, Gaussian, Inc.),
 the Gaussian(R) 94 system (copyright 1995, Gaussian, Inc.),
 the Gaussian 92(TM) system (copyright 1992, Gaussian, Inc.),
 the Gaussian 90(TM) system (copyright 1990, Gaussian, Inc.),
 the Gaussian 88(TM) system (copyright 1988, Gaussian, Inc.),
 the Gaussian 86(TM) system (copyright 1986, Carnegie Mellon
 University), and the Gaussian 82(TM) system (copyright 1983,
 Carnegie Mellon University). Gaussian is a federally registered
 trademark of Gaussian, Inc.
  
 This software contains proprietary and confidential information,
 including trade secrets, belonging to Gaussian, Inc.
  
 This software is provided under written license and may be
 used, copied, transmitted, or stored only in accord with that
 written license.
  
 The following legend is applicable only to US Government
 contracts under FAR:
  
                    RESTRICTED RIGHTS LEGEND
  
 Use, reproduction and disclosure by the US Government is
 subject to restrictions as set forth in subparagraphs (a)
 and (c) of the Commercial Computer Software - Restricted
 Rights clause in FAR 52.227-19.
  
 Gaussian, Inc.
 340 Quinnipiac St., Bldg. 40, Wallingford CT 06492
  
  
 ---------------------------------------------------------------
 Warning -- This program may not be used in any manner that
 competes with the business of Gaussian, Inc. or will provide
 assistance to any competitor of Gaussian, Inc.  The licensee
 of this program is prohibited from giving any competitor of
 Gaussian, Inc. access to this program.  By using this program,
 the user acknowledges that Gaussian, Inc. is engaged in the
 business of creating and licensing software in the field of
 computational chemistry and represents and warrants to the
 licensee that it is not a competitor of Gaussian, Inc. and that
 it will not use this program in any manner prohibited above.
 ---------------------------------------------------------------
  

 Cite this work as:
 Gaussian 09, Revision D.01,
 M. J. Frisch, G. W. Trucks, H. B. Schlegel, G. E. Scuseria, 
 M. A. Robb, J. R. Cheeseman, G. Scalmani, V. Barone, B. Mennucci, 
 G. A. Petersson, H. Nakatsuji, M. Caricato, X. Li, H. P. Hratchian, 
 A. F. Izmaylov, J. Bloino, G. Zheng, J. L. Sonnenberg, M. Hada, 
 M. Ehara, K. Toyota, R. Fukuda, J. Hasegawa, M. Ishida, T. Nakajima, 
 Y. Honda, O. Kitao, H. Nakai, T. Vreven, J. A. Montgomery, Jr., 
 J. E. Peralta, F. Ogliaro, M. Bearpark, J. J. Heyd, E. Brothers, 
 K. N. Kudin, V. N. Staroverov, T. Keith, R. Kobayashi, J. Normand, 
 K. Raghavachari, A. Rendell, J. C. Burant, S. S. Iyengar, J. Tomasi, 
 M. Cossi, N. Rega, J. M. Millam, M. Klene, J. E. Knox, J. B. Cross, 
 V. Bakken, C. Adamo, J. Jaramillo, R. Gomperts, R. E. Stratmann, 
 O. Yazyev, A. J. Austin, R. Cammi, C. Pomelli, J. W. Ochterski, 
 R. L. Martin, K. Morokuma, V. G. Zakrzewski, G. A. Voth, 
 P. Salvador, J. J. Dannenberg, S. Dapprich, A. D. Daniels, 
 O. Farkas, J. B. Foresman, J. V. Ortiz, J. Cioslowski, 
 and D. J. Fox, Gaussian, Inc., Wallingford CT, 2013.
 
 ******************************************
 Gaussian 09:  ES64L-G09RevD.01 24-Apr-2013
                15-Dec-2015 
 ******************************************
 -------------------------------------------------------
 #P B3LYP/3-21G CIS(Singlets,NStates=15) pop(full) force
 -------------------------------------------------------
 1/10=7,30=1,38=1/1,3;
 2/12=2,17=6,18=5,40=1/2;
 3/5=5,11=9,16=1,25=1,30=1,71=1,74=-5/1,2,8,3;
 4//1;
 5/5=2,38=5/2;
 8/6=1,10=1,108=15/1;
 9/15=2,41=15,42=1,48=1/14;
 10/5=4/2;
 6/7=3,18=1/1;
 7/12=6,13=5,29=1/1,2,3,16;
 1/10=7,30=1/3;
 99//99;
 Leave Link    1 at Tue Dec 15 16:24:49 2015, MaxMem=           0 cpu:         0.0
 (Enter /home/Applications/g09/g09/l101.exe)
 --------
 FuranDFT
 --------
 Symbolic Z-matrix:
 Charge =  0 Multiplicity = 1
 6                     0.91665  -0.75245  -0.02271 
 6                    -0.34655  -1.09838  -0.03269 
 8                    -1.11424   0.04013   0.02419 
 6                    -0.37177   1.07113  -0.04488 
 6                     0.90726   0.7343   -0.00617 
 1                     1.78728   1.34793  -0.00043 
 1                    -0.8193    2.01322   0.01 
 1                    -0.86168  -2.04966  -0.04473 
 1                     1.77033  -1.38036   0.01832 
 
 NAtoms=      9 NQM=        9 NQMF=       0 NMMI=      0 NMMIF=      0
                NMic=       0 NMicF=      0.
                    Isotopes and Nuclear Properties:
 (Nuclear quadrupole moments (NQMom) in fm**2, nuclear magnetic moments (NMagM)
  in nuclear magnetons)

  Atom         1           2           3           4           5           6           7           8           9
 IAtWgt=          12          12          16          12          12           1           1           1           1
 AtmWgt=  12.0000000  12.0000000  15.9949146  12.0000000  12.0000000   1.0078250   1.0078250   1.0078250   1.0078250
 NucSpn=           0           0           0           0           0           1           1           1           1
 AtZEff=   0.0000000   0.0000000   0.0000000   0.0000000   0.0000000   0.0000000   0.0000000   0.0000000   0.0000000
 NQMom=    0.0000000   0.0000000   0.0000000   0.0000000   0.0000000   0.0000000   0.0000000   0.0000000   0.0000000
 NMagM=    0.0000000   0.0000000   0.0000000   0.0000000   0.0000000   2.7928460   2.7928460   2.7928460   2.7928460
 AtZNuc=   6.0000000   6.0000000   8.0000000   6.0000000   6.0000000   1.0000000   1.0000000   1.0000000   1.0000000
 Leave Link  101 at Tue Dec 15 16:24:49 2015, MaxMem=    33554432 cpu:         0.0
 (Enter /home/Applications/g09/g09/l103.exe)

 GradGradGradGradGradGradGradGradGradGradGradGradGradGradGradGradGradGrad
 Berny optimization.
 Initialization pass.
 Trust Radius=3.00D-01 FncErr=1.00D-07 GrdErr=1.00D-07
 Number of steps in this run=      2 maximum allowed number of steps=      2.
 GradGradGradGradGradGradGradGradGradGradGradGradGradGradGradGradGradGrad

 Leave Link  103 at Tue Dec 15 16:24:49 2015, MaxMem=    33554432 cpu:         0.0
 (Enter /home/Applications/g09/g09/l202.exe)
                          Input orientation:                          
 ---------------------------------------------------------------------
 Center     Atomic      Atomic             Coordinates (Angstroms)
 Number     Number       Type             X           Y           Z
 ---------------------------------------------------------------------
      1          6           0        0.916649   -0.752452   -0.022707
      2          6           0       -0.346548   -1.098378   -0.032685
      3          8           0       -1.114240    0.040126    0.024192
      4          6           0       -0.371766    1.071128   -0.044878
      5          6           0        0.907262    0.734299   -0.006172
      6          1           0        1.787277    1.347929   -0.000431
      7          1           0       -0.819295    2.013223    0.009997
      8          1           0       -0.861680   -2.049664   -0.044725
      9          1           0        1.770334   -1.380361    0.018319
 ---------------------------------------------------------------------
                    Distance matrix (angstroms):
                    1          2          3          4          5
     1  C    0.000000
     2  C    1.309745   0.000000
     3  O    2.180571   1.374328   0.000000
     4  C    2.232924   2.169687   1.272401   0.000000
     5  C    1.486873   2.220686   2.137585   1.323202   0.000000
     6  H    2.273783   3.246331   3.182728   2.177168   1.072847
     7  H    3.265506   3.147598   1.995070   1.044431   2.148699
     8  H    2.201295   1.081874   2.106124   3.159012   3.298650
     9  H    1.060533   2.136189   3.215367   3.256130   2.284137
                    6          7          8          9
     6  H    0.000000
     7  H    2.690157   0.000000
     8  H    4.308430   4.063477   0.000000
     9  H    2.728407   4.268801   2.716512   0.000000
 Stoichiometry    C4H4O
 Framework group  C1[X(C4H4O)]
 Deg. of freedom    21
 Full point group                 C1      NOp   1
 Largest Abelian subgroup         C1      NOp   1
 Largest concise Abelian subgroup C1      NOp   1
                         Standard orientation:                         
 ---------------------------------------------------------------------
 Center     Atomic      Atomic             Coordinates (Angstroms)
 Number     Number       Type             X           Y           Z
 ---------------------------------------------------------------------
      1          6           0       -0.876845    0.810863    0.003037
      2          6           0       -1.038661   -0.488756    0.018427
      3          8           0        0.198093   -1.086035   -0.031322
      4          6           0        1.112108   -0.203469    0.036920
      5          6           0        0.596026    1.014068   -0.009220
      6          1           0        1.077561    1.972741   -0.017671
      7          1           0        2.108694   -0.511949   -0.013008
      8          1           0       -1.906568   -1.134547    0.030369
      9          1           0       -1.620199    1.565802   -0.044097
 ---------------------------------------------------------------------
 Rotational constants (GHZ):     10.0506229      9.3549779      4.8489067
 Leave Link  202 at Tue Dec 15 16:24:49 2015, MaxMem=    33554432 cpu:         0.0
 (Enter /home/Applications/g09/g09/l301.exe)
 Standard basis: 3-21G (6D, 7F)
 Ernie: Thresh=  0.10000D-02 Tol=  0.10000D-05 Strict=F.
 There are    53 symmetry adapted cartesian basis functions of A   symmetry.
 There are    53 symmetry adapted basis functions of A   symmetry.
    53 basis functions,    87 primitive gaussians,    53 cartesian basis functions
    18 alpha electrons       18 beta electrons
       nuclear repulsion energy       163.8434667855 Hartrees.
 IExCor=  402 DFT=T Ex+Corr=B3LYP ExCW=0 ScaHFX=  0.200000
 ScaDFX=  0.800000  0.720000  1.000000  0.810000 ScalE2=  1.000000  1.000000
 IRadAn=      0 IRanWt=     -1 IRanGd=            0 ICorTp=0 IEmpDi=  4
 NAtoms=    9 NActive=    9 NUniq=    9 SFac= 1.00D+00 NAtFMM=   60 NAOKFM=F Big=F
 Integral buffers will be    131072 words long.
 Regular integral format.
 Two-electron integral symmetry is turned on.
 Leave Link  301 at Tue Dec 15 16:24:49 2015, MaxMem=    33554432 cpu:         0.0
 (Enter /home/Applications/g09/g09/l302.exe)
 NPDir=0 NMtPBC=     1 NCelOv=     1 NCel=       1 NClECP=     1 NCelD=      1
         NCelK=      1 NCelE2=     1 NClLst=     1 CellRange=     0.0.
 One-electron integrals computed using PRISM.
 NBasis=    53 RedAO= T EigKep=  3.04D-03  NBF=    53
 NBsUse=    53 1.00D-06 EigRej= -1.00D+00 NBFU=    53
 Precomputing XC quadrature grid using
 IXCGrd= 4 IRadAn=           0 IRanWt=          -1 IRanGd=           0 AccXCQ= 0.00D+00.
 Generated NRdTot=       0 NPtTot=           0 NUsed=           0 NTot=          32
 NSgBfM=    53    53    53    53    53 MxSgAt=     9 MxSgA2=     9.
 Leave Link  302 at Tue Dec 15 16:24:49 2015, MaxMem=    33554432 cpu:         0.1
 (Enter /home/Applications/g09/g09/l308.exe)
 Leave Link  308 at Tue Dec 15 16:24:49 2015, MaxMem=    33554432 cpu:         0.0
 (Enter /home/Applications/g09/g09/l303.exe)
 DipDrv:  MaxL=1.
 Leave Link  303 at Tue Dec 15 16:24:49 2015, MaxMem=    33554432 cpu:         0.0
 (Enter /home/Applications/g09/g09/l401.exe)
 ExpMin= 1.83D-01 ExpMax= 3.22D+02 ExpMxC= 3.22D+02 IAcc=1 IRadAn=         1 AccDes= 0.00D+00
 Harris functional with IExCor=  402 and IRadAn=       1 diagonalized for initial guess.
 HarFok:  IExCor=  402 AccDes= 0.00D+00 IRadAn=         1 IDoV= 1 UseB2=F ITyADJ=14
 ICtDFT=  3500011 ScaDFX=  1.000000  1.000000  1.000000  1.000000
 FoFCou: FMM=F IPFlag=           0 FMFlag=      100000 FMFlg1=           0
         NFxFlg=           0 DoJE=T BraDBF=F KetDBF=T FulRan=T
         wScrn=  0.000000 ICntrl=     500 IOpCl=  0 I1Cent=   200000004 NGrid=           0
         NMat0=    1 NMatS0=      1 NMatT0=    0 NMatD0=    1 NMtDS0=    0 NMtDT0=    0
 Petite list used in FoFCou.
 Harris En= -228.727483899739    
 JPrj=0 DoOrth=F DoCkMO=F.
 Leave Link  401 at Tue Dec 15 16:24:49 2015, MaxMem=    33554432 cpu:         0.3
 (Enter /home/Applications/g09/g09/l502.exe)
 Closed shell SCF:
 Using DIIS extrapolation, IDIIS=  1040.
 Integral symmetry usage will be decided dynamically.
 Keep R1 ints in memory in canonical form, NReq=1925595.
 IVT=       27707 IEndB=       27707 NGot=    33554432 MDV=    32502130
 LenX=    32502130 LenY=    32498880
 Requested convergence on RMS density matrix=1.00D-08 within 128 cycles.
 Requested convergence on MAX density matrix=1.00D-06.
 Requested convergence on             energy=1.00D-06.
 No special actions if energy rises.
 FoFCou: FMM=F IPFlag=           0 FMFlag=           0 FMFlg1=           0
         NFxFlg=           0 DoJE=F BraDBF=F KetDBF=F FulRan=T
         wScrn=  0.000000 ICntrl=     600 IOpCl=  0 I1Cent=           0 NGrid=           0
         NMat0=    1 NMatS0=   1431 NMatT0=    0 NMatD0=    1 NMtDS0=    0 NMtDT0=    0
 Symmetry not used in FoFCou.
 Integral accuracy reduced to 1.0D-05 until final iterations.

 Cycle   1  Pass 0  IDiag  1:
 E= -228.647307958439    
 DIIS: error= 3.42D-02 at cycle   1 NSaved=   1.
 NSaved= 1 IEnMin= 1 EnMin= -228.647307958439     IErMin= 1 ErrMin= 3.42D-02
 ErrMax= 3.42D-02  0.00D+00 EMaxC= 1.00D-01 BMatC= 8.00D-02 BMatP= 8.00D-02
 IDIUse=3 WtCom= 6.58D-01 WtEn= 3.42D-01
 Coeff-Com:  0.100D+01
 Coeff-En:   0.100D+01
 Coeff:      0.100D+01
 Gap=     0.255 Goal=   None    Shift=    0.000
 GapD=    0.255 DampG=1.000 DampE=0.500 DampFc=0.5000 IDamp=-1.
 Damping current iteration by 5.00D-01
 RMSDP=1.19D-02 MaxDP=1.09D-01              OVMax= 1.72D-01

 Cycle   2  Pass 0  IDiag  1:
 E= -228.683422276759     Delta-E=       -0.036114318320 Rises=F Damp=T
 DIIS: error= 1.02D-02 at cycle   2 NSaved=   2.
 NSaved= 2 IEnMin= 2 EnMin= -228.683422276759     IErMin= 2 ErrMin= 1.02D-02
 ErrMax= 1.02D-02  0.00D+00 EMaxC= 1.00D-01 BMatC= 7.46D-03 BMatP= 8.00D-02
 IDIUse=3 WtCom= 8.98D-01 WtEn= 1.02D-01
 Coeff-Com:  0.587D-01 0.941D+00
 Coeff-En:   0.109D+00 0.891D+00
 Coeff:      0.639D-01 0.936D+00
 Gap=     0.280 Goal=   None    Shift=    0.000
 RMSDP=4.21D-03 MaxDP=3.65D-02 DE=-3.61D-02 OVMax= 1.45D-01

 Cycle   3  Pass 0  IDiag  1:
 E= -228.721134736944     Delta-E=       -0.037712460186 Rises=F Damp=F
 DIIS: error= 1.72D-02 at cycle   3 NSaved=   3.
 NSaved= 3 IEnMin= 3 EnMin= -228.721134736944     IErMin= 2 ErrMin= 1.02D-02
 ErrMax= 1.72D-02  0.00D+00 EMaxC= 1.00D-01 BMatC= 1.10D-02 BMatP= 7.46D-03
 IDIUse=2 WtCom= 0.00D+00 WtEn= 1.00D+00
 Coeff-En:   0.000D+00 0.000D+00 0.100D+01
 Coeff:      0.000D+00 0.000D+00 0.100D+01
 Gap=     0.264 Goal=   None    Shift=    0.000
 RMSDP=5.88D-03 MaxDP=4.87D-02 DE=-3.77D-02 OVMax= 1.16D-01

 Cycle   4  Pass 0  IDiag  1:
 E= -228.693404080708     Delta-E=        0.027730656236 Rises=F Damp=F
 DIIS: error= 3.49D-02 at cycle   4 NSaved=   4.
 NSaved= 4 IEnMin= 3 EnMin= -228.721134736944     IErMin= 2 ErrMin= 1.02D-02
 ErrMax= 3.49D-02  0.00D+00 EMaxC= 1.00D-01 BMatC= 4.12D-02 BMatP= 7.46D-03
 IDIUse=2 WtCom= 0.00D+00 WtEn= 1.00D+00
 Coeff-En:   0.000D+00 0.000D+00 0.742D+00 0.258D+00
 Coeff:      0.000D+00 0.000D+00 0.742D+00 0.258D+00
 Gap=     0.274 Goal=   None    Shift=    0.000
 RMSDP=2.95D-03 MaxDP=2.25D-02 DE= 2.77D-02 OVMax= 6.28D-02

 Cycle   5  Pass 0  IDiag  1:
 E= -228.729197185678     Delta-E=       -0.035793104969 Rises=F Damp=F
 DIIS: error= 7.91D-03 at cycle   5 NSaved=   5.
 NSaved= 5 IEnMin= 5 EnMin= -228.729197185678     IErMin= 5 ErrMin= 7.91D-03
 ErrMax= 7.91D-03  0.00D+00 EMaxC= 1.00D-01 BMatC= 2.24D-03 BMatP= 7.46D-03
 IDIUse=3 WtCom= 9.21D-01 WtEn= 7.91D-02
 Coeff-Com: -0.403D-02 0.186D-01 0.240D+00-0.755D-01 0.821D+00
 Coeff-En:   0.000D+00 0.000D+00 0.210D+00 0.000D+00 0.790D+00
 Coeff:     -0.371D-02 0.171D-01 0.238D+00-0.696D-01 0.818D+00
 Gap=     0.278 Goal=   None    Shift=    0.000
 RMSDP=9.75D-04 MaxDP=7.36D-03 DE=-3.58D-02 OVMax= 2.02D-02

 Cycle   6  Pass 0  IDiag  1:
 E= -228.731270534893     Delta-E=       -0.002073349215 Rises=F Damp=F
 DIIS: error= 4.24D-04 at cycle   6 NSaved=   6.
 NSaved= 6 IEnMin= 6 EnMin= -228.731270534893     IErMin= 6 ErrMin= 4.24D-04
 ErrMax= 4.24D-04  0.00D+00 EMaxC= 1.00D-01 BMatC= 8.93D-06 BMatP= 2.24D-03
 IDIUse=3 WtCom= 9.96D-01 WtEn= 4.24D-03
 Coeff-Com: -0.454D-02 0.113D-01 0.692D-01-0.563D-01 0.401D+00 0.579D+00
 Coeff-En:   0.000D+00 0.000D+00 0.000D+00 0.000D+00 0.000D+00 0.100D+01
 Coeff:     -0.452D-02 0.112D-01 0.689D-01-0.561D-01 0.399D+00 0.581D+00
 Gap=     0.278 Goal=   None    Shift=    0.000
 RMSDP=6.67D-05 MaxDP=6.93D-04 DE=-2.07D-03 OVMax= 1.29D-03

 Cycle   7  Pass 0  IDiag  1:
 E= -228.731279703861     Delta-E=       -0.000009168968 Rises=F Damp=F
 DIIS: error= 8.65D-05 at cycle   7 NSaved=   7.
 NSaved= 7 IEnMin= 7 EnMin= -228.731279703861     IErMin= 7 ErrMin= 8.65D-05
 ErrMax= 8.65D-05  0.00D+00 EMaxC= 1.00D-01 BMatC= 2.57D-07 BMatP= 8.93D-06
 IDIUse=1 WtCom= 1.00D+00 WtEn= 0.00D+00
 Coeff-Com: -0.176D-02 0.387D-02 0.213D-01-0.226D-01 0.152D+00 0.309D+00
 Coeff-Com:  0.538D+00
 Coeff:     -0.176D-02 0.387D-02 0.213D-01-0.226D-01 0.152D+00 0.309D+00
 Coeff:      0.538D+00
 Gap=     0.278 Goal=   None    Shift=    0.000
 RMSDP=1.02D-05 MaxDP=1.31D-04 DE=-9.17D-06 OVMax= 2.71D-04

 Cycle   8  Pass 0  IDiag  1:
 E= -228.731279956421     Delta-E=       -0.000000252560 Rises=F Damp=F
 DIIS: error= 1.84D-05 at cycle   8 NSaved=   8.
 NSaved= 8 IEnMin= 8 EnMin= -228.731279956421     IErMin= 8 ErrMin= 1.84D-05
 ErrMax= 1.84D-05  0.00D+00 EMaxC= 1.00D-01 BMatC= 1.52D-08 BMatP= 2.57D-07
 IDIUse=1 WtCom= 1.00D+00 WtEn= 0.00D+00
 Coeff-Com: -0.761D-04-0.949D-04 0.312D-02-0.275D-02 0.230D-01 0.888D-01
 Coeff-Com:  0.237D+00 0.651D+00
 Coeff:     -0.761D-04-0.949D-04 0.312D-02-0.275D-02 0.230D-01 0.888D-01
 Coeff:      0.237D+00 0.651D+00
 Gap=     0.278 Goal=   None    Shift=    0.000
 RMSDP=1.99D-06 MaxDP=1.66D-05 DE=-2.53D-07 OVMax= 3.04D-05

 Initial convergence to 1.0D-05 achieved.  Increase integral accuracy.
 Cycle   9  Pass 1  IDiag  1:
 E= -228.731336732176     Delta-E=       -0.000056775756 Rises=F Damp=F
 DIIS: error= 1.03D-05 at cycle   1 NSaved=   1.
 NSaved= 1 IEnMin= 1 EnMin= -228.731336732176     IErMin= 1 ErrMin= 1.03D-05
 ErrMax= 1.03D-05  0.00D+00 EMaxC= 1.00D-01 BMatC= 6.18D-09 BMatP= 6.18D-09
 IDIUse=1 WtCom= 1.00D+00 WtEn= 0.00D+00
 Coeff-Com:  0.100D+01
 Coeff:      0.100D+01
 Gap=     0.278 Goal=   None    Shift=    0.000
 RMSDP=1.99D-06 MaxDP=1.66D-05 DE=-5.68D-05 OVMax= 3.50D-05

 Cycle  10  Pass 1  IDiag  1:
 E= -228.731336741276     Delta-E=       -0.000000009100 Rises=F Damp=F
 DIIS: error= 1.33D-06 at cycle   2 NSaved=   2.
 NSaved= 2 IEnMin= 2 EnMin= -228.731336741276     IErMin= 2 ErrMin= 1.33D-06
 ErrMax= 1.33D-06  0.00D+00 EMaxC= 1.00D-01 BMatC= 1.87D-10 BMatP= 6.18D-09
 IDIUse=1 WtCom= 1.00D+00 WtEn= 0.00D+00
 Coeff-Com:  0.154D-01 0.985D+00
 Coeff:      0.154D-01 0.985D+00
 Gap=     0.278 Goal=   None    Shift=    0.000
 RMSDP=5.80D-07 MaxDP=4.45D-06 DE=-9.10D-09 OVMax= 6.54D-06

 Cycle  11  Pass 1  IDiag  1:
 E= -228.731336741285     Delta-E=       -0.000000000009 Rises=F Damp=F
 DIIS: error= 1.55D-06 at cycle   3 NSaved=   3.
 NSaved= 3 IEnMin= 3 EnMin= -228.731336741285     IErMin= 2 ErrMin= 1.33D-06
 ErrMax= 1.55D-06  0.00D+00 EMaxC= 1.00D-01 BMatC= 1.95D-10 BMatP= 1.87D-10
 IDIUse=1 WtCom= 1.00D+00 WtEn= 0.00D+00
 Coeff-Com: -0.222D-01 0.513D+00 0.509D+00
 Coeff:     -0.222D-01 0.513D+00 0.509D+00
 Gap=     0.278 Goal=   None    Shift=    0.000
 RMSDP=3.14D-07 MaxDP=3.94D-06 DE=-9.32D-12 OVMax= 6.39D-06

 Cycle  12  Pass 1  IDiag  1:
 E= -228.731336741466     Delta-E=       -0.000000000181 Rises=F Damp=F
 DIIS: error= 4.43D-07 at cycle   4 NSaved=   4.
 NSaved= 4 IEnMin= 4 EnMin= -228.731336741466     IErMin= 4 ErrMin= 4.43D-07
 ErrMax= 4.43D-07  0.00D+00 EMaxC= 1.00D-01 BMatC= 9.50D-12 BMatP= 1.87D-10
 IDIUse=1 WtCom= 1.00D+00 WtEn= 0.00D+00
 Coeff-Com: -0.121D-01 0.220D+00 0.273D+00 0.519D+00
 Coeff:     -0.121D-01 0.220D+00 0.273D+00 0.519D+00
 Gap=     0.278 Goal=   None    Shift=    0.000
 RMSDP=7.48D-08 MaxDP=8.95D-07 DE=-1.81D-10 OVMax= 1.37D-06

 Cycle  13  Pass 1  IDiag  1:
 E= -228.731336741475     Delta-E=       -0.000000000009 Rises=F Damp=F
 DIIS: error= 9.23D-08 at cycle   5 NSaved=   5.
 NSaved= 5 IEnMin= 5 EnMin= -228.731336741475     IErMin= 5 ErrMin= 9.23D-08
 ErrMax= 9.23D-08  0.00D+00 EMaxC= 1.00D-01 BMatC= 4.96D-13 BMatP= 9.50D-12
 IDIUse=1 WtCom= 1.00D+00 WtEn= 0.00D+00
 Coeff-Com: -0.299D-02 0.439D-01 0.735D-01 0.219D+00 0.667D+00
 Coeff:     -0.299D-02 0.439D-01 0.735D-01 0.219D+00 0.667D+00
 Gap=     0.278 Goal=   None    Shift=    0.000
 RMSDP=1.91D-08 MaxDP=1.64D-07 DE=-9.21D-12 OVMax= 4.24D-07

 Cycle  14  Pass 1  IDiag  1:
 E= -228.731336741476     Delta-E=       -0.000000000001 Rises=F Damp=F
 DIIS: error= 8.41D-08 at cycle   6 NSaved=   6.
 NSaved= 6 IEnMin= 6 EnMin= -228.731336741476     IErMin= 6 ErrMin= 8.41D-08
 ErrMax= 8.41D-08  0.00D+00 EMaxC= 1.00D-01 BMatC= 2.07D-13 BMatP= 4.96D-13
 IDIUse=1 WtCom= 1.00D+00 WtEn= 0.00D+00
 Coeff-Com: -0.478D-03 0.253D-02 0.166D-01 0.819D-01 0.441D+00 0.458D+00
 Coeff:     -0.478D-03 0.253D-02 0.166D-01 0.819D-01 0.441D+00 0.458D+00
 Gap=     0.278 Goal=   None    Shift=    0.000
 RMSDP=8.83D-09 MaxDP=1.08D-07 DE=-1.25D-12 OVMax= 1.59D-07

 SCF Done:  E(RB3LYP) =  -228.731336741     A.U. after   14 cycles
            NFock= 14  Conv=0.88D-08     -V/T= 2.0062
 KE= 2.273271688409D+02 PE=-8.605176746369D+02 EE= 2.406157022690D+02
 Leave Link  502 at Tue Dec 15 16:24:54 2015, MaxMem=    33554432 cpu:         5.0
 (Enter /home/Applications/g09/g09/l801.exe)
 DoSCS=F DFT=T ScalE2(SS,OS)=  1.000000  1.000000
 ExpMin= 1.83D-01 ExpMax= 3.22D+02 ExpMxC= 3.22D+02 IAcc=3 IRadAn=         5 AccDes= 0.00D+00
 HarFok:  IExCor=  205 AccDes= 0.00D+00 IRadAn=         5 IDoV=-2 UseB2=F ITyADJ=14
 ICtDFT= 12500011 ScaDFX=  1.000000  1.000000  1.000000  1.000000
 Largest valence mixing into a core orbital is  1.79D-04
 Largest core mixing into a valence orbital is  4.53D-05
 Range of M.O.s used for correlation:     6    53
 NBasis=    53 NAE=    18 NBE=    18 NFC=     5 NFV=     0
 NROrb=     48 NOA=    13 NOB=    13 NVA=    35 NVB=    35
 Leave Link  801 at Tue Dec 15 16:24:54 2015, MaxMem=    33554432 cpu:         0.3
 (Enter /home/Applications/g09/g09/l914.exe)
 RHF ground state
 MDV=    33554432 DFT=T DoStab=F Mixed=T DoRPA=F DoScal=F NonHer=F
 Keep R1, R2, and R3 ints in memory in canonical form, NReq=5596273.
 FoFCou: FMM=F IPFlag=           0 FMFlag=           0 FMFlg1=           0
         NFxFlg=           0 DoJE=F BraDBF=F KetDBF=F FulRan=T
         wScrn=  0.000000 ICntrl=     600 IOpCl=  0 I1Cent=           0 NGrid=           0
         NMat0=    1 NMatS0=   1431 NMatT0=    0 NMatD0=    1 NMtDS0=    0 NMtDT0=    0
 Symmetry not used in FoFCou.
 Making orbital integer symmetry assigments:
 Orbital symmetries:
       Occupied  (A) (A) (A) (A) (A) (A) (A) (A) (A) (A) (A) (A)
                 (A) (A) (A) (A) (A) (A)
       Virtual   (A) (A) (A) (A) (A) (A) (A) (A) (A) (A) (A) (A)
                 (A) (A) (A) (A) (A) (A) (A) (A) (A) (A) (A) (A)
                 (A) (A) (A) (A) (A) (A) (A) (A) (A) (A) (A)
    60 initial guesses have been made.
 Convergence on wavefunction:    0.000001000000000
 Davidson Disk Diagonalization:  ConvIn= 1.00D-06 SkipCon=T Conv= 1.00D-06.
 Max sub-space:   240 roots to seek:    60 dimension of matrix:          910
 Iteration     1 Dimension    60 NMult     0 NNew     60
 CISAX will form    60 AO SS matrices at one time.
 NMat=    60 NSing=    60 JSym2X= 0.
 New state      1 was old state      3
 New state      2 was old state      1
 New state      3 was old state      6
 New state      4 was old state      5
 New state      5 was old state      7
 New state      6 was old state      4
 New state      7 was old state      8
 New state      8 was old state      9
 New state      9 was old state     10
 New state     10 was old state     13
 New state     13 was old state     14
 New state     14 was old state     18
 New state     15 was old state      2
 Excitation Energies [eV] at current iteration:
 Root      1 :     7.629409311031575
 Root      2 :     8.668245659449809
 Root      3 :     9.122885051039233
 Root      4 :     9.177573662408694
 Root      5 :     9.587058945317272
 Root      6 :     9.824882111730947
 Root      7 :     9.896555508427991
 Root      8 :    10.067182576626220
 Root      9 :    10.183300733257130
 Root     10 :    10.439819602169450
 Root     11 :    10.494328587695990
 Root     12 :    10.741717906989890
 Root     13 :    10.942382842524810
 Root     14 :    11.077699093374460
 Root     15 :    11.136645585102810
 Root     16 :    11.311412372956500
 Root     17 :    11.379633004300360
 Root     18 :    11.654955783418230
 Root     19 :    12.005001146369940
 Root     20 :    12.157777655880360
 Root     21 :    12.264334404823350
 Root     22 :    12.470400201079850
 Root     23 :    12.479838207151040
 Root     24 :    12.725082301405190
 Root     25 :    12.884843496510220
 Root     26 :    13.217752643550630
 Root     27 :    13.556856443476430
 Root     28 :    13.580124213353700
 Root     29 :    13.872338390716890
 Root     30 :    13.979267526034160
 Root     31 :    14.141610071985740
 Root     32 :    14.508341544952430
 Root     33 :    14.614660580784290
 Root     34 :    14.662487657092780
 Root     35 :    14.728519406371410
 Root     36 :    14.839639073682280
 Root     37 :    15.048755518896140
 Root     38 :    15.074700434137130
 Root     39 :    15.296450335134610
 Root     40 :    15.351099356181170
 Root     41 :    15.490083003544130
 Root     42 :    15.565007576080550
 Root     43 :    15.645999040806690
 Root     44 :    15.751539548415920
 Root     45 :    15.838728220943820
 Root     46 :    16.028054036015170
 Root     47 :    16.060303779614160
 Root     48 :    16.192517398683140
 Root     49 :    16.208602863316520
 Root     50 :    16.220565303433490
 Root     51 :    16.500212680234650
 Root     52 :    16.569969951545690
 Root     53 :    16.613766514709770
 Root     54 :    16.711263792920880
 Root     55 :    16.721756561785550
 Root     56 :    16.987015786169040
 Root     57 :    17.211670579838630
 Root     58 :    17.271759650704480
 Root     59 :    17.930599596308950
 Root     60 :    19.458234617012900
 Iteration     2 Dimension   120 NMult    60 NNew     60
 CISAX will form    60 AO SS matrices at one time.
 NMat=    60 NSing=    60 JSym2X= 0.
 Root      1 not converged, maximum delta is    0.127864782646298
 Root      2 not converged, maximum delta is    0.099686732344150
 Root      3 not converged, maximum delta is    0.073759747200283
 Root      4 not converged, maximum delta is    0.067530116305001
 New state      5 was old state      6
 Root      5 not converged, maximum delta is    0.282868138932687
 New state      6 was old state      5
 Root      6 not converged, maximum delta is    0.068944225634384
 Root      7 not converged, maximum delta is    0.328987056775002
 Root      8 not converged, maximum delta is    0.173548460821997
 Root      9 not converged, maximum delta is    0.066044051963737
 New state     10 was old state     15
 Root     10 not converged, maximum delta is    0.335184007180207
 New state     11 was old state     10
 Root     11 not converged, maximum delta is    0.160515253655521
 New state     12 was old state     11
 Root     12 not converged, maximum delta is    0.181504666959277
 New state     13 was old state     12
 Root     13 not converged, maximum delta is    0.019528353770951
 New state     14 was old state     13
 Root     14 not converged, maximum delta is    0.038431808044415
 New state     15 was old state     14
 Root     15 not converged, maximum delta is    0.185601367724585
 Excitation Energies [eV] at current iteration:
 Root      1 :     7.434365659139740   Change is   -0.195043651891835
 Root      2 :     8.008544709866044   Change is   -0.659700949583766
 Root      3 :     9.092145857729966   Change is   -0.030739193309268
 Root      4 :     9.165209511883303   Change is   -0.012364150525392
 Root      5 :     9.376755268466489   Change is   -0.448126843264457
 Root      6 :     9.567202377365859   Change is   -0.019856567951412
 Root      7 :     9.864432953242330   Change is   -0.032122555185660
 Root      8 :    10.018869263513930   Change is   -0.048313313112295
 Root      9 :    10.153778342003030   Change is   -0.029522391254104
 Root     10 :    10.188799046750830   Change is   -0.947846538351977
 Root     11 :    10.414302131043500   Change is   -0.025517471125943
 Root     12 :    10.506939858089850   Change is    0.012611270393852
 Root     13 :    10.726486895953790   Change is   -0.015231011036096
 Root     14 :    10.932194983046200   Change is   -0.010187859478604
 Root     15 :    11.075329411799010   Change is   -0.002369681575453
 Root     16 :    11.288867155854080   Change is   -0.090765848446279
 Root     17 :    11.309195835461840   Change is   -0.002216537494668
 Root     18 :    11.632664447339830   Change is   -0.022291336078403
 Root     19 :    11.981697988902240   Change is   -0.023303157467696
 Root     20 :    12.115402467141000   Change is   -0.042375188739361
 Root     21 :    12.239474810722630   Change is   -0.024859594100719
 Root     22 :    12.418231572215100   Change is   -0.052168628864754
 Root     23 :    12.423881619656900   Change is   -0.055956587494141
 Root     24 :    12.649186831841020   Change is   -0.075895469564168
 Root     25 :    12.858222688366040   Change is   -0.026620808144188
 Root     26 :    13.187069128002500   Change is   -0.030683515548136
 Root     27 :    13.393790171932540   Change is   -0.478548218784355
 Root     28 :    13.516354962103100   Change is   -0.040501481373333
 Root     29 :    13.557558806723490   Change is   -0.022565406630203
 Root     30 :    13.867478941143390   Change is   -0.274131130842352
 Root     31 :    13.955726813466830   Change is   -0.023540712567327
 Root     32 :    13.996854580159920   Change is   -1.077845853977214
 Root     33 :    14.371788066087070   Change is   -0.136553478865360
 Root     34 :    14.522786566968200   Change is   -0.091874013816084
 Root     35 :    14.589741140792490   Change is   -0.072746516300288
 Root     36 :    14.653562306363900   Change is   -0.074957100007510
 Root     37 :    14.812359008187120   Change is   -0.027280065495159
 Root     38 :    14.941365895589130   Change is   -0.107389623307009
 Root     39 :    15.192759975955900   Change is   -0.103690359178710
 Root     40 :    15.326035358731320   Change is   -0.025063997449858
 Root     41 :    15.421308357835260   Change is   -0.068774645708867
 Root     42 :    15.449134947318810   Change is   -0.115872628761737
 Root     43 :    15.559361318119180   Change is   -0.279366902824638
 Root     44 :    15.611498153869920   Change is   -0.034500886936772
 Root     45 :    15.627748777950330   Change is   -0.580854085366194
 Root     46 :    15.710037494048100   Change is   -0.041502054367824
 Root     47 :    15.864245117598430   Change is   -0.196058662015725
 Root     48 :    15.903339433689470   Change is   -0.124714602325704
 Root     49 :    16.078304899385010   Change is   -0.114212499298137
 Root     50 :    16.194656384072710   Change is   -0.025908919360782
 Root     51 :    16.227202154729500   Change is   -0.342767796816193
 Root     52 :    16.368316185590640   Change is   -0.342947607330243
 Root     53 :    16.463301440777180   Change is   -0.036911239457471
 Root     54 :    16.559608416262970   Change is   -0.054158098446800
 Root     55 :    16.646521795058470   Change is   -0.075234766727086
 Root     56 :    16.651441124436830   Change is   -1.279158471872122
 Root     57 :    16.791707771014100   Change is   -0.480051879690379
 Root     58 :    16.919512219363770   Change is   -0.067503566805263
 Root     59 :    17.022153741139910   Change is   -2.436080875872999
 Root     60 :    17.480836102249510   Change is    0.269165522410878
 Iteration     3 Dimension   135 NMult   120 NNew     15
 CISAX will form    15 AO SS matrices at one time.
 NMat=    15 NSing=    15 JSym2X= 0.
 Root      1 not converged, maximum delta is    0.001064076227773
 Root      2 not converged, maximum delta is    0.002217823914573
 Root      3 not converged, maximum delta is    0.000353428665366
 Root      4 not converged, maximum delta is    0.000231299008308
 Root      5 not converged, maximum delta is    0.002429861867688
 Root      6 not converged, maximum delta is    0.000411700780000
 Root      7 not converged, maximum delta is    0.000412326027344
 Root      8 not converged, maximum delta is    0.003082490472626
 Root      9 not converged, maximum delta is    0.003410890030761
 Root     10 not converged, maximum delta is    0.005445294935496
 Root     11 not converged, maximum delta is    0.000434440957806
 Root     12 not converged, maximum delta is    0.001178667161939
 Root     13 not converged, maximum delta is    0.000368075939168
 Root     14 not converged, maximum delta is    0.000179900982756
 Root     15 not converged, maximum delta is    0.000116415830702
 Excitation Energies [eV] at current iteration:
 Root      1 :     7.433380563620428   Change is   -0.000985095519311
 Root      2 :     8.007030304568277   Change is   -0.001514405297767
 Root      3 :     9.092077197057820   Change is   -0.000068660672144
 Root      4 :     9.165187987869013   Change is   -0.000021524014290
 Root      5 :     9.375167906129059   Change is   -0.001587362337430
 Root      6 :     9.567175764289141   Change is   -0.000026613076719
 Root      7 :     9.864398128785465   Change is   -0.000034824456865
 Root      8 :    10.018021281280140   Change is   -0.000847982233793
 Root      9 :    10.153689039597420   Change is   -0.000089302405608
 Root     10 :    10.186254039172810   Change is   -0.002545007578020
 Root     11 :    10.414244568768880   Change is   -0.000057562274628
 Root     12 :    10.506663644153950   Change is   -0.000276213935899
 Root     13 :    10.726453066100260   Change is   -0.000033829853530
 Root     14 :    10.932179869324190   Change is   -0.000015113722018
 Root     15 :    11.075318217307730   Change is   -0.000011194491279
 Iteration     4 Dimension   150 NMult   135 NNew     15
 CISAX will form    15 AO SS matrices at one time.
 NMat=    15 NSing=    15 JSym2X= 0.
 Root      1 not converged, maximum delta is    0.000041420256611
 Root      2 not converged, maximum delta is    0.000056869789951
 Root      3 not converged, maximum delta is    0.000013754075790
 Root      4 not converged, maximum delta is    0.000007608551807
 Root      5 not converged, maximum delta is    0.000055829336439
 Root      6 not converged, maximum delta is    0.000007307939845
 Root      7 not converged, maximum delta is    0.000010849787249
 Root      8 not converged, maximum delta is    0.000060148121504
 Root      9 not converged, maximum delta is    0.000016236648847
 Root     10 not converged, maximum delta is    0.000112571262556
 Root     11 not converged, maximum delta is    0.000010171313911
 Root     12 not converged, maximum delta is    0.000035040613732
 Root     13 not converged, maximum delta is    0.000005630417535
 Root     14 not converged, maximum delta is    0.000004977586247
 Root     15 not converged, maximum delta is    0.000007976061761
 Excitation Energies [eV] at current iteration:
 Root      1 :     7.433379335254966   Change is   -0.000001228365462
 Root      2 :     8.007028763709664   Change is   -0.000001540858611
 Root      3 :     9.092077114233527   Change is   -0.000000082824294
 Root      4 :     9.165187963734967   Change is   -0.000000024134045
 Root      5 :     9.375165787648282   Change is   -0.000002118480777
 Root      6 :     9.567175739314397   Change is   -0.000000024974744
 Root      7 :     9.864398080414412   Change is   -0.000000048371053
 Root      8 :    10.018019978681490   Change is   -0.000001302598647
 Root      9 :    10.153688954233950   Change is   -0.000000085363473
 Root     10 :    10.186249997130690   Change is   -0.000004042042127
 Root     11 :    10.414244501096530   Change is   -0.000000067672343
 Root     12 :    10.506663215795010   Change is   -0.000000428358938
 Root     13 :    10.726453051608340   Change is   -0.000000014491926
 Root     14 :    10.932179856453580   Change is   -0.000000012870609
 Root     15 :    11.075318199632610   Change is   -0.000000017675117
 Iteration     5 Dimension   165 NMult   150 NNew     15
 CISAX will form    15 AO SS matrices at one time.
 NMat=    15 NSing=    15 JSym2X= 0.
 Root      1 not converged, maximum delta is    0.000001279148473
 Root      2 not converged, maximum delta is    0.000002006983846
 Root      3 has converged.
 Root      4 has converged.
 Root      5 not converged, maximum delta is    0.000002044570342
 Root      6 has converged.
 Root      7 has converged.
 Root      8 not converged, maximum delta is    0.000001536013923
 Root      9 has converged.
 Root     10 not converged, maximum delta is    0.000002929145934
 Root     11 has converged.
 Root     12 has converged.
 Root     13 has converged.
 Root     14 has converged.
 Root     15 not converged, maximum delta is    0.000001028955812
 Excitation Energies [eV] at current iteration:
 Root      1 :     7.433379334245769   Change is   -0.000000001009198
 Root      2 :     8.007028762427224   Change is   -0.000000001282441
 Root      3 :     9.092077114168458   Change is   -0.000000000065069
 Root      4 :     9.165187963714054   Change is   -0.000000000020913
 Root      5 :     9.375165785929857   Change is   -0.000000001718424
 Root      6 :     9.567175739289556   Change is   -0.000000000024841
 Root      7 :     9.864398080368348   Change is   -0.000000000046064
 Root      8 :    10.018019977462430   Change is   -0.000000001219059
 Root      9 :    10.153688954155190   Change is   -0.000000000078762
 Root     10 :    10.186249993182960   Change is   -0.000000003947731
 Root     11 :    10.414244501036510   Change is   -0.000000000060024
 Root     12 :    10.506663215338980   Change is   -0.000000000456032
 Root     13 :    10.726453051597150   Change is   -0.000000000011182
 Root     14 :    10.932179856440170   Change is   -0.000000000013411
 Root     15 :    11.075318199608810   Change is   -0.000000000023803
 Iteration     6 Dimension   171 NMult   165 NNew      6
 CISAX will form     6 AO SS matrices at one time.
 NMat=     6 NSing=     6 JSym2X= 0.
 Root      1 has converged.
 Root      2 has converged.
 Root      3 has converged.
 Root      4 has converged.
 Root      5 has converged.
 Root      6 has converged.
 Root      7 has converged.
 Root      8 has converged.
 Root      9 has converged.
 Root     10 has converged.
 Root     11 has converged.
 Root     12 has converged.
 Root     13 has converged.
 Root     14 has converged.
 Root     15 has converged.
 Excitation Energies [eV] at current iteration:
 Root      1 :     7.433379334245552   Change is   -0.000000000000218
 Root      2 :     8.007028762426767   Change is   -0.000000000000458
 Root      3 :     9.092077114168433   Change is   -0.000000000000024
 Root      4 :     9.165187963714049   Change is   -0.000000000000006
 Root      5 :     9.375165785929001   Change is   -0.000000000000856
 Root      6 :     9.567175739289548   Change is   -0.000000000000009
 Root      7 :     9.864398080368321   Change is   -0.000000000000027
 Root      8 :    10.018019977461790   Change is   -0.000000000000642
 Root      9 :    10.153688954155150   Change is   -0.000000000000038
 Root     10 :    10.186249993180840   Change is   -0.000000000002118
 Root     11 :    10.414244501036480   Change is   -0.000000000000024
 Root     12 :    10.506663215338770   Change is   -0.000000000000211
 Root     13 :    10.726453051597160   Change is    0.000000000000002
 Root     14 :    10.932179856440150   Change is   -0.000000000000018
 Root     15 :    11.075318199608780   Change is   -0.000000000000027
 Convergence achieved on expansion vectors.
 ***********************************************************************
 Excited states from <AA,BB:AA,BB> singles matrix:
 ***********************************************************************
 
 1PDM for each excited state written to RWF  633
 Ground to excited state transition densities written to RWF  633
 Ground to excited state transition electric dipole moments (Au):
       state          X           Y           Z        Dip. S.      Osc.
         1         0.5691     -0.0130     -0.0060      0.3241      0.0590
         2         0.8930      0.0606      0.0520      0.8038      0.1577
         3         0.0754      0.1710     -0.1612      0.0609      0.0136
         4        -0.0347      0.0519      0.0025      0.0039      0.0009
         5        -0.7026     -0.3120      0.0258      0.5917      0.1359
         6         0.0563      0.0425      0.0810      0.0115      0.0027
         7         0.0245      0.1047     -0.0159      0.0118      0.0029
         8        -0.0866      0.7254      0.0346      0.5349      0.1313
         9        -0.0315     -0.1632      0.0276      0.0284      0.0071
        10         0.1973     -1.2428      0.0654      1.5878      0.3963
        11         0.0770      0.1115      0.0444      0.0203      0.0052
        12        -0.1086      0.3978      0.0588      0.1735      0.0447
        13         0.0293      0.0204     -0.0350      0.0025      0.0007
        14         0.0353     -0.0125      0.0031      0.0014      0.0004
        15         0.0130     -0.0677     -0.0283      0.0056      0.0015
 Ground to excited state transition velocity dipole moments (Au):
       state          X           Y           Z        Dip. S.      Osc.
         1        -0.0072     -0.0487     -0.0028      0.0024      0.0059
         2        -0.0255      0.0080      0.0007      0.0007      0.0016
         3        -0.0095     -0.0040      0.0772      0.0061      0.0121
         4         0.0055      0.0027     -0.0171      0.0003      0.0007
         5         0.0713      0.0120      0.0052      0.0053      0.0102
         6         0.0020     -0.0026     -0.0330      0.0011      0.0021
         7        -0.0012      0.0004      0.0391      0.0015      0.0028
         8         0.0036     -0.0286     -0.0093      0.0009      0.0017
         9         0.0058      0.0065     -0.0082      0.0001      0.0003
        10        -0.0118      0.0590      0.0206      0.0040      0.0072
        11        -0.0105     -0.0117      0.0016      0.0002      0.0004
        12         0.0159     -0.0279      0.0402      0.0026      0.0046
        13        -0.0043     -0.0095     -0.0279      0.0009      0.0015
        14        -0.0111     -0.0009      0.0065      0.0002      0.0003
        15        -0.0047      0.0099      0.0078      0.0002      0.0003
 Ground to excited state transition magnetic dipole moments (Au):
       state          X           Y           Z
         1         0.0750      0.0173      0.2255
         2        -0.0162      0.0162      0.4529
         3        -1.5100     -0.2398     -0.0406
         4         0.2708      0.5481     -0.0408
         5        -0.1298      0.0792      0.4354
         6        -0.0402     -0.1321      0.0294
         7         0.1313      0.0257     -0.0271
         8         0.3084      0.0180     -0.0219
         9         0.0889     -0.3438      0.0272
        10        -0.0099      0.0391     -0.0360
        11         0.0250      0.5511     -0.1117
        12        -0.1283     -0.2611      0.0970
        13        -0.1631      0.0951     -0.0184
        14        -0.1829      0.2704     -0.0100
        15         0.3514     -1.4260     -0.0646
 Ground to excited state transition velocity quadrupole moments (Au):
       state          XX          YY          ZZ          XY          XZ          YZ
         1        -0.0537     -0.0098      0.0300      0.0598      0.0010      0.0049
         2        -0.0739      0.1135     -0.0080      0.2514      0.0024     -0.0019
         3         0.0290     -0.0109     -0.0107     -0.0125      0.0212     -0.2017
         4         0.0227     -0.0244     -0.0005     -0.0399     -0.0888     -0.0113
         5        -0.1410      0.1185      0.0131      0.3013     -0.0237     -0.0216
         6         0.0201     -0.0229      0.0077     -0.0223     -0.1552      0.0347
         7        -0.0094     -0.0064     -0.0053     -0.0162     -0.0714     -0.0182
         8         0.1827     -0.1018     -0.0346      0.0609      0.0049      0.0918
         9        -0.0369      0.0348      0.0036     -0.0170      0.0064     -0.0598
        10        -0.2386      0.1892      0.0433     -0.1591     -0.0291      0.0338
        11         0.0757     -0.0397     -0.0091     -0.0522     -0.0562     -0.0118
        12         0.1066     -0.0611     -0.0150      0.0649     -0.0637     -0.0410
        13         0.0032     -0.0179      0.0019     -0.0050     -0.0279     -0.1249
        14        -0.0228     -0.0008      0.0067      0.0006      0.0434     -0.0682
        15        -0.0183      0.0240      0.0018     -0.0019      0.1522      0.0417
 <0|del|b> * <b|rxdel|0> + <0|del|b> * <b|delr+rdel|0>
 Rotatory Strengths (R) in cgs (10**-40 erg-esu-cm/Gauss)
       state          XX          YY          ZZ    R(velocity)    E-M Angle
         1        -2.0717     -1.3457     -1.7995     -1.7390       99.88
         2         0.7415      0.7289      0.6190      0.6965       85.88
         3        -3.2260     14.9174     14.0854      8.5922       84.13
         4         3.2483      1.5269      2.9426      2.5726       70.70
         5         5.2021    -10.3597     -7.2316     -4.1297      100.40
         6        -0.2981     -1.7259      0.6137     -0.4701       98.62
         7        -1.6126     -0.5565     -0.1999     -0.7896      103.15
         8        -0.7118      2.1178      0.1148      0.5070       85.16
         9        -2.2325     -0.1841     -1.2524     -1.2230      116.93
        10         0.0101      2.1255      1.0429      1.0595       60.69
        11        -6.7825     -0.2162     -5.6853     -4.2280      140.72
        12        11.0044     -1.2803      7.0422      5.5888       54.53
        13        -0.4589      1.4408     -0.4241      0.1859       86.84
        14        -0.2297      2.3924      0.8768      1.0132       65.76
        15       -14.0785     -2.0455    -12.2754     -9.4664      145.41
 1/2[<0|r|b>*<b|rxdel|0> + (<0|rxdel|b>*<b|r|0>)*]
 Rotatory Strengths (R) in cgs (10**-40 erg-esu-cm/Gauss)
       state          XX          YY          ZZ     R(length)
         1       -30.2017      0.1592      0.9532     -9.6964
         2        10.2579     -0.6958    -16.6573     -2.3651
         3        80.5423     28.9916     -4.6221     34.9706
         4         6.6418    -20.1244      0.0713     -4.4704
         5       -64.4757     17.4798     -7.9352    -18.3104
         6         1.6012      3.9705     -1.6868      1.2950
         7        -2.2795     -1.9016     -0.3050     -1.4954
         8        18.8849     -9.2495      0.5360      3.3905
         9         1.9833    -39.6737     -0.5295    -12.7400
        10         1.3872     34.3387      1.6638     12.4632
        11        -1.3591    -43.4432      3.5074    -13.7650
        12        -9.8504     73.4481     -4.0329     19.8549
        13         3.3766     -1.3706     -0.4571      0.5163
        14         4.5637      2.3974      0.0222      2.3278
        15        -3.2250    -68.2688     -1.2950    -24.2629
  1/2[<0|del|b>*<b|r|0> + (<0|r|b>*<b|del|0>)*] (Au)
       state          X           Y           Z        Dip. S.   Osc.(frdel)
         1        -0.0041      0.0006      0.0000      0.0034      0.0023
         2        -0.0228      0.0005      0.0000      0.0222      0.0148
         3        -0.0007     -0.0007     -0.0124      0.0139      0.0092
         4        -0.0002      0.0001      0.0000      0.0001      0.0001
         5        -0.0501     -0.0037      0.0001      0.0537      0.0358
         6         0.0001     -0.0001     -0.0027      0.0027      0.0018
         7         0.0000      0.0000     -0.0006      0.0006      0.0004
         8        -0.0003     -0.0208     -0.0003      0.0214      0.0143
         9        -0.0002     -0.0011     -0.0002      0.0015      0.0010
        10        -0.0023     -0.0733      0.0013      0.0743      0.0495
        11        -0.0008     -0.0013      0.0001      0.0020      0.0014
        12        -0.0017     -0.0111      0.0024      0.0105      0.0070
        13        -0.0001     -0.0002      0.0010     -0.0007     -0.0004
        14        -0.0004      0.0000      0.0000      0.0004      0.0002
        15        -0.0001     -0.0007     -0.0002      0.0010      0.0006

 Excitation energies and oscillator strengths:
 
 Excited State   1:      Singlet-A      7.4334 eV  166.79 nm  f=0.0590  <S**2>=0.000
      17 -> 19        -0.37104
      18 -> 19         0.44466
      18 -> 20         0.37843
 This state for optimization and/or second-order correction.
 Total Energy, E(CIS) =  -228.458165066    
 Copying the excited state density for this state as the 1-particle RhoCI density.
 
 Excited State   2:      Singlet-A      8.0070 eV  154.84 nm  f=0.1577  <S**2>=0.000
      17 -> 19         0.35834
      18 -> 19         0.51920
      18 -> 20        -0.27695
 
 Excited State   3:      Singlet-A      9.0921 eV  136.37 nm  f=0.0136  <S**2>=0.000
      16 -> 19         0.66893
      18 -> 21         0.15933
 
 Excited State   4:      Singlet-A      9.1652 eV  135.28 nm  f=0.0009  <S**2>=0.000
      16 -> 19        -0.17589
      18 -> 21         0.65555
      18 -> 22        -0.16228
 
 Excited State   5:      Singlet-A      9.3752 eV  132.25 nm  f=0.1359  <S**2>=0.000
      17 -> 20         0.64109
      18 -> 20        -0.18677
 
 Excited State   6:      Singlet-A      9.5672 eV  129.59 nm  f=0.0027  <S**2>=0.000
      18 -> 21         0.15678
      18 -> 22         0.63854
      18 -> 23        -0.22167
 
 Excited State   7:      Singlet-A      9.8644 eV  125.69 nm  f=0.0029  <S**2>=0.000
      15 -> 19        -0.16958
      17 -> 21         0.30188
      18 -> 22         0.22062
      18 -> 23         0.55794
 
 Excited State   8:      Singlet-A     10.0180 eV  123.76 nm  f=0.1313  <S**2>=0.000
      15 -> 19         0.36751
      17 -> 19         0.21443
      17 -> 21         0.41127
      17 -> 22        -0.19001
      18 -> 20         0.23200
      18 -> 23        -0.15422
 
 Excited State   9:      Singlet-A     10.1537 eV  122.11 nm  f=0.0071  <S**2>=0.000
      15 -> 19         0.54838
      17 -> 21        -0.25965
      17 -> 22         0.12854
      18 -> 23         0.30644
 
 Excited State  10:      Singlet-A     10.1862 eV  121.72 nm  f=0.3963  <S**2>=0.000
      15 -> 19         0.13550
      17 -> 19        -0.35032
      17 -> 20        -0.16990
      17 -> 21         0.35962
      18 -> 20        -0.35700
 
 Excited State  11:      Singlet-A     10.4142 eV  119.05 nm  f=0.0052  <S**2>=0.000
      14 -> 19         0.14869
      16 -> 20         0.63613
      17 -> 22         0.21342
 
 Excited State  12:      Singlet-A     10.5067 eV  118.01 nm  f=0.0447  <S**2>=0.000
      16 -> 20        -0.20965
      17 -> 21         0.14973
      17 -> 22         0.61570
 
 Excited State  13:      Singlet-A     10.7265 eV  115.59 nm  f=0.0007  <S**2>=0.000
      18 -> 24         0.68983
 
 Excited State  14:      Singlet-A     10.9322 eV  113.41 nm  f=0.0004  <S**2>=0.000
      17 -> 23         0.67714
 
 Excited State  15:      Singlet-A     11.0753 eV  111.95 nm  f=0.0015  <S**2>=0.000
      15 -> 20         0.69070
 SavETr:  write IOETrn=   770 NScale= 10 NData=  16 NLR=1 NState=   15 LETran=     280.
 The selected state is a singlet
 CISAX will form     1 AO SS matrices at one time.
 NMat=     1 NSing=     1 JSym2X= 0.
 CISAX will form     1 AO SS matrices at one time.
 NMat=     1 NSing=     1 JSym2X= 0.
 Leave Link  914 at Tue Dec 15 16:25:28 2015, MaxMem=    33554432 cpu:        33.8
 (Enter /home/Applications/g09/g09/l1002.exe)
 Minotr:  Closed shell wavefunction.
          Computing CIS/TD-HF/TD-KS derivatives.
          Using Z-Vector for PSCF gradient.
          Skipping F1 and S1 gradient terms here.
          IDoAtm=111111111
          Frozen-core window.
          Direct CPHF calculation.
          Differentiating once with respect to electric field.
                with respect to dipole field.
          Differentiating once with respect to nuclear coordinates.
          Requested convergence is 1.0D-10 RMS, and 1.0D-09 maximum.
          NewPWx=F KeepS1=T KeepF1=T KeepIn=T MapXYZ=F SortEE=F KeepMc=T.
          MDV=      33554290 using IRadAn=       0.
 Using stored XC quadrature information.
 Keep R1 ints in memory in canonical form, NReq=1898913.
 FoFCou: FMM=F IPFlag=           0 FMFlag=           0 FMFlg1=           0
         NFxFlg=           0 DoJE=F BraDBF=F KetDBF=F FulRan=T
         wScrn=  0.000000 ICntrl=     600 IOpCl=  0 I1Cent=           0 NGrid=           0
         NMat0=    1 NMatS0=   1431 NMatT0=    0 NMatD0=    1 NMtDS0=    0 NMtDT0=    0
 Symmetry not used in FoFCou.
          Solving linear equations separately, MaxMat=       0.
          There are     1 degrees of freedom in the 1st order CPHF.  IDoFFX=0 NUNeed=     1.
 LinEq1:  Iter=  0 NonCon=     1 RMS=4.26D-02 Max=5.88D-01 NDo=     1
 AX will form     1 AO Fock derivatives at one time.
 LinEq1:  Iter=  1 NonCon=     1 RMS=1.24D-02 Max=1.46D-01 NDo=     1
 LinEq1:  Iter=  2 NonCon=     1 RMS=7.85D-03 Max=9.05D-02 NDo=     1
 LinEq1:  Iter=  3 NonCon=     1 RMS=3.92D-03 Max=3.98D-02 NDo=     1
 LinEq1:  Iter=  4 NonCon=     1 RMS=2.56D-03 Max=2.83D-02 NDo=     1
 LinEq1:  Iter=  5 NonCon=     1 RMS=7.83D-04 Max=5.69D-03 NDo=     1
 LinEq1:  Iter=  6 NonCon=     1 RMS=3.20D-04 Max=2.30D-03 NDo=     1
 LinEq1:  Iter=  7 NonCon=     1 RMS=5.78D-05 Max=3.54D-04 NDo=     1
 LinEq1:  Iter=  8 NonCon=     1 RMS=3.12D-05 Max=3.71D-04 NDo=     1
 LinEq1:  Iter=  9 NonCon=     1 RMS=7.41D-06 Max=3.92D-05 NDo=     1
 LinEq1:  Iter= 10 NonCon=     1 RMS=7.88D-07 Max=5.14D-06 NDo=     1
 LinEq1:  Iter= 11 NonCon=     1 RMS=9.03D-08 Max=5.46D-07 NDo=     1
 LinEq1:  Iter= 12 NonCon=     1 RMS=9.46D-09 Max=4.55D-08 NDo=     1
 LinEq1:  Iter= 13 NonCon=     1 RMS=1.21D-09 Max=8.60D-09 NDo=     1
 LinEq1:  Iter= 14 NonCon=     1 RMS=1.78D-10 Max=1.15D-09 NDo=     1
 LinEq1:  Iter= 15 NonCon=     0 RMS=2.12D-11 Max=1.25D-10 NDo=     1
 Linear equations converged to 1.000D-10 1.000D-09 after    15 iterations.
 End of Minotr F.D. properties file   721 does not exist.
 End of Minotr F.D. properties file   722 does not exist.
 End of Minotr F.D. properties file   788 does not exist.
 Leave Link 1002 at Tue Dec 15 16:25:38 2015, MaxMem=    33554432 cpu:         9.7
 (Enter /home/Applications/g09/g09/l601.exe)
 Copying SCF densities to generalized density rwf, IOpCl= 0 IROHF=0.

 **********************************************************************

            Population analysis using the SCF density.

 **********************************************************************

 Orbital symmetries:
       Occupied  (A) (A) (A) (A) (A) (A) (A) (A) (A) (A) (A) (A)
                 (A) (A) (A) (A) (A) (A)
       Virtual   (A) (A) (A) (A) (A) (A) (A) (A) (A) (A) (A) (A)
                 (A) (A) (A) (A) (A) (A) (A) (A) (A) (A) (A) (A)
                 (A) (A) (A) (A) (A) (A) (A) (A) (A) (A) (A)
 The electronic state is 1-A.
 Alpha  occ. eigenvalues --  -19.10840 -10.17071 -10.16689 -10.12098 -10.11450
 Alpha  occ. eigenvalues --   -1.15634  -0.80418  -0.76501  -0.61522  -0.57185
 Alpha  occ. eigenvalues --   -0.54429  -0.46566  -0.45677  -0.42986  -0.38704
 Alpha  occ. eigenvalues --   -0.35467  -0.27330  -0.23900
 Alpha virt. eigenvalues --    0.03898   0.08356   0.14302   0.15695   0.17313
 Alpha virt. eigenvalues --    0.19472   0.22291   0.25031   0.38822   0.42198
 Alpha virt. eigenvalues --    0.49371   0.68711   0.69566   0.70957   0.75480
 Alpha virt. eigenvalues --    0.76560   0.79206   0.81156   0.82947   0.84328
 Alpha virt. eigenvalues --    0.92266   0.99728   1.01424   1.04825   1.19081
 Alpha virt. eigenvalues --    1.22819   1.33886   1.38096   1.51546   1.55334
 Alpha virt. eigenvalues --    1.63878   1.75388   1.97811   2.13240   3.23808
     Molecular Orbital Coefficients:
                           1         2         3         4         5
                           O         O         O         O         O
     Eigenvalues --   -19.10840 -10.17071 -10.16689 -10.12098 -10.11450
   1 1   C  1S          0.00010  -0.00892  -0.00106   0.98281   0.07900
   2        2S          0.00032  -0.00607  -0.00051   0.11024   0.00550
   3        2PX         0.00086   0.00082  -0.00013   0.00134  -0.00040
   4        2PY         0.00106   0.00339   0.00081  -0.00166   0.00022
   5        2PZ         0.00006  -0.00003   0.00001  -0.00003  -0.00002
   6        3S         -0.00572   0.04215  -0.01529  -0.10715   0.02505
   7        3PX        -0.00513   0.00050  -0.00312  -0.02217   0.01857
   8        3PY         0.00650  -0.02207   0.00960   0.02710  -0.00500
   9        3PZ        -0.00026   0.00026  -0.00027  -0.00009   0.00018
  10 2   C  1S         -0.00044   0.98416   0.05029   0.00845   0.00114
  11        2S         -0.00053   0.10706   0.00228  -0.00446  -0.00093
  12        2PX         0.00218   0.00272  -0.00082  -0.00067  -0.00001
  13        2PY        -0.00127   0.00053  -0.00070  -0.00279  -0.00123
  14        2PZ        -0.00003  -0.00006  -0.00005   0.00001   0.00006
  15        3S          0.01707  -0.07960   0.01357   0.04667  -0.00546
  16        3PX         0.01468  -0.00853   0.01414   0.01401  -0.00268
  17        3PY         0.00373  -0.02061   0.01414   0.02444   0.00010
  18        3PZ        -0.00060   0.00021   0.00016  -0.00042  -0.00021
  19 3   O  1S          0.98286   0.00024   0.00041   0.00006   0.00006
  20        2S          0.10882   0.00184   0.00203   0.00019   0.00018
  21        2PX        -0.00025  -0.00072  -0.00020  -0.00002   0.00003
  22        2PY         0.00434   0.00068   0.00021  -0.00009  -0.00012
  23        2PZ         0.00034   0.00010   0.00007   0.00000   0.00005
  24        3S         -0.06489  -0.00129  -0.00224  -0.00310  -0.00449
  25        3PX         0.00014   0.00112  -0.00167   0.00282  -0.00184
  26        3PY        -0.01477  -0.00355  -0.00511  -0.00108  -0.00201
  27        3PZ        -0.00107  -0.00050  -0.00068  -0.00005  -0.00028
  28 4   C  1S         -0.00018  -0.05141   0.98398  -0.00012   0.00856
  29        2S          0.00013  -0.00878   0.10711  -0.00015  -0.00419
  30        2PX        -0.00194   0.00122  -0.00274   0.00016   0.00122
  31        2PY        -0.00207  -0.00035  -0.00103  -0.00077  -0.00256
  32        2PZ        -0.00016  -0.00010  -0.00041   0.00001   0.00002
  33        3S          0.02173   0.02195  -0.07352  -0.01262   0.04403
  34        3PX        -0.01875  -0.02060   0.00754   0.00524  -0.01914
  35        3PY        -0.00296   0.01019  -0.01537  -0.00191   0.01840
  36        3PZ        -0.00091   0.00015   0.00127   0.00030  -0.00069
  37 5   C  1S          0.00011  -0.00003  -0.00891  -0.07965   0.98277
  38        2S          0.00035   0.00013  -0.00552  -0.01222   0.10955
  39        2PX        -0.00122   0.00014  -0.00174   0.00036  -0.00088
  40        2PY         0.00077   0.00045   0.00294   0.00062  -0.00188
  41        2PZ         0.00000   0.00002  -0.00009  -0.00001   0.00016
  42        3S         -0.00716  -0.02018   0.03535   0.04149  -0.10027
  43        3PX         0.00490   0.00114   0.00695  -0.01809   0.01145
  44        3PY         0.00887   0.01275  -0.01715  -0.01410   0.02958
  45        3PZ        -0.00004  -0.00074   0.00048   0.00037  -0.00125
  46 6   H  1S         -0.00103  -0.00047  -0.00115   0.00006  -0.00388
  47        2S         -0.00335  -0.00194   0.00133   0.00371   0.00466
  48 7   H  1S          0.00034   0.00173  -0.00360   0.00003  -0.00043
  49        2S          0.00492   0.00818   0.01098  -0.00008   0.00573
  50 8   H  1S          0.00042  -0.00355   0.00131  -0.00023  -0.00009
  51        2S          0.00408   0.00777   0.00819   0.00581   0.00055
  52 9   H  1S         -0.00088  -0.00106  -0.00046  -0.00399  -0.00047
  53        2S         -0.00278   0.00248  -0.00137   0.00410   0.00495
                           6         7         8         9        10
                           O         O         O         O         O
     Eigenvalues --    -1.15634  -0.80418  -0.76501  -0.61522  -0.57185
   1 1   C  1S         -0.02612  -0.15685   0.02837  -0.11248   0.03801
   2        2S          0.02641   0.16752  -0.03269   0.11557  -0.03616
   3        2PX         0.01432   0.04279   0.05470  -0.11255  -0.11295
   4        2PY        -0.03113  -0.08103   0.06844  -0.03036  -0.08138
   5        2PZ        -0.00027  -0.00010   0.00006  -0.00135   0.00268
   6        3S          0.04441   0.30987  -0.03242   0.37114  -0.12272
   7        3PX         0.02514   0.03273  -0.00870  -0.02729  -0.06209
   8        3PY        -0.03520  -0.03016  -0.01924  -0.03852  -0.01126
   9        3PZ         0.00105  -0.00070   0.00115  -0.00059   0.00101
  10 2   C  1S         -0.06717  -0.09827   0.12763   0.00428  -0.10123
  11        2S          0.07464   0.11202  -0.13593   0.00075   0.11043
  12        2PX         0.07940   0.00723  -0.04339  -0.10073  -0.15743
  13        2PY        -0.00965   0.12936   0.03013   0.19886  -0.05927
  14        2PZ        -0.00250  -0.00124   0.00443   0.00375   0.00254
  15        3S          0.04398   0.17332  -0.32407  -0.06658   0.33229
  16        3PX        -0.03684   0.00842  -0.01914  -0.05311  -0.08983
  17        3PY        -0.02293   0.04534  -0.02969   0.04147  -0.03551
  18        3PZ         0.00116  -0.00012   0.00094   0.00182   0.00113
  19 3   O  1S         -0.20972   0.08515   0.03640   0.00490   0.02872
  20        2S          0.18874  -0.08315  -0.03284  -0.00221  -0.02939
  21        2PX         0.00629  -0.07456   0.21488   0.26781  -0.00717
  22        2PY         0.11948   0.01708   0.04492   0.02804  -0.07537
  23        2PZ         0.00864  -0.00327  -0.00003   0.00307  -0.00288
  24        3S          0.67486  -0.30947  -0.13758  -0.02315  -0.13595
  25        3PX        -0.00245  -0.05867   0.17883   0.23364  -0.00418
  26        3PY         0.14973   0.00358   0.02552   0.01877  -0.07034
  27        3PZ         0.01121  -0.00274  -0.00016   0.00195  -0.00181
  28 4   C  1S         -0.09041  -0.01320  -0.15421  -0.01374  -0.09558
  29        2S          0.09810   0.01938   0.17119   0.01388   0.10485
  30        2PX        -0.09606  -0.01056  -0.03324  -0.00806   0.20439
  31        2PY        -0.05515   0.14072   0.02875  -0.23303   0.01749
  32        2PZ        -0.00636   0.00177  -0.01120  -0.00548  -0.00427
  33        3S          0.04521  -0.00972   0.35197   0.07508   0.31405
  34        3PX         0.06582  -0.01087  -0.02686  -0.00709   0.11548
  35        3PY        -0.00320   0.02127   0.05161  -0.06028   0.00034
  36        3PZ         0.00082  -0.00003  -0.00485  -0.00231  -0.00525
  37 5   C  1S         -0.02834  -0.11982  -0.10713   0.10299   0.02848
  38        2S          0.02821   0.12607   0.11568  -0.10524  -0.02700
  39        2PX        -0.00381  -0.05122   0.04907  -0.09274   0.14117
  40        2PY        -0.03771  -0.05204  -0.07903   0.02424  -0.04030
  41        2PZ         0.00038   0.00335   0.00307  -0.00464   0.00060
  42        3S          0.06003   0.24572   0.19795  -0.33406  -0.08679
  43        3PX        -0.02825  -0.00767  -0.02377  -0.02238   0.06587
  44        3PY        -0.05165  -0.04122  -0.00049   0.04284   0.00477
  45        3PZ         0.00101   0.00266   0.00015  -0.00336   0.00116
  46 6   H  1S          0.00808   0.04620   0.04831  -0.08627  -0.01131
  47        2S          0.01927   0.01332   0.01009  -0.04717  -0.01405
  48 7   H  1S          0.01527  -0.00367   0.08663   0.03626   0.17996
  49        2S         -0.03346  -0.00014   0.02921   0.02234   0.08424
  50 8   H  1S          0.00983   0.03459  -0.07053  -0.01747   0.16546
  51        2S         -0.02298   0.00928  -0.02564  -0.02042   0.08212
  52 9   H  1S          0.00704   0.06392  -0.01416   0.11228  -0.02272
  53        2S          0.01433   0.01578  -0.00053   0.05688  -0.02148
                          11        12        13        14        15
                           O         O         O         O         O
     Eigenvalues --    -0.54429  -0.46566  -0.45677  -0.42986  -0.38704
   1 1   C  1S         -0.05067   0.01262  -0.04449  -0.01159   0.02243
   2        2S          0.04696  -0.01366   0.04754   0.00695  -0.02046
   3        2PX        -0.04537   0.00715  -0.00563  -0.12925  -0.32090
   4        2PY         0.22181   0.00757   0.00357   0.26874  -0.06377
   5        2PZ        -0.00857   0.09934   0.02792  -0.00951  -0.00186
   6        3S          0.21820  -0.03551   0.15447   0.06542  -0.12955
   7        3PX        -0.05105   0.00815  -0.00282  -0.10941  -0.21478
   8        3PY         0.10553  -0.00085   0.01290   0.13922   0.00018
   9        3PZ        -0.00578   0.07060   0.01976  -0.00578  -0.00253
  10 2   C  1S          0.03472  -0.01153   0.03157   0.03798  -0.00856
  11        2S         -0.04124   0.01164  -0.03145  -0.04661   0.01352
  12        2PX        -0.06342  -0.07031   0.25070  -0.05260   0.07219
  13        2PY        -0.12001  -0.03287   0.07741  -0.20288   0.13068
  14        2PZ        -0.00379   0.16983   0.04299  -0.00053  -0.00296
  15        3S         -0.08338   0.03861  -0.11467  -0.12857   0.04995
  16        3PX        -0.04095  -0.04749   0.16543  -0.04442   0.04931
  17        3PY        -0.11322  -0.02057   0.04514  -0.11743   0.13887
  18        3PZ        -0.00228   0.15266   0.04259   0.00048  -0.00083
  19 3   O  1S         -0.06293   0.00700  -0.00816   0.00360  -0.00354
  20        2S          0.06251  -0.00605   0.00596  -0.00469  -0.00109
  21        2PX        -0.00039   0.06525  -0.21574  -0.07506  -0.03631
  22        2PY        -0.18252   0.00963  -0.07372   0.03660   0.16813
  23        2PZ        -0.00916   0.36669   0.11208   0.00499   0.01231
  24        3S          0.24702  -0.02931   0.03090  -0.00829   0.05563
  25        3PX         0.00097   0.06069  -0.20170  -0.08109  -0.03641
  26        3PY        -0.16647   0.00575  -0.06530   0.03539   0.17464
  27        3PZ        -0.00934   0.36592   0.11351   0.00541   0.01454
  28 4   C  1S          0.03814   0.00201  -0.02249  -0.04100  -0.00319
  29        2S         -0.04531  -0.00013   0.01746   0.05021   0.00575
  30        2PX         0.11619  -0.08155   0.25530  -0.11805  -0.07110
  31        2PY        -0.06503  -0.02290   0.02750   0.18007   0.06124
  32        2PZ        -0.00060   0.20082   0.07053   0.00217   0.00179
  33        3S         -0.09694  -0.01052   0.09490   0.14954   0.02167
  34        3PX         0.08543  -0.06081   0.14795  -0.08634  -0.05141
  35        3PY        -0.08852  -0.00117  -0.00913   0.12511   0.09879
  36        3PZ        -0.00226   0.17440   0.05834   0.00217   0.00347
  37 5   C  1S         -0.06321  -0.01369   0.04399   0.01997   0.01840
  38        2S          0.05919   0.01577  -0.04680  -0.01557  -0.01818
  39        2PX        -0.00438   0.00027  -0.02300   0.02124   0.32400
  40        2PY         0.22245   0.02293  -0.03354  -0.25548   0.09734
  41        2PZ        -0.00587   0.10343   0.03437   0.00810  -0.00082
  42        3S          0.26424   0.03623  -0.14218  -0.10664  -0.09943
  43        3PX         0.02092   0.00547   0.00027  -0.02827   0.20278
  44        3PY         0.10757   0.02866  -0.02987  -0.13436   0.09674
  45        3PZ        -0.00083   0.07114   0.02527   0.00349  -0.00289
  46 6   H  1S          0.15182   0.02713  -0.07443  -0.16629   0.15028
  47        2S          0.08565   0.01324  -0.05289  -0.13881   0.14153
  48 7   H  1S          0.02771  -0.05246   0.17762  -0.05879  -0.06648
  49        2S          0.00466  -0.03036   0.13511  -0.05220  -0.05851
  50 8   H  1S          0.02701   0.06135  -0.19404   0.05879  -0.09815
  51        2S          0.00646   0.04514  -0.14852   0.05527  -0.09094
  52 9   H  1S          0.14130  -0.01605   0.05395   0.20471   0.10627
  53        2S          0.07678  -0.00714   0.03189   0.17343   0.09493
                          16        17        18        19        20
                           O         O         O         V         V
     Eigenvalues --    -0.35467  -0.27330  -0.23900   0.03898   0.08356
   1 1   C  1S          0.01770  -0.00050  -0.00168   0.00497   0.00243
   2        2S         -0.01866   0.00053   0.00094  -0.00494  -0.00184
   3        2PX         0.06171  -0.00192  -0.00233   0.00218   0.01410
   4        2PY         0.15616   0.02109   0.00215  -0.00380  -0.01310
   5        2PZ        -0.02070   0.33091   0.10458  -0.20347  -0.32099
   6        3S         -0.13153  -0.01045   0.02174  -0.05072  -0.00532
   7        3PX         0.09120   0.00101   0.00131   0.01076   0.04879
   8        3PY         0.11815   0.01947  -0.00281  -0.01128  -0.04235
   9        3PZ        -0.01733   0.34157   0.09622  -0.38282  -0.64211
  10 2   C  1S         -0.02119  -0.00052  -0.00111  -0.00303  -0.00385
  11        2S          0.02494  -0.00015   0.00201  -0.00089   0.00660
  12        2PX         0.07239   0.00654   0.01197   0.01011   0.01907
  13        2PY        -0.17916  -0.00920  -0.00071   0.00040  -0.00112
  14        2PZ        -0.01016   0.18227   0.29484   0.33024   0.19118
  15        3S          0.09612   0.01075  -0.00217   0.03233   0.00320
  16        3PX         0.01666   0.00453   0.00678   0.03004   0.02164
  17        3PY         0.00154   0.00655  -0.00918   0.00720  -0.01934
  18        3PZ        -0.00595   0.14294   0.32656   0.52964   0.40478
  19 3   O  1S          0.06802  -0.00094  -0.00063   0.00162  -0.00094
  20        2S         -0.06741   0.00071   0.00118  -0.00263   0.00114
  21        2PX        -0.08034  -0.00540  -0.00260   0.00196   0.02013
  22        2PY         0.39774   0.03556  -0.01272   0.00096  -0.00133
  23        2PZ         0.01877  -0.28793   0.10605  -0.28755   0.03755
  24        3S         -0.25113   0.00890  -0.00125  -0.00946   0.00568
  25        3PX        -0.08863  -0.00569  -0.00677   0.00655   0.03446
  26        3PY         0.43170   0.03863  -0.01613   0.00298  -0.00238
  27        3PZ         0.02206  -0.32804   0.12959  -0.41716   0.06277
  28 4   C  1S         -0.01815   0.00079   0.00708  -0.00777   0.01154
  29        2S          0.02323  -0.00193  -0.00853   0.00164  -0.00813
  30        2PX         0.04406   0.00560   0.00555   0.00488   0.00090
  31        2PY        -0.21001  -0.00501   0.01082  -0.00369   0.01581
  32        2PZ        -0.01269  -0.02655  -0.31531   0.30442  -0.25131
  33        3S          0.05865   0.00398  -0.02077   0.07474  -0.10242
  34        3PX         0.04392   0.00357  -0.00752   0.02273  -0.02040
  35        3PY        -0.00668   0.01160   0.00935  -0.01020   0.03601
  36        3PZ        -0.00686  -0.05934  -0.31568   0.48286  -0.48513
  37 5   C  1S          0.02858   0.00491  -0.00277   0.00352   0.00251
  38        2S         -0.02981  -0.00572   0.00461  -0.00581   0.00300
  39        2PX        -0.10456  -0.00318   0.00755  -0.00277   0.00304
  40        2PY         0.17064   0.01738  -0.01602   0.00647  -0.00169
  41        2PZ        -0.02357   0.21415  -0.28042  -0.13485   0.34425
  42        3S         -0.16879  -0.02879  -0.00200  -0.01554  -0.06292
  43        3PX        -0.11041  -0.01262   0.01283  -0.01441   0.02152
  44        3PY         0.10910   0.01460  -0.00162  -0.00930   0.01737
  45        3PZ        -0.02265   0.22977  -0.29532  -0.25435   0.69042
  46 6   H  1S          0.04926   0.00369  -0.00407   0.00297   0.00354
  47        2S          0.07756   0.00854  -0.01046   0.02204   0.01466
  48 7   H  1S          0.11784   0.00747   0.00369  -0.01411   0.01426
  49        2S          0.11917   0.01004   0.00735  -0.05048   0.07544
  50 8   H  1S          0.07058   0.00281  -0.00523  -0.00028   0.00222
  51        2S          0.07791   0.00497  -0.00962   0.00655   0.00695
  52 9   H  1S          0.03625   0.00387   0.00251   0.00856   0.01261
  53        2S          0.06400   0.00861   0.00437   0.03515   0.06210
                          21        22        23        24        25
                           V         V         V         V         V
     Eigenvalues --     0.14302   0.15695   0.17313   0.19472   0.22291
   1 1   C  1S          0.03634  -0.02576  -0.07056  -0.10404   0.06402
   2        2S         -0.01357   0.02740   0.05910   0.07922  -0.00931
   3        2PX         0.11045  -0.08561   0.07818  -0.05023  -0.03559
   4        2PY        -0.14919   0.03676   0.01304   0.14979  -0.07751
   5        2PZ         0.02241  -0.01365  -0.00123  -0.01293  -0.00763
   6        3S         -0.59218   0.15639   0.53848   1.10981  -1.27946
   7        3PX         0.30339  -0.43223   0.09332  -0.40842  -0.47851
   8        3PY        -0.37967   0.19362   0.25571   0.80739  -0.14260
   9        3PZ         0.06242  -0.03947  -0.01321  -0.04618  -0.01504
  10 2   C  1S          0.05845   0.11350   0.04996   0.00966   0.04940
  11        2S         -0.03819  -0.08822  -0.03340  -0.02643  -0.04650
  12        2PX         0.17396  -0.14191   0.22406  -0.04820  -0.14973
  13        2PY         0.08387   0.17668   0.09565  -0.06158   0.11534
  14        2PZ        -0.01478   0.01866  -0.00394   0.00335   0.01091
  15        3S         -0.80237  -0.98330  -0.61875   0.26780  -0.33858
  16        3PX         0.47697  -0.11235   0.84536   0.13786  -0.32873
  17        3PY         0.20944   0.57774   0.39140  -0.07921   0.47003
  18        3PZ        -0.04218   0.03791  -0.00853   0.01396   0.02938
  19 3   O  1S          0.01417  -0.09995  -0.00926   0.00345  -0.03004
  20        2S         -0.00809   0.07093   0.00698  -0.00324   0.01045
  21        2PX         0.02205  -0.13324   0.04879  -0.00372  -0.23243
  22        2PY        -0.07537   0.11695   0.03674  -0.01189  -0.02335
  23        2PZ        -0.00194   0.00360   0.00744  -0.00106   0.01274
  24        3S         -0.14089   0.82741   0.09044  -0.01673   0.33261
  25        3PX         0.04580  -0.22558   0.14133   0.07057  -0.47439
  26        3PY        -0.14825   0.18290   0.07285  -0.00816   0.00645
  27        3PZ        -0.00406   0.00711   0.01651  -0.00195   0.02885
  28 4   C  1S          0.04003   0.07091  -0.03392  -0.02136  -0.10623
  29        2S         -0.02565  -0.05228   0.02432   0.03702   0.07266
  30        2PX        -0.09802  -0.04853   0.23378  -0.05888   0.12650
  31        2PY         0.02062   0.12143  -0.02230   0.05182  -0.01641
  32        2PZ         0.01267   0.02299  -0.01140  -0.00282  -0.02906
  33        3S         -0.60344  -0.68764   0.51971  -0.15752   1.50710
  34        3PX        -0.24356  -0.38362   0.85966   0.13839   0.60636
  35        3PY        -0.03333   0.47469  -0.05542   0.10091   0.02290
  36        3PZ         0.03500   0.04947  -0.03285   0.00739  -0.09197
  37 5   C  1S          0.04984  -0.03612   0.02957   0.11362   0.01314
  38        2S         -0.02899   0.02462  -0.03233  -0.08396  -0.02178
  39        2PX        -0.03411  -0.04698   0.15872  -0.01407  -0.23852
  40        2PY        -0.14908   0.05409   0.10083  -0.17529  -0.01961
  41        2PZ        -0.01259  -0.00323   0.00124   0.00087   0.01326
  42        3S         -0.60747   0.28828  -0.02252  -1.20166  -0.10815
  43        3PX        -0.07494  -0.11195   0.38465  -0.20179  -1.22914
  44        3PY        -0.47057   0.26720   0.10454  -0.92333  -0.16074
  45        3PZ        -0.03230  -0.02392   0.01969   0.01398   0.04458
  46 6   H  1S          0.07325  -0.03490  -0.02619   0.04942   0.02321
  47        2S          0.94578  -0.40470  -0.39052   1.57469   0.79588
  48 7   H  1S          0.03292   0.08052  -0.06429  -0.01645   0.03759
  49        2S          0.62303   1.01311  -1.27969  -0.01844  -1.28845
  50 8   H  1S          0.06874   0.05251   0.07406   0.01419  -0.02385
  51        2S          1.06622   0.82144   1.36569  -0.08120   0.16213
  52 9   H  1S          0.07826  -0.07005  -0.00473  -0.04408  -0.05776
  53        2S          0.99993  -0.68913  -0.35357  -1.47434   0.27649
                          26        27        28        29        30
                           V         V         V         V         V
     Eigenvalues --     0.25031   0.38822   0.42198   0.49371   0.68711
   1 1   C  1S         -0.01833   0.08351  -0.01469  -0.11515  -0.05111
   2        2S          0.01138  -0.01588  -0.01709   0.02552  -0.09639
   3        2PX        -0.26803  -0.12309  -0.17532   0.15070   0.44895
   4        2PY        -0.03601   0.07212  -0.18590  -0.15935   0.37418
   5        2PZ        -0.01181  -0.00636   0.01393   0.00074   0.04486
   6        3S          0.54146  -1.83781   1.02791   3.08640   0.34438
   7        3PX        -1.27555  -0.16766  -0.82321   1.67528  -0.26371
   8        3PY        -0.31367   1.70687  -1.57574  -1.68380  -0.89086
   9        3PZ        -0.02676  -0.01878   0.05150   0.01852  -0.01234
  10 2   C  1S          0.05093  -0.08640   0.02482   0.09892  -0.01201
  11        2S         -0.03358   0.00140   0.00196  -0.03856  -0.10631
  12        2PX         0.15374   0.12057   0.06944  -0.30721   0.38482
  13        2PY        -0.07752   0.22427  -0.09657   0.13752  -0.50940
  14        2PZ         0.00256  -0.01179  -0.00421   0.00284   0.08700
  15        3S         -0.98646   1.95781  -1.24646  -2.13016  -0.58726
  16        3PX         0.62578   0.89000   0.44497  -1.12836  -0.53264
  17        3PY        -0.48146   1.42485  -1.69619  -1.61283   0.32305
  18        3PZ         0.01639  -0.04433  -0.02131   0.02896  -0.07659
  19 3   O  1S          0.09365   0.05755  -0.01241   0.02193   0.01890
  20        2S         -0.04280  -0.01668   0.00211   0.00070  -0.05482
  21        2PX        -0.12062   0.04028   0.23751  -0.24916   0.11525
  22        2PY        -0.06757  -0.13661   0.02043  -0.02895  -0.11879
  23        2PZ        -0.01346  -0.00094   0.00407  -0.00488   0.00751
  24        3S         -1.02588  -0.82792   0.22317  -0.39030   0.08473
  25        3PX        -0.26151   0.09417   0.67448  -0.52130  -0.10045
  26        3PY        -0.23511  -0.50318   0.09262  -0.19197  -0.12432
  27        3PZ        -0.03564  -0.00948   0.01466  -0.01250   0.03110
  28 4   C  1S         -0.03496  -0.07614  -0.02612  -0.11206  -0.04816
  29        2S          0.03153  -0.00981   0.02310   0.01548   0.02025
  30        2PX        -0.15005  -0.15603   0.01125  -0.22980  -0.06662
  31        2PY        -0.17927   0.21763   0.11576  -0.13749   0.11777
  32        2PZ        -0.01519  -0.00153   0.00525   0.00572   0.13409
  33        3S          0.09466   1.75700   1.13339   2.44508   0.93605
  34        3PX        -0.38812  -1.17339  -0.00312  -1.82187  -0.53637
[...]
               1          2          3          4          5          6
     1  C    5.249651   0.456311  -0.093000  -0.125112   0.452558  -0.027111
     2  C    0.456311   5.081581   0.306700  -0.150949  -0.141095   0.005183
     3  O   -0.093000   0.306700   8.165385   0.278722  -0.089752   0.002892
     4  C   -0.125112  -0.150949   0.278722   4.991389   0.471998  -0.028204
     5  C    0.452558  -0.141095  -0.089752   0.471998   5.272474   0.380331
     6  H   -0.027111   0.005183   0.002892  -0.028204   0.380331   0.489622
     7  H    0.003127   0.004674  -0.035204   0.391571  -0.047942  -0.000523
     8  H   -0.041770   0.386782  -0.025073   0.003276   0.003157  -0.000029
     9  H    0.384052  -0.032249   0.002491   0.004409  -0.022605  -0.000752
               7          8          9
     1  C    0.003127  -0.041770   0.384052
     2  C    0.004674   0.386782  -0.032249
     3  O   -0.035204  -0.025073   0.002491
     4  C    0.391571   0.003276   0.004409
     5  C   -0.047942   0.003157  -0.022605
     6  H   -0.000523  -0.000029  -0.000752
     7  H    0.463146  -0.000029  -0.000016
     8  H   -0.000029   0.457736  -0.000540
     9  H   -0.000016  -0.000540   0.476456
 Mulliken charges:
               1
     1  C   -0.258705
     2  C    0.083061
     3  O   -0.513160
     4  C    0.162899
     5  C   -0.279125
     6  H    0.178591
     7  H    0.221194
     8  H    0.216490
     9  H    0.188754
 Sum of Mulliken charges =   0.00000
 Mulliken charges with hydrogens summed into heavy atoms:
               1
     1  C   -0.069950
     2  C    0.299551
     3  O   -0.513160
     4  C    0.384093
     5  C   -0.100534
 Electronic spatial extent (au):  <R**2>=            283.1316
 Charge=              0.0000 electrons
 Dipole moment (field-independent basis, Debye):
    X=             -0.1877    Y=              0.5226    Z=             -0.0132  Tot=              0.5554
 Quadrupole moment (field-independent basis, Debye-Ang):
   XX=            -23.6903   YY=            -27.9865   ZZ=            -31.5043
   XY=              0.4905   XZ=             -0.0405   YZ=             -0.1863
 Traceless Quadrupole moment (field-independent basis, Debye-Ang):
   XX=              4.0368   YY=             -0.2595   ZZ=             -3.7772
   XY=              0.4905   XZ=             -0.0405   YZ=             -0.1863
 Octapole moment (field-independent basis, Debye-Ang**2):
  XXX=              1.4285  YYY=              1.1845  ZZZ=             -0.3274  XYY=             -1.7183
  XXY=             -3.8240  XXZ=             -0.2653  XZZ=              0.7161  YZZ=             -3.4192
  YYZ=             -0.1937  XYZ=              0.1902
 Hexadecapole moment (field-independent basis, Debye-Ang**3):
 XXXX=           -156.6677 YYYY=           -148.1369 ZZZZ=            -30.5255 XXXY=             -2.0847
 XXXZ=             -0.4535 YYYX=              2.7241 YYYZ=             -0.4483 ZZZX=             -0.0861
 ZZZY=              0.1126 XXYY=            -45.3533 XXZZ=            -38.7701 YYZZ=            -32.8541
 XXYZ=             -0.2019 YYXZ=              0.0971 ZZXY=             -0.8003
 N-N= 1.638434667855D+02 E-N=-8.605176743429D+02  KE= 2.273271688409D+02
 Orbital energies and kinetic energies (alpha):
                                 1                 2
   1         O               -19.108404         28.827294
   2         O               -10.170706         15.799432
   3         O               -10.166888         15.793473
   4         O               -10.120977         15.804259
   5         O               -10.114502         15.805134
   6         O                -1.156340          2.547098
   7         O                -0.804184          1.821793
   8         O                -0.765007          1.885047
   9         O                -0.615219          1.742534
  10         O                -0.571854          1.285645
  11         O                -0.544293          1.409346
  12         O                -0.465662          1.597701
  13         O                -0.456766          1.487573
  14         O                -0.429864          1.374701
  15         O                -0.387037          1.435527
  16         O                -0.354668          2.270008
  17         O                -0.273295          1.507196
  18         O                -0.238995          1.269823
  19         V                 0.038979          1.825248
  20         V                 0.083555          1.499546
  21         V                 0.143025          1.083885
  22         V                 0.156945          1.894544
  23         V                 0.173135          1.239709
  24         V                 0.194718          1.266970
  25         V                 0.222914          1.724598
  26         V                 0.250306          1.778319
  27         V                 0.388217          1.887565
  28         V                 0.421980          1.669049
  29         V                 0.493712          2.886938
  30         V                 0.687115          2.609578
  31         V                 0.695657          2.487071
  32         V                 0.709565          2.696427
  33         V                 0.754797          2.412572
  34         V                 0.765602          2.494349
  35         V                 0.792064          2.617957
  36         V                 0.811556          2.766910
  37         V                 0.829470          2.944038
  38         V                 0.843285          2.622011
  39         V                 0.922664          2.786700
  40         V                 0.997279          3.123859
  41         V                 1.014237          3.282566
  42         V                 1.048255          3.288634
  43         V                 1.190810          2.754910
  44         V                 1.228191          2.938696
  45         V                 1.338864          2.570065
  46         V                 1.380957          2.995782
  47         V                 1.515461          4.892766
  48         V                 1.553338          3.397567
  49         V                 1.638780          3.927876
  50         V                 1.753877          4.222379
  51         V                 1.978114          4.091114
  52         V                 2.132399          4.242507
  53         V                 3.238084          6.842366
 Total kinetic energy from orbitals= 2.273271688409D+02
 No NMR shielding tensors so no spin-rotation constants.
 Leave Link  601 at Tue Dec 15 16:25:38 2015, MaxMem=    33554432 cpu:         0.1
 (Enter /home/Applications/g09/g09/l701.exe)
 Compute integral first derivatives.
 ... and contract with generalized density number  6.
 Leave Link  701 at Tue Dec 15 16:25:38 2015, MaxMem=    33554432 cpu:         0.1
 (Enter /home/Applications/g09/g09/l702.exe)
 L702 exits ... SP integral derivatives will be done elsewhere.
 Leave Link  702 at Tue Dec 15 16:25:38 2015, MaxMem=    33554432 cpu:         0.0
 (Enter /home/Applications/g09/g09/l703.exe)
 Compute integral first derivatives, UseDBF=F ICtDFT=           0.
 Integral derivatives from FoFJK, PRISM(SPDF).
 Calling FoFJK, ICntrl=  10005127 FMM=F ISym2X=0 I1Cent= 0 IOpClX= 0 NMat=1 NMatS=1 NMatT=0.
 FoFJK:  IHMeth= 1 ICntrl=10005127 DoSepK=F KAlg= 0 I1Cent=   0 FoldK=F
 IRaf=         0 NMat=   1 IRICut=       1 DoRegI=T DoRafI=F ISym2E= 0.
 FoFCou: FMM=F IPFlag=           0 FMFlag=      100000 FMFlg1=         800
         NFxFlg=           0 DoJE=F BraDBF=F KetDBF=F FulRan=T
         wScrn=  0.000000 ICntrl=10005127 IOpCl=  0 I1Cent=           0 NGrid=           0
         NMat0=    1 NMatS0=      1 NMatT0=    0 NMatD0=    1 NMtDS0=    0 NMtDT0=    0
 Symmetry not used in FoFCou.
 Leave Link  703 at Tue Dec 15 16:25:40 2015, MaxMem=    33554432 cpu:         1.6
 (Enter /home/Applications/g09/g09/l716.exe)
 Dipole        = 6.07132258D-01 3.92647439D-01-3.95943684D-02
 ***** Axes restored to original set *****
 -------------------------------------------------------------------
 Center     Atomic                   Forces (Hartrees/Bohr)
 Number     Number              X              Y              Z
 -------------------------------------------------------------------
      1        6           0.133382152    0.020736880    0.001476813
      2        6          -0.075944077   -0.112297953   -0.004890311
      3        8          -0.133235646   -0.010134157    0.007774752
      4        6          -0.037551903    0.097984148   -0.002517472
      5        6           0.116127763   -0.029271375   -0.005175961
      6        1          -0.000799434    0.004558706    0.000695628
      7        1          -0.012055925    0.022626977    0.000732433
      8        1           0.000917860    0.008814265   -0.000969473
      9        1           0.009159211   -0.003017489    0.002873592
 -------------------------------------------------------------------
 Cartesian Forces:  Max     0.133382152 RMS     0.054700282
 Z-matrix is all fixed cartesians, so copy forces.
 Force constants in Cartesian coordinates: 
                1             2             3             4             5 
      1  0.103322D+01
      2 -0.165205D-01  0.743775D+00
      3  0.159156D-01 -0.489209D-03  0.212737D+00
      4 -0.613139D+00 -0.127811D+00 -0.535041D-02  0.101528D+01
      5 -0.104401D+00 -0.229757D+00 -0.268753D-02  0.587586D-01  0.893092D+00
      6 -0.165312D-02 -0.230490D-02 -0.120771D+00 -0.717356D-02  0.204101D-01
      7 -0.852053D-02  0.310486D-01  0.207004D-02 -0.263735D+00  0.149493D+00
      8 -0.573360D-02  0.209631D-01  0.460319D-03  0.197071D+00 -0.374619D+00
      9  0.209040D-03 -0.390041D-03  0.534037D-02  0.141660D-01 -0.139099D-01
     10  0.901781D-02  0.655633D-04  0.248422D-03  0.266140D-01  0.181045D-01
     11  0.343395D-01  0.189317D-03  0.255276D-02 -0.192989D-01 -0.131352D-01
     12  0.770664D-03  0.142584D-03 -0.172029D-03 -0.197166D-02 -0.142471D-02
     13 -0.155159D+00  0.131506D-01 -0.213500D-02  0.950332D-02 -0.346673D-01
     14 -0.100028D-01 -0.337864D+00 -0.479957D-02  0.222586D-04 -0.218054D-03
     15 -0.206935D-02 -0.435681D-02 -0.689984D-01 -0.419370D-03 -0.374219D-03
     16  0.160666D-01  0.102457D-03 -0.913990D-04  0.000000D+00  0.000000D+00
     17 -0.230347D-01 -0.145570D-03  0.120815D-04  0.000000D+00  0.000000D+00
     18 -0.699044D-03 -0.145867D-03  0.127189D-01 -0.113965D-04 -0.262323D-04
     19  0.130380D-04  0.444382D-05 -0.392166D-03  0.696011D-04  0.547310D-05
     20  0.207639D-04  0.707708D-05 -0.624550D-03 -0.562570D-05  0.000000D+00
     21 -0.250144D-03 -0.852581D-04  0.752401D-02  0.664209D-03  0.522302D-04
     22  0.734785D-02 -0.268252D-01 -0.226365D-03 -0.169566D+00 -0.105710D+00
     23 -0.397357D-02  0.145199D-01 -0.341778D-03 -0.101876D+00 -0.300417D+00
     24 -0.424885D-03  0.493257D-03  0.366891D-01  0.425099D-03 -0.228208D-02
     25 -0.288852D+00  0.126785D+00 -0.100388D-01 -0.503039D-02  0.184162D-01
     26  0.129306D+00 -0.211687D+00  0.591748D-02 -0.686065D-02  0.250540D-01
     27 -0.117988D-01  0.713625D-02 -0.850679D-01 -0.328913D-03  0.242301D-03
                6             7             8             9            10 
      6  0.222300D+00
      7  0.136905D-01  0.608779D+00
      8 -0.167716D-01  0.114929D+00  0.883159D+00
      9 -0.548501D-01 -0.413869D-01 -0.142241D-01  0.756449D-01
     10 -0.313130D-02 -0.374139D+00 -0.309515D+00  0.314471D-01  0.109916D+01
     11  0.245726D-02 -0.262816D+00 -0.536277D+00  0.307541D-01  0.586488D-01
     12  0.536309D-03  0.263445D-01  0.305156D-01 -0.602779D-01 -0.190986D-01
     13 -0.487231D-03 -0.865869D-02  0.618171D-02 -0.764367D-03 -0.582958D+00
     14 -0.467224D-03 -0.325014D-01  0.233164D-01 -0.124426D-02  0.115919D+00
     15 -0.373056D-02  0.326628D-02 -0.115293D-02  0.983165D-02 -0.195763D-01
     16  0.288350D-05  0.224583D-05 -0.158007D-04 -0.211715D-03 -0.456984D-02
     17 -0.261422D-04 -0.233624D-05  0.164369D-04  0.220238D-03  0.657026D-02
     18  0.235222D-02 -0.945433D-04  0.665168D-03  0.891261D-02 -0.177388D-02
     19  0.829879D-03  0.243350D-01 -0.177303D-01 -0.306671D-02 -0.173143D+00
     20 -0.670773D-04  0.117095D-01 -0.854087D-02 -0.161630D-02  0.110218D+00
     21  0.791960D-02 -0.256697D-02  0.203204D-02  0.273829D-02  0.115505D-01
     22 -0.446620D-03  0.219383D-01  0.148046D-01 -0.233319D-03  0.127139D-04
     23 -0.318418D-02 -0.118626D-01 -0.800257D-02  0.732869D-04 -0.121296D-04
     24 -0.869965D-01 -0.136423D-02 -0.112933D-02  0.419213D-02  0.414403D-03
     25 -0.163143D-02  0.000000D+00  0.742707D-05 -0.159152D-03  0.453520D-05
     26 -0.462499D-04  0.164432D-05 -0.157223D-04  0.336907D-03  0.000000D+00
     27  0.332395D-01  0.413298D-04 -0.395178D-03  0.846810D-02 -0.802688D-04
               11            12            13            14            15 
     11  0.109879D+01
     12 -0.193765D-01  0.228580D+00
     13  0.915709D-01 -0.152365D-01  0.998167D+00
     14 -0.223720D+00  0.423329D-02  0.173997D-01  0.722941D+00
     15  0.701604D-02 -0.117939D+00  0.178752D-01 -0.295069D-03  0.208119D+00
     16 -0.173850D-01 -0.279550D-03 -0.285037D+00 -0.119149D+00 -0.116435D-02
     17  0.249623D-01  0.116071D-03 -0.120021D+00 -0.197859D+00 -0.101824D-02
     18 -0.323741D-02  0.304447D-01  0.258410D-03  0.623996D-03 -0.814118D-01
     19  0.114938D+00  0.945597D-02  0.737539D-02  0.282101D-01  0.177363D-02
     20 -0.350806D+00 -0.140340D-01  0.352817D-02  0.132739D-01 -0.107463D-02
     21 -0.201715D-01 -0.885272D-01 -0.422198D-03  0.217903D-02  0.329139D-01
     22  0.000000D+00  0.151593D-03  0.000000D+00  0.000000D+00 -0.426148D-04
     23  0.000000D+00 -0.144626D-03  0.000000D+00  0.000000D+00 -0.805492D-04
     24  0.325867D-04  0.494108D-02 -0.396684D-04 -0.913083D-04  0.818750D-02
     25  0.154576D-05 -0.136413D-03  0.167664D-01  0.101890D-03  0.356908D-03
     26  0.000000D+00 -0.277129D-04  0.228572D-01  0.129452D-03  0.133641D-02
     27 -0.273585D-04  0.241438D-02  0.951320D-03 -0.138877D-03  0.130272D-01
               16            17            18            19            20 
     16  0.273554D+00
     17  0.136473D+00  0.172998D+00
     18  0.143459D-02  0.983646D-03  0.436862D-01
     19 -0.163570D-04  0.170156D-04  0.688587D-03  0.141367D+00
     20 -0.260497D-04  0.270984D-04  0.109662D-02 -0.125445D+00  0.346039D+00
     21  0.313823D-03 -0.326457D-03 -0.132111D-01 -0.928919D-02  0.163199D-01
     22  0.000000D+00  0.000000D+00  0.000000D+00  0.000000D+00  0.000000D+00
     23  0.000000D+00  0.000000D+00  0.000000D+00  0.000000D+00  0.000000D+00
     24  0.000000D+00  0.000000D+00  0.000000D+00  0.000000D+00  0.000000D+00
     25  0.000000D+00 -0.219260D-05  0.197286D-03  0.000000D+00  0.000000D+00
     26  0.000000D+00  0.000000D+00  0.400796D-04  0.000000D+00  0.000000D+00
     27 -0.428043D-05  0.388070D-04 -0.349177D-02  0.000000D+00  0.000000D+00
               21            22            23            24            25 
     21  0.506425D-01
     22  0.000000D+00  0.140269D+00
     23  0.000000D+00  0.117726D+00  0.293894D+00
     24  0.000000D+00  0.723803D-03  0.353888D-02  0.471125D-01
     25  0.000000D+00 -0.138180D-05 -0.261184D-05  0.265483D-03  0.277113D+00
     26  0.000000D+00  0.292513D-05  0.552900D-05 -0.562001D-03 -0.145308D+00
     27  0.000000D+00  0.735227D-04  0.138970D-03 -0.141258D-01  0.111461D-01
               26            27 
     26  0.186514D+00
     27 -0.699491D-02  0.455362D-01
 Leave Link  716 at Tue Dec 15 16:25:40 2015, MaxMem=    33554432 cpu:         0.0
 (Enter /home/Applications/g09/g09/l103.exe)

 GradGradGradGradGradGradGradGradGradGradGradGradGradGradGradGradGradGrad
 Berny optimization.
 Search for a local minimum.
 Step number   1 out of a maximum of    2
 All quantities printed in internal units (Hartrees-Bohrs-Radians)
 Second derivative matrix not updated -- first step.
 ITU=  0
     Eigenvalues ---    0.01841   0.03636   0.07087   0.07662   0.08096
     Eigenvalues ---    0.09594   0.13141   0.13545   0.16732   0.24518
     Eigenvalues ---    0.27503   0.35338   0.41219   0.44161   0.65144
     Eigenvalues ---    0.87646   1.09480   1.32309   1.64207   1.75417
     Eigenvalues ---    1.93982
 Quadratic step=5.088D-01 exceeds max=3.000D-01 adjusted using Lamda=-1.755D-01.
 Angle between NR and scaled steps=  24.50 degrees.
 Angle between quadratic step and forces=  32.19 degrees.
 Linear search not attempted -- first point.
 TrRot= -0.008965 -0.003642 -0.000899 -0.105302  0.000540  0.104874
 Variable       Old X    -DE/DX   Delta X   Delta X   Delta X     New X
                                 (Linear)    (Quad)   (Total)
    X1        1.73222   0.13338   0.00000   0.12142   0.11182   1.84404
    Y1       -1.42193   0.02074   0.00000  -0.01761  -0.02204  -1.44397
    Z1       -0.04291   0.00148   0.00000   0.00307   0.00110  -0.04181
    X2       -0.65488  -0.07594   0.00000  -0.03969  -0.04961  -0.70449
    Y2       -2.07563  -0.11230   0.00000  -0.07538  -0.07872  -2.15436
    Z2       -0.06177  -0.00489   0.00000  -0.00473  -0.00538  -0.06714
    X3       -2.10561  -0.13324   0.00000  -0.16157  -0.17048  -2.27608
    Y3        0.07583  -0.01013   0.00000   0.01164   0.00896   0.08479
    Z3        0.04572   0.00777   0.00000   0.00099   0.00131   0.04703
    X4       -0.70254  -0.03755   0.00000  -0.03834  -0.04645  -0.74899
    Y4        2.02414   0.09798   0.00000   0.06539   0.06207   2.08621
    Z4       -0.08481  -0.00252   0.00000   0.00953   0.00915  -0.07566
    X5        1.71448   0.11613   0.00000   0.10466   0.09627   1.81075
    Y5        1.38762  -0.02927   0.00000  -0.01076  -0.01518   1.37245
    Z5       -0.01166  -0.00518   0.00000  -0.01605  -0.01784  -0.02951
    X6        3.37746  -0.00080   0.00000   0.05255   0.04468   3.42215
    Y6        2.54722   0.00456   0.00000   0.02810   0.02299   2.57021
    Z6       -0.00081   0.00070   0.00000  -0.00222  -0.00482  -0.00563
    X7       -1.54824  -0.01206   0.00000  -0.03301  -0.04029  -1.58853
    Y7        3.80444   0.02263   0.00000   0.09139   0.08842   3.89286
    Z7        0.01889   0.00073   0.00000   0.00746   0.00762   0.02652
    X8       -1.62834   0.00092   0.00000  -0.02084  -0.03153  -1.65987
    Y8       -3.87330   0.00881   0.00000  -0.03464  -0.03757  -3.91087
    Z8       -0.08452  -0.00097   0.00000  -0.00598  -0.00622  -0.09073
    X9        3.34545   0.00916   0.00000   0.09565   0.08558   3.43103
    Y9       -2.60850  -0.00302   0.00000  -0.02382  -0.02893  -2.63744
    Z9        0.03462   0.00287   0.00000   0.01797   0.01508   0.04969
         Item               Value     Threshold  Converged?
 Maximum Force            0.133382     0.000450     NO 
 RMS     Force            0.054700     0.000300     NO 
 Maximum Displacement     0.170475     0.001800     NO 
 RMS     Displacement     0.057611     0.001200     NO 
 Predicted change in Energy=-4.412583D-02
 GradGradGradGradGradGradGradGradGradGradGradGradGradGradGradGradGradGrad

 Leave Link  103 at Tue Dec 15 16:25:40 2015, MaxMem=    33554432 cpu:         0.0
 (Enter /home/Applications/g09/g09/l9999.exe)
 1\1\GINC-DUSTIN-DESKTOP\Force\RB3LYP-FC\3-21G\C4H4O1\DUSTIN\15-Dec-201
 5\0\\#P B3LYP/3-21G CIS(Singlets,NStates=15) pop(full) force\\FuranDFT
 \\0,1\C,0.916649,-0.752452,-0.022707\C,-0.346548,-1.098378,-0.032685\O
 ,-1.11424,0.040126,0.024192\C,-0.371766,1.071128,-0.044878\C,0.907262,
 0.734299,-0.006172\H,1.787277,1.347929,-0.000431\H,-0.819295,2.013223,
 0.009997\H,-0.86168,-2.049664,-0.044725\H,1.770334,-1.380361,0.018319\
 \Version=ES64L-G09RevD.01\State=1-A\HF=-228.7313367\RMSD=8.829e-09\RMS
 F=5.470e-02\Dipole=0.3020129,0.6569191,0.0399347\PG=C01 [X(C4H4O1)]\\@


 CONFIDENCE: THAT QUIET ASSURED FEELING YOU HAVE
 JUST BEFORE YOU FALL FLAT ON YOUR FACE.
 Job cpu time:       0 days  0 hours  0 minutes 51.3 seconds.
 File lengths (MBytes):  RWF=     14 Int=      0 D2E=      0 Chk=      3 Scr=      1
 Normal termination of Gaussian 09 at Tue Dec 15 16:25:40 2015.
