 Entering Gaussian System, Link 0=g09
 Input=FuranAM1_61.com
 Output=FuranAM1_61.log
 Initial command:
 /home/Applications/g09/g09/l1.exe "/home/Applications/g09/scratch/Gau-6075.inp" -scrdir="/home/Applications/g09/scratch/"
 Entering Link 1 = /home/Applications/g09/g09/l1.exe PID=      6077.
  
 Copyright (c) 1988,1990,1992,1993,1995,1998,2003,2009,2013,
            Gaussian, Inc.  All Rights Reserved.
  
 This is part of the Gaussian(R) 09 program.  It is based on
 the Gaussian(R) 03 system (copyright 2003, Gaussian, Inc.),
 the Gaussian(R) 98 system (copyright 1998, Gaussian, Inc.),
 the Gaussian(R) 94 system (copyright 1995, Gaussian, Inc.),
 the Gaussian 92(TM) system (copyright 1992, Gaussian, Inc.),
 the Gaussian 90(TM) system (copyright 1990, Gaussian, Inc.),
 the Gaussian 88(TM) system (copyright 1988, Gaussian, Inc.),
 the Gaussian 86(TM) system (copyright 1986, Carnegie Mellon
 University), and the Gaussian 82(TM) system (copyright 1983,
 Carnegie Mellon University). Gaussian is a federally registered
 trademark of Gaussian, Inc.
  
 This software contains proprietary and confidential information,
 including trade secrets, belonging to Gaussian, Inc.
  
 This software is provided under written license and may be
 used, copied, transmitted, or stored only in accord with that
 written license.
  
 The following legend is applicable only to US Government
 contracts under FAR:
  
                    RESTRICTED RIGHTS LEGEND
  
 Use, reproduction and disclosure by the US Government is
 subject to restrictions as set forth in subparagraphs (a)
 and (c) of the Commercial Computer Software - Restricted
 Rights clause in FAR 52.227-19.
  
 Gaussian, Inc.
 340 Quinnipiac St., Bldg. 40, Wallingford CT 06492
  
  
 ---------------------------------------------------------------
 Warning -- This program may not be used in any manner that
 competes with the business of Gaussian, Inc. or will provide
 assistance to any competitor of Gaussian, Inc.  The licensee
 of this program is prohibited from giving any competitor of
 Gaussian, Inc. access to this program.  By using this program,
 the user acknowledges that Gaussian, Inc. is engaged in the
 business of creating and licensing software in the field of
 computational chemistry and represents and warrants to the
 licensee that it is not a competitor of Gaussian, Inc. and that
 it will not use this program in any manner prohibited above.
 ---------------------------------------------------------------
  

 Cite this work as:
 Gaussian 09, Revision D.01,
 M. J. Frisch, G. W. Trucks, H. B. Schlegel, G. E. Scuseria, 
 M. A. Robb, J. R. Cheeseman, G. Scalmani, V. Barone, B. Mennucci, 
 G. A. Petersson, H. Nakatsuji, M. Caricato, X. Li, H. P. Hratchian, 
 A. F. Izmaylov, J. Bloino, G. Zheng, J. L. Sonnenberg, M. Hada, 
 M. Ehara, K. Toyota, R. Fukuda, J. Hasegawa, M. Ishida, T. Nakajima, 
 Y. Honda, O. Kitao, H. Nakai, T. Vreven, J. A. Montgomery, Jr., 
 J. E. Peralta, F. Ogliaro, M. Bearpark, J. J. Heyd, E. Brothers, 
 K. N. Kudin, V. N. Staroverov, T. Keith, R. Kobayashi, J. Normand, 
 K. Raghavachari, A. Rendell, J. C. Burant, S. S. Iyengar, J. Tomasi, 
 M. Cossi, N. Rega, J. M. Millam, M. Klene, J. E. Knox, J. B. Cross, 
 V. Bakken, C. Adamo, J. Jaramillo, R. Gomperts, R. E. Stratmann, 
 O. Yazyev, A. J. Austin, R. Cammi, C. Pomelli, J. W. Ochterski, 
 R. L. Martin, K. Morokuma, V. G. Zakrzewski, G. A. Voth, 
 P. Salvador, J. J. Dannenberg, S. Dapprich, A. D. Daniels, 
 O. Farkas, J. B. Foresman, J. V. Ortiz, J. Cioslowski, 
 and D. J. Fox, Gaussian, Inc., Wallingford CT, 2013.
 
 ******************************************
 Gaussian 09:  ES64L-G09RevD.01 24-Apr-2013
                15-Dec-2015 
 ******************************************
 ------------------------------------------------------------
 #P AM1(Input,print) CIS(Singlets,NStates=15) pop(full) force
 ------------------------------------------------------------
 1/10=7,30=1,38=1/1,3;
 2/12=2,17=6,18=5,40=1/2;
 3/5=2,16=1,25=1,41=700000,71=1,135=100,136=1/1,2,8,3;
 4/35=1/1;
 5/5=2,35=1,38=5/2;
 8/6=1,10=1,108=15/1;
 9/15=2,41=15,42=1,48=1,49=10/14;
 10/5=4/2;
 6/7=3,18=1/1;
 7/12=6,13=5,29=1/1,2,3,16;
 1/10=7,30=1/3;
 99//99;
 Leave Link    1 at Tue Dec 15 16:23:05 2015, MaxMem=           0 cpu:         0.0
 (Enter /home/Applications/g09/g09/l101.exe)
 -----------------
 AM1-Reparam Input
 -----------------
 Symbolic Z-matrix:
 Charge =  0 Multiplicity = 1
 6                     0.96085  -0.72744  -0.02723 
 6                    -0.37303  -1.12173   0.01191 
 8                    -1.13735  -0.02453   0.00005 
 6                    -0.38943   1.09089   0.04443 
 6                     0.90614   0.70165  -0.02774 
 1                     1.76839   1.34966   0.01174 
 1                    -0.84904   2.03734  -0.04404 
 1                    -0.85227  -2.01271  -0.04358 
 1                     1.85556  -1.3468   -0.01902 
 
 NAtoms=      9 NQM=        9 NQMF=       0 NMMI=      0 NMMIF=      0
                NMic=       0 NMicF=      0.
                    Isotopes and Nuclear Properties:
 (Nuclear quadrupole moments (NQMom) in fm**2, nuclear magnetic moments (NMagM)
  in nuclear magnetons)

  Atom         1           2           3           4           5           6           7           8           9
 IAtWgt=          12          12          16          12          12           1           1           1           1
 AtmWgt=  12.0000000  12.0000000  15.9949146  12.0000000  12.0000000   1.0078250   1.0078250   1.0078250   1.0078250
 NucSpn=           0           0           0           0           0           1           1           1           1
 AtZEff=   0.0000000   0.0000000   0.0000000   0.0000000   0.0000000   0.0000000   0.0000000   0.0000000   0.0000000
 NQMom=    0.0000000   0.0000000   0.0000000   0.0000000   0.0000000   0.0000000   0.0000000   0.0000000   0.0000000
 NMagM=    0.0000000   0.0000000   0.0000000   0.0000000   0.0000000   2.7928460   2.7928460   2.7928460   2.7928460
 AtZNuc=   6.0000000   6.0000000   8.0000000   6.0000000   6.0000000   1.0000000   1.0000000   1.0000000   1.0000000
 Leave Link  101 at Tue Dec 15 16:23:05 2015, MaxMem=    33554432 cpu:         0.0
 (Enter /home/Applications/g09/g09/l103.exe)

 GradGradGradGradGradGradGradGradGradGradGradGradGradGradGradGradGradGrad
 Berny optimization.
 Initialization pass.
 Trust Radius=3.00D-01 FncErr=1.00D-07 GrdErr=1.00D-07
 Number of steps in this run=      2 maximum allowed number of steps=      2.
 GradGradGradGradGradGradGradGradGradGradGradGradGradGradGradGradGradGrad

 Leave Link  103 at Tue Dec 15 16:23:05 2015, MaxMem=    33554432 cpu:         0.0
 (Enter /home/Applications/g09/g09/l202.exe)
                          Input orientation:                          
 ---------------------------------------------------------------------
 Center     Atomic      Atomic             Coordinates (Angstroms)
 Number     Number       Type             X           Y           Z
 ---------------------------------------------------------------------
      1          6           0        0.960854   -0.727439   -0.027229
      2          6           0       -0.373033   -1.121733    0.011906
      3          8           0       -1.137353   -0.024528    0.000048
      4          6           0       -0.389426    1.090886    0.044431
      5          6           0        0.906140    0.701653   -0.027741
      6          1           0        1.768393    1.349659    0.011742
      7          1           0       -0.849036    2.037337   -0.044039
      8          1           0       -0.852265   -2.012710   -0.043580
      9          1           0        1.855563   -1.346800   -0.019019
 ---------------------------------------------------------------------
                    Distance matrix (angstroms):
                    1          2          3          4          5
     1  C    0.000000
     2  C    1.391493   0.000000
     3  O    2.212985   1.337230   0.000000
     4  C    2.265987   2.212919   1.343694   0.000000
     5  C    1.430139   2.227688   2.168865   1.354696   0.000000
     6  H    2.228895   3.270089   3.214325   2.173526   1.079329
     7  H    3.304538   3.195220   2.082392   1.055859   2.205665
     8  H    2.222519   1.013204   2.008991   3.139152   3.234193
     9  H    1.088200   2.240145   3.272050   3.314561   2.257795
                    6          7          8          9
     6  H    0.000000
     7  H    2.706833   0.000000
     8  H    4.263383   4.050048   0.000000
     9  H    2.698043   4.332189   2.788615   0.000000
 Stoichiometry    C4H4O
 Framework group  C1[X(C4H4O)]
 Deg. of freedom    21
 Full point group                 C1      NOp   1
 Largest Abelian subgroup         C1      NOp   1
 Largest concise Abelian subgroup C1      NOp   1
                         Standard orientation:                         
 ---------------------------------------------------------------------
 Center     Atomic      Atomic             Coordinates (Angstroms)
 Number     Number       Type             X           Y           Z
 ---------------------------------------------------------------------
      1          6           0       -0.854886    0.855175    0.007371
      2          6           0       -1.039381   -0.523795   -0.018260
      3          8           0        0.161980   -1.110345    0.011342
      4          6           0        1.149741   -0.200510   -0.033841
      5          6           0        0.565601    1.020617    0.019370
      6          1           0        1.073919    1.971679   -0.025861
      7          1           0        2.154652   -0.508292    0.067459
      8          1           0       -1.846721   -1.133546    0.036402
      9          1           0       -1.604135    1.643992   -0.016579
 ---------------------------------------------------------------------
 Rotational constants (GHZ):      9.5842657      9.3640352      4.7392103
 Leave Link  202 at Tue Dec 15 16:23:05 2015, MaxMem=    33554432 cpu:         0.0
 (Enter /home/Applications/g09/g09/l301.exe)

 Semi-emprical parameters in input format:
 Method=8 CoreType=1 PeptideFC=0.0114510000 RIJScale=0.5291770000
 ****
 H       
 PQN=1 NValence=1 F0ss=0.4721550000 ZetaOverlap=1.1880780000 U=-0.4188110000
 Beta=-0.2268830000 CoreKO=1.0589200000 KON=0,0,0,1.0589200000 KON=1,0,1,1.0589200000
 KON=0,1,1,1.0589200000 KON=2,1,1,1.0589200000 EISol=-0.4188110042 EHeat=0.0830298228
 Alpha=1.5252600000
 GCore=0.0085280000,1.4001430000,2.2676710000
 GCore=0.0003530000,1.4001430000,3.4015070000
 GCore=-0.0012730000,0.5600570000,3.9684250000
 ****
 C       
 PQN=2,2 NValence=4 F0ss=0.4494440000 F0sp=0.4215150000 F0pp=0.3768030000 F2pp=0.1898720000
 G1sp=0.2679030000
 ZetaOverlap=1.8086650000,1.6851160000
 U=-1.9120180000,-1.4557970000
 Beta=-0.5775440000,-0.2836780000 DDN=0,1,0.8236740000 DDN=1,1,0.7268010000
 CoreKO=1.1124280000 KON=0,0,0,1.1124280000 KON=1,0,1,0.8219700000 KON=0,1,1,1.1124280000
 KON=2,1,1,0.7783930000 EISol=-4.4398989268 EHeat=0.2723305520 Alpha=1.4014060000
 DipHyp=1.6472532266
 GCore=0.0007890000,1.4001430000,3.0235620000
 GCore=0.0031890000,1.4001430000,3.4959930000
 GCore=-0.0013930000,1.4001430000,3.8739390000
 GCore=-0.0000880000,1.4001430000,5.0077740000
 ****
 O       
 PQN=2,2 NValence=6 F0ss=0.5666750000 F0sp=0.5321300000 F0pp=0.4958710000 F2pp=0.2358080000
 G1sp=0.4343770000
 ZetaOverlap=3.1080320000,2.5240390000
 U=-3.5951870000,-2.8760900000
 Beta=-1.0757550000,-1.0757550000 DDN=0,1,0.4988900000 DDN=1,1,0.4852320000
 CoreKO=0.8822960000 KON=0,0,0,0.8822960000 KON=1,0,1,0.5019540000 KON=0,1,1,0.8822960000
 KON=2,1,1,0.5515580000 EISol=-11.6164441184 EHeat=0.0949133088 Alpha=2.3576810000
 DipHyp=0.9977225968
 GCore=0.0195120000,1.4001430000,1.6023330000
 GCore=0.0056550000,1.9602000000,2.7307880000
 ****
 
 Standard basis: VSTO-6G (5D, 7F)
 Ernie: Thresh=  0.10000D-02 Tol=  0.10000D-05 Strict=F.
  NNHCO=     0 NNPyr=     0 NCTC=     0               EPep=         0.000000000
    EC=        69.052034935  ECS=         1.872055168   EG=         0.368304435
   EHC=         0.000000000  EAt=       -31.051283842  AtH=         1.516354808
 EPDDG=         0.000000000  ECC=        71.292394538 EAtT=        32.567638650
 There are    24 symmetry adapted cartesian basis functions of A   symmetry.
 There are    24 symmetry adapted basis functions of A   symmetry.
    24 basis functions,   144 primitive gaussians,    24 cartesian basis functions
    13 alpha electrons       13 beta electrons
       nuclear repulsion energy       103.8600331882 Hartrees.
 IExCor=    0 DFT=F Ex=HF Corr=None ExCW=0 ScaHFX=  1.000000
 ScaDFX=  1.000000  1.000000  1.000000  1.000000 ScalE2=  1.000000  1.000000
 IRadAn=      0 IRanWt=     -1 IRanGd=            0 ICorTp=0 IEmpDi=  4
 Integral buffers will be    131072 words long.
 Regular integral format.
 Two-electron integral symmetry is turned off.
 Leave Link  301 at Tue Dec 15 16:23:05 2015, MaxMem=    33554432 cpu:         0.0
 (Enter /home/Applications/g09/g09/l302.exe)
 Do NDO integrals.
 NPDir=0 NMtPBC=     1 NCelOv=     1 NCel=       1 NClECP=     1 NCelD=      1
         NCelK=      1 NCelE2=     1 NClLst=     1 CellRange=     0.0.
 One-electron integrals computed using PRISM.
 NBasis=    24 RedAO= F EigKep=  0.00D+00  NBF=    24
 NBsUse=    24 1.00D-04 EigRej=  0.00D+00 NBFU=    24
 Leave Link  302 at Tue Dec 15 16:23:05 2015, MaxMem=    33554432 cpu:         0.0
 (Enter /home/Applications/g09/g09/l308.exe)
 Leave Link  308 at Tue Dec 15 16:23:05 2015, MaxMem=    33554432 cpu:         0.0
 (Enter /home/Applications/g09/g09/l303.exe)
 DipDrv:  MaxL=1.
 Leave Link  303 at Tue Dec 15 16:23:05 2015, MaxMem=    33554432 cpu:         0.0
 (Enter /home/Applications/g09/g09/l401.exe)
 Simple Huckel Guess.
 JPrj=0 DoOrth=F DoCkMO=F.
 Leave Link  401 at Tue Dec 15 16:23:05 2015, MaxMem=    33554432 cpu:         0.0
 (Enter /home/Applications/g09/g09/l502.exe)
 Closed shell SCF:
 Using DIIS extrapolation, IDIIS=  1040.
 Overlap will be assumed to be unity.
 Two-electron integral symmetry not used.
 Keep J ints in memory in canonical form, NReq=888082.
 IVT=       79475 IEndB=       79475 NGot=    33554432 MDV=    33473473
 LenX=    33473473 LenY=    33472456
 Requested convergence on RMS density matrix=1.00D-08 within 128 cycles.
 Requested convergence on MAX density matrix=1.00D-06.
 Requested convergence on             energy=1.00D-06.
 No special actions if energy rises.
 FoFCou: FMM=F IPFlag=           0 FMFlag=           0 FMFlg1=           0
         NFxFlg=           0 DoJE=F BraDBF=F KetDBF=F FulRan=T
         wScrn=  0.000000 ICntrl=     600 IOpCl=  2 I1Cent=           0 NGrid=           0
         NMat0=    1 NMatS0=     54 NMatT0=    0 NMatD0=    1 NMtDS0=    0 NMtDT0=    0
 Symmetry not used in FoFCou.

 Cycle   1  Pass 1  IDiag  1:
 E= 0.332895206596120    
 DIIS: error= 6.36D-02 at cycle   1 NSaved=   1.
 NSaved= 1 IEnMin= 1 EnMin= 0.332895206596120     IErMin= 1 ErrMin= 6.36D-02
 ErrMax= 6.36D-02  0.00D+00 EMaxC= 1.00D-01 BMatC= 1.12D-01 BMatP= 1.12D-01
 IDIUse=3 WtCom= 3.64D-01 WtEn= 6.36D-01
 Coeff-Com:  0.100D+01
 Coeff-En:   0.100D+01
 Coeff:      0.100D+01
 GapD=    2.000 DampG=2.000 DampE=0.500 DampFc=1.0000 IDamp=-1.
 RMSDP=1.92D-02 MaxDP=1.64D-01              OVMax= 0.00D+00

 Cycle   2  Pass 1  IDiag  1:
 E= 0.565553732625119E-01 Delta-E=       -0.276339833334 Rises=F Damp=F
 DIIS: error= 1.97D-02 at cycle   2 NSaved=   2.
 NSaved= 2 IEnMin= 2 EnMin= 0.565553732625119E-01 IErMin= 2 ErrMin= 1.97D-02
 ErrMax= 1.97D-02  0.00D+00 EMaxC= 1.00D-01 BMatC= 9.66D-03 BMatP= 1.12D-01
 IDIUse=3 WtCom= 8.03D-01 WtEn= 1.97D-01
 Coeff-Com: -0.356D+00 0.136D+01
 Coeff-En:   0.000D+00 0.100D+01
 Coeff:     -0.286D+00 0.129D+01
 RMSDP=8.22D-03 MaxDP=7.33D-02 DE=-2.76D-01 OVMax= 0.00D+00

 Cycle   3  Pass 1  IDiag  3:
 E= 0.254630213822082E-01 Delta-E=       -0.031092351880 Rises=F Damp=F
 DIIS: error= 4.15D-03 at cycle   3 NSaved=   3.
 NSaved= 3 IEnMin= 3 EnMin= 0.254630213822082E-01 IErMin= 3 ErrMin= 4.15D-03
 ErrMax= 4.15D-03  0.00D+00 EMaxC= 1.00D-01 BMatC= 4.18D-04 BMatP= 9.66D-03
 IDIUse=3 WtCom= 9.58D-01 WtEn= 4.15D-02
 Coeff-Com:  0.127D+00-0.588D+00 0.146D+01
 Coeff-En:   0.000D+00 0.000D+00 0.100D+01
 Coeff:      0.122D+00-0.564D+00 0.144D+01
 Gap=     0.376 Goal=   None    Shift=    0.000
 RMSDP=2.72D-03 MaxDP=3.23D-02 DE=-3.11D-02 OVMax= 3.71D-02

 Cycle   4  Pass 1  IDiag  3:
 E= 0.231253940646496E-01 Delta-E=       -0.002337627318 Rises=F Damp=F
 DIIS: error= 1.27D-03 at cycle   4 NSaved=   4.
 NSaved= 4 IEnMin= 4 EnMin= 0.231253940646496E-01 IErMin= 4 ErrMin= 1.27D-03
 ErrMax= 1.27D-03  0.00D+00 EMaxC= 1.00D-01 BMatC= 3.25D-05 BMatP= 4.18D-04
 IDIUse=3 WtCom= 9.87D-01 WtEn= 1.27D-02
 Coeff-Com:  0.124D-01-0.327D-01-0.269D+00 0.129D+01
 Coeff-En:   0.000D+00 0.000D+00 0.000D+00 0.100D+01
 Coeff:      0.123D-01-0.323D-01-0.266D+00 0.129D+01
 Gap=     0.376 Goal=   None    Shift=    0.000
 RMSDP=9.36D-04 MaxDP=1.17D-02 DE=-2.34D-03 OVMax= 1.29D-02

 Cycle   5  Pass 1  IDiag  3:
 E= 0.229193929048535E-01 Delta-E=       -0.000206001160 Rises=F Damp=F
 DIIS: error= 1.78D-04 at cycle   5 NSaved=   5.
 NSaved= 5 IEnMin= 5 EnMin= 0.229193929048535E-01 IErMin= 5 ErrMin= 1.78D-04
 ErrMax= 1.78D-04  0.00D+00 EMaxC= 1.00D-01 BMatC= 1.65D-06 BMatP= 3.25D-05
 IDIUse=3 WtCom= 9.98D-01 WtEn= 1.78D-03
 Coeff-Com: -0.638D-02 0.231D-01 0.592D-01-0.510D+00 0.143D+01
 Coeff-En:   0.000D+00 0.000D+00 0.000D+00 0.000D+00 0.100D+01
 Coeff:     -0.636D-02 0.230D-01 0.591D-01-0.509D+00 0.143D+01
 Gap=     0.376 Goal=   None    Shift=    0.000
 RMSDP=2.20D-04 MaxDP=1.92D-03 DE=-2.06D-04 OVMax= 2.06D-03

 Cycle   6  Pass 1  IDiag  3:
 E= 0.229083967388704E-01 Delta-E=       -0.000010996166 Rises=F Damp=F
 DIIS: error= 7.42D-05 at cycle   6 NSaved=   6.
 NSaved= 6 IEnMin= 6 EnMin= 0.229083967388704E-01 IErMin= 6 ErrMin= 7.42D-05
 ErrMax= 7.42D-05  0.00D+00 EMaxC= 1.00D-01 BMatC= 1.30D-07 BMatP= 1.65D-06
 IDIUse=1 WtCom= 1.00D+00 WtEn= 0.00D+00
 Coeff-Com:  0.295D-02-0.110D-01-0.117D-01 0.178D+00-0.692D+00 0.153D+01
 Coeff:      0.295D-02-0.110D-01-0.117D-01 0.178D+00-0.692D+00 0.153D+01
 Gap=     0.376 Goal=   None    Shift=    0.000
 RMSDP=7.39D-05 MaxDP=5.86D-04 DE=-1.10D-05 OVMax= 9.75D-04

 Cycle   7  Pass 1  IDiag  3:
 E= 0.229073014959340E-01 Delta-E=       -0.000001095243 Rises=F Damp=F
 DIIS: error= 3.06D-05 at cycle   7 NSaved=   7.
 NSaved= 7 IEnMin= 7 EnMin= 0.229073014959340E-01 IErMin= 7 ErrMin= 3.06D-05
 ErrMax= 3.06D-05  0.00D+00 EMaxC= 1.00D-01 BMatC= 1.20D-08 BMatP= 1.30D-07
 IDIUse=1 WtCom= 1.00D+00 WtEn= 0.00D+00
 Coeff-Com: -0.608D-03 0.188D-02 0.412D-02-0.447D-01 0.193D+00-0.684D+00
 Coeff-Com:  0.153D+01
 Coeff:     -0.608D-03 0.188D-02 0.412D-02-0.447D-01 0.193D+00-0.684D+00
 Coeff:      0.153D+01
 Gap=     0.376 Goal=   None    Shift=    0.000
 RMSDP=2.78D-05 MaxDP=2.56D-04 DE=-1.10D-06 OVMax= 3.52D-04

 Cycle   8  Pass 1  IDiag  3:
 E= 0.229071817801980E-01 Delta-E=       -0.000000119716 Rises=F Damp=F
 DIIS: error= 8.18D-06 at cycle   8 NSaved=   8.
 NSaved= 8 IEnMin= 8 EnMin= 0.229071817801980E-01 IErMin= 8 ErrMin= 8.18D-06
 ErrMax= 8.18D-06  0.00D+00 EMaxC= 1.00D-01 BMatC= 7.69D-10 BMatP= 1.20D-08
 IDIUse=1 WtCom= 1.00D+00 WtEn= 0.00D+00
 Coeff-Com:  0.797D-04-0.265D-04-0.203D-02 0.128D-01-0.553D-01 0.238D+00
 Coeff-Com: -0.766D+00 0.157D+01
 Coeff:      0.797D-04-0.265D-04-0.203D-02 0.128D-01-0.553D-01 0.238D+00
 Coeff:     -0.766D+00 0.157D+01
 Gap=     0.376 Goal=   None    Shift=    0.000
 RMSDP=7.67D-06 MaxDP=7.47D-05 DE=-1.20D-07 OVMax= 9.12D-05

 Cycle   9  Pass 1  IDiag  3:
 E= 0.229071741800198E-01 Delta-E=       -0.000000007600 Rises=F Damp=F
 DIIS: error= 1.23D-06 at cycle   9 NSaved=   9.
 NSaved= 9 IEnMin= 9 EnMin= 0.229071741800198E-01 IErMin= 9 ErrMin= 1.23D-06
 ErrMax= 1.23D-06  0.00D+00 EMaxC= 1.00D-01 BMatC= 3.35D-11 BMatP= 7.69D-10
 IDIUse=1 WtCom= 1.00D+00 WtEn= 0.00D+00
 Coeff-Com:  0.128D-04-0.157D-03 0.586D-03-0.225D-02 0.107D-01-0.630D-01
 Coeff-Com:  0.257D+00-0.696D+00 0.149D+01
 Coeff:      0.128D-04-0.157D-03 0.586D-03-0.225D-02 0.107D-01-0.630D-01
 Coeff:      0.257D+00-0.696D+00 0.149D+01
 Gap=     0.376 Goal=   None    Shift=    0.000
 RMSDP=1.21D-06 MaxDP=1.07D-05 DE=-7.60D-09 OVMax= 1.64D-05

 Cycle  10  Pass 1  IDiag  3:
 E= 0.229071739417606E-01 Delta-E=       -0.000000000238 Rises=F Damp=F
 DIIS: error= 1.88D-07 at cycle  10 NSaved=  10.
 NSaved=10 IEnMin=10 EnMin= 0.229071739417606E-01 IErMin=10 ErrMin= 1.88D-07
 ErrMax= 1.88D-07  0.00D+00 EMaxC= 1.00D-01 BMatC= 1.48D-12 BMatP= 3.35D-11
 IDIUse=1 WtCom= 1.00D+00 WtEn= 0.00D+00
 Coeff-Com: -0.899D-05 0.738D-04-0.215D-03 0.649D-03-0.280D-02 0.185D-01
 Coeff-Com: -0.805D-01 0.230D+00-0.619D+00 0.145D+01
 Coeff:     -0.899D-05 0.738D-04-0.215D-03 0.649D-03-0.280D-02 0.185D-01
 Coeff:     -0.805D-01 0.230D+00-0.619D+00 0.145D+01
 Gap=     0.376 Goal=   None    Shift=    0.000
 RMSDP=2.13D-07 MaxDP=1.36D-06 DE=-2.38D-10 OVMax= 2.41D-06

 Cycle  11  Pass 1  IDiag  3:
 E= 0.229071739323388E-01 Delta-E=       -0.000000000009 Rises=F Damp=F
 DIIS: error= 3.77D-08 at cycle  11 NSaved=  11.
 NSaved=11 IEnMin=11 EnMin= 0.229071739323388E-01 IErMin=11 ErrMin= 3.77D-08
 ErrMax= 3.77D-08  0.00D+00 EMaxC= 1.00D-01 BMatC= 7.02D-14 BMatP= 1.48D-12
 IDIUse=1 WtCom= 1.00D+00 WtEn= 0.00D+00
 Coeff-Com:  0.339D-05-0.277D-04 0.793D-04-0.237D-03 0.961D-03-0.647D-02
 Coeff-Com:  0.283D-01-0.812D-01 0.223D+00-0.653D+00 0.149D+01
 Coeff:      0.339D-05-0.277D-04 0.793D-04-0.237D-03 0.961D-03-0.647D-02
 Coeff:      0.283D-01-0.812D-01 0.223D+00-0.653D+00 0.149D+01
 Gap=     0.376 Goal=   None    Shift=    0.000
 RMSDP=4.64D-08 MaxDP=2.13D-07 DE=-9.42D-12 OVMax= 3.69D-07

 Cycle  12  Pass 1  IDiag  3:
 E= 0.229071739321682E-01 Delta-E=        0.000000000000 Rises=F Damp=F
 DIIS: error= 6.38D-09 at cycle  12 NSaved=  12.
 NSaved=12 IEnMin=12 EnMin= 0.229071739321682E-01 IErMin=12 ErrMin= 6.38D-09
 ErrMax= 6.38D-09  0.00D+00 EMaxC= 1.00D-01 BMatC= 3.21D-15 BMatP= 7.02D-14
 IDIUse=1 WtCom= 1.00D+00 WtEn= 0.00D+00
 Coeff-Com: -0.974D-06 0.784D-05-0.215D-04 0.638D-04-0.242D-03 0.168D-02
 Coeff-Com: -0.739D-02 0.212D-01-0.590D-01 0.186D+00-0.573D+00 0.143D+01
 Coeff:     -0.974D-06 0.784D-05-0.215D-04 0.638D-04-0.242D-03 0.168D-02
 Coeff:     -0.739D-02 0.212D-01-0.590D-01 0.186D+00-0.573D+00 0.143D+01
 Gap=     0.376 Goal=   None    Shift=    0.000
 RMSDP=1.01D-08 MaxDP=4.25D-08 DE=-1.71D-13 OVMax= 1.08D-07

 Cycle  13  Pass 1  IDiag  3:
 E= 0.229071739324098E-01 Delta-E=        0.000000000000 Rises=F Damp=F
 DIIS: error= 1.72D-09 at cycle  13 NSaved=  13.
 NSaved=13 IEnMin=12 EnMin= 0.229071739321682E-01 IErMin=13 ErrMin= 1.72D-09
 ErrMax= 1.72D-09  0.00D+00 EMaxC= 1.00D-01 BMatC= 2.08D-16 BMatP= 3.21D-15
 IDIUse=1 WtCom= 1.00D+00 WtEn= 0.00D+00
 Coeff-Com:  0.188D-06-0.150D-05 0.394D-05-0.121D-04 0.398D-04-0.276D-03
 Coeff-Com:  0.120D-02-0.339D-02 0.958D-02-0.334D-01 0.136D+00-0.538D+00
 Coeff-Com:  0.143D+01
 Coeff:      0.188D-06-0.150D-05 0.394D-05-0.121D-04 0.398D-04-0.276D-03
 Coeff:      0.120D-02-0.339D-02 0.958D-02-0.334D-01 0.136D+00-0.538D+00
 Coeff:      0.143D+01
 Gap=     0.376 Goal=   None    Shift=    0.000
 RMSDP=2.76D-09 MaxDP=1.41D-08 DE= 2.42D-13 OVMax= 3.58D-08

 Cycle  14  Pass 2  IDiag  1:
 SCF Done:  E(RAM1) =  0.229071739324E-01 A.U. after   14 cycles
            NFock= 13  Conv=0.28D-08     -V/T= 1.0014
 KE=-1.661361111096D+01 PE=-1.716567539862D+02 EE= 8.443323908291D+01
 Leave Link  502 at Tue Dec 15 16:23:05 2015, MaxMem=    33554432 cpu:         0.0
 (Enter /home/Applications/g09/g09/l801.exe)
 Range of M.O.s used for correlation:     1    24
 NBasis=    24 NAE=    13 NBE=    13 NFC=     0 NFV=     0
 NROrb=     24 NOA=    13 NOB=    13 NVA=    11 NVB=    11
 Leave Link  801 at Tue Dec 15 16:23:05 2015, MaxMem=    33554432 cpu:         0.0
 (Enter /home/Applications/g09/g09/l914.exe)
 RHF ground state
 MDV=    33554432 DFT=F DoStab=F Mixed=F DoRPA=F DoScal=F NonHer=F
 Making orbital integer symmetry assigments:
 Orbital symmetries:
       Occupied  (A) (A) (A) (A) (A) (A) (A) (A) (A) (A) (A) (A)
                 (A)
       Virtual   (A) (A) (A) (A) (A) (A) (A) (A) (A) (A) (A)
    60 initial guesses have been made.
 Convergence on wavefunction:    0.000001000000000
 Davidson Disk Diagonalization:  ConvIn= 1.00D-06 SkipCon=T Conv= 1.00D-06.
 Max sub-space:   240 roots to seek:    60 dimension of matrix:          286
 Iteration     1 Dimension    60 NMult     0 NNew     60
 CISAX will form    60 AO SS matrices at one time.
 NMat=    60 NSing=    60 JSym2X= 0.
 FoFJK:  IHMeth= 8 ICntrl=       0 DoSepK=F KAlg= 0 I1Cent=   0 FoldK=F
 IRaf=         1 NMat= 120 IRICut=       1 DoRegI=T DoRafI=F ISym2E= 0.
 FoFCou: FMM=F IPFlag=           0 FMFlag=      100000 FMFlg1=           0
         NFxFlg=           0 DoJE=F BraDBF=F KetDBF=F FulRan=T
         wScrn=  0.000000 ICntrl=       0 IOpCl=  0 I1Cent=           0 NGrid=           0
         NMat0=  120 NMatS0=     60 NMatT0=    0 NMatD0=  120 NMtDS0=    0 NMtDT0=    0
 Symmetry not used in FoFCou.
 New state      2 was old state      4
 New state      3 was old state      2
 New state      4 was old state      6
 New state      5 was old state      8
 New state      6 was old state      9
 New state      7 was old state      3
 New state      8 was old state      5
 New state      9 was old state      7
 New state     10 was old state     11
 New state     11 was old state     17
 New state     12 was old state     18
 New state     14 was old state     26
 New state     15 was old state     19
 Excitation Energies [eV] at current iteration:
 Root      1 :     4.535869187377441
 Root      2 :     4.818314266818065
 Root      3 :     5.011040736482480
 Root      4 :     5.940853421029571
 Root      5 :     5.984374710808974
 Root      6 :     6.222684047948992
 Root      7 :     6.301730748666783
 Root      8 :     6.392840108501714
 Root      9 :     6.690903075470610
 Root     10 :     6.973294006565760
 Root     11 :     7.136961863082253
 Root     12 :     7.504515217496395
 Root     13 :     7.520467864192780
 Root     14 :     7.645396465351639
 Root     15 :     7.836061911434406
 Root     16 :     7.840172720697543
 Root     17 :     7.926969760760811
 Root     18 :     8.029282730701318
 Root     19 :     8.287423078912134
 Root     20 :     8.302641185341919
 Root     21 :     8.357260439526877
 Root     22 :     8.638573598226168
 Root     23 :     8.803334861962602
 Root     24 :     9.001032386963946
 Root     25 :     9.367111376014909
 Root     26 :     9.449049399796081
 Root     27 :     9.542449860814981
 Root     28 :     9.674587867460836
 Root     29 :     9.800128365480848
 Root     30 :     9.865442090915245
 Root     31 :     9.949670728089069
 Root     32 :     9.973130929149715
 Root     33 :    10.106142793462400
 Root     34 :    10.155766832069070
 Root     35 :    10.287054496288630
 Root     36 :    10.364287920438080
 Root     37 :    10.574113757799320
 Root     38 :    10.821096677831700
 Root     39 :    10.869130465753630
 Root     40 :    11.017053304100500
 Root     41 :    11.164907164049550
 Root     42 :    11.222807759678540
 Root     43 :    11.368760138694640
 Root     44 :    11.451971318377660
 Root     45 :    11.558242762997860
 Root     46 :    11.608686590649150
 Root     47 :    11.733208390285800
 Root     48 :    11.856489325967320
 Root     49 :    11.895233373318000
 Root     50 :    11.988874679880770
 Root     51 :    12.267660132139240
 Root     52 :    12.421697649919900
 Root     53 :    12.788292426316850
 Root     54 :    13.099344564706010
 Root     55 :    13.147228098530580
 Root     56 :    13.207981816359520
 Root     57 :    13.293813714129810
 Root     58 :    13.375973283285470
 Root     59 :    13.539872361207650
 Root     60 :    13.622351118112230
 Iteration     2 Dimension   120 NMult    60 NNew     60
 CISAX will form    60 AO SS matrices at one time.
 NMat=    60 NSing=    60 JSym2X= 0.
 Root      1 not converged, maximum delta is    0.021135322778931
 Root      2 not converged, maximum delta is    0.038285175260491
 Root      3 not converged, maximum delta is    0.016672183518304
 New state      4 was old state      5
 Root      4 not converged, maximum delta is    0.340915661436272
 New state      5 was old state      4
 Root      5 not converged, maximum delta is    0.242875837545991
 Root      6 not converged, maximum delta is    0.044205707096904
 Root      7 not converged, maximum delta is    0.079429428093596
 Root      8 not converged, maximum delta is    0.066218268930828
 Root      9 not converged, maximum delta is    0.036740118628687
 Root     10 not converged, maximum delta is    0.020735618378293
 Root     11 not converged, maximum delta is    0.046488171877583
 New state     12 was old state     13
 Root     12 not converged, maximum delta is    0.093728320057693
 New state     13 was old state     12
 Root     13 not converged, maximum delta is    0.084947147699277
 Root     14 not converged, maximum delta is    0.075362013626749
 New state     15 was old state     16
 Root     15 not converged, maximum delta is    0.179948225860684
 Excitation Energies [eV] at current iteration:
 Root      1 :     4.480746946146938   Change is   -0.055122241230503
 Root      2 :     4.785123950050199   Change is   -0.033190316767865
 Root      3 :     4.996190858652158   Change is   -0.014849877830322
 Root      4 :     5.872549290901465   Change is   -0.111825419907509
 Root      5 :     5.883780537599410   Change is   -0.057072883430160
 Root      6 :     6.107581191960767   Change is   -0.115102855988224
 Root      7 :     6.149947866031509   Change is   -0.151782882635274
 Root      8 :     6.327113508108740   Change is   -0.065726600392974
 Root      9 :     6.643090624437949   Change is   -0.047812451032661
 Root     10 :     6.930775088224147   Change is   -0.042518918341613
 Root     11 :     7.049397618356855   Change is   -0.087564244725399
 Root     12 :     7.374952939033106   Change is   -0.145514925159675
 Root     13 :     7.424285487858450   Change is   -0.080229729637945
 Root     14 :     7.591735203431040   Change is   -0.053661261920599
 Root     15 :     7.728504081409780   Change is   -0.111668639287763
 Root     16 :     7.776811968368116   Change is   -0.059249943066290
 Root     17 :     7.872071397015494   Change is   -0.054898363745316
 Root     18 :     7.951303192215589   Change is   -0.077979538485729
 Root     19 :     8.010847197773309   Change is   -0.291793987568609
 Root     20 :     8.151390006084911   Change is   -0.136033072827223
 Root     21 :     8.253366846381608   Change is   -0.103893593145269
 Root     22 :     8.611642581742551   Change is   -0.026931016483618
 Root     23 :     8.769946429606458   Change is   -0.033388432356144
 Root     24 :     8.933916065132371   Change is   -0.067116321831575
 Root     25 :     9.119827927594645   Change is   -0.329221472201435
 Root     26 :     9.300581009575229   Change is   -0.066530366439681
 Root     27 :     9.321349510621252   Change is   -0.353238356839585
 Root     28 :     9.452684611327863   Change is   -0.412757479587381
 Root     29 :     9.490598747245672   Change is   -0.051851113569310
 Root     30 :     9.597644124824328   Change is   -0.352026603264743
 Root     31 :     9.629588788928141   Change is   -0.343542140221575
 Root     32 :     9.702348119106061   Change is   -0.097780246374788
 Root     33 :     9.732143881599951   Change is   -0.632144038838129
 Root     34 :     9.846010244796778   Change is   -0.441044251491855
 Root     35 :     9.948461628431955   Change is   -0.207305203637112
 Root     36 :     9.977390821445461   Change is   -0.128751972016938
 Root     37 :    10.257469059676710   Change is   -0.316644698122612
 Root     38 :    10.305870978146230   Change is   -0.563259487607400
 Root     39 :    10.364674628297200   Change is   -0.456422049534501
 Root     40 :    10.773435186034630   Change is   -0.449372573643908
 Root     41 :    10.808513729905390   Change is   -0.208539574195110
 Root     42 :    10.870712027523280   Change is   -0.294195136526271
 Root     43 :    10.940960402881260   Change is   -0.511010915496396
 Root     44 :    11.011623880361020   Change is   -0.546618882636837
 Root     45 :    11.262824184978660   Change is   -0.345862405670496
 Root     46 :    11.312630127377340   Change is   -0.056130011317301
 Root     47 :    11.378690972342190   Change is   -0.354517417943608
 Root     48 :    11.629735462771820   Change is   -0.265497910546177
 Root     49 :    11.650643141685430   Change is   -0.205846184281895
 Root     50 :    11.730424399825800   Change is   -0.258450280054964
 Root     51 :    12.025272548679690   Change is   -0.242387583459552
 Root     52 :    12.157856394500440   Change is   -0.263841255419458
 Root     53 :    12.385741186795840   Change is   -0.402551239521014
 Root     54 :    12.573196841600780   Change is   -0.526147723105237
 Root     55 :    12.766891198354400   Change is   -0.380336900176183
 Root     56 :    13.104281478844980   Change is   -0.189532235284827
 Root     57 :    13.156251313307190   Change is   -0.219721969978281
 Root     58 :    13.166111814871190   Change is   -0.041870001488327
 Root     59 :    13.186790232590000
 Root     60 :    13.343990346813990   Change is   -0.195882014393666
 Iteration     3 Dimension   135 NMult   120 NNew     15
 CISAX will form    15 AO SS matrices at one time.
 NMat=    15 NSing=    15 JSym2X= 0.
 Root      1 not converged, maximum delta is    0.000393467963711
 Root      2 not converged, maximum delta is    0.000133154216990
 Root      3 not converged, maximum delta is    0.000372892135669
 Root      4 not converged, maximum delta is    0.000112531589715
 Root      5 not converged, maximum delta is    0.000089802861024
 Root      6 not converged, maximum delta is    0.001393497785167
 Root      7 not converged, maximum delta is    0.001120410916398
 Root      8 not converged, maximum delta is    0.001540454511465
 Root      9 not converged, maximum delta is    0.000131253384463
 Root     10 not converged, maximum delta is    0.000265890801314
 Root     11 not converged, maximum delta is    0.000205621394390
 Root     12 not converged, maximum delta is    0.000863585592830
 Root     13 not converged, maximum delta is    0.000343970709950
 Root     14 not converged, maximum delta is    0.000250096611142
 Root     15 not converged, maximum delta is    0.000156597530814
 Excitation Energies [eV] at current iteration:
 Root      1 :     4.480679552308938   Change is   -0.000067393837999
 Root      2 :     4.785120745134599   Change is   -0.000003204915601
 Root      3 :     4.996145437363699   Change is   -0.000045421288458
 Root      4 :     5.872545455564934   Change is   -0.000003835336531
 Root      5 :     5.883778425976761   Change is   -0.000002111622649
 Root      6 :     6.107549704345061   Change is   -0.000031487615706
 Root      7 :     6.149366897760284   Change is   -0.000580968271225
 Root      8 :     6.326619109892192   Change is   -0.000494398216547
 Root      9 :     6.643085734233607   Change is   -0.000004890204342
 Root     10 :     6.930760718204795   Change is   -0.000014370019352
 Root     11 :     7.049386763529284   Change is   -0.000010854827570
 Root     12 :     7.374812338256443   Change is   -0.000140600776662
 Root     13 :     7.424269089946450   Change is   -0.000016397912000
 Root     14 :     7.591717315765117   Change is   -0.000017887665923
 Root     15 :     7.728498917818582   Change is   -0.000005163591198
 Iteration     4 Dimension   143 NMult   135 NNew      8
 CISAX will form     8 AO SS matrices at one time.
 NMat=     8 NSing=     8 JSym2X= 0.
 Root      1 not converged, maximum delta is    0.000017744048492
 Root      2 not converged, maximum delta is    0.000004664878696
 Root      3 not converged, maximum delta is    0.000025615627376
 Root      4 not converged, maximum delta is    0.000004954146415
 Root      5 not converged, maximum delta is    0.000005545591149
 Root      6 not converged, maximum delta is    0.000012533726592
 Root      7 not converged, maximum delta is    0.000080107673285
 Root      8 not converged, maximum delta is    0.000055853388675
 Root      9 not converged, maximum delta is    0.000008060030420
 Root     10 not converged, maximum delta is    0.000020533888378
 Root     11 not converged, maximum delta is    0.000009645680952
 Root     12 not converged, maximum delta is    0.000035637388126
 Root     13 not converged, maximum delta is    0.000018197417688
 Root     14 not converged, maximum delta is    0.000011356668721
 Root     15 not converged, maximum delta is    0.000009708667617
 Excitation Energies [eV] at current iteration:
 Root      1 :     4.480679440328085   Change is   -0.000000111980854
 Root      2 :     4.785120735913203   Change is   -0.000000009221395
 Root      3 :     4.996145335390474   Change is   -0.000000101973225
 Root      4 :     5.872545447386944   Change is   -0.000000008177989
 Root      5 :     5.883778419481279   Change is   -0.000000006495483
 Root      6 :     6.107549671292109   Change is   -0.000000033052952
 Root      7 :     6.149365574063054   Change is   -0.000001323697231
 Root      8 :     6.326618219586108   Change is   -0.000000890306084
 Root      9 :     6.643085712062321   Change is   -0.000000022171286
 Root     10 :     6.930760649552061   Change is   -0.000000068652733
 Root     11 :     7.049386729486762   Change is   -0.000000034042522
 Root     12 :     7.374811970879801   Change is   -0.000000367376642
 Root     13 :     7.424269035338981   Change is   -0.000000054607468
 Root     14 :     7.591717266258461   Change is   -0.000000049506657
 Root     15 :     7.728498892291757   Change is   -0.000000025526825
 Convergence achieved on expansion vectors.
 ***********************************************************************
 Excited states from <AA,BB:AA,BB> singles matrix:
 ***********************************************************************
 
 1PDM for each excited state written to RWF  633
 Ground to excited state transition densities written to RWF  633
 Ground to excited state transition electric dipole moments (Au):
       state          X           Y           Z        Dip. S.      Osc.
         1         0.8709      0.2465     -0.0401      0.8209      0.0901
         2        -0.0123     -0.0534     -0.0080      0.0031      0.0004
         3        -0.0785      0.2298      0.0602      0.0626      0.0077
         4         0.0073     -0.0350     -0.0714      0.0064      0.0009
         5         0.0489      0.0373      0.0897      0.0118      0.0017
         6         0.1529     -0.3645     -0.0644      0.1604      0.0240
         7        -0.4466      1.4559      0.0793      2.3253      0.3503
         8        -0.9350     -0.3837     -0.0275      1.0222      0.1584
         9        -0.0132     -0.0743     -0.0727      0.0110      0.0018
        10        -0.0406      0.1998     -0.1003      0.0516      0.0088
        11        -0.0675      0.0131     -0.0153      0.0050      0.0009
        12         0.0286     -0.0083     -0.0004      0.0009      0.0002
        13        -0.0007     -0.0417      0.0521      0.0044      0.0008
        14        -0.0184      0.0318      0.0281      0.0021      0.0004
        15        -0.0472      0.0066      0.0590      0.0058      0.0011
 Ground to excited state transition velocity dipole moments (Au):
       state          X           Y           Z        Dip. S.      Osc.
         1        -0.0381     -0.0228      0.0051      0.0020      0.0081
         2         0.0067      0.0040     -0.0032      0.0001      0.0003
         3         0.0111     -0.0098     -0.0051      0.0002      0.0009
         4         0.0007      0.0118      0.0331      0.0012      0.0038
         5        -0.0096     -0.0054     -0.0763      0.0059      0.0183
         6        -0.0290      0.0791      0.0095      0.0072      0.0214
         7         0.0791     -0.3020      0.0049      0.0975      0.2875
         8         0.1574      0.0738      0.0003      0.0302      0.0866
         9        -0.0003      0.0183      0.1847      0.0345      0.0941
        10         0.0091     -0.0480     -0.0182      0.0027      0.0071
        11         0.0071     -0.0061     -0.0305      0.0010      0.0026
        12        -0.0011      0.0011     -0.0249      0.0006      0.0015
        13         0.0063      0.0073      0.0274      0.0008      0.0021
        14         0.0047     -0.0076     -0.0675      0.0046      0.0111
        15         0.0019     -0.0003     -0.0239      0.0006      0.0013
 Ground to excited state transition magnetic dipole moments (Au):
       state          X           Y           Z
         1         0.0225     -0.0834      0.5997
         2         0.1189     -0.6100     -0.0215
         3        -0.0333     -0.0847     -0.0257
         4        -0.3242      0.0670      0.0187
         5        -0.0054      0.0425      0.0147
         6        -0.2232     -0.1157      0.0045
         7         0.1423     -0.0138     -0.0657
         8        -0.0234     -0.1056     -0.0932
         9         0.0062      0.0964      0.0014
        10        -1.7250     -0.1603     -0.0128
        11        -0.1436      0.7611     -0.0237
        12        -0.0891      0.6579      0.0351
        13         0.3009      0.4813      0.0182
        14        -0.5800     -0.0174      0.0022
        15         0.0770     -0.3224      0.0435
 Ground to excited state transition velocity quadrupole moments (Au):
       state          XX          YY          ZZ          XY          XZ          YZ
         1        -0.1304      0.1203     -0.0023      0.4913      0.0158      0.0058
         2         0.0065      0.0012     -0.0117     -0.0386     -0.1791     -0.0185
         3         0.0818     -0.1201      0.0700      0.0367     -0.0246     -0.0058
         4        -0.0282      0.0182     -0.0204      0.0182     -0.0529     -0.2601
         5         0.0073      0.0157     -0.0083     -0.0230     -0.0079      0.0787
         6        -0.1012      0.0580     -0.0280     -0.0870      0.1310     -0.1789
         7         0.4074     -0.2053     -0.0428      0.1366      0.0221     -0.0904
         8        -0.2415      0.1709      0.0007      0.4802      0.0050      0.0173
         9        -0.0289      0.0000      0.0113      0.0043     -0.0293     -0.0574
        10         0.0804     -0.0264      0.0010      0.0092      0.0131      0.1005
        11         0.0111     -0.0004     -0.0115      0.0094     -0.3484     -0.0447
        12        -0.0241      0.0218     -0.0063      0.0535      0.1379      0.0231
        13        -0.0004     -0.0073      0.0033      0.0158      0.0549      0.1750
        14        -0.0126      0.0287      0.0031     -0.0001      0.1338     -0.3417
        15        -0.0041      0.0087      0.0028      0.0276      0.0181      0.0690
 <0|del|b> * <b|rxdel|0> + <0|del|b> * <b|delr+rdel|0>
 Rotatory Strengths (R) in cgs (10**-40 erg-esu-cm/Gauss)
       state          XX          YY          ZZ    R(velocity)    E-M Angle
         1        16.7931     -1.1254      1.9395      5.8691       81.29
         2        -3.0794      1.2475     -4.4895     -2.1071      107.40
         3         1.0259     -0.2253      1.4743      0.7583       66.50
         4         4.3258     -0.6803      0.1956      1.2804       84.24
         5         0.5948     -5.8575      1.0192     -1.4145      111.82
         6       -31.9900     19.7532      3.9418     -2.7650       97.09
         7        17.5340      4.8727     24.8945     15.7671       72.08
         8       -12.2642     -1.6883    -21.0261    -11.6595      117.60
         9         4.8800     -0.7501      1.7507      1.9602       83.50
        10        11.6530    -19.8783    -13.1412     -7.1222       94.88
        11        -8.6892     -0.4449     -4.4107     -4.5149      101.57
        12        -2.1389      0.6899      1.2877     -0.0538       90.00
        13         5.2225      3.9617      6.0793      5.0878       69.04
        14         1.2829     -5.6385     -2.5326     -2.2961       93.95
        15        -1.9890     -0.1272      0.1292     -0.6623       95.72
 1/2[<0|r|b>*<b|rxdel|0> + (<0|rxdel|b>*<b|r|0>)*]
 Rotatory Strengths (R) in cgs (10**-40 erg-esu-cm/Gauss)
       state          XX          YY          ZZ     R(length)
         1       -13.8313     14.5449     17.0010      5.9049
         2         1.0372    -23.0332     -0.1220     -7.3727
         3        -1.8500     13.7646      1.0932      4.3359
         4         1.6826      1.6578      0.9458      1.4288
         5         0.1883     -1.1227     -0.9325     -0.6223
         6        24.1278    -29.8127      0.2054     -1.8265
         7        44.9412     14.2540      3.6838     20.9597
         8       -15.4641    -28.6659     -1.8143    -15.3148
         9         0.0582      5.0648      0.0740      1.7323
        10       -49.4742     22.6451     -0.9040     -9.2444
        11        -6.8572     -7.0608     -0.2552     -4.7244
        12         1.8041      3.8798      0.0107      1.8982
        13         0.1460     14.1840     -0.6695      4.5535
        14        -7.5361      0.3905     -0.0429     -2.3962
        15         2.5690      1.5038     -1.8164      0.7521
  1/2[<0|del|b>*<b|r|0> + (<0|r|b>*<b|del|0>)*] (Au)
       state          X           Y           Z        Dip. S.   Osc.(frdel)
         1        -0.0332     -0.0056     -0.0002      0.0390      0.0260
         2        -0.0001     -0.0002      0.0000      0.0003      0.0002
         3        -0.0009     -0.0023     -0.0003      0.0034      0.0023
         4         0.0000     -0.0004     -0.0024      0.0028      0.0019
         5        -0.0005     -0.0002     -0.0068      0.0075      0.0050
         6        -0.0044     -0.0288     -0.0006      0.0339      0.0226
         7        -0.0353     -0.4396      0.0004      0.4746      0.3164
         8        -0.1471     -0.0283      0.0000      0.1755      0.1170
         9         0.0000     -0.0014     -0.0134      0.0148      0.0099
        10        -0.0004     -0.0096      0.0018      0.0081      0.0054
        11        -0.0005     -0.0001      0.0005      0.0001      0.0001
        12         0.0000      0.0000      0.0000      0.0000      0.0000
        13         0.0000     -0.0003      0.0014     -0.0011     -0.0007
        14        -0.0001     -0.0002     -0.0019      0.0022      0.0015
        15        -0.0001      0.0000     -0.0014      0.0015      0.0010

 Excitation energies and oscillator strengths:
 
 Excited State   1:      Singlet-A      4.4807 eV  276.71 nm  f=0.0901  <S**2>=0.000
      12 -> 15         0.22688
      13 -> 14         0.66192
 This state for optimization and/or second-order correction.
 Total Energy, E(CIS) =  0.187569120686    
 Copying the excited state density for this state as the 1-particle RhoCI density.
 
 Excited State   2:      Singlet-A      4.7851 eV  259.10 nm  f=0.0004  <S**2>=0.000
      13 -> 15        -0.10596
      13 -> 16         0.68223
 
 Excited State   3:      Singlet-A      4.9961 eV  248.16 nm  f=0.0077  <S**2>=0.000
      12 -> 14        -0.41913
      13 -> 15         0.55271
      13 -> 16         0.11584
 
 Excited State   4:      Singlet-A      5.8725 eV  211.13 nm  f=0.0009  <S**2>=0.000
      12 -> 17         0.10022
      12 -> 18         0.19127
      13 -> 17         0.28458
      13 -> 18         0.45339
      13 -> 19        -0.12698
      13 -> 20         0.13310
      13 -> 21         0.12099
      13 -> 22        -0.13482
      13 -> 23        -0.21581
 
 Excited State   5:      Singlet-A      5.8838 eV  210.72 nm  f=0.0017  <S**2>=0.000
       7 -> 16        -0.17121
      12 -> 16         0.65747
      12 -> 22         0.11688
 
 Excited State   6:      Singlet-A      6.1075 eV  203.00 nm  f=0.0240  <S**2>=0.000
      12 -> 14        -0.13386
      12 -> 17        -0.16648
      12 -> 19        -0.18008
      12 -> 20         0.11249
      12 -> 22        -0.11785
      12 -> 23         0.13122
      13 -> 15        -0.11111
      13 -> 17         0.29803
      13 -> 19         0.35400
      13 -> 20        -0.19578
      13 -> 22         0.22134
      13 -> 23        -0.18147
 
 Excited State   7:      Singlet-A      6.1494 eV  201.62 nm  f=0.3503  <S**2>=0.000
      10 -> 16        -0.10742
      12 -> 14         0.51012
      13 -> 15         0.38623
      13 -> 19         0.11104
 
 Excited State   8:      Singlet-A      6.3266 eV  195.97 nm  f=0.1584  <S**2>=0.000
      12 -> 15         0.65379
      13 -> 14        -0.21122
 
 Excited State   9:      Singlet-A      6.6431 eV  186.64 nm  f=0.0018  <S**2>=0.000
      13 -> 17        -0.38052
      13 -> 18         0.40539
      13 -> 19         0.36817
 
 Excited State  10:      Singlet-A      6.9308 eV  178.89 nm  f=0.0088  <S**2>=0.000
       9 -> 14         0.13309
       9 -> 15         0.19759
      10 -> 14         0.20529
      10 -> 15        -0.17225
      11 -> 14         0.57872
 
 Excited State  11:      Singlet-A      7.0494 eV  175.88 nm  f=0.0009  <S**2>=0.000
      12 -> 17        -0.34430
      12 -> 18         0.40378
      12 -> 19         0.21874
      12 -> 21         0.26973
      12 -> 23         0.18187
      13 -> 18        -0.12315
      13 -> 22        -0.12845
 
 Excited State  12:      Singlet-A      7.3748 eV  168.12 nm  f=0.0002  <S**2>=0.000
       9 -> 14         0.36003
      10 -> 14        -0.39811
      11 -> 15         0.41142
 
 Excited State  13:      Singlet-A      7.4243 eV  167.00 nm  f=0.0008  <S**2>=0.000
      10 -> 15        -0.14270
      12 -> 17         0.28965
      12 -> 18         0.13604
      12 -> 19         0.27510
      12 -> 21        -0.16772
      13 -> 17         0.17966
      13 -> 19         0.34599
      13 -> 20         0.18673
 
 Excited State  14:      Singlet-A      7.5917 eV  163.32 nm  f=0.0004  <S**2>=0.000
      10 -> 15        -0.12849
      12 -> 17         0.16664
      12 -> 18         0.31759
      12 -> 19        -0.27297
      12 -> 22        -0.23097
      13 -> 17        -0.25214
      13 -> 18        -0.18984
      13 -> 21         0.14894
      13 -> 23        -0.10899
      13 -> 24        -0.17618
 
 Excited State  15:      Singlet-A      7.7285 eV  160.42 nm  f=0.0011  <S**2>=0.000
      12 -> 17         0.13785
      12 -> 18         0.11311
      12 -> 19         0.11656
      12 -> 21         0.15635
      12 -> 23         0.16092
      13 -> 19        -0.12037
      13 -> 20         0.16365
      13 -> 21        -0.16865
      13 -> 22         0.53949
 SavETr:  write IOETrn=   770 NScale= 10 NData=  16 NLR=1 NState=   15 LETran=     280.
 The selected state is a singlet
 CISAX will form     1 AO SS matrices at one time.
 NMat=     1 NSing=     1 JSym2X= 0.
 Leave Link  914 at Tue Dec 15 16:23:05 2015, MaxMem=    33554432 cpu:         0.1
 (Enter /home/Applications/g09/g09/l1002.exe)
 Minotr:  Closed shell wavefunction.
          Computing CIS/TD-HF/TD-KS derivatives.
          Using Z-Vector for PSCF gradient.
          Skipping F1 and S1 gradient terms here.
          IDoAtm=111111111
          Direct CPHF calculation.
          Differentiating once with respect to electric field.
                with respect to dipole field.
          Differentiating once with respect to nuclear coordinates.
          Electric field/nuclear overlap derivatives assumed to be zero.
          Requested convergence is 1.0D-10 RMS, and 1.0D-09 maximum.
          NewPWx=T KeepS1=F KeepF1=F KeepIn=T MapXYZ=F SortEE=F KeepMc=T.
          MDV=      33495423 using IRadAn=       0.
 Keep J ints in memory in canonical form, NReq=871704.
 FoFCou: FMM=F IPFlag=           0 FMFlag=           0 FMFlg1=           0
         NFxFlg=           0 DoJE=F BraDBF=F KetDBF=F FulRan=T
         wScrn=  0.000000 ICntrl=     600 IOpCl=  2 I1Cent=           0 NGrid=           0
         NMat0=    1 NMatS0=     54 NMatT0=    0 NMatD0=    1 NMtDS0=    0 NMtDT0=    0
 Symmetry not used in FoFCou.
          Solving linear equations separately, MaxMat=       0.
          There are     1 degrees of freedom in the 1st order CPHF.  IDoFFX=0 NUNeed=     1.
 LinEq1:  Iter=  0 NonCon=     1 RMS=1.21D-02 Max=8.49D-02 NDo=     1
 AX will form     1 AO Fock derivatives at one time.
 LinEq1:  Iter=  1 NonCon=     1 RMS=2.17D-03 Max=1.34D-02 NDo=     1
 LinEq1:  Iter=  2 NonCon=     1 RMS=3.23D-04 Max=2.28D-03 NDo=     1
 LinEq1:  Iter=  3 NonCon=     1 RMS=4.53D-05 Max=2.41D-04 NDo=     1
 LinEq1:  Iter=  4 NonCon=     1 RMS=5.13D-06 Max=2.61D-05 NDo=     1
 LinEq1:  Iter=  5 NonCon=     1 RMS=8.78D-07 Max=4.01D-06 NDo=     1
 LinEq1:  Iter=  6 NonCon=     1 RMS=1.40D-07 Max=8.61D-07 NDo=     1
 LinEq1:  Iter=  7 NonCon=     1 RMS=1.82D-08 Max=7.55D-08 NDo=     1
 LinEq1:  Iter=  8 NonCon=     1 RMS=2.23D-09 Max=8.47D-09 NDo=     1
 LinEq1:  Iter=  9 NonCon=     1 RMS=2.52D-10 Max=9.90D-10 NDo=     1
 LinEq1:  Iter= 10 NonCon=     0 RMS=3.01D-11 Max=1.49D-10 NDo=     1
 Linear equations converged to 1.000D-10 1.000D-09 after    10 iterations.
 End of Minotr F.D. properties file   721 does not exist.
 End of Minotr F.D. properties file   722 does not exist.
 End of Minotr F.D. properties file   788 does not exist.
 Leave Link 1002 at Tue Dec 15 16:23:05 2015, MaxMem=    33554432 cpu:         0.0
 (Enter /home/Applications/g09/g09/l601.exe)
 Copying SCF densities to generalized density rwf, IOpCl= 0 IROHF=0.

 **********************************************************************

            Population analysis using the SCF density.

 **********************************************************************

 Orbital symmetries:
       Occupied  (A) (A) (A) (A) (A) (A) (A) (A) (A) (A) (A) (A)
                 (A)
       Virtual   (A) (A) (A) (A) (A) (A) (A) (A) (A) (A) (A)
 The electronic state is 1-A.
 Alpha  occ. eigenvalues --   -1.58502  -1.22970  -1.11365  -0.83068  -0.81725
 Alpha  occ. eigenvalues --   -0.69287  -0.61269  -0.58005  -0.50850  -0.50024
 Alpha  occ. eigenvalues --   -0.49488  -0.39127  -0.34516
 Alpha virt. eigenvalues --    0.03101   0.06174   0.09313   0.14486   0.15099
 Alpha virt. eigenvalues --    0.15811   0.17994   0.18393   0.19487   0.20620
 Alpha virt. eigenvalues --    0.22947
     Molecular Orbital Coefficients:
                           1         2         3         4         5
                           O         O         O         O         O
     Eigenvalues --    -1.58502  -1.22970  -1.11365  -0.83068  -0.81725
   1 1   C  1S          0.26026  -0.46767   0.29391   0.43900  -0.04238
   2        1PX         0.07902  -0.10502  -0.11085  -0.09548  -0.23435
   3        1PY        -0.09810   0.01843  -0.13538   0.11467  -0.26017
   4        1PZ        -0.00121   0.00200  -0.00166  -0.00287  -0.00351
   5 2   C  1S          0.36026  -0.10351   0.52536  -0.25671   0.31549
   6        1PX         0.18844   0.08669  -0.00506  -0.05421  -0.21094
   7        1PY         0.00821  -0.21878   0.01133   0.32068   0.13234
   8        1PZ         0.00524   0.00021   0.00848  -0.00762   0.00088
   9 3   O  1S          0.65854   0.56470  -0.02293   0.13655  -0.25433
  10        1PX        -0.03050  -0.00843  -0.36379   0.44036   0.21403
  11        1PY         0.19732  -0.04419  -0.05155  -0.00173   0.17598
  12        1PZ        -0.00666  -0.00361   0.00099  -0.00232  -0.00393
  13 4   C  1S          0.36153  -0.14951  -0.51101  -0.11140   0.38748
  14        1PX        -0.18430  -0.01639   0.00690  -0.11587   0.10818
  15        1PY        -0.03994  -0.23771  -0.00020  -0.33520  -0.16232
  16        1PZ         0.00941  -0.00172  -0.01414   0.00071   0.01144
  17 5   C  1S          0.27391  -0.49617  -0.24706  -0.20456  -0.37678
  18        1PX        -0.04522   0.07980  -0.16928  -0.28744   0.11176
  19        1PY        -0.12014   0.04724   0.10049   0.06792  -0.23682
  20        1PZ        -0.00370   0.00665   0.00407   0.00651   0.00370
  21 6   H  1S          0.05806  -0.15993  -0.09384  -0.12752  -0.25032
  22 7   H  1S          0.07836  -0.04091  -0.20345  -0.05817   0.26236
  23 8   H  1S          0.08479  -0.02175   0.22014  -0.20269   0.20254
  24 9   H  1S          0.05329  -0.14562   0.10670   0.26955  -0.03436
                           6         7         8         9        10
                           O         O         O         O         O
     Eigenvalues --    -0.69287  -0.61269  -0.58005  -0.50850  -0.50024
   1 1   C  1S         -0.10542   0.00687  -0.18013   0.01377  -0.05712
   2        1PX         0.18990   0.01077   0.10557  -0.37596  -0.35159
   3        1PY        -0.21638  -0.01590  -0.11143   0.40537  -0.09154
   4        1PZ        -0.00540   0.20725   0.01166  -0.00293  -0.00982
   5 2   C  1S         -0.06824  -0.01971   0.13433  -0.08216   0.07410
   6        1PX         0.33510   0.01701  -0.42530  -0.08546   0.18760
   7        1PY         0.16544   0.01908  -0.02998  -0.26291   0.19450
   8        1PZ        -0.01397   0.38319   0.01800   0.01227   0.00398
   9 3   O  1S         -0.19612   0.00772   0.00401  -0.02755  -0.05708
  10        1PX        -0.08294  -0.01569   0.43469  -0.05469  -0.01953
  11        1PY         0.49290   0.02165   0.04158   0.19495   0.38920
  12        1PZ        -0.03195   0.78063   0.02945   0.01906   0.01827
  13 4   C  1S         -0.08420  -0.01845  -0.14635   0.07738  -0.04576
  14        1PX        -0.36657   0.01563  -0.40575  -0.31321   0.00394
  15        1PY         0.06570   0.01736  -0.10077   0.24368  -0.15728
  16        1PZ        -0.01636   0.38509   0.01060  -0.00044   0.01040
  17 5   C  1S         -0.08426  -0.00318   0.18318  -0.04399  -0.02177
  18        1PX        -0.12494  -0.01101   0.02574   0.22260   0.38472
  19        1PY        -0.25889  -0.02672   0.12353  -0.24685   0.45198
  20        1PZ        -0.00679   0.21733   0.00652  -0.01099  -0.00346
  21 6   H  1S         -0.21607  -0.02582   0.18789  -0.11817   0.45849
  22 7   H  1S         -0.26549   0.01617  -0.33632  -0.24931   0.01370
  23 8   H  1S         -0.26184  -0.01680   0.33748   0.12771  -0.17104
  24 9   H  1S         -0.22492  -0.01138  -0.20977   0.44749   0.10616
                          11        12        13        14        15
                           O         O         O         V         V
     Eigenvalues --    -0.49488  -0.39127  -0.34516   0.03101   0.06174
   1 1   C  1S         -0.02835   0.00536   0.00971   0.00293  -0.00783
   2        1PX         0.26502  -0.03204  -0.00534   0.00244   0.01085
   3        1PY         0.36160  -0.01545  -0.01247  -0.00901  -0.00324
   4        1PZ         0.02838   0.56680   0.41924  -0.35021  -0.57898
   5 2   C  1S          0.04133  -0.00429  -0.01917  -0.02906  -0.00218
   6        1PX         0.05582   0.00491   0.00359   0.00060   0.01884
   7        1PY        -0.39968   0.00846   0.00773   0.01007   0.00409
   8        1PZ         0.01551   0.11651   0.60974   0.59425   0.33386
   9 3   O  1S         -0.20226  -0.00006  -0.00115   0.00331  -0.01140
  10        1PX        -0.05932  -0.00042  -0.00617  -0.00054  -0.00816
  11        1PY         0.42948  -0.01992  -0.00487   0.00296  -0.02163
  12        1PZ        -0.01605  -0.48289  -0.03047  -0.39002   0.02067
  13 4   C  1S          0.06591  -0.01317   0.03549  -0.04485   0.03867
  14        1PX         0.04725  -0.01009   0.00547  -0.01404   0.00966
  15        1PY        -0.37289   0.00557  -0.00604   0.00881  -0.03631
  16        1PZ         0.01740   0.20779  -0.58620   0.53805  -0.40556
  17 5   C  1S         -0.02809   0.02008  -0.01614   0.00136   0.01610
  18        1PX        -0.34890   0.03346  -0.00791   0.00573   0.01499
  19        1PY         0.23185  -0.01406   0.01423  -0.01435   0.00635
  20        1PZ         0.03031   0.62032  -0.32388  -0.27691   0.61742
  21 6   H  1S          0.02046  -0.00193   0.00966   0.00298  -0.01415
  22 7   H  1S          0.18950  -0.00704  -0.01403   0.04150  -0.04615
  23 8   H  1S          0.20372  -0.00986   0.00496   0.02477   0.00604
  24 9   H  1S          0.05007   0.00532  -0.00719   0.00075   0.01286
                          16        17        18        19        20
                           V         V         V         V         V
     Eigenvalues --     0.09313   0.14486   0.15099   0.15811   0.17994
   1 1   C  1S          0.03189  -0.40158  -0.13840   0.03061  -0.31363
   2        1PX         0.00067  -0.08439   0.37155   0.25978   0.26656
   3        1PY         0.05946  -0.01543   0.33451  -0.27405  -0.06198
   4        1PZ        -0.01234   0.00116   0.01823   0.01566   0.00354
   5 2   C  1S         -0.25764   0.28825   0.31668  -0.22673   0.05474
   6        1PX        -0.31814  -0.09412   0.12039   0.34385  -0.13573
   7        1PY         0.28127   0.03075   0.25864  -0.04900   0.22044
   8        1PZ        -0.01425   0.01746   0.01613  -0.02716   0.00532
   9 3   O  1S          0.25663  -0.01415   0.02755  -0.03017   0.05531
  10        1PX        -0.05778   0.09004   0.23543   0.15213  -0.05138
  11        1PY         0.47112  -0.02118   0.04954   0.00369   0.01688
  12        1PZ        -0.01542   0.00759  -0.01440   0.01328  -0.01110
  13 4   C  1S         -0.27769  -0.33528   0.03496  -0.29706   0.15488
  14        1PX         0.18577  -0.16862   0.33462   0.09794   0.05846
  15        1PY         0.38400  -0.08822   0.08556  -0.20087   0.23104
  16        1PZ        -0.06286  -0.04752   0.02639  -0.03145   0.01429
  17 5   C  1S          0.03365   0.35457   0.03115   0.04264  -0.33139
  18        1PX        -0.01502  -0.10682   0.30227   0.31232  -0.34311
  19        1PY         0.05819  -0.09951   0.19023  -0.31319  -0.12355
  20        1PZ         0.03913  -0.00285  -0.02551  -0.00824   0.02119
  21 6   H  1S         -0.12575  -0.18630  -0.35015   0.09317   0.48050
  22 7   H  1S          0.30267   0.42719  -0.31011   0.10563  -0.09748
  23 8   H  1S          0.25759  -0.32502  -0.03544   0.43112  -0.02056
  24 9   H  1S         -0.11800   0.32954   0.13915   0.34177   0.43075
                          21        22        23        24
                           V         V         V         V
     Eigenvalues --     0.18393   0.19487   0.20620   0.22947
   1 1   C  1S          0.23180   0.14498   0.16933   0.02069
   2        1PX         0.25467   0.05583   0.34043  -0.23478
   3        1PY         0.37783  -0.15653  -0.38848  -0.12102
   4        1PZ        -0.00765  -0.00678  -0.00186  -0.01416
   5 2   C  1S          0.22951   0.02257  -0.08111   0.12597
   6        1PX        -0.01057  -0.40036  -0.18084   0.34019
   7        1PY        -0.04036  -0.32285  -0.32101  -0.35940
   8        1PZ         0.01578   0.01165   0.00086   0.01433
   9 3   O  1S         -0.02273   0.09309   0.00010  -0.00098
  10        1PX         0.14665  -0.00938  -0.00024   0.55642
  11        1PY        -0.04599   0.26839   0.00581   0.07854
  12        1PZ         0.00588  -0.01350   0.00036  -0.00533
  13 4   C  1S         -0.20105  -0.11356   0.09861  -0.10497
  14        1PX        -0.22007   0.43766  -0.24402   0.23048
  15        1PY         0.11500  -0.19245   0.23466   0.44964
  16        1PZ        -0.03770   0.00212   0.00159  -0.01328
  17 5   C  1S         -0.32263   0.09486  -0.18834  -0.03374
  18        1PX         0.28779   0.11092   0.20905  -0.27128
  19        1PY        -0.24632  -0.31779   0.42728   0.05350
  20        1PZ         0.02685  -0.01206   0.00943   0.01594
  21 6   H  1S          0.30947   0.11036  -0.22484   0.06778
  22 7   H  1S          0.33063  -0.26624   0.14572  -0.00115
  23 8   H  1S         -0.19703  -0.39751  -0.18504  -0.02425
  24 9   H  1S         -0.25308   0.01369   0.26449  -0.05752
     Density Matrix:
                           1         2         3         4         5
   1 1   C  1S          1.23068
   2        1PX        -0.05335   0.95435
   3        1PY         0.06110  -0.04301   0.94495
   4        1PZ         0.00774  -0.00981  -0.01295   1.08216
   5 2   C  1S          0.29327  -0.10257  -0.48924  -0.02764   1.23874
   6        1PX         0.04028   0.12133  -0.04936   0.00377  -0.10714
   7        1PY         0.45554  -0.17317  -0.61183  -0.00717  -0.01079
   8        1PZ         0.01457  -0.01109  -0.01405   0.80347  -0.01578
   9 3   O  1S         -0.00022  -0.03613  -0.01292  -0.00409   0.10985
  10        1PX         0.01129  -0.02336  -0.05018  -0.00657  -0.36337
  11        1PY        -0.08506  -0.02510   0.05651  -0.00816   0.21364
  12        1PZ        -0.00079   0.00825   0.00103  -0.24970  -0.01923
  13 4   C  1S         -0.02861  -0.01239   0.02269   0.00701   0.01381
  14        1PX         0.02448  -0.02198  -0.02092  -0.00117   0.00184
  15        1PY        -0.01066  -0.08277  -0.04316  -0.01190  -0.04081
  16        1PZ        -0.00859  -0.00101   0.00713  -0.09521   0.01278
  17 5   C  1S          0.26827   0.45693   0.08753   0.01417  -0.02927
  18        1PX        -0.46045  -0.65102  -0.16087   0.00187   0.00713
  19        1PY        -0.02969  -0.03456   0.10713  -0.00225   0.02081
  20        1PZ         0.00044  -0.01191  -0.00343   0.52375   0.00423
  21 6   H  1S         -0.04521  -0.06038  -0.00355  -0.00321   0.05355
  22 7   H  1S          0.04399   0.06160   0.01067  -0.00725   0.05107
  23 8   H  1S         -0.05635   0.01719   0.09208   0.00961   0.62623
  24 9   H  1S          0.58635  -0.53483   0.55902  -0.01142  -0.05806
                           6         7         8         9        10
   6        1PX         0.85920
   7        1PY         0.08490   0.92772
   8        1PZ        -0.00261  -0.00145   1.06656
   9 3   O  1S          0.26494  -0.12743   0.00695   1.83978
  10        1PX        -0.57783   0.34839  -0.01784   0.04342   1.15215
  11        1PY         0.44930  -0.06653   0.01645  -0.29920  -0.03368
  12        1PZ        -0.02430   0.01769   0.45062   0.01677   0.00232
  13 4   C  1S          0.00862  -0.03976   0.02419   0.10901   0.29241
  14        1PX         0.05477  -0.00937   0.00588  -0.20978  -0.31323
  15        1PY         0.03662  -0.01739  -0.00076  -0.20097  -0.43336
  16        1PZ        -0.00464  -0.00247  -0.36999   0.01104   0.01975
  17 5   C  1S         -0.01525  -0.01669  -0.00969  -0.00172   0.01248
  18        1PX        -0.05586   0.07437  -0.00690   0.03699  -0.03519
  19        1PY         0.01258  -0.01330   0.00902  -0.00017   0.02472
  20        1PZ         0.00246  -0.00638  -0.08284  -0.00219   0.00567
  21 6   H  1S          0.00359   0.06127   0.00618   0.02439   0.04045
  22 7   H  1S          0.09755  -0.03574  -0.01247  -0.04578  -0.03941
  23 8   H  1S         -0.56396  -0.46462   0.02649  -0.04615   0.04905
  24 9   H  1S         -0.02474  -0.06553  -0.00600   0.02127  -0.05939
                          11        12        13        14        15
  11        1PY         1.38804
  12        1PZ         0.02837   1.69282
  13 4   C  1S          0.30069  -0.02961   1.23890
  14        1PX        -0.50607   0.02231   0.11220   0.91828
  15        1PY        -0.34144   0.03255   0.01148  -0.09008   0.86964
  16        1PZ         0.03108   0.43752  -0.02988   0.00554  -0.00210
  17 5   C  1S         -0.08132  -0.00541   0.30301  -0.18505   0.43224
  18        1PX        -0.00331  -0.00562   0.23282   0.00273   0.34831
  19        1PY         0.06352  -0.00252  -0.44155   0.24641  -0.47712
  20        1PZ        -0.00043  -0.24079  -0.05291   0.00063  -0.01915
  21 6   H  1S          0.08893   0.00019  -0.05434   0.04278  -0.04619
  22 7   H  1S         -0.06428   0.01203   0.61998   0.68214  -0.26649
  23 8   H  1S         -0.05413   0.01049   0.05376  -0.08097  -0.06545
  24 9   H  1S          0.07018  -0.00154   0.05152  -0.02346   0.05521
                          16        17        18        19        20
  16        1PZ         1.07263
  17 5   C  1S          0.03501   1.22117
  18        1PX         0.02081   0.02848   0.93810
  19        1PY        -0.02491   0.06537   0.03898   0.97965
  20        1PZ         0.80613   0.02083   0.01227  -0.01533   1.07639
  21 6   H  1S         -0.01222   0.57198   0.36819   0.69560  -0.02066
  22 7   H  1S          0.04793  -0.05756  -0.03692   0.08090   0.02188
  23 8   H  1S         -0.00392   0.04164  -0.05835  -0.00457  -0.00432
  24 9   H  1S          0.00643  -0.04865   0.06528   0.01091   0.00089
                          21        22        23        24
  21 6   H  1S          0.84804
  22 7   H  1S          0.01037   0.80755
  23 8   H  1S         -0.01193  -0.02432   0.81631
  24 9   H  1S         -0.00636  -0.01349   0.01395   0.83620
    Full Mulliken population analysis:
                           1         2         3         4         5
   1 1   C  1S          1.23068
   2        1PX         0.00000   0.95435
   3        1PY         0.00000   0.00000   0.94495
   4        1PZ         0.00000   0.00000   0.00000   1.08216
   5 2   C  1S          0.00000   0.00000   0.00000   0.00000   1.23874
   6        1PX         0.00000   0.00000   0.00000   0.00000   0.00000
   7        1PY         0.00000   0.00000   0.00000   0.00000   0.00000
   8        1PZ         0.00000   0.00000   0.00000   0.00000   0.00000
   9 3   O  1S          0.00000   0.00000   0.00000   0.00000   0.00000
  10        1PX         0.00000   0.00000   0.00000   0.00000   0.00000
  11        1PY         0.00000   0.00000   0.00000   0.00000   0.00000
  12        1PZ         0.00000   0.00000   0.00000   0.00000   0.00000
  13 4   C  1S          0.00000   0.00000   0.00000   0.00000   0.00000
  14        1PX         0.00000   0.00000   0.00000   0.00000   0.00000
  15        1PY         0.00000   0.00000   0.00000   0.00000   0.00000
  16        1PZ         0.00000   0.00000   0.00000   0.00000   0.00000
  17 5   C  1S          0.00000   0.00000   0.00000   0.00000   0.00000
  18        1PX         0.00000   0.00000   0.00000   0.00000   0.00000
  19        1PY         0.00000   0.00000   0.00000   0.00000   0.00000
  20        1PZ         0.00000   0.00000   0.00000   0.00000   0.00000
  21 6   H  1S          0.00000   0.00000   0.00000   0.00000   0.00000
  22 7   H  1S          0.00000   0.00000   0.00000   0.00000   0.00000
  23 8   H  1S          0.00000   0.00000   0.00000   0.00000   0.00000
  24 9   H  1S          0.00000   0.00000   0.00000   0.00000   0.00000
                           6         7         8         9        10
   6        1PX         0.85920
   7        1PY         0.00000   0.92772
   8        1PZ         0.00000   0.00000   1.06656
   9 3   O  1S          0.00000   0.00000   0.00000   1.83978
  10        1PX         0.00000   0.00000   0.00000   0.00000   1.15215
  11        1PY         0.00000   0.00000   0.00000   0.00000   0.00000
  12        1PZ         0.00000   0.00000   0.00000   0.00000   0.00000
  13 4   C  1S          0.00000   0.00000   0.00000   0.00000   0.00000
  14        1PX         0.00000   0.00000   0.00000   0.00000   0.00000
  15        1PY         0.00000   0.00000   0.00000   0.00000   0.00000
  16        1PZ         0.00000   0.00000   0.00000   0.00000   0.00000
  17 5   C  1S          0.00000   0.00000   0.00000   0.00000   0.00000
  18        1PX         0.00000   0.00000   0.00000   0.00000   0.00000
  19        1PY         0.00000   0.00000   0.00000   0.00000   0.00000
  20        1PZ         0.00000   0.00000   0.00000   0.00000   0.00000
  21 6   H  1S          0.00000   0.00000   0.00000   0.00000   0.00000
  22 7   H  1S          0.00000   0.00000   0.00000   0.00000   0.00000
  23 8   H  1S          0.00000   0.00000   0.00000   0.00000   0.00000
  24 9   H  1S          0.00000   0.00000   0.00000   0.00000   0.00000
                          11        12        13        14        15
  11        1PY         1.38804
  12        1PZ         0.00000   1.69282
  13 4   C  1S          0.00000   0.00000   1.23890
  14        1PX         0.00000   0.00000   0.00000   0.91828
  15        1PY         0.00000   0.00000   0.00000   0.00000   0.86964
  16        1PZ         0.00000   0.00000   0.00000   0.00000   0.00000
  17 5   C  1S          0.00000   0.00000   0.00000   0.00000   0.00000
  18        1PX         0.00000   0.00000   0.00000   0.00000   0.00000
  19        1PY         0.00000   0.00000   0.00000   0.00000   0.00000
  20        1PZ         0.00000   0.00000   0.00000   0.00000   0.00000
  21 6   H  1S          0.00000   0.00000   0.00000   0.00000   0.00000
  22 7   H  1S          0.00000   0.00000   0.00000   0.00000   0.00000
  23 8   H  1S          0.00000   0.00000   0.00000   0.00000   0.00000
  24 9   H  1S          0.00000   0.00000   0.00000   0.00000   0.00000
                          16        17        18        19        20
  16        1PZ         1.07263
  17 5   C  1S          0.00000   1.22117
  18        1PX         0.00000   0.00000   0.93810
  19        1PY         0.00000   0.00000   0.00000   0.97965
  20        1PZ         0.00000   0.00000   0.00000   0.00000   1.07639
  21 6   H  1S          0.00000   0.00000   0.00000   0.00000   0.00000
  22 7   H  1S          0.00000   0.00000   0.00000   0.00000   0.00000
  23 8   H  1S          0.00000   0.00000   0.00000   0.00000   0.00000
  24 9   H  1S          0.00000   0.00000   0.00000   0.00000   0.00000
                          21        22        23        24
  21 6   H  1S          0.84804
  22 7   H  1S          0.00000   0.80755
  23 8   H  1S          0.00000   0.00000   0.81631
  24 9   H  1S          0.00000   0.00000   0.00000   0.83620
     Gross orbital populations:
                           1
   1 1   C  1S          1.23068
   2        1PX         0.95435
   3        1PY         0.94495
   4        1PZ         1.08216
   5 2   C  1S          1.23874
   6        1PX         0.85920
   7        1PY         0.92772
   8        1PZ         1.06656
   9 3   O  1S          1.83978
  10        1PX         1.15215
  11        1PY         1.38804
  12        1PZ         1.69282
  13 4   C  1S          1.23890
  14        1PX         0.91828
  15        1PY         0.86964
  16        1PZ         1.07263
  17 5   C  1S          1.22117
  18        1PX         0.93810
  19        1PY         0.97965
  20        1PZ         1.07639
  21 6   H  1S          0.84804
  22 7   H  1S          0.80755
  23 8   H  1S          0.81631
  24 9   H  1S          0.83620
          Condensed to atoms (all electrons):
               1          2          3          4          5          6
     1  C    4.212133   0.000000   0.000000   0.000000   0.000000   0.000000
     2  C    0.000000   4.092216   0.000000   0.000000   0.000000   0.000000
     3  O    0.000000   0.000000   6.072787   0.000000   0.000000   0.000000
     4  C    0.000000   0.000000   0.000000   4.099451   0.000000   0.000000
     5  C    0.000000   0.000000   0.000000   0.000000   4.215318   0.000000
     6  H    0.000000   0.000000   0.000000   0.000000   0.000000   0.848036
     7  H    0.000000   0.000000   0.000000   0.000000   0.000000   0.000000
     8  H    0.000000   0.000000   0.000000   0.000000   0.000000   0.000000
     9  H    0.000000   0.000000   0.000000   0.000000   0.000000   0.000000
               7          8          9
     1  C    0.000000   0.000000   0.000000
     2  C    0.000000   0.000000   0.000000
     3  O    0.000000   0.000000   0.000000
     4  C    0.000000   0.000000   0.000000
     5  C    0.000000   0.000000   0.000000
     6  H    0.000000   0.000000   0.000000
     7  H    0.807554   0.000000   0.000000
     8  H    0.000000   0.816307   0.000000
     9  H    0.000000   0.000000   0.836198
 Mulliken charges:
               1
     1  C   -0.212133
     2  C   -0.092216
     3  O   -0.072787
     4  C   -0.099451
     5  C   -0.215318
     6  H    0.151964
     7  H    0.192446
     8  H    0.183693
     9  H    0.163802
 Sum of Mulliken charges =   0.00000
 Mulliken charges with hydrogens summed into heavy atoms:
               1
     1  C   -0.048331
     2  C    0.091478
     3  O   -0.072787
     4  C    0.092995
     5  C   -0.063354
 Charge=              0.0000 electrons
 Dipole moment (field-independent basis, Debye):
    X=             -0.0025    Y=              0.2781    Z=              0.0843  Tot=              0.2906
 N-N= 1.038600331882D+02 E-N=-1.716567539822D+02  KE=-1.661361111096D+01
 Orbital energies and kinetic energies (alpha):
                                 1                 2
   1         O                -1.585016         -1.323476
   2         O                -1.229698         -1.048465
   3         O                -1.113650         -0.969839
   4         O                -0.830678         -0.714686
   5         O                -0.817253         -0.722640
   6         O                -0.692865         -0.605790
   7         O                -0.612692         -0.493178
   8         O                -0.580053         -0.514377
   9         O                -0.508497         -0.440708
  10         O                -0.500242         -0.428445
  11         O                -0.494878         -0.391943
  12         O                -0.391266         -0.340535
  13         O                -0.345156         -0.312723
  14         V                 0.031008         -0.191439
  15         V                 0.061742         -0.192792
  16         V                 0.093131         -0.182808
  17         V                 0.144856         -0.246338
  18         V                 0.150988         -0.166649
  19         V                 0.158111         -0.178929
  20         V                 0.179942         -0.202065
  21         V                 0.183934         -0.177724
  22         V                 0.194868         -0.126779
  23         V                 0.206196         -0.125099
  24         V                 0.229465         -0.033840
 Total kinetic energy from orbitals=-1.661361111096D+01
 Leave Link  601 at Tue Dec 15 16:23:05 2015, MaxMem=    33554432 cpu:         0.0
 (Enter /home/Applications/g09/g09/l701.exe)
 Compute integral first derivatives.
 ... and contract with generalized density number  6.
 Leave Link  701 at Tue Dec 15 16:23:05 2015, MaxMem=    33554432 cpu:         0.0
 (Enter /home/Applications/g09/g09/l702.exe)
 L702 exits ... SP integral derivatives will be done elsewhere.
 Leave Link  702 at Tue Dec 15 16:23:05 2015, MaxMem=    33554432 cpu:         0.0
 (Enter /home/Applications/g09/g09/l703.exe)
 Compute integral first derivatives, UseDBF=F ICtDFT=           0.
 Integral derivatives from FoFJK, PRISM(SPDF).
 Calling FoFJK, ICntrl=  10005127 FMM=F ISym2X=0 I1Cent= 0 IOpClX= 0 NMat=1 NMatS=1 NMatT=0.
 FoFJK:  IHMeth= 8 ICntrl=10005127 DoSepK=F KAlg= 0 I1Cent=   0 FoldK=F
 IRaf=         0 NMat=   1 IRICut=       1 DoRegI=T DoRafI=F ISym2E= 0.
 FoFCou: FMM=F IPFlag=           0 FMFlag=      100000 FMFlg1=         800
         NFxFlg=           0 DoJE=F BraDBF=F KetDBF=F FulRan=T
         wScrn=  0.000000 ICntrl=10005127 IOpCl=  0 I1Cent=           0 NGrid=           0
         NMat0=    1 NMatS0=      1 NMatT0=    0 NMatD0=    1 NMtDS0=    0 NMtDT0=    0
 Symmetry not used in FoFCou.
 Leave Link  703 at Tue Dec 15 16:23:05 2015, MaxMem=    33554432 cpu:         0.0
 (Enter /home/Applications/g09/g09/l716.exe)
 Dipole        =-3.55788531D-03 2.13211642D-01 7.54891054D-02
 ***** Axes restored to original set *****
 -------------------------------------------------------------------
 Center     Atomic                   Forces (Hartrees/Bohr)
 Number     Number              X              Y              Z
 -------------------------------------------------------------------
      1        6           0.060457669    0.024165905    0.001317169
      2        6           0.034282813   -0.024057712   -0.001496045
      3        8          -0.155411484    0.002283976    0.004138663
      4        6          -0.007960916    0.052518303   -0.007542478
      5        6           0.110720616   -0.023194520    0.007413965
      6        1           0.007600362    0.003945132   -0.002996187
      7        1          -0.017343194    0.018938093    0.002362990
      8        1          -0.030049723   -0.055825192   -0.001478158
      9        1          -0.002296142    0.001226015   -0.001719918
 -------------------------------------------------------------------
 Cartesian Forces:  Max     0.155411484 RMS     0.043325376
 Z-matrix is all fixed cartesians, so copy forces.
 Force constants in Cartesian coordinates: 
                1             2             3             4             5 
      1  0.858903D+00
      2 -0.439731D-01  0.766277D+00
      3 -0.107117D-01 -0.457842D-02  0.192871D+00
      4 -0.446222D+00 -0.920463D-01  0.137914D-01  0.915317D+00
      5 -0.677900D-01 -0.203452D+00  0.395218D-02  0.218811D-01  0.992477D+00
      6  0.113338D-01  0.238515D-02 -0.984034D-01  0.324201D-02  0.129233D-01
      7 -0.877704D-02  0.295753D-01 -0.103177D-02 -0.299889D+00  0.187623D+00
      8 -0.608427D-02  0.205888D-01 -0.203702D-03  0.230120D+00 -0.422266D+00
      9  0.503310D-03 -0.135252D-02  0.762215D-02 -0.776947D-02  0.500441D-02
     10  0.103210D-01  0.398736D-03 -0.877582D-03  0.264453D-01  0.184494D-01
     11  0.344243D-01  0.131812D-02 -0.395582D-02 -0.177834D-01 -0.124047D-01
     12 -0.527710D-03 -0.126065D-03 -0.117355D-02  0.111758D-02  0.840225D-03
     13 -0.166646D+00  0.203458D-01  0.122310D-02  0.996548D-02 -0.336656D-01
     14 -0.947815D-03 -0.409306D+00  0.435118D-02  0.371122D-03 -0.129232D-02
     15  0.100217D-02 -0.159443D-02 -0.776943D-01 -0.376557D-03  0.210549D-02
     16  0.173994D-01  0.666255D-03  0.286837D-03 -0.511140D-05  0.000000D+00
     17 -0.231783D-01 -0.887912D-03 -0.142742D-02  0.000000D+00  0.000000D+00
     18  0.429540D-03  0.225943D-04  0.171630D-01  0.114166D-03  0.578596D-05
     19  0.386530D-04  0.172512D-05  0.684560D-03  0.253221D-04  0.102451D-04
     20  0.556003D-04  0.248149D-05  0.984702D-03 -0.823812D-05 -0.333308D-05
     21  0.394005D-03  0.175848D-04  0.697798D-02 -0.219682D-03 -0.888815D-04
     22  0.783603D-02 -0.267017D-01 -0.194073D-02 -0.200869D+00 -0.142617D+00
     23 -0.422603D-02  0.142264D-01 -0.707248D-03 -0.135665D+00 -0.376298D+00
     24  0.180618D-03  0.217986D-02  0.281188D-01 -0.113070D-01 -0.223981D-01
     25 -0.272853D+00  0.111733D+00 -0.142410D-02 -0.476836D-02  0.161088D-01
     26  0.111720D+00 -0.188768D+00  0.158454D-02 -0.686955D-02  0.232392D-01
     27 -0.260396D-02  0.304626D-02 -0.754813D-01  0.140757D-02 -0.234439D-02
                6             7             8             9            10 
      6  0.195359D+00
      7 -0.581230D-02  0.556324D+00
      8  0.377687D-02 -0.874867D-02  0.818451D+00
      9 -0.480110D-01  0.173882D-01  0.102641D-01  0.624659D-01
     10  0.211496D-02 -0.285401D+00 -0.222307D+00 -0.175783D-01  0.931822D+00
     11 -0.156787D-02 -0.176565D+00 -0.420398D+00 -0.170139D-01 -0.201066D-01
     12 -0.174315D-02 -0.118939D-01 -0.136280D-01 -0.499566D-01  0.241934D-03
     13  0.107614D-03 -0.926633D-02  0.614935D-02  0.140613D-02 -0.508165D+00
     14  0.281253D-03 -0.304670D-01  0.203177D-01  0.279306D-02  0.110740D+00
     15 -0.177986D-02 -0.206543D-02  0.767165D-03  0.846614D-02  0.287339D-01
     16 -0.176828D-03  0.648727D-05 -0.114383D-04  0.178142D-03 -0.532103D-02
     17 -0.535501D-05 -0.234253D-04  0.413034D-04 -0.643263D-03  0.691262D-02
     18  0.394956D-02  0.242789D-03 -0.428085D-03  0.666705D-02  0.275189D-02
     19 -0.684194D-03  0.232168D-01 -0.157126D-01  0.364151D-02 -0.169712D+00
     20  0.222591D-03  0.114604D-01 -0.776790D-02  0.209207D-02  0.105905D+00
     21  0.593573D-02  0.199013D-02 -0.147225D-02  0.346296D-02 -0.153958D-01
     22 -0.989922D-02  0.237849D-01  0.165917D-01  0.212863D-02  0.136220D-04
     23 -0.180126D-01 -0.128591D-01 -0.897253D-02 -0.136690D-02  0.700244D-05
     24 -0.796624D-01  0.105828D-02  0.775727D-03  0.356425D-02 -0.230096D-03
     25 -0.225803D-03  0.220880D-05  0.263974D-05  0.101881D-03 -0.219316D-05
     26 -0.333942D-05  0.483436D-05  0.577755D-05  0.222986D-03  0.000000D+00
     27  0.243556D-01  0.123993D-03  0.148184D-03  0.571918D-02  0.239135D-03
               11            12            13            14            15 
     11  0.958881D+00
     12 -0.265580D-02  0.199653D+00
     13  0.873053D-01  0.256120D-01  0.919942D+00
     14 -0.216013D+00 -0.707859D-02  0.123951D-01  0.794252D+00
     15 -0.957050D-02 -0.103711D+00 -0.169311D-01  0.138207D-01  0.203469D+00
     16 -0.174922D-01 -0.118045D-02 -0.270050D+00 -0.119308D+00 -0.796821D-02
     17  0.230074D-01  0.716401D-05 -0.119999D+00 -0.201390D+00 -0.653411D-02
     18  0.440147D-02  0.256617D-01 -0.114104D-01 -0.100317D-01 -0.795012D-01
     19  0.110213D+00 -0.129625D-01  0.782986D-02  0.265887D-01 -0.284180D-02
     20 -0.334394D+00  0.228302D-01  0.383018D-02  0.125256D-01  0.120394D-02
     21  0.304449D-01 -0.791823D-01  0.298386D-03 -0.413245D-02  0.276432D-01
     22  0.551137D-05 -0.368063D-03  0.100382D-04  0.000000D+00  0.347269D-03
     23  0.283313D-05 -0.189204D-03 -0.164101D-04  0.000000D+00 -0.567705D-03
     24 -0.930952D-04  0.621713D-02  0.176808D-03  0.896067D-05  0.611666D-02
     25  0.000000D+00 -0.388417D-04  0.163799D-01  0.627156D-03  0.998324D-04
     26  0.000000D+00  0.000000D+00  0.236556D-01  0.905805D-03  0.369450D-03
     27  0.106728D-04  0.423517D-02 -0.482400D-03 -0.123815D-04  0.169917D-01
               16            17            18            19            20 
     16  0.258001D+00
     17  0.136186D+00  0.179082D+00
     18  0.887485D-02  0.755322D-02  0.429755D-01
     19 -0.282944D-04  0.102170D-03 -0.105893D-02  0.138630D+00
     20 -0.406999D-04  0.146966D-03 -0.152321D-02 -0.121203D+00  0.329491D+00
     21 -0.288415D-03  0.104145D-02 -0.107941D-01  0.132214D-01 -0.258103D-01
     22  0.000000D+00  0.000000D+00  0.000000D+00  0.000000D+00  0.000000D+00
     23  0.000000D+00  0.000000D+00  0.000000D+00  0.000000D+00  0.000000D+00
     24  0.000000D+00  0.000000D+00  0.000000D+00  0.000000D+00  0.000000D+00
     25 -0.251360D-05  0.000000D+00  0.561428D-04  0.000000D+00  0.000000D+00
     26  0.000000D+00  0.000000D+00  0.000000D+00  0.000000D+00  0.000000D+00
     27  0.274075D-03  0.829998D-05 -0.612162D-02  0.000000D+00  0.000000D+00
               21            22            23            24            25 
     21  0.459565D-01
     22  0.000000D+00  0.169234D+00
     23  0.000000D+00  0.152743D+00  0.371006D+00
     24  0.000000D+00  0.102994D-01  0.199163D-01  0.456377D-01
     25  0.000000D+00 -0.101058D-04  0.165206D-04 -0.177999D-03  0.261254D+00
     26  0.000000D+00 -0.221183D-04  0.361583D-04 -0.389583D-03 -0.128488D+00
     27  0.000000D+00 -0.567295D-03  0.927396D-03 -0.999211D-02  0.160889D-02
               26            27 
     26  0.164581D+00
     27 -0.178404D-02  0.402934D-01
 Leave Link  716 at Tue Dec 15 16:23:05 2015, MaxMem=    33554432 cpu:         0.0
 (Enter /home/Applications/g09/g09/l103.exe)

 GradGradGradGradGradGradGradGradGradGradGradGradGradGradGradGradGradGrad
 Berny optimization.
 Search for a local minimum.
 Step number   1 out of a maximum of    2
 All quantities printed in internal units (Hartrees-Bohrs-Radians)
 Second derivative matrix not updated -- first step.
 ITU=  0
     Eigenvalues ---    0.01812   0.03522   0.07061   0.07789   0.08263
     Eigenvalues ---    0.08645   0.12964   0.14676   0.17169   0.25525
     Eigenvalues ---    0.25657   0.31363   0.37680   0.46604   0.66813
     Eigenvalues ---    0.86347   1.14174   1.37898   1.49683   1.55420
     Eigenvalues ---    1.66096
 Quadratic step=5.109D-01 exceeds max=3.000D-01 adjusted using Lamda=-2.008D-01.
 Angle between NR and scaled steps=  16.61 degrees.
 Angle between quadratic step and forces=  24.75 degrees.
 Linear search not attempted -- first point.
 TrRot= -0.008333  0.002471  0.000896 -0.900960 -0.000359  0.900642
 Variable       Old X    -DE/DX   Delta X   Delta X   Delta X     New X
                                 (Linear)    (Quad)   (Total)
    X1        1.81575   0.06046   0.00000   0.08600   0.07724   1.89300
    Y1       -1.37466   0.02417   0.00000   0.02267   0.02452  -1.35014
    Z1       -0.05146   0.00132   0.00000   0.00268   0.00438  -0.04707
    X2       -0.70493   0.03428   0.00000  -0.00170  -0.01072  -0.71565
    Y2       -2.11977  -0.02406   0.00000  -0.01467  -0.01197  -2.13174
    Z2        0.02250  -0.00150   0.00000  -0.01215  -0.01081   0.01169
    X3       -2.14929  -0.15541   0.00000  -0.19662  -0.20497  -2.35426
    Y3       -0.04635   0.00228   0.00000  -0.00159   0.00163  -0.04472
    Z3        0.00009   0.00414   0.00000   0.02052   0.02091   0.02100
    X4       -0.73591  -0.00796   0.00000  -0.00513  -0.01281  -0.74872
    Y4        2.06148   0.05252   0.00000   0.01802   0.02074   2.08221
    Z4        0.08396  -0.00754   0.00000  -0.02829  -0.02814   0.05582
    X5        1.71236   0.11072   0.00000   0.13083   0.12293   1.83528
    Y5        1.32593  -0.02319   0.00000  -0.00268  -0.00081   1.32513
    Z5       -0.05242   0.00741   0.00000   0.01692   0.01786  -0.03457
    X6        3.34178   0.00760   0.00000   0.08543   0.07791   3.41969
    Y6        2.55049   0.00395   0.00000   0.02390   0.02529   2.57578
    Z6        0.02219  -0.00300   0.00000  -0.00282  -0.00188   0.02031
    X7       -1.60445  -0.01734   0.00000  -0.03173  -0.03880  -1.64325
    Y7        3.85001   0.01894   0.00000   0.04478   0.04775   3.89776
    Z7       -0.08322   0.00236   0.00000   0.00393   0.00337  -0.07986
    X8       -1.61055  -0.03005   0.00000  -0.02903  -0.03859  -1.64914
    Y8       -3.80347  -0.05583   0.00000  -0.10517  -0.10220  -3.90567
    Z8       -0.08235  -0.00148   0.00000  -0.00261  -0.00098  -0.08334
    X9        3.50651  -0.00230   0.00000   0.03695   0.02781   3.53432
    Y9       -2.54508   0.00123   0.00000  -0.00628  -0.00495  -2.55003
    Z9       -0.03594  -0.00172   0.00000  -0.00710  -0.00469  -0.04063
         Item               Value     Threshold  Converged?
 Maximum Force            0.155411     0.000450     NO 
 RMS     Force            0.043325     0.000300     NO 
 Maximum Displacement     0.204973     0.001800     NO 
 RMS     Displacement     0.057574     0.001200     NO 
 Predicted change in Energy=-3.975584D-02
 GradGradGradGradGradGradGradGradGradGradGradGradGradGradGradGradGradGrad

 Leave Link  103 at Tue Dec 15 16:23:05 2015, MaxMem=    33554432 cpu:         0.0
 (Enter /home/Applications/g09/g09/l9999.exe)
 1\1\GINC-DUSTIN-DESKTOP\Force\RAM1-FC\STO-3G\C4H4O1\DUSTIN\15-Dec-2015
 \0\\#P AM1(Input,print) CIS(Singlets,NStates=15) pop(full) force\\AM1-
 Reparam Input\\0,1\C,0.960854,-0.727439,-0.027229\C,-0.373033,-1.12173
 3,0.011906\O,-1.137353,-0.024528,0.000048\C,-0.389426,1.090886,0.04443
 1\C,0.90614,0.701653,-0.027741\H,1.768393,1.349659,0.011742\H,-0.84903
 6,2.037337,-0.044039\H,-0.852265,-2.01271,-0.04358\H,1.855563,-1.3468,
 -0.019019\\Version=ES64L-G09RevD.01\State=1-A\HF=0.0229072\RMSD=2.755e
 -09\RMSF=4.333e-02\Dipole=0.2102819,0.0298033,-0.0778702\PG=C01 [X(C4H
 4O1)]\\@


 THE MORE POWERFUL THE METHOD, THE MORE CATASTROPHIC THE ERRORS.
     -- M.D. KAMEN
 Job cpu time:       0 days  0 hours  0 minutes  0.4 seconds.
 File lengths (MBytes):  RWF=      7 Int=      0 D2E=      0 Chk=      2 Scr=      1
 Normal termination of Gaussian 09 at Tue Dec 15 16:23:05 2015.
