 Entering Gaussian System, Link 0=g09
 Input=FuranAM1_92.com
 Output=FuranAM1_92.log
 Initial command:
 /home/Applications/g09/g09/l1.exe "/home/Applications/g09/scratch/Gau-6412.inp" -scrdir="/home/Applications/g09/scratch/"
 Entering Link 1 = /home/Applications/g09/g09/l1.exe PID=      6414.
  
 Copyright (c) 1988,1990,1992,1993,1995,1998,2003,2009,2013,
            Gaussian, Inc.  All Rights Reserved.
  
 This is part of the Gaussian(R) 09 program.  It is based on
 the Gaussian(R) 03 system (copyright 2003, Gaussian, Inc.),
 the Gaussian(R) 98 system (copyright 1998, Gaussian, Inc.),
 the Gaussian(R) 94 system (copyright 1995, Gaussian, Inc.),
 the Gaussian 92(TM) system (copyright 1992, Gaussian, Inc.),
 the Gaussian 90(TM) system (copyright 1990, Gaussian, Inc.),
 the Gaussian 88(TM) system (copyright 1988, Gaussian, Inc.),
 the Gaussian 86(TM) system (copyright 1986, Carnegie Mellon
 University), and the Gaussian 82(TM) system (copyright 1983,
 Carnegie Mellon University). Gaussian is a federally registered
 trademark of Gaussian, Inc.
  
 This software contains proprietary and confidential information,
 including trade secrets, belonging to Gaussian, Inc.
  
 This software is provided under written license and may be
 used, copied, transmitted, or stored only in accord with that
 written license.
  
 The following legend is applicable only to US Government
 contracts under FAR:
  
                    RESTRICTED RIGHTS LEGEND
  
 Use, reproduction and disclosure by the US Government is
 subject to restrictions as set forth in subparagraphs (a)
 and (c) of the Commercial Computer Software - Restricted
 Rights clause in FAR 52.227-19.
  
 Gaussian, Inc.
 340 Quinnipiac St., Bldg. 40, Wallingford CT 06492
  
  
 ---------------------------------------------------------------
 Warning -- This program may not be used in any manner that
 competes with the business of Gaussian, Inc. or will provide
 assistance to any competitor of Gaussian, Inc.  The licensee
 of this program is prohibited from giving any competitor of
 Gaussian, Inc. access to this program.  By using this program,
 the user acknowledges that Gaussian, Inc. is engaged in the
 business of creating and licensing software in the field of
 computational chemistry and represents and warrants to the
 licensee that it is not a competitor of Gaussian, Inc. and that
 it will not use this program in any manner prohibited above.
 ---------------------------------------------------------------
  

 Cite this work as:
 Gaussian 09, Revision D.01,
 M. J. Frisch, G. W. Trucks, H. B. Schlegel, G. E. Scuseria, 
 M. A. Robb, J. R. Cheeseman, G. Scalmani, V. Barone, B. Mennucci, 
 G. A. Petersson, H. Nakatsuji, M. Caricato, X. Li, H. P. Hratchian, 
 A. F. Izmaylov, J. Bloino, G. Zheng, J. L. Sonnenberg, M. Hada, 
 M. Ehara, K. Toyota, R. Fukuda, J. Hasegawa, M. Ishida, T. Nakajima, 
 Y. Honda, O. Kitao, H. Nakai, T. Vreven, J. A. Montgomery, Jr., 
 J. E. Peralta, F. Ogliaro, M. Bearpark, J. J. Heyd, E. Brothers, 
 K. N. Kudin, V. N. Staroverov, T. Keith, R. Kobayashi, J. Normand, 
 K. Raghavachari, A. Rendell, J. C. Burant, S. S. Iyengar, J. Tomasi, 
 M. Cossi, N. Rega, J. M. Millam, M. Klene, J. E. Knox, J. B. Cross, 
 V. Bakken, C. Adamo, J. Jaramillo, R. Gomperts, R. E. Stratmann, 
 O. Yazyev, A. J. Austin, R. Cammi, C. Pomelli, J. W. Ochterski, 
 R. L. Martin, K. Morokuma, V. G. Zakrzewski, G. A. Voth, 
 P. Salvador, J. J. Dannenberg, S. Dapprich, A. D. Daniels, 
 O. Farkas, J. B. Foresman, J. V. Ortiz, J. Cioslowski, 
 and D. J. Fox, Gaussian, Inc., Wallingford CT, 2013.
 
 ******************************************
 Gaussian 09:  ES64L-G09RevD.01 24-Apr-2013
                15-Dec-2015 
 ******************************************
 ------------------------------------------------------------
 #P AM1(Input,print) CIS(Singlets,NStates=15) pop(full) force
 ------------------------------------------------------------
 1/10=7,30=1,38=1/1,3;
 2/12=2,17=6,18=5,40=1/2;
 3/5=2,16=1,25=1,41=700000,71=1,135=100,136=1/1,2,8,3;
 4/35=1/1;
 5/5=2,35=1,38=5/2;
 8/6=1,10=1,108=15/1;
 9/15=2,41=15,42=1,48=1,49=10/14;
 10/5=4/2;
 6/7=3,18=1/1;
 7/12=6,13=5,29=1/1,2,3,16;
 1/10=7,30=1/3;
 99//99;
 Leave Link    1 at Tue Dec 15 16:29:40 2015, MaxMem=           0 cpu:         0.0
 (Enter /home/Applications/g09/g09/l101.exe)
 -----------------
 AM1-Reparam Input
 -----------------
 Symbolic Z-matrix:
 Charge =  0 Multiplicity = 1
 6                     0.93625  -0.76012   0.02058 
 6                    -0.33667  -1.09574   0.03102 
 8                    -1.16824   0.01502  -0.03689 
 6                    -0.31699   1.09328  -0.03885 
 6                     0.95318   0.68447  -0.04035 
 1                     1.8306    1.41662   0.04143 
 1                    -0.84773   2.03666   0.02685 
 1                    -0.82294  -2.09164  -0.04079 
 1                     1.84472  -1.39425  -0.04328 
 
 NAtoms=      9 NQM=        9 NQMF=       0 NMMI=      0 NMMIF=      0
                NMic=       0 NMicF=      0.
                    Isotopes and Nuclear Properties:
 (Nuclear quadrupole moments (NQMom) in fm**2, nuclear magnetic moments (NMagM)
  in nuclear magnetons)

  Atom         1           2           3           4           5           6           7           8           9
 IAtWgt=          12          12          16          12          12           1           1           1           1
 AtmWgt=  12.0000000  12.0000000  15.9949146  12.0000000  12.0000000   1.0078250   1.0078250   1.0078250   1.0078250
 NucSpn=           0           0           0           0           0           1           1           1           1
 AtZEff=   0.0000000   0.0000000   0.0000000   0.0000000   0.0000000   0.0000000   0.0000000   0.0000000   0.0000000
 NQMom=    0.0000000   0.0000000   0.0000000   0.0000000   0.0000000   0.0000000   0.0000000   0.0000000   0.0000000
 NMagM=    0.0000000   0.0000000   0.0000000   0.0000000   0.0000000   2.7928460   2.7928460   2.7928460   2.7928460
 AtZNuc=   6.0000000   6.0000000   8.0000000   6.0000000   6.0000000   1.0000000   1.0000000   1.0000000   1.0000000
 Leave Link  101 at Tue Dec 15 16:29:41 2015, MaxMem=    33554432 cpu:         0.0
 (Enter /home/Applications/g09/g09/l103.exe)

 GradGradGradGradGradGradGradGradGradGradGradGradGradGradGradGradGradGrad
 Berny optimization.
 Initialization pass.
 Trust Radius=3.00D-01 FncErr=1.00D-07 GrdErr=1.00D-07
 Number of steps in this run=      2 maximum allowed number of steps=      2.
 GradGradGradGradGradGradGradGradGradGradGradGradGradGradGradGradGradGrad

 Leave Link  103 at Tue Dec 15 16:29:41 2015, MaxMem=    33554432 cpu:         0.0
 (Enter /home/Applications/g09/g09/l202.exe)
                          Input orientation:                          
 ---------------------------------------------------------------------
 Center     Atomic      Atomic             Coordinates (Angstroms)
 Number     Number       Type             X           Y           Z
 ---------------------------------------------------------------------
      1          6           0        0.936245   -0.760121    0.020578
      2          6           0       -0.336674   -1.095742    0.031018
      3          8           0       -1.168240    0.015020   -0.036888
      4          6           0       -0.316987    1.093283   -0.038850
      5          6           0        0.953176    0.684474   -0.040354
      6          1           0        1.830604    1.416615    0.041430
      7          1           0       -0.847731    2.036664    0.026851
      8          1           0       -0.822943   -2.091639   -0.040789
      9          1           0        1.844717   -1.394254   -0.043283
 ---------------------------------------------------------------------
                    Distance matrix (angstroms):
                    1          2          3          4          5
     1  C    0.000000
     2  C    1.316462   0.000000
     3  O    2.243436   1.389210   0.000000
     4  C    2.238131   2.190228   1.373786   0.000000
     5  C    1.445979   2.199540   2.224542   1.334332   0.000000
     6  H    2.353400   3.318002   3.311143   2.173278   1.145687
     7  H    3.317321   3.173825   2.047885   1.084423   2.253042
     8  H    2.207136   1.110597   2.134773   3.224860   3.295664
     9  H    1.109741   2.202975   3.326260   3.295576   2.261850
                    6          7          8          9
     6  H    0.000000
     7  H    2.749209   0.000000
     8  H    4.399536   4.128931   0.000000
     9  H    2.812181   4.361811   2.757311   0.000000
 Stoichiometry    C4H4O
 Framework group  C1[X(C4H4O)]
 Deg. of freedom    21
 Full point group                 C1      NOp   1
 Largest Abelian subgroup         C1      NOp   1
 Largest concise Abelian subgroup C1      NOp   1
                         Standard orientation:                         
 ---------------------------------------------------------------------
 Center     Atomic      Atomic             Coordinates (Angstroms)
 Number     Number       Type             X           Y           Z
 ---------------------------------------------------------------------
      1          6           0        0.891225    0.800723    0.015921
      2          6           0        1.016608   -0.509661    0.031629
      3          8           0       -0.214954   -1.150807   -0.014098
      4          6           0       -1.141199   -0.136255   -0.007561
      5          6           0       -0.532356    1.050949   -0.024795
      6          1           0       -1.111574    2.035757    0.060398
      7          1           0       -2.156911   -0.506916    0.075583
      8          1           0        1.919511   -1.151118   -0.050373
      9          1           0        1.662937    1.594196   -0.063994
 ---------------------------------------------------------------------
 Rotational constants (GHZ):      9.4919000      9.2358265      4.6844359
 Leave Link  202 at Tue Dec 15 16:29:41 2015, MaxMem=    33554432 cpu:         0.0
 (Enter /home/Applications/g09/g09/l301.exe)

 Semi-emprical parameters in input format:
 Method=8 CoreType=1 PeptideFC=0.0114510000 RIJScale=0.5291770000
 ****
 H       
 PQN=1 NValence=1 F0ss=0.4721550000 ZetaOverlap=1.1880780000 U=-0.4188110000
 Beta=-0.2268830000 CoreKO=1.0589200000 KON=0,0,0,1.0589200000 KON=1,0,1,1.0589200000
 KON=0,1,1,1.0589200000 KON=2,1,1,1.0589200000 EISol=-0.4188110042 EHeat=0.0830298228
 Alpha=1.5252600000
 GCore=0.0085280000,1.4001430000,2.2676710000
 GCore=0.0003530000,1.4001430000,3.4015070000
 GCore=-0.0012730000,0.5600570000,3.9684250000
 ****
 C       
 PQN=2,2 NValence=4 F0ss=0.4494440000 F0sp=0.4215150000 F0pp=0.3768030000 F2pp=0.1898720000
 G1sp=0.2679030000
 ZetaOverlap=1.8086650000,1.6851160000
 U=-1.9120180000,-1.4557970000
 Beta=-0.5775440000,-0.2836780000 DDN=0,1,0.8236740000 DDN=1,1,0.7268010000
 CoreKO=1.1124280000 KON=0,0,0,1.1124280000 KON=1,0,1,0.8219700000 KON=0,1,1,1.1124280000
 KON=2,1,1,0.7783930000 EISol=-4.4398989268 EHeat=0.2723305520 Alpha=1.4014060000
 DipHyp=1.6472532266
 GCore=0.0007890000,1.4001430000,3.0235620000
 GCore=0.0031890000,1.4001430000,3.4959930000
 GCore=-0.0013930000,1.4001430000,3.8739390000
 GCore=-0.0000880000,1.4001430000,5.0077740000
 ****
 O       
 PQN=2,2 NValence=6 F0ss=0.5666750000 F0sp=0.5321300000 F0pp=0.4958710000 F2pp=0.2358080000
 G1sp=0.4343770000
 ZetaOverlap=3.1080320000,2.5240390000
 U=-3.5951870000,-2.8760900000
 Beta=-1.0757550000,-1.0757550000 DDN=0,1,0.4988900000 DDN=1,1,0.4852320000
 CoreKO=0.8822960000 KON=0,0,0,0.8822960000 KON=1,0,1,0.5019540000 KON=0,1,1,0.8822960000
 KON=2,1,1,0.5515580000 EISol=-11.6164441184 EHeat=0.0949133088 Alpha=2.3576810000
 DipHyp=0.9977225968
 GCore=0.0195120000,1.4001430000,1.6023330000
 GCore=0.0056550000,1.9602000000,2.7307880000
 ****
 
 Standard basis: VSTO-6G (5D, 7F)
 Ernie: Thresh=  0.10000D-02 Tol=  0.10000D-05 Strict=F.
  NNHCO=     0 NNPyr=     0 NCTC=     0               EPep=         0.000000000
    EC=        68.573251189  ECS=         1.786588245   EG=         0.346025049
   EHC=         0.000000000  EAt=       -31.051283842  AtH=         1.516354808
 EPDDG=         0.000000000  ECC=        70.705864483 EAtT=        32.567638650
 There are    24 symmetry adapted cartesian basis functions of A   symmetry.
 There are    24 symmetry adapted basis functions of A   symmetry.
    24 basis functions,   144 primitive gaussians,    24 cartesian basis functions
    13 alpha electrons       13 beta electrons
       nuclear repulsion energy       103.2735031333 Hartrees.
 IExCor=    0 DFT=F Ex=HF Corr=None ExCW=0 ScaHFX=  1.000000
 ScaDFX=  1.000000  1.000000  1.000000  1.000000 ScalE2=  1.000000  1.000000
 IRadAn=      0 IRanWt=     -1 IRanGd=            0 ICorTp=0 IEmpDi=  4
 Integral buffers will be    131072 words long.
 Regular integral format.
 Two-electron integral symmetry is turned off.
 Leave Link  301 at Tue Dec 15 16:29:41 2015, MaxMem=    33554432 cpu:         0.0
 (Enter /home/Applications/g09/g09/l302.exe)
 Do NDO integrals.
 NPDir=0 NMtPBC=     1 NCelOv=     1 NCel=       1 NClECP=     1 NCelD=      1
         NCelK=      1 NCelE2=     1 NClLst=     1 CellRange=     0.0.
 One-electron integrals computed using PRISM.
 NBasis=    24 RedAO= F EigKep=  0.00D+00  NBF=    24
 NBsUse=    24 1.00D-04 EigRej=  0.00D+00 NBFU=    24
 Leave Link  302 at Tue Dec 15 16:29:41 2015, MaxMem=    33554432 cpu:         0.0
 (Enter /home/Applications/g09/g09/l308.exe)
 Leave Link  308 at Tue Dec 15 16:29:41 2015, MaxMem=    33554432 cpu:         0.0
 (Enter /home/Applications/g09/g09/l303.exe)
 DipDrv:  MaxL=1.
 Leave Link  303 at Tue Dec 15 16:29:41 2015, MaxMem=    33554432 cpu:         0.0
 (Enter /home/Applications/g09/g09/l401.exe)
 Simple Huckel Guess.
 JPrj=0 DoOrth=F DoCkMO=F.
 Leave Link  401 at Tue Dec 15 16:29:41 2015, MaxMem=    33554432 cpu:         0.0
 (Enter /home/Applications/g09/g09/l502.exe)
 Closed shell SCF:
 Using DIIS extrapolation, IDIIS=  1040.
 Overlap will be assumed to be unity.
 Two-electron integral symmetry not used.
 Keep J ints in memory in canonical form, NReq=888082.
 IVT=       79475 IEndB=       79475 NGot=    33554432 MDV=    33473473
 LenX=    33473473 LenY=    33472456
 Requested convergence on RMS density matrix=1.00D-08 within 128 cycles.
 Requested convergence on MAX density matrix=1.00D-06.
 Requested convergence on             energy=1.00D-06.
 No special actions if energy rises.
 FoFCou: FMM=F IPFlag=           0 FMFlag=           0 FMFlg1=           0
         NFxFlg=           0 DoJE=F BraDBF=F KetDBF=F FulRan=T
         wScrn=  0.000000 ICntrl=     600 IOpCl=  2 I1Cent=           0 NGrid=           0
         NMat0=    1 NMatS0=     54 NMatT0=    0 NMatD0=    1 NMtDS0=    0 NMtDT0=    0
 Symmetry not used in FoFCou.

 Cycle   1  Pass 1  IDiag  1:
 E= 0.337553733947431    
 DIIS: error= 5.89D-02 at cycle   1 NSaved=   1.
 NSaved= 1 IEnMin= 1 EnMin= 0.337553733947431     IErMin= 1 ErrMin= 5.89D-02
 ErrMax= 5.89D-02  0.00D+00 EMaxC= 1.00D-01 BMatC= 1.11D-01 BMatP= 1.11D-01
 IDIUse=3 WtCom= 4.11D-01 WtEn= 5.89D-01
 Coeff-Com:  0.100D+01
 Coeff-En:   0.100D+01
 Coeff:      0.100D+01
 GapD=    2.000 DampG=2.000 DampE=0.500 DampFc=1.0000 IDamp=-1.
 RMSDP=1.98D-02 MaxDP=1.62D-01              OVMax= 0.00D+00

 Cycle   2  Pass 1  IDiag  1:
 E= 0.532639389273442E-01 Delta-E=       -0.284289795020 Rises=F Damp=F
 DIIS: error= 2.03D-02 at cycle   2 NSaved=   2.
 NSaved= 2 IEnMin= 2 EnMin= 0.532639389273442E-01 IErMin= 2 ErrMin= 2.03D-02
 ErrMax= 2.03D-02  0.00D+00 EMaxC= 1.00D-01 BMatC= 9.61D-03 BMatP= 1.11D-01
 IDIUse=3 WtCom= 7.97D-01 WtEn= 2.03D-01
 Coeff-Com: -0.358D+00 0.136D+01
 Coeff-En:   0.000D+00 0.100D+01
 Coeff:     -0.286D+00 0.129D+01
 RMSDP=8.27D-03 MaxDP=7.61D-02 DE=-2.84D-01 OVMax= 0.00D+00

 Cycle   3  Pass 1  IDiag  1:
 E= 0.223500836917339E-01 Delta-E=       -0.030913855236 Rises=F Damp=F
 DIIS: error= 3.74D-03 at cycle   3 NSaved=   3.
 NSaved= 3 IEnMin= 3 EnMin= 0.223500836917339E-01 IErMin= 3 ErrMin= 3.74D-03
 ErrMax= 3.74D-03  0.00D+00 EMaxC= 1.00D-01 BMatC= 3.71D-04 BMatP= 9.61D-03
 IDIUse=3 WtCom= 9.63D-01 WtEn= 3.74D-02
 Coeff-Com:  0.142D+00-0.625D+00 0.148D+01
 Coeff-En:   0.000D+00 0.000D+00 0.100D+01
 Coeff:      0.137D+00-0.601D+00 0.146D+01
 RMSDP=2.54D-03 MaxDP=2.95D-02 DE=-3.09D-02 OVMax= 0.00D+00

 Cycle   4  Pass 1  IDiag  3:
 E= 0.203246928896164E-01 Delta-E=       -0.002025390802 Rises=F Damp=F
 DIIS: error= 1.14D-03 at cycle   4 NSaved=   4.
 NSaved= 4 IEnMin= 4 EnMin= 0.203246928896164E-01 IErMin= 4 ErrMin= 1.14D-03
 ErrMax= 1.14D-03  0.00D+00 EMaxC= 1.00D-01 BMatC= 2.70D-05 BMatP= 3.71D-04
 IDIUse=3 WtCom= 9.89D-01 WtEn= 1.14D-02
 Coeff-Com:  0.145D-01-0.547D-01-0.175D+00 0.121D+01
 Coeff-En:   0.000D+00 0.000D+00 0.000D+00 0.100D+01
 Coeff:      0.144D-01-0.540D-01-0.173D+00 0.121D+01
 Gap=     0.387 Goal=   None    Shift=    0.000
 RMSDP=7.96D-04 MaxDP=9.88D-03 DE=-2.03D-03 OVMax= 8.56D-03

 Cycle   5  Pass 1  IDiag  3:
 E= 0.201602389212923E-01 Delta-E=       -0.000164453968 Rises=F Damp=F
 DIIS: error= 2.13D-04 at cycle   5 NSaved=   5.
 NSaved= 5 IEnMin= 5 EnMin= 0.201602389212923E-01 IErMin= 5 ErrMin= 2.13D-04
 ErrMax= 2.13D-04  0.00D+00 EMaxC= 1.00D-01 BMatC= 1.82D-06 BMatP= 2.70D-05
 IDIUse=3 WtCom= 9.98D-01 WtEn= 2.13D-03
 Coeff-Com: -0.871D-02 0.360D-01 0.852D-02-0.471D+00 0.144D+01
 Coeff-En:   0.000D+00 0.000D+00 0.000D+00 0.000D+00 0.100D+01
 Coeff:     -0.869D-02 0.359D-01 0.851D-02-0.470D+00 0.143D+01
 Gap=     0.387 Goal=   None    Shift=    0.000
 RMSDP=2.46D-04 MaxDP=1.99D-03 DE=-1.64D-04 OVMax= 2.70D-03

 Cycle   6  Pass 1  IDiag  3:
 E= 0.201466810027000E-01 Delta-E=       -0.000013557919 Rises=F Damp=F
 DIIS: error= 9.27D-05 at cycle   6 NSaved=   6.
 NSaved= 6 IEnMin= 6 EnMin= 0.201466810027000E-01 IErMin= 6 ErrMin= 9.27D-05
 ErrMax= 9.27D-05  0.00D+00 EMaxC= 1.00D-01 BMatC= 1.75D-07 BMatP= 1.82D-06
 IDIUse=1 WtCom= 1.00D+00 WtEn= 0.00D+00
 Coeff-Com:  0.291D-02-0.118D-01 0.687D-02 0.132D+00-0.659D+00 0.153D+01
 Coeff:      0.291D-02-0.118D-01 0.687D-02 0.132D+00-0.659D+00 0.153D+01
 Gap=     0.387 Goal=   None    Shift=    0.000
 RMSDP=9.20D-05 MaxDP=7.81D-04 DE=-1.36D-05 OVMax= 1.22D-03

 Cycle   7  Pass 1  IDiag  3:
 E= 0.201451041121317E-01 Delta-E=       -0.000001576891 Rises=F Damp=F
 DIIS: error= 3.16D-05 at cycle   7 NSaved=   7.
 NSaved= 7 IEnMin= 7 EnMin= 0.201451041121317E-01 IErMin= 7 ErrMin= 3.16D-05
 ErrMax= 3.16D-05  0.00D+00 EMaxC= 1.00D-01 BMatC= 1.45D-08 BMatP= 1.75D-07
 IDIUse=1 WtCom= 1.00D+00 WtEn= 0.00D+00
 Coeff-Com: -0.428D-03 0.122D-02-0.274D-03-0.264D-01 0.160D+00-0.643D+00
 Coeff-Com:  0.151D+01
 Coeff:     -0.428D-03 0.122D-02-0.274D-03-0.264D-01 0.160D+00-0.643D+00
 Coeff:      0.151D+01
 Gap=     0.387 Goal=   None    Shift=    0.000
 RMSDP=3.11D-05 MaxDP=2.95D-04 DE=-1.58D-06 OVMax= 3.81D-04

 Cycle   8  Pass 1  IDiag  3:
 E= 0.201449671902907E-01 Delta-E=       -0.000000136922 Rises=F Damp=F
 DIIS: error= 5.79D-06 at cycle   8 NSaved=   8.
 NSaved= 8 IEnMin= 8 EnMin= 0.201449671902907E-01 IErMin= 8 ErrMin= 5.79D-06
 ErrMax= 5.79D-06  0.00D+00 EMaxC= 1.00D-01 BMatC= 6.20D-10 BMatP= 1.45D-08
 IDIUse=1 WtCom= 1.00D+00 WtEn= 0.00D+00
 Coeff-Com:  0.330D-04 0.191D-03-0.121D-02 0.105D-01-0.568D-01 0.262D+00
 Coeff-Com: -0.773D+00 0.156D+01
 Coeff:      0.330D-04 0.191D-03-0.121D-02 0.105D-01-0.568D-01 0.262D+00
 Coeff:     -0.773D+00 0.156D+01
 Gap=     0.387 Goal=   None    Shift=    0.000
 RMSDP=5.81D-06 MaxDP=5.56D-05 DE=-1.37D-07 OVMax= 7.18D-05

 Cycle   9  Pass 1  IDiag  3:
 E= 0.201449622232701E-01 Delta-E=       -0.000000004967 Rises=F Damp=F
 DIIS: error= 6.95D-07 at cycle   9 NSaved=   9.
 NSaved= 9 IEnMin= 9 EnMin= 0.201449622232701E-01 IErMin= 9 ErrMin= 6.95D-07
 ErrMax= 6.95D-07  0.00D+00 EMaxC= 1.00D-01 BMatC= 1.92D-11 BMatP= 6.20D-10
 IDIUse=1 WtCom= 1.00D+00 WtEn= 0.00D+00
 Coeff-Com:  0.204D-04-0.206D-03 0.540D-03-0.270D-02 0.147D-01-0.796D-01
 Coeff-Com:  0.259D+00-0.622D+00 0.143D+01
 Coeff:      0.204D-04-0.206D-03 0.540D-03-0.270D-02 0.147D-01-0.796D-01
 Coeff:      0.259D+00-0.622D+00 0.143D+01
 Gap=     0.387 Goal=   None    Shift=    0.000
 RMSDP=8.00D-07 MaxDP=6.24D-06 DE=-4.97D-09 OVMax= 1.07D-05

 Cycle  10  Pass 1  IDiag  3:
 E= 0.201449621022363E-01 Delta-E=       -0.000000000121 Rises=F Damp=F
 DIIS: error= 1.27D-07 at cycle  10 NSaved=  10.
 NSaved=10 IEnMin=10 EnMin= 0.201449621022363E-01 IErMin=10 ErrMin= 1.27D-07
 ErrMax= 1.27D-07  0.00D+00 EMaxC= 1.00D-01 BMatC= 8.79D-13 BMatP= 1.92D-11
 IDIUse=1 WtCom= 1.00D+00 WtEn= 0.00D+00
 Coeff-Com: -0.120D-04 0.985D-04-0.242D-03 0.102D-02-0.513D-02 0.289D-01
 Coeff-Com: -0.963D-01 0.237D+00-0.669D+00 0.150D+01
 Coeff:     -0.120D-04 0.985D-04-0.242D-03 0.102D-02-0.513D-02 0.289D-01
 Coeff:     -0.963D-01 0.237D+00-0.669D+00 0.150D+01
 Gap=     0.387 Goal=   None    Shift=    0.000
 RMSDP=1.65D-07 MaxDP=7.86D-07 DE=-1.21D-10 OVMax= 1.76D-06

 Cycle  11  Pass 1  IDiag  3:
 E= 0.201449620968930E-01 Delta-E=       -0.000000000005 Rises=F Damp=F
 DIIS: error= 1.77D-08 at cycle  11 NSaved=  11.
 NSaved=11 IEnMin=11 EnMin= 0.201449620968930E-01 IErMin=11 ErrMin= 1.77D-08
 ErrMax= 1.77D-08  0.00D+00 EMaxC= 1.00D-01 BMatC= 2.97D-14 BMatP= 8.79D-13
 IDIUse=1 WtCom= 1.00D+00 WtEn= 0.00D+00
 Coeff-Com:  0.348D-05-0.288D-04 0.698D-04-0.296D-03 0.143D-02-0.818D-02
 Coeff-Com:  0.273D-01-0.664D-01 0.194D+00-0.542D+00 0.139D+01
 Coeff:      0.348D-05-0.288D-04 0.698D-04-0.296D-03 0.143D-02-0.818D-02
 Coeff:      0.273D-01-0.664D-01 0.194D+00-0.542D+00 0.139D+01
 Gap=     0.387 Goal=   None    Shift=    0.000
 RMSDP=2.91D-08 MaxDP=1.46D-07 DE=-5.34D-12 OVMax= 2.41D-07

 Cycle  12  Pass 1  IDiag  3:
 E= 0.201449620968504E-01 Delta-E=        0.000000000000 Rises=F Damp=F
 DIIS: error= 4.82D-09 at cycle  12 NSaved=  12.
 NSaved=12 IEnMin=12 EnMin= 0.201449620968504E-01 IErMin=12 ErrMin= 4.82D-09
 ErrMax= 4.82D-09  0.00D+00 EMaxC= 1.00D-01 BMatC= 1.74D-15 BMatP= 2.97D-14
 IDIUse=1 WtCom= 1.00D+00 WtEn= 0.00D+00
 Coeff-Com: -0.759D-06 0.630D-05-0.144D-04 0.602D-04-0.282D-03 0.167D-02
 Coeff-Com: -0.559D-02 0.132D-01-0.395D-01 0.129D+00-0.525D+00 0.143D+01
 Coeff:     -0.759D-06 0.630D-05-0.144D-04 0.602D-04-0.282D-03 0.167D-02
 Coeff:     -0.559D-02 0.132D-01-0.395D-01 0.129D+00-0.525D+00 0.143D+01
 Gap=     0.387 Goal=   None    Shift=    0.000
 RMSDP=7.67D-09 MaxDP=4.55D-08 DE=-4.26D-14 OVMax= 8.78D-08

 Cycle  13  Pass 2  IDiag  1:
 SCF Done:  E(RAM1) =  0.201449620969E-01 A.U. after   13 cycles
            NFock= 12  Conv=0.77D-08     -V/T= 1.0012
 KE=-1.650451098112D+01 PE=-1.708228073638D+02 EE= 8.407396017377D+01
 Leave Link  502 at Tue Dec 15 16:29:41 2015, MaxMem=    33554432 cpu:         0.0
 (Enter /home/Applications/g09/g09/l801.exe)
 Range of M.O.s used for correlation:     1    24
 NBasis=    24 NAE=    13 NBE=    13 NFC=     0 NFV=     0
 NROrb=     24 NOA=    13 NOB=    13 NVA=    11 NVB=    11
 Leave Link  801 at Tue Dec 15 16:29:41 2015, MaxMem=    33554432 cpu:         0.0
 (Enter /home/Applications/g09/g09/l914.exe)
 RHF ground state
 MDV=    33554432 DFT=F DoStab=F Mixed=F DoRPA=F DoScal=F NonHer=F
 Making orbital integer symmetry assigments:
 Orbital symmetries:
       Occupied  (A) (A) (A) (A) (A) (A) (A) (A) (A) (A) (A) (A)
                 (A)
       Virtual   (A) (A) (A) (A) (A) (A) (A) (A) (A) (A) (A)
    60 initial guesses have been made.
 Convergence on wavefunction:    0.000001000000000
 Davidson Disk Diagonalization:  ConvIn= 1.00D-06 SkipCon=T Conv= 1.00D-06.
 Max sub-space:   240 roots to seek:    60 dimension of matrix:          286
 Iteration     1 Dimension    60 NMult     0 NNew     60
 CISAX will form    60 AO SS matrices at one time.
 NMat=    60 NSing=    60 JSym2X= 0.
 FoFJK:  IHMeth= 8 ICntrl=       0 DoSepK=F KAlg= 0 I1Cent=   0 FoldK=F
 IRaf=         1 NMat= 120 IRICut=       1 DoRegI=T DoRafI=F ISym2E= 0.
 FoFCou: FMM=F IPFlag=           0 FMFlag=      100000 FMFlg1=           0
         NFxFlg=           0 DoJE=F BraDBF=F KetDBF=F FulRan=T
         wScrn=  0.000000 ICntrl=       0 IOpCl=  0 I1Cent=           0 NGrid=           0
         NMat0=  120 NMatS0=     60 NMatT0=    0 NMatD0=  120 NMtDS0=    0 NMtDT0=    0
 Symmetry not used in FoFCou.
 New state      3 was old state      4
 New state      4 was old state      7
 New state      5 was old state      8
 New state      6 was old state     17
 New state      7 was old state      3
 New state      8 was old state      5
 New state      9 was old state      6
 New state     10 was old state     12
 New state     11 was old state     14
 New state     12 was old state     11
 New state     13 was old state     10
 New state     14 was old state     19
 New state     15 was old state     16
 Excitation Energies [eV] at current iteration:
 Root      1 :     4.699414560435378
 Root      2 :     5.221358484753254
 Root      3 :     5.375832268960540
 Root      4 :     6.022284096345753
 Root      5 :     6.243148429826353
 Root      6 :     6.400240814876899
 Root      7 :     6.474224721790899
 Root      8 :     6.527764995564807
 Root      9 :     6.608930243173791
 Root     10 :     7.115069072070779
 Root     11 :     7.293282987006199
 Root     12 :     7.449925303158667
 Root     13 :     7.552978685958350
 Root     14 :     7.674118151829387
 Root     15 :     7.741760777642217
 Root     16 :     7.830319494804411
 Root     17 :     7.874481507151636
 Root     18 :     8.057930191055325
 Root     19 :     8.198686759726460
 Root     20 :     8.391132888381248
 Root     21 :     8.920463783982134
 Root     22 :     8.982212335059927
 Root     23 :     9.012592903796840
 Root     24 :     9.279706542606190
 Root     25 :     9.418503148009059
 Root     26 :     9.433748301817715
 Root     27 :     9.510983510535734
 Root     28 :     9.602448746933653
 Root     29 :     9.710567308199270
 Root     30 :     9.726032083262540
 Root     31 :     9.839209316110315
 Root     32 :     9.850741331870932
 Root     33 :     9.982784459849665
 Root     34 :    10.004170723174440
 Root     35 :    10.223618389147640
 Root     36 :    10.292931902779000
 Root     37 :    10.545721530676110
 Root     38 :    10.614558085915630
 Root     39 :    10.657215937620430
 Root     40 :    10.812529874425830
 Root     41 :    10.934950512283950
 Root     42 :    11.103148837475090
 Root     43 :    11.154696850722480
 Root     44 :    11.238122733148760
 Root     45 :    11.345049910258440
 Root     46 :    11.485401900909790
 Root     47 :    11.616027187278830
 Root     48 :    11.772249199791340
 Root     49 :    11.848471676204230
 Root     50 :    11.946937764167480
 Root     51 :    12.214959314946080
 Root     52 :    12.311328205828860
 Root     53 :    12.541756219009790
 Root     54 :    12.827570404872530
 Root     55 :    13.066697823294840
 Root     56 :    13.137671205070340
 Root     57 :    13.184740236151000
 Root     58 :    13.372640023348160
 Root     59 :    13.490489252811150
 Root     60 :    13.775932723669130
 Iteration     2 Dimension   120 NMult    60 NNew     60
 CISAX will form    60 AO SS matrices at one time.
 NMat=    60 NSing=    60 JSym2X= 0.
 Root      1 not converged, maximum delta is    0.030375804602486
 Root      2 not converged, maximum delta is    0.022088837900099
 Root      3 not converged, maximum delta is    0.023783487449622
 Root      4 not converged, maximum delta is    0.049514955725090
 Root      5 not converged, maximum delta is    0.054419332649612
 Root      6 not converged, maximum delta is    0.078488321942006
 Root      7 not converged, maximum delta is    0.107515052980336
 Root      8 not converged, maximum delta is    0.098093859600555
 Root      9 not converged, maximum delta is    0.041969053428037
 Root     10 not converged, maximum delta is    0.072353489629191
 Root     11 not converged, maximum delta is    0.066103931740540
 Root     12 not converged, maximum delta is    0.061769439576832
 Root     13 not converged, maximum delta is    0.049636356756221
 Root     14 not converged, maximum delta is    0.042104966394034
 Root     15 not converged, maximum delta is    0.114673351989889
 Excitation Energies [eV] at current iteration:
 Root      1 :     4.615878200823162   Change is   -0.083536359612216
 Root      2 :     5.199854783102970   Change is   -0.021503701650284
 Root      3 :     5.349535822835219   Change is   -0.026296446125321
 Root      4 :     5.926791955003038   Change is   -0.095492141342714
 Root      5 :     6.119028853194219   Change is   -0.124119576632134
 Root      6 :     6.268007935745400   Change is   -0.132232879131498
 Root      7 :     6.337929314946445   Change is   -0.136295406844454
 Root      8 :     6.458606643188728   Change is   -0.069158352376079
 Root      9 :     6.547071532736627   Change is   -0.061858710437164
 Root     10 :     6.979520239714687   Change is   -0.135548832356091
 Root     11 :     7.229343327284466   Change is   -0.063939659721733
 Root     12 :     7.351350230585904   Change is   -0.098575072572763
 Root     13 :     7.444000940654528   Change is   -0.108977745303822
 Root     14 :     7.592089244338929   Change is   -0.082028907490458
 Root     15 :     7.643600658625742   Change is   -0.098160119016475
 Root     16 :     7.675556923125542   Change is   -0.154762571678869
 Root     17 :     7.829013264007647   Change is   -0.045468243143989
 Root     18 :     7.948131482266824   Change is   -0.250555277459635
 Root     19 :     7.984964900191641   Change is   -0.072965290863684
 Root     20 :     8.242377591157723   Change is   -0.148755297223526
 Root     21 :     8.628200038454489   Change is   -0.292263745527645
 Root     22 :     8.834360317998531   Change is   -0.178232585798309
 Root     23 :     8.957167231201863   Change is   -0.025045103858064
 Root     24 :     9.041035483737923   Change is   -0.377467664271136
 Root     25 :     9.056398517502123   Change is   -0.223308025104067
 Root     26 :     9.156193351543994   Change is   -0.446255395389659
 Root     27 :     9.267288582846463   Change is   -0.571920733263851
 Root     28 :     9.357485736175777   Change is   -0.076262565641939
 Root     29 :     9.417311337356780   Change is   -0.093672173178955
 Root     30 :     9.483343178572337   Change is   -0.499441281277328
 Root     31 :     9.598696221994667   Change is   -0.111871086204603
 Root     32 :     9.637504196339185   Change is   -0.088527886923354
 Root     33 :     9.679695596357222   Change is   -0.543922792790418
 Root     34 :     9.694970949648201   Change is   -0.309199773526239
 Root     35 :     9.759827949399600   Change is   -0.090913382471331
 Root     36 :     9.815763607490398   Change is   -0.477168295288603
 Root     37 :    10.034307941237910   Change is   -0.580250144677726
 Root     38 :    10.153774800267340   Change is   -0.391946730408772
 Root     39 :    10.263553698859690   Change is   -0.393662238760740
 Root     40 :    10.537593991733180   Change is   -0.565554845741907
 Root     41 :    10.542694820900480   Change is   -0.392255691383471
 Root     42 :    10.671878756513820   Change is   -0.140651117912012
 Root     43 :    10.794775493906220   Change is   -0.359921356816259
 Root     44 :    10.830234543279440   Change is   -0.407888189869322
 Root     45 :    10.928796627162730   Change is   -0.416253283095710
 Root     46 :    11.186955549892440   Change is   -0.298446351017350
 Root     47 :    11.323650519862470   Change is   -0.292376667416365
 Root     48 :    11.420166573375900   Change is   -0.526771190791588
 Root     49 :    11.613518610159470   Change is   -0.158730589631868
 Root     50 :    11.658372887533770   Change is   -0.190098788670455
 Root     51 :    11.723634297840510   Change is   -0.491325017105569
 Root     52 :    11.959049460418720   Change is   -0.352278745410136
 Root     53 :    12.183959118074040   Change is   -0.643611286798489
 Root     54 :    12.284144611988130   Change is   -0.257611607021657
 Root     55 :    12.619836228666430   Change is   -0.446861594628411
 Root     56 :    12.824566219096020   Change is   -0.548073804252144
 Root     57 :    12.842007026062720   Change is   -0.342733210088282
 Root     58 :    12.852594740617230   Change is   -0.285076464453108
 Root     59 :    12.930923997872120
 Root     60 :    13.046763029068130   Change is   -0.443726223743022
 Iteration     3 Dimension   135 NMult   120 NNew     15
 CISAX will form    15 AO SS matrices at one time.
 NMat=    15 NSing=    15 JSym2X= 0.
 Root      1 not converged, maximum delta is    0.001972378420711
 Root      2 not converged, maximum delta is    0.000270320178839
 Root      3 not converged, maximum delta is    0.000309891042522
 Root      4 not converged, maximum delta is    0.000515596497790
 Root      5 not converged, maximum delta is    0.000213155831858
 Root      6 not converged, maximum delta is    0.000957721514142
 Root      7 not converged, maximum delta is    0.001334254494031
 Root      8 not converged, maximum delta is    0.002700152797755
 Root      9 not converged, maximum delta is    0.002955582247734
 Root     10 not converged, maximum delta is    0.000247114406457
 Root     11 not converged, maximum delta is    0.000854875630691
 Root     12 not converged, maximum delta is    0.000305345844963
 Root     13 not converged, maximum delta is    0.001160801068686
 Root     14 not converged, maximum delta is    0.000383867889546
 Root     15 not converged, maximum delta is    0.000874554560269
 Excitation Energies [eV] at current iteration:
 Root      1 :     4.615502845894285   Change is   -0.000375354928877
 Root      2 :     5.199830892607561   Change is   -0.000023890495409
 Root      3 :     5.349498639956627   Change is   -0.000037182878592
 Root      4 :     5.926777916214024   Change is   -0.000014038789015
 Root      5 :     6.119016349695191   Change is   -0.000012503499028
 Root      6 :     6.267939140771644   Change is   -0.000068794973756
 Root      7 :     6.337443221417640   Change is   -0.000486093528805
 Root      8 :     6.458351252928499   Change is   -0.000255390260229
 Root      9 :     6.546743620111552   Change is   -0.000327912625075
 Root     10 :     6.979505532803754   Change is   -0.000014706910934
 Root     11 :     7.229258817018560   Change is   -0.000084510265906
 Root     12 :     7.351334995963271   Change is   -0.000015234622633
 Root     13 :     7.443835386765345   Change is   -0.000165553889182
 Root     14 :     7.592079374337898   Change is   -0.000009870001031
 Root     15 :     7.643498183287000   Change is   -0.000102475338742
 Iteration     4 Dimension   143 NMult   135 NNew      8
 CISAX will form     8 AO SS matrices at one time.
 NMat=     8 NSing=     8 JSym2X= 0.
 Root      1 not converged, maximum delta is    0.000102159268966
 Root      2 not converged, maximum delta is    0.000009151518457
 Root      3 not converged, maximum delta is    0.000013500838041
 Root      4 not converged, maximum delta is    0.000020231192807
 Root      5 not converged, maximum delta is    0.000014441563697
 Root      6 not converged, maximum delta is    0.000023911968408
 Root      7 not converged, maximum delta is    0.000065341974451
 Root      8 not converged, maximum delta is    0.000103876028529
 Root      9 not converged, maximum delta is    0.000125182472910
 Root     10 not converged, maximum delta is    0.000008511994982
 Root     11 not converged, maximum delta is    0.000030031469115
 Root     12 not converged, maximum delta is    0.000012183333124
 Root     13 not converged, maximum delta is    0.000039264690679
 Root     14 not converged, maximum delta is    0.000013937492383
 Root     15 not converged, maximum delta is    0.000038145482562
 Excitation Energies [eV] at current iteration:
 Root      1 :     4.615500444605608   Change is   -0.000002401288676
 Root      2 :     5.199830857773337   Change is   -0.000000034834224
 Root      3 :     5.349498586541835   Change is   -0.000000053414792
 Root      4 :     5.926777831791001   Change is   -0.000000084423023
 Root      5 :     6.119016284538314   Change is   -0.000000065156877
 Root      6 :     6.267938933234216   Change is   -0.000000207537428
 Root      7 :     6.337441572631152   Change is   -0.000001648786488
 Root      8 :     6.458349133416692   Change is   -0.000002119511806
 Root      9 :     6.546740616852762   Change is   -0.000003003258789
 Root     10 :     6.979505499934930   Change is   -0.000000032868824
 Root     11 :     7.229258475871003   Change is   -0.000000341147557
 Root     12 :     7.351334953302142   Change is   -0.000000042661129
 Root     13 :     7.443834893116271   Change is   -0.000000493649075
 Root     14 :     7.592079333915226   Change is   -0.000000040422672
 Root     15 :     7.643497581795382   Change is   -0.000000601491618
 Convergence achieved on expansion vectors.
 ***********************************************************************
 Excited states from <AA,BB:AA,BB> singles matrix:
 ***********************************************************************
 
 1PDM for each excited state written to RWF  633
 Ground to excited state transition densities written to RWF  633
 Ground to excited state transition electric dipole moments (Au):
       state          X           Y           Z        Dip. S.      Osc.
         1         0.8296     -0.0727      0.0144      0.6936      0.0784
         2        -0.0036      0.1603     -0.0313      0.0267      0.0034
         3        -0.0293     -0.0413      0.0035      0.0026      0.0003
         4        -0.1388      0.0108      0.0864      0.0268      0.0039
         5        -0.0682     -0.0541     -0.0715      0.0127      0.0019
         6        -0.0344      0.4403     -0.0462      0.1972      0.0303
         7         0.0959      1.5171     -0.0403      2.3123      0.3590
         8        -0.5419     -0.0792      0.0052      0.3000      0.0475
         9        -0.6018     -0.1700     -0.0940      0.3998      0.0641
        10         0.0585     -0.0134     -0.0037      0.0036      0.0006
        11         0.0079     -0.0036     -0.1082      0.0118      0.0021
        12        -0.0093      0.0809      0.0718      0.0118      0.0021
        13         0.0409     -0.1294     -0.0700      0.0233      0.0043
        14         0.0785     -0.0023     -0.1012      0.0164      0.0031
        15         0.0633      0.0293     -0.0033      0.0049      0.0009
 Ground to excited state transition velocity dipole moments (Au):
       state          X           Y           Z        Dip. S.      Osc.
         1        -0.0562      0.0004      0.0107      0.0033      0.0129
         2        -0.0002     -0.0016      0.0045      0.0000      0.0001
         3        -0.0017     -0.0057     -0.0064      0.0001      0.0003
         4         0.0228      0.0001     -0.0850      0.0077      0.0237
         5         0.0122      0.0147      0.0173      0.0007      0.0020
         6        -0.0005     -0.0988      0.0568      0.0130      0.0376
         7        -0.0248     -0.3024     -0.0030      0.0921      0.2635
         8         0.1049      0.0155     -0.1105      0.0235      0.0659
         9         0.1113      0.0410      0.1253      0.0298      0.0825
        10        -0.0104      0.0015      0.0011      0.0001      0.0003
        11         0.0019      0.0009      0.0028      0.0000      0.0000
        12        -0.0019     -0.0165      0.0140      0.0005      0.0012
        13        -0.0010      0.0292     -0.0335      0.0020      0.0048
        14        -0.0110      0.0021     -0.0510      0.0027      0.0065
        15        -0.0096     -0.0016     -0.0133      0.0003      0.0006
 Ground to excited state transition magnetic dipole moments (Au):
       state          X           Y           Z
         1         0.0528      0.0010      0.7419
         2        -0.0503     -0.4661      0.0239
         3        -0.0866     -0.4430     -0.0070
         4         0.2266      0.0366     -0.0210
         5        -0.2493      0.0913      0.0059
         6        -0.0301     -0.0094     -0.0159
         7        -0.0475      0.0508     -0.0263
         8        -0.0722      0.0396      0.0155
         9         0.1434      0.0441     -0.0256
        10         0.2985      0.6876     -0.0166
        11        -1.4207      0.4835      0.0575
        12        -0.3562      0.1556      0.0325
        13        -0.9750     -0.5105      0.0876
        14        -0.3877      0.5360      0.0535
        15         0.5008      0.3063      0.0718
 Ground to excited state transition velocity quadrupole moments (Au):
       state          XX          YY          ZZ          XY          XZ          YZ
         1         0.1872     -0.1740     -0.0059      0.4497     -0.0130     -0.0070
         2         0.0562     -0.0912      0.0571      0.0015     -0.1015      0.0209
         3        -0.0527      0.1141     -0.0521     -0.0065     -0.1080      0.0303
         4         0.0202     -0.0358      0.0083      0.0498      0.0340      0.1840
         5        -0.0191      0.0066      0.0074      0.0226     -0.1113     -0.2208
         6         0.1462     -0.0941      0.0004     -0.0031      0.0950     -0.1302
         7         0.4467     -0.2555     -0.0425     -0.0667     -0.0621      0.0429
         8         0.0987     -0.0908      0.0034      0.3626      0.0399     -0.0051
         9         0.0330     -0.0529     -0.0003      0.3390     -0.0626     -0.0135
        10        -0.0211     -0.0264      0.0274     -0.0455     -0.2434      0.0661
        11         0.0138     -0.0176     -0.0235      0.0418     -0.0604     -0.0379
        12         0.0603      0.0045      0.0263      0.0433      0.2300      0.1765
        13        -0.0527     -0.0360      0.0067      0.0738     -0.0655      0.1197
        14         0.0112      0.0305      0.0346     -0.0260      0.1122     -0.2044
        15         0.0217      0.0041     -0.0211      0.0314      0.0076      0.3175
 <0|del|b> * <b|rxdel|0> + <0|del|b> * <b|delr+rdel|0>
 Rotatory Strengths (R) in cgs (10**-40 erg-esu-cm/Gauss)
       state          XX          YY          ZZ    R(velocity)    E-M Angle
         1        26.5150      1.1242     -7.0178      6.8738       83.33
         2         1.3164      0.1995      1.7499      1.0886       66.94
         3         3.6171      0.1748      6.0450      3.2789       46.19
         4        -3.9759     24.9598      1.5780      7.5207       69.97
         5         5.4440     -9.4819     -1.0095     -1.6825      103.58
         6        14.1804     -0.9961    -13.0527      0.0439       90.00
         7       -51.3907     -0.0119      8.5746    -14.2760      128.69
         8       -62.2667     45.0626     -8.6337     -8.6126      132.50
         9        64.1451    -45.9025     24.5521     14.2649       56.32
        10         1.8417     -5.1767     -2.4042     -1.9131      105.26
        11         1.0215     -3.6206     -2.9850     -1.8613      113.37
        12         2.9924      0.2546     -6.9722     -1.2417       99.68
        13       -23.7610      0.4967    -20.3148    -14.5264      110.11
        14        -0.6235      3.0962      4.3142      2.2623       85.57
        15        -2.3470    -10.5382     -2.8580     -5.2477      129.93
 1/2[<0|r|b>*<b|rxdel|0> + (<0|rxdel|b>*<b|r|0>)*]
 Rotatory Strengths (R) in cgs (10**-40 erg-esu-cm/Gauss)
       state          XX          YY          ZZ     R(length)
         1       -30.9942      0.0526     -7.5585    -12.8334
         2        -0.1263     52.8236      0.5288     17.7420
         3        -1.7932    -12.9449      0.0176     -4.9068
         4        22.2337     -0.2805      1.2858      7.7463
         5       -12.0286      3.4921      0.2977     -2.7463
         6        -0.7333      2.9308     -0.5189      0.5595
         7         3.2252    -54.4956     -0.7484    -17.3396
         8       -27.6513      2.2193     -0.0574     -8.4965
         9        61.0052      5.2991     -1.7012     21.5344
        10       -12.3544      6.5357     -0.0440     -1.9542
        11         7.9181      1.2181      4.4014      4.5125
        12        -2.3526     -8.9068     -1.6508     -4.3034
        13        28.1805    -46.7269      4.3388     -4.7359
        14        21.5076      0.8731      3.8287      8.7364
        15       -22.4026     -6.3427      0.1698     -9.5252
  1/2[<0|del|b>*<b|r|0> + (<0|r|b>*<b|del|0>)*] (Au)
       state          X           Y           Z        Dip. S.   Osc.(frdel)
         1        -0.0466      0.0000      0.0002      0.0465      0.0310
         2         0.0000     -0.0003     -0.0001      0.0004      0.0003
         3         0.0000      0.0002      0.0000     -0.0003     -0.0002
         4        -0.0032      0.0000     -0.0073      0.0105      0.0070
         5        -0.0008     -0.0008     -0.0012      0.0029      0.0019
         6         0.0000     -0.0435     -0.0026      0.0461      0.0307
         7        -0.0024     -0.4588      0.0001      0.4610      0.3073
         8        -0.0569     -0.0012     -0.0006      0.0587      0.0391
         9        -0.0670     -0.0070     -0.0118      0.0857      0.0572
        10        -0.0006      0.0000      0.0000      0.0006      0.0004
        11         0.0000      0.0000     -0.0003      0.0003      0.0002
        12         0.0000     -0.0013      0.0010      0.0003      0.0002
        13         0.0000     -0.0038      0.0023      0.0015      0.0010
        14        -0.0009      0.0000      0.0052     -0.0043     -0.0029
        15        -0.0006      0.0000      0.0000      0.0006      0.0004

 Excitation energies and oscillator strengths:
 
 Excited State   1:      Singlet-A      4.6155 eV  268.63 nm  f=0.0784  <S**2>=0.000
      12 -> 15         0.20380
      13 -> 14         0.66914
 This state for optimization and/or second-order correction.
 Total Energy, E(CIS) =  0.189761489807    
 Copying the excited state density for this state as the 1-particle RhoCI density.
 
 Excited State   2:      Singlet-A      5.1998 eV  238.44 nm  f=0.0034  <S**2>=0.000
      12 -> 14        -0.31779
      13 -> 15         0.46694
      13 -> 16         0.40245
 
 Excited State   3:      Singlet-A      5.3495 eV  231.77 nm  f=0.0003  <S**2>=0.000
      12 -> 14         0.32013
      13 -> 15        -0.28095
      13 -> 16         0.54563
 
 Excited State   4:      Singlet-A      5.9268 eV  209.19 nm  f=0.0039  <S**2>=0.000
       7 -> 16        -0.17175
      12 -> 15         0.19453
      12 -> 16         0.60709
      12 -> 22        -0.15287
      13 -> 18        -0.11595
 
 Excited State   5:      Singlet-A      6.1190 eV  202.62 nm  f=0.0019  <S**2>=0.000
      12 -> 19        -0.14282
      12 -> 21         0.12824
      12 -> 22         0.14356
      13 -> 17         0.20566
      13 -> 18         0.33565
      13 -> 19        -0.29062
      13 -> 21         0.17810
      13 -> 22         0.21996
      13 -> 23        -0.24091
      13 -> 24         0.13273
 
 Excited State   6:      Singlet-A      6.2679 eV  197.81 nm  f=0.0303  <S**2>=0.000
      12 -> 14         0.14865
      12 -> 18        -0.19626
      12 -> 20         0.14352
      12 -> 23         0.13343
      13 -> 15         0.12781
      13 -> 18         0.35014
      13 -> 19         0.22482
      13 -> 20        -0.18900
      13 -> 22        -0.30130
      13 -> 23        -0.12689
 
 Excited State   7:      Singlet-A      6.3374 eV  195.64 nm  f=0.3590  <S**2>=0.000
      11 -> 16         0.11067
      12 -> 14         0.47807
      13 -> 15         0.40355
      13 -> 22         0.12115
 
 Excited State   8:      Singlet-A      6.4583 eV  191.98 nm  f=0.0475  <S**2>=0.000
      12 -> 15         0.43953
      12 -> 16        -0.16196
      13 -> 14        -0.12772
      13 -> 17         0.40131
      13 -> 18        -0.21678
 
 Excited State   9:      Singlet-A      6.5467 eV  189.38 nm  f=0.0641  <S**2>=0.000
      12 -> 15         0.44698
      12 -> 16        -0.12486
      13 -> 14        -0.13245
      13 -> 17        -0.41205
      13 -> 18         0.16341
 
 Excited State  10:      Singlet-A      6.9795 eV  177.64 nm  f=0.0006  <S**2>=0.000
      12 -> 17        -0.38598
      12 -> 18         0.40564
      12 -> 20        -0.13344
      12 -> 21         0.13439
      13 -> 19         0.30384
      13 -> 22         0.10893
 
 Excited State  11:      Singlet-A      7.2293 eV  171.50 nm  f=0.0021  <S**2>=0.000
       9 -> 14         0.15209
      10 -> 14         0.44817
      10 -> 15         0.23795
      11 -> 14        -0.20894
      11 -> 15        -0.11276
      12 -> 17        -0.18469
      12 -> 19        -0.13222
      12 -> 22         0.10193
      13 -> 19        -0.12362
      13 -> 20        -0.15439
 
 Excited State  12:      Singlet-A      7.3513 eV  168.66 nm  f=0.0021  <S**2>=0.000
       9 -> 14         0.10868
      10 -> 14         0.26372
      10 -> 15         0.17036
      11 -> 14        -0.17325
      11 -> 15         0.10549
      12 -> 17         0.30248
      12 -> 18         0.19703
      12 -> 19         0.11623
      12 -> 20         0.12595
      12 -> 23        -0.14519
      13 -> 17         0.13050
      13 -> 18         0.20179
      13 -> 19         0.18088
      13 -> 20         0.19470
 
 Excited State  13:      Singlet-A      7.4438 eV  166.56 nm  f=0.0043  <S**2>=0.000
       9 -> 14         0.39841
       9 -> 15        -0.22009
      11 -> 14         0.38810
      11 -> 15        -0.26762
      13 -> 17         0.11339
      13 -> 22        -0.12148
 
 Excited State  14:      Singlet-A      7.5921 eV  163.31 nm  f=0.0031  <S**2>=0.000
       9 -> 14        -0.13666
      10 -> 14         0.12124
      11 -> 14         0.35206
      11 -> 15         0.20210
      12 -> 17         0.10166
      12 -> 19        -0.21890
      12 -> 20         0.12351
      12 -> 21        -0.10805
      12 -> 22         0.15219
      12 -> 23        -0.12802
      13 -> 18        -0.15637
      13 -> 19         0.19355
      13 -> 20        -0.18702
      13 -> 22         0.13115
      13 -> 24         0.14765
 
 Excited State  15:      Singlet-A      7.6435 eV  162.21 nm  f=0.0009  <S**2>=0.000
       9 -> 14        -0.20655
      10 -> 14         0.23159
      11 -> 14         0.26819
      12 -> 17        -0.12280
      12 -> 18        -0.15883
      12 -> 19         0.22058
      12 -> 22        -0.20057
      13 -> 17         0.18697
      13 -> 18         0.14798
      13 -> 21        -0.11208
      13 -> 22         0.18595
      13 -> 23         0.14787
      13 -> 24        -0.11144
 SavETr:  write IOETrn=   770 NScale= 10 NData=  16 NLR=1 NState=   15 LETran=     280.
 The selected state is a singlet
 CISAX will form     1 AO SS matrices at one time.
 NMat=     1 NSing=     1 JSym2X= 0.
 Leave Link  914 at Tue Dec 15 16:29:41 2015, MaxMem=    33554432 cpu:         0.2
 (Enter /home/Applications/g09/g09/l1002.exe)
 Minotr:  Closed shell wavefunction.
          Computing CIS/TD-HF/TD-KS derivatives.
          Using Z-Vector for PSCF gradient.
          Skipping F1 and S1 gradient terms here.
          IDoAtm=111111111
          Direct CPHF calculation.
          Differentiating once with respect to electric field.
                with respect to dipole field.
          Differentiating once with respect to nuclear coordinates.
          Electric field/nuclear overlap derivatives assumed to be zero.
          Requested convergence is 1.0D-10 RMS, and 1.0D-09 maximum.
          NewPWx=T KeepS1=F KeepF1=F KeepIn=T MapXYZ=F SortEE=F KeepMc=T.
          MDV=      33495423 using IRadAn=       0.
 Keep J ints in memory in canonical form, NReq=871704.
 FoFCou: FMM=F IPFlag=           0 FMFlag=           0 FMFlg1=           0
         NFxFlg=           0 DoJE=F BraDBF=F KetDBF=F FulRan=T
         wScrn=  0.000000 ICntrl=     600 IOpCl=  2 I1Cent=           0 NGrid=           0
         NMat0=    1 NMatS0=     54 NMatT0=    0 NMatD0=    1 NMtDS0=    0 NMtDT0=    0
 Symmetry not used in FoFCou.
          Solving linear equations separately, MaxMat=       0.
          There are     1 degrees of freedom in the 1st order CPHF.  IDoFFX=0 NUNeed=     1.
 LinEq1:  Iter=  0 NonCon=     1 RMS=1.05D-02 Max=7.75D-02 NDo=     1
 AX will form     1 AO Fock derivatives at one time.
 LinEq1:  Iter=  1 NonCon=     1 RMS=2.02D-03 Max=1.43D-02 NDo=     1
 LinEq1:  Iter=  2 NonCon=     1 RMS=3.14D-04 Max=2.21D-03 NDo=     1
 LinEq1:  Iter=  3 NonCon=     1 RMS=4.11D-05 Max=2.04D-04 NDo=     1
 LinEq1:  Iter=  4 NonCon=     1 RMS=4.39D-06 Max=1.54D-05 NDo=     1
 LinEq1:  Iter=  5 NonCon=     1 RMS=6.81D-07 Max=4.72D-06 NDo=     1
 LinEq1:  Iter=  6 NonCon=     1 RMS=8.94D-08 Max=3.70D-07 NDo=     1
 LinEq1:  Iter=  7 NonCon=     1 RMS=1.25D-08 Max=7.80D-08 NDo=     1
 LinEq1:  Iter=  8 NonCon=     1 RMS=1.42D-09 Max=4.43D-09 NDo=     1
 LinEq1:  Iter=  9 NonCon=     1 RMS=1.68D-10 Max=6.22D-10 NDo=     1
 LinEq1:  Iter= 10 NonCon=     0 RMS=1.54D-11 Max=5.83D-11 NDo=     1
 Linear equations converged to 1.000D-10 1.000D-09 after    10 iterations.
 End of Minotr F.D. properties file   721 does not exist.
 End of Minotr F.D. properties file   722 does not exist.
 End of Minotr F.D. properties file   788 does not exist.
 Leave Link 1002 at Tue Dec 15 16:29:41 2015, MaxMem=    33554432 cpu:         0.0
 (Enter /home/Applications/g09/g09/l601.exe)
 Copying SCF densities to generalized density rwf, IOpCl= 0 IROHF=0.

 **********************************************************************

            Population analysis using the SCF density.

 **********************************************************************

 Orbital symmetries:
       Occupied  (A) (A) (A) (A) (A) (A) (A) (A) (A) (A) (A) (A)
                 (A)
       Virtual   (A) (A) (A) (A) (A) (A) (A) (A) (A) (A) (A)
 The electronic state is 1-A.
 Alpha  occ. eigenvalues --   -1.55716  -1.23287  -1.10112  -0.81388  -0.80595
 Alpha  occ. eigenvalues --   -0.67770  -0.59600  -0.55301  -0.50983  -0.50229
 Alpha  occ. eigenvalues --   -0.49090  -0.39591  -0.35309
 Alpha virt. eigenvalues --    0.03373   0.06636   0.10015   0.13510   0.14324
 Alpha virt. eigenvalues --    0.14824   0.17400   0.17875   0.19065   0.20560
 Alpha virt. eigenvalues --    0.22262
     Molecular Orbital Coefficients:
                           1         2         3         4         5
                           O         O         O         O         O
     Eigenvalues --    -1.55716  -1.23287  -1.10112  -0.81388  -0.80595
   1 1   C  1S          0.29686  -0.47245  -0.28343  -0.30867  -0.28655
   2        1PX        -0.08741   0.08068  -0.13315  -0.20028   0.13669
   3        1PY        -0.10390   0.03377   0.15666   0.02624  -0.32029
   4        1PZ        -0.00241   0.00369   0.00030   0.00080   0.01139
   5 2   C  1S          0.37032  -0.15356  -0.50204   0.09494   0.40441
   6        1PX        -0.17528  -0.09409  -0.01701  -0.16608   0.11854
   7        1PY         0.03118  -0.23022  -0.03045  -0.33664  -0.07077
   8        1PZ        -0.00786  -0.00067   0.00837  -0.00812  -0.00250
   9 3   O  1S          0.62047   0.61679  -0.04569   0.02497  -0.28620
  10        1PX         0.02989  -0.02026  -0.29618   0.51369   0.07551
  11        1PY         0.19704  -0.01511   0.05821  -0.09132   0.16890
  12        1PZ         0.00465   0.00185  -0.00236   0.00420   0.00928
  13 4   C  1S          0.37456  -0.08917   0.52218  -0.16717   0.36593
  14        1PX         0.17786   0.01110  -0.00707   0.02177  -0.13431
  15        1PY        -0.03892  -0.24113   0.06076   0.38410   0.03419
  16        1PZ         0.00075  -0.00070   0.00134  -0.00324   0.00857
  17 5   C  1S          0.29644  -0.43447   0.33180   0.35421  -0.22966
  18        1PX         0.04537  -0.08362  -0.17822  -0.15158  -0.26476
  19        1PY        -0.12883   0.04729  -0.10300   0.06087  -0.22153
  20        1PZ         0.00433  -0.00660   0.00391   0.00547  -0.00263
  21 6   H  1S          0.05838  -0.12547   0.12298   0.21337  -0.13029
  22 7   H  1S          0.08253  -0.01079   0.20066  -0.15425   0.22913
  23 8   H  1S          0.07664  -0.03812  -0.19060   0.07461   0.25334
  24 9   H  1S          0.06112  -0.14506  -0.10127  -0.19506  -0.19718
                           6         7         8         9        10
                           O         O         O         O         O
     Eigenvalues --    -0.67770  -0.59600  -0.55301  -0.50983  -0.50229
   1 1   C  1S         -0.08212   0.01729   0.17228  -0.01479  -0.04159
   2        1PX        -0.23347  -0.01635   0.07738   0.16191  -0.28016
   3        1PY        -0.17965  -0.00109   0.17424   0.50579   0.00609
   4        1PZ         0.00572   0.24045  -0.03813  -0.03018  -0.01499
   5 2   C  1S         -0.08817   0.00581  -0.12189  -0.00091   0.11068
   6        1PX        -0.34129  -0.05834  -0.40659   0.08137  -0.15839
   7        1PY         0.15355   0.00696  -0.04052  -0.44557  -0.08315
   8        1PZ         0.00552   0.38063  -0.03961  -0.00474  -0.03978
   9 3   O  1S         -0.19488  -0.00685  -0.02552  -0.14993  -0.14985
  10        1PX         0.05515   0.02431   0.45697   0.04910   0.03448
  11        1PY         0.47343  -0.01186  -0.03447   0.42426   0.31265
  12        1PZ         0.00482   0.75834  -0.05211   0.06525  -0.06068
  13 4   C  1S         -0.08136  -0.00151   0.15117   0.08767  -0.02928
  14        1PX         0.38100  -0.04623  -0.37583   0.24931  -0.24321
  15        1PY        -0.00814  -0.01552   0.10979  -0.08125  -0.45003
  16        1PZ        -0.01041   0.38911  -0.01449   0.01682  -0.00167
  17 5   C  1S         -0.10013  -0.01528  -0.18889  -0.03180   0.03445
  18        1PX         0.17222   0.01399   0.06470   0.03506   0.23629
  19        1PY        -0.25056   0.02655  -0.15495  -0.02406   0.48637
  20        1PZ        -0.00533   0.23987  -0.02810  -0.00530   0.00499
  21 6   H  1S         -0.23044   0.01284  -0.22630  -0.04911   0.27350
  22 7   H  1S         -0.26052   0.05011   0.32349  -0.10653   0.29549
  23 8   H  1S         -0.26515  -0.04685  -0.29112   0.26833   0.01661
  24 9   H  1S         -0.21837  -0.00804   0.23262   0.37037  -0.17342
                          11        12        13        14        15
                           O         O         O         V         V
     Eigenvalues --    -0.49090  -0.39591  -0.35309   0.03373   0.06636
   1 1   C  1S          0.01729   0.01532  -0.00607  -0.02967   0.02529
   2        1PX        -0.47203  -0.00274   0.00416   0.01188   0.02706
   3        1PY         0.11828   0.04650  -0.02534  -0.01263   0.02479
   4        1PZ        -0.01439   0.59054  -0.35496  -0.33353   0.58363
   5 2   C  1S         -0.00396  -0.00131  -0.02549   0.02917  -0.06101
   6        1PX         0.19638   0.01202   0.01022   0.01852   0.03639
   7        1PY        -0.24238  -0.02549   0.02446  -0.01088   0.05516
   8        1PZ        -0.00573   0.22319  -0.57033   0.55293  -0.39949
   9 3   O  1S          0.00321   0.00032   0.00705   0.00201   0.03227
  10        1PX        -0.05835   0.01766  -0.00215  -0.00113   0.02647
  11        1PY        -0.28566   0.01517  -0.00350   0.00379   0.06935
  12        1PZ         0.01923  -0.53662  -0.04019  -0.35095   0.00566
  13 4   C  1S          0.03919   0.00868  -0.01083  -0.01896  -0.03859
  14        1PX        -0.07363   0.01359   0.02475   0.03165  -0.00194
  15        1PY        -0.02505   0.01091   0.01944   0.00657   0.04753
  16        1PZ         0.01104   0.13662   0.59366   0.57049   0.37852
  17 5   C  1S          0.03292  -0.02193  -0.01206   0.02799   0.03179
  18        1PX         0.49049   0.00779  -0.00557   0.01189  -0.01051
  19        1PY        -0.28294  -0.02345  -0.01600   0.01010   0.03250
  20        1PZ        -0.00984   0.53786   0.43690  -0.35624  -0.56820
  21 6   H  1S         -0.37449  -0.00959   0.00798  -0.01693  -0.05111
  22 7   H  1S          0.10017  -0.00098  -0.00085   0.02810   0.04783
  23 8   H  1S          0.25324   0.01216   0.00897  -0.03392   0.06030
  24 9   H  1S         -0.18976   0.00910  -0.00011   0.01811  -0.05022
                          16        17        18        19        20
                           V         V         V         V         V
     Eigenvalues --     0.10015   0.13510   0.14324   0.14824   0.17400
   1 1   C  1S          0.07311   0.26992   0.22856  -0.08702   0.01751
   2        1PX         0.03830  -0.28885   0.30939  -0.12892  -0.33872
   3        1PY         0.02486   0.04581  -0.10300  -0.25695   0.29488
   4        1PZ        -0.09700  -0.02292  -0.00998   0.02644   0.00774
   5 2   C  1S         -0.30968  -0.21155  -0.25480  -0.17274   0.28749
   6        1PX         0.25703  -0.27968   0.22231  -0.21765   0.29782
   7        1PY         0.28216   0.06331  -0.13559  -0.02124   0.00630
   8        1PZ         0.09166   0.04055   0.01572   0.00378  -0.02661
   9 3   O  1S          0.22203  -0.00760  -0.01185  -0.03861   0.08241
  10        1PX         0.11558  -0.04027   0.32798  -0.05551  -0.13086
  11        1PY         0.47523  -0.01915  -0.07348  -0.06935   0.17256
  12        1PZ         0.01567  -0.02096   0.00553  -0.00267   0.00664
  13 4   C  1S         -0.24264   0.22100   0.19972  -0.34311  -0.12575
  14        1PX        -0.17017  -0.23780   0.27084   0.19500  -0.11048
  15        1PY         0.34125   0.03258  -0.03675  -0.12834   0.24305
  16        1PZ        -0.06800   0.04808  -0.00554  -0.01032   0.00742
  17 5   C  1S          0.05124  -0.34778  -0.20908  -0.00993  -0.32156
  18        1PX        -0.00286  -0.21794   0.32469  -0.06404  -0.07413
  19        1PY         0.06005  -0.02029  -0.11181  -0.40221  -0.26946
  20        1PZ         0.08621  -0.04306  -0.01813  -0.01920  -0.03505
  21 6   H  1S         -0.14793   0.22306   0.43378   0.31925   0.39051
  22 7   H  1S          0.25891  -0.41909   0.06991   0.41618   0.07378
  23 8   H  1S          0.32482   0.44664  -0.03783   0.28807  -0.37979
  24 9   H  1S         -0.16560  -0.07487  -0.35232   0.35389   0.00777
                          21        22        23        24
                           V         V         V         V
     Eigenvalues --     0.17875   0.19065   0.20560   0.22262
   1 1   C  1S         -0.39959  -0.18760  -0.22146   0.08917
   2        1PX        -0.08389  -0.04108   0.40270   0.19308
   3        1PY        -0.26778   0.35061   0.31940  -0.24745
   4        1PZ         0.03763  -0.01403  -0.00552   0.01307
   5 2   C  1S         -0.05747   0.16663   0.15755   0.02363
   6        1PX         0.18162  -0.23331  -0.24945  -0.28581
   7        1PY         0.21029   0.38685   0.23780  -0.42422
   8        1PZ        -0.00527   0.00426   0.00290  -0.01399
   9 3   O  1S          0.06746  -0.05404   0.00175   0.00204
  10        1PX         0.15156  -0.02243  -0.13544  -0.48615
  11        1PY         0.07200  -0.22755   0.02202   0.08466
  12        1PZ         0.00859  -0.00093  -0.00688  -0.00887
  13 4   C  1S          0.24153   0.14095  -0.11978  -0.04408
  14        1PX        -0.16419   0.43570  -0.31313  -0.09308
  15        1PY         0.13461   0.28048  -0.10598   0.51049
  16        1PZ         0.00908  -0.02269   0.01461  -0.00120
  17 5   C  1S         -0.05707  -0.23690   0.20885  -0.09810
  18        1PX         0.44818   0.12537   0.28182   0.27488
  19        1PY         0.08060   0.28572  -0.38474   0.15513
  20        1PZ        -0.01452   0.00371  -0.00034  -0.00412
  21 6   H  1S          0.15178   0.01528   0.19642   0.04649
  22 7   H  1S         -0.24960   0.27031  -0.15559   0.06271
  23 8   H  1S          0.02413   0.18781   0.13445  -0.01837
  24 9   H  1S          0.49660  -0.04443  -0.22019  -0.02146
     Density Matrix:
                           1         2         3         4         5
   1 1   C  1S          1.21659
   2        1PX         0.05914   0.95796
   3        1PY         0.06481   0.04295   0.95009
   4        1PZ         0.00617  -0.00668   0.01652   1.07104
   5 2   C  1S          0.32280   0.08003  -0.50884   0.03063   1.24182
   6        1PX        -0.03919   0.14699   0.04858   0.00275   0.10182
   7        1PY         0.47339   0.13428  -0.58590  -0.00694  -0.03078
   8        1PZ         0.01329   0.00065   0.03179   0.85623   0.01526
   9 3   O  1S         -0.00002   0.03470  -0.00886   0.00030   0.09647
  10        1PX        -0.01214  -0.01903   0.05563  -0.00039   0.37160
  11        1PY        -0.08014   0.03613   0.04819  -0.00135   0.20702
  12        1PZ        -0.01026   0.00544  -0.00690  -0.23900   0.02397
  13 4   C  1S         -0.02888   0.01717   0.01744   0.00513   0.01578
  14        1PX        -0.02060  -0.02076   0.01282  -0.00017  -0.00018
  15        1PY        -0.00872   0.07811  -0.04325   0.00211  -0.04099
  16        1PZ         0.00461  -0.00690  -0.00537  -0.07308  -0.01548
  17 5   C  1S          0.26092  -0.45760   0.12350  -0.02059  -0.02704
  18        1PX         0.44335  -0.64067   0.20675  -0.01362  -0.00205
  19        1PY        -0.03478   0.05158   0.09206  -0.00363   0.01893
  20        1PZ         0.01478  -0.01001   0.01371   0.44286  -0.01169
  21 6   H  1S         -0.04787   0.07238  -0.01974   0.00559   0.05259
  22 7   H  1S          0.04736  -0.06975   0.01583  -0.00480   0.05152
  23 8   H  1S         -0.06037  -0.01062   0.08956  -0.01422   0.59680
  24 9   H  1S          0.57711   0.55153   0.54989  -0.03121  -0.06089
                           6         7         8         9        10
   6        1PX         0.87444
   7        1PY        -0.08569   0.92790
   8        1PZ        -0.00798  -0.01033   1.04682
   9 3   O  1S         -0.22912  -0.11940  -0.01025   1.86740
  10        1PX        -0.58686  -0.36928  -0.02342  -0.04900   1.15676
  11        1PY        -0.43347  -0.09124  -0.01739  -0.28608   0.02684
  12        1PZ        -0.02682  -0.02029   0.39154  -0.00860  -0.02172
  13 4   C  1S         -0.01830  -0.03712   0.00713   0.09588  -0.26831
  14        1PX         0.03722   0.01207  -0.00816   0.18235  -0.27058
  15        1PY        -0.02428  -0.01038  -0.00550  -0.19453   0.43414
  16        1PZ        -0.00056   0.00666  -0.31906  -0.00167   0.00430
  17 5   C  1S          0.01425  -0.01612   0.00025  -0.00116  -0.02173
  18        1PX        -0.05476  -0.06942  -0.00730  -0.03547  -0.04243
  19        1PY        -0.00906  -0.01906   0.00264   0.00231  -0.02404
  20        1PZ         0.01120   0.00635  -0.07380   0.00541   0.00693
  21 6   H  1S         -0.00476   0.05715  -0.00673   0.02331  -0.03899
  22 7   H  1S         -0.09090  -0.03896  -0.01003  -0.03973   0.03019
  23 8   H  1S          0.58360  -0.47547  -0.03392  -0.04061  -0.06532
  24 9   H  1S          0.02908  -0.05970  -0.00863   0.02232   0.07435
                          11        12        13        14        15
  11        1PY         1.32872
  12        1PZ        -0.01553   1.75168
  13 4   C  1S          0.31184  -0.00469   1.24503
  14        1PX         0.50912   0.01478  -0.10530   0.93279
  15        1PY        -0.41033  -0.00295   0.01838   0.08353   0.86934
  16        1PZ        -0.00723   0.40017  -0.00100   0.00544   0.00773
  17 5   C  1S         -0.07995   0.01130   0.31367   0.19667   0.41537
  18        1PX        -0.00627  -0.00224  -0.25780  -0.00712  -0.35143
  19        1PY         0.06744   0.00326  -0.45608  -0.26641  -0.44526
  20        1PZ         0.00918  -0.24737  -0.00573   0.02979   0.01940
  21 6   H  1S          0.09820  -0.00464  -0.05743  -0.04839  -0.03975
  22 7   H  1S         -0.07126  -0.00228   0.60449  -0.69995  -0.25966
  23 8   H  1S         -0.05507  -0.00749   0.04684   0.07462  -0.06489
  24 9   H  1S          0.07759   0.00899   0.05307   0.02113   0.05006
                          16        17        18        19        20
  16        1PZ         1.04664
  17 5   C  1S         -0.02940   1.22959
  18        1PX         0.00830  -0.01770   0.93132
  19        1PY        -0.00845   0.08478  -0.03923   0.97543
  20        1PZ         0.85283  -0.01378  -0.00308  -0.00512   1.07758
  21 6   H  1S          0.01435   0.56503  -0.36334   0.69827   0.03475
  22 7   H  1S          0.03702  -0.06082   0.04717   0.08500   0.00848
  23 8   H  1S          0.00955   0.05308   0.06937  -0.00758   0.00913
  24 9   H  1S          0.00067  -0.04484  -0.05788   0.01238  -0.00628
                          21        22        23        24
  21 6   H  1S          0.83773
  22 7   H  1S          0.00819   0.81441
  23 8   H  1S         -0.01682  -0.02149   0.81458
  24 9   H  1S         -0.00737  -0.01356   0.00824   0.83434
    Full Mulliken population analysis:
                           1         2         3         4         5
   1 1   C  1S          1.21659
   2        1PX         0.00000   0.95796
   3        1PY         0.00000   0.00000   0.95009
   4        1PZ         0.00000   0.00000   0.00000   1.07104
   5 2   C  1S          0.00000   0.00000   0.00000   0.00000   1.24182
   6        1PX         0.00000   0.00000   0.00000   0.00000   0.00000
   7        1PY         0.00000   0.00000   0.00000   0.00000   0.00000
   8        1PZ         0.00000   0.00000   0.00000   0.00000   0.00000
   9 3   O  1S          0.00000   0.00000   0.00000   0.00000   0.00000
  10        1PX         0.00000   0.00000   0.00000   0.00000   0.00000
  11        1PY         0.00000   0.00000   0.00000   0.00000   0.00000
  12        1PZ         0.00000   0.00000   0.00000   0.00000   0.00000
  13 4   C  1S          0.00000   0.00000   0.00000   0.00000   0.00000
  14        1PX         0.00000   0.00000   0.00000   0.00000   0.00000
  15        1PY         0.00000   0.00000   0.00000   0.00000   0.00000
  16        1PZ         0.00000   0.00000   0.00000   0.00000   0.00000
  17 5   C  1S          0.00000   0.00000   0.00000   0.00000   0.00000
  18        1PX         0.00000   0.00000   0.00000   0.00000   0.00000
  19        1PY         0.00000   0.00000   0.00000   0.00000   0.00000
  20        1PZ         0.00000   0.00000   0.00000   0.00000   0.00000
  21 6   H  1S          0.00000   0.00000   0.00000   0.00000   0.00000
  22 7   H  1S          0.00000   0.00000   0.00000   0.00000   0.00000
  23 8   H  1S          0.00000   0.00000   0.00000   0.00000   0.00000
  24 9   H  1S          0.00000   0.00000   0.00000   0.00000   0.00000
                           6         7         8         9        10
   6        1PX         0.87444
   7        1PY         0.00000   0.92790
   8        1PZ         0.00000   0.00000   1.04682
   9 3   O  1S          0.00000   0.00000   0.00000   1.86740
  10        1PX         0.00000   0.00000   0.00000   0.00000   1.15676
  11        1PY         0.00000   0.00000   0.00000   0.00000   0.00000
  12        1PZ         0.00000   0.00000   0.00000   0.00000   0.00000
  13 4   C  1S          0.00000   0.00000   0.00000   0.00000   0.00000
  14        1PX         0.00000   0.00000   0.00000   0.00000   0.00000
  15        1PY         0.00000   0.00000   0.00000   0.00000   0.00000
  16        1PZ         0.00000   0.00000   0.00000   0.00000   0.00000
  17 5   C  1S          0.00000   0.00000   0.00000   0.00000   0.00000
  18        1PX         0.00000   0.00000   0.00000   0.00000   0.00000
  19        1PY         0.00000   0.00000   0.00000   0.00000   0.00000
  20        1PZ         0.00000   0.00000   0.00000   0.00000   0.00000
  21 6   H  1S          0.00000   0.00000   0.00000   0.00000   0.00000
  22 7   H  1S          0.00000   0.00000   0.00000   0.00000   0.00000
  23 8   H  1S          0.00000   0.00000   0.00000   0.00000   0.00000
  24 9   H  1S          0.00000   0.00000   0.00000   0.00000   0.00000
                          11        12        13        14        15
  11        1PY         1.32872
  12        1PZ         0.00000   1.75168
  13 4   C  1S          0.00000   0.00000   1.24503
  14        1PX         0.00000   0.00000   0.00000   0.93279
  15        1PY         0.00000   0.00000   0.00000   0.00000   0.86934
  16        1PZ         0.00000   0.00000   0.00000   0.00000   0.00000
  17 5   C  1S          0.00000   0.00000   0.00000   0.00000   0.00000
  18        1PX         0.00000   0.00000   0.00000   0.00000   0.00000
  19        1PY         0.00000   0.00000   0.00000   0.00000   0.00000
  20        1PZ         0.00000   0.00000   0.00000   0.00000   0.00000
  21 6   H  1S          0.00000   0.00000   0.00000   0.00000   0.00000
  22 7   H  1S          0.00000   0.00000   0.00000   0.00000   0.00000
  23 8   H  1S          0.00000   0.00000   0.00000   0.00000   0.00000
  24 9   H  1S          0.00000   0.00000   0.00000   0.00000   0.00000
                          16        17        18        19        20
  16        1PZ         1.04664
  17 5   C  1S          0.00000   1.22959
  18        1PX         0.00000   0.00000   0.93132
  19        1PY         0.00000   0.00000   0.00000   0.97543
  20        1PZ         0.00000   0.00000   0.00000   0.00000   1.07758
  21 6   H  1S          0.00000   0.00000   0.00000   0.00000   0.00000
  22 7   H  1S          0.00000   0.00000   0.00000   0.00000   0.00000
  23 8   H  1S          0.00000   0.00000   0.00000   0.00000   0.00000
  24 9   H  1S          0.00000   0.00000   0.00000   0.00000   0.00000
                          21        22        23        24
  21 6   H  1S          0.83773
  22 7   H  1S          0.00000   0.81441
  23 8   H  1S          0.00000   0.00000   0.81458
  24 9   H  1S          0.00000   0.00000   0.00000   0.83434
     Gross orbital populations:
                           1
   1 1   C  1S          1.21659
   2        1PX         0.95796
   3        1PY         0.95009
   4        1PZ         1.07104
   5 2   C  1S          1.24182
   6        1PX         0.87444
   7        1PY         0.92790
   8        1PZ         1.04682
   9 3   O  1S          1.86740
  10        1PX         1.15676
  11        1PY         1.32872
  12        1PZ         1.75168
  13 4   C  1S          1.24503
  14        1PX         0.93279
  15        1PY         0.86934
  16        1PZ         1.04664
  17 5   C  1S          1.22959
  18        1PX         0.93132
  19        1PY         0.97543
  20        1PZ         1.07758
  21 6   H  1S          0.83773
  22 7   H  1S          0.81441
  23 8   H  1S          0.81458
  24 9   H  1S          0.83434
          Condensed to atoms (all electrons):
               1          2          3          4          5          6
     1  C    4.195685   0.000000   0.000000   0.000000   0.000000   0.000000
     2  C    0.000000   4.090977   0.000000   0.000000   0.000000   0.000000
     3  O    0.000000   0.000000   6.104557   0.000000   0.000000   0.000000
     4  C    0.000000   0.000000   0.000000   4.093792   0.000000   0.000000
     5  C    0.000000   0.000000   0.000000   0.000000   4.213928   0.000000
     6  H    0.000000   0.000000   0.000000   0.000000   0.000000   0.837729
     7  H    0.000000   0.000000   0.000000   0.000000   0.000000   0.000000
     8  H    0.000000   0.000000   0.000000   0.000000   0.000000   0.000000
     9  H    0.000000   0.000000   0.000000   0.000000   0.000000   0.000000
               7          8          9
     1  C    0.000000   0.000000   0.000000
     2  C    0.000000   0.000000   0.000000
     3  O    0.000000   0.000000   0.000000
     4  C    0.000000   0.000000   0.000000
     5  C    0.000000   0.000000   0.000000
     6  H    0.000000   0.000000   0.000000
     7  H    0.814414   0.000000   0.000000
     8  H    0.000000   0.814581   0.000000
     9  H    0.000000   0.000000   0.834336
 Mulliken charges:
               1
     1  C   -0.195685
     2  C   -0.090977
     3  O   -0.104557
     4  C   -0.093792
     5  C   -0.213928
     6  H    0.162271
     7  H    0.185586
     8  H    0.185419
     9  H    0.165664
 Sum of Mulliken charges =   0.00000
 Mulliken charges with hydrogens summed into heavy atoms:
               1
     1  C   -0.030022
     2  C    0.094442
     3  O   -0.104557
     4  C    0.091794
     5  C   -0.051657
 Charge=              0.0000 electrons
 Dipole moment (field-independent basis, Debye):
    X=              0.0962    Y=              0.5588    Z=              0.0198  Tot=              0.5673
 N-N= 1.032735031333D+02 E-N=-1.708228072754D+02  KE=-1.650451098112D+01
 Orbital energies and kinetic energies (alpha):
                                 1                 2
   1         O                -1.557158         -1.313667
   2         O                -1.232868         -1.042518
   3         O                -1.101115         -0.961091
   4         O                -0.813876         -0.695057
   5         O                -0.805945         -0.720867
   6         O                -0.677704         -0.600044
   7         O                -0.595999         -0.486831
   8         O                -0.553011         -0.498101
   9         O                -0.509832         -0.428968
  10         O                -0.502285         -0.419658
  11         O                -0.490900         -0.426980
  12         O                -0.395912         -0.341561
  13         O                -0.353093         -0.316911
  14         V                 0.033727         -0.195620
  15         V                 0.066360         -0.191314
  16         V                 0.100153         -0.194191
  17         V                 0.135097         -0.236130
  18         V                 0.143236         -0.193829
  19         V                 0.148243         -0.219827
  20         V                 0.174005         -0.175959
  21         V                 0.178746         -0.182635
  22         V                 0.190651         -0.114403
  23         V                 0.205605         -0.118161
  24         V                 0.222623         -0.049301
 Total kinetic energy from orbitals=-1.650451098112D+01
 Leave Link  601 at Tue Dec 15 16:29:41 2015, MaxMem=    33554432 cpu:         0.0
 (Enter /home/Applications/g09/g09/l701.exe)
 Compute integral first derivatives.
 ... and contract with generalized density number  6.
 Leave Link  701 at Tue Dec 15 16:29:41 2015, MaxMem=    33554432 cpu:         0.0
 (Enter /home/Applications/g09/g09/l702.exe)
 L702 exits ... SP integral derivatives will be done elsewhere.
 Leave Link  702 at Tue Dec 15 16:29:41 2015, MaxMem=    33554432 cpu:         0.0
 (Enter /home/Applications/g09/g09/l703.exe)
 Compute integral first derivatives, UseDBF=F ICtDFT=           0.
 Integral derivatives from FoFJK, PRISM(SPDF).
 Calling FoFJK, ICntrl=  10005127 FMM=F ISym2X=0 I1Cent= 0 IOpClX= 0 NMat=1 NMatS=1 NMatT=0.
 FoFJK:  IHMeth= 8 ICntrl=10005127 DoSepK=F KAlg= 0 I1Cent=   0 FoldK=F
 IRaf=         0 NMat=   1 IRICut=       1 DoRegI=T DoRafI=F ISym2E= 0.
 FoFCou: FMM=F IPFlag=           0 FMFlag=      100000 FMFlg1=         800
         NFxFlg=           0 DoJE=F BraDBF=F KetDBF=F FulRan=T
         wScrn=  0.000000 ICntrl=10005127 IOpCl=  0 I1Cent=           0 NGrid=           0
         NMat0=    1 NMatS0=      1 NMatT0=    0 NMatD0=    1 NMtDS0=    0 NMtDT0=    0
 Symmetry not used in FoFCou.
 Leave Link  703 at Tue Dec 15 16:29:41 2015, MaxMem=    33554432 cpu:         0.0
 (Enter /home/Applications/g09/g09/l716.exe)
 Dipole        = 1.12485039D-02 3.19370497D-01 1.40356378D-02
 ***** Axes restored to original set *****
 -------------------------------------------------------------------
 Center     Atomic                   Forces (Hartrees/Bohr)
 Number     Number              X              Y              Z
 -------------------------------------------------------------------
      1        6           0.154333889    0.052749117   -0.007735867
      2        6          -0.113119001   -0.088705386   -0.006336252
      3        8          -0.066082369   -0.010498136    0.000017355
      4        6          -0.092149599    0.061733721    0.001730984
      5        6           0.149600914   -0.014976074    0.011077189
      6        1          -0.020471225   -0.029160557   -0.006393825
      7        1           0.001007852    0.006329489   -0.001348483
      8        1          -0.000867024    0.015457229    0.004313967
      9        1          -0.012253436    0.007070599    0.004674933
 -------------------------------------------------------------------
 Cartesian Forces:  Max     0.154333889 RMS     0.057319618
 Z-matrix is all fixed cartesians, so copy forces.
 Force constants in Cartesian coordinates: 
                1             2             3             4             5 
      1  0.989071D+00
      2  0.432939D-02  0.755744D+00
      3 -0.166040D-01 -0.949039D-02  0.218330D+00
      4 -0.600047D+00 -0.118735D+00  0.830711D-02  0.987463D+00
      5 -0.943902D-01 -0.224377D+00  0.433473D-02  0.393241D-01  0.832758D+00
      6 -0.380145D-03  0.167527D-02 -0.114141D+00  0.192095D-01 -0.467535D-02
      7 -0.781756D-02  0.295807D-01 -0.220984D-02 -0.266995D+00  0.144656D+00
      8 -0.585711D-02  0.221816D-01 -0.104841D-02  0.189740D+00 -0.338641D+00
      9 -0.142917D-03  0.394700D-03  0.523347D-02 -0.186025D-01  0.169823D-01
     10  0.110998D-01 -0.114181D-03  0.336990D-03  0.230039D-01  0.172180D-01
     11  0.344990D-01 -0.382181D-03  0.558934D-03 -0.181569D-01 -0.135960D-01
     12 -0.236926D-02 -0.646260D-04 -0.114684D-02  0.193694D-02  0.141009D-02
     13 -0.162482D+00  0.978011D-02 -0.474398D-03  0.937983D-02 -0.354957D-01
     14 -0.168453D-01 -0.386919D+00  0.164488D-01 -0.124308D-03  0.475080D-03
     15  0.448426D-04  0.154613D-01 -0.785504D-01 -0.212060D-03  0.129254D-02
     16  0.169143D-01 -0.172287D-03  0.615295D-03  0.140190D-05 -0.202079D-04
     17 -0.205885D-01  0.136161D-03 -0.249271D-02  0.000000D+00  0.681000D-05
     18  0.284372D-02  0.629469D-03  0.157138D-01 -0.108111D-04  0.155839D-03
     19 -0.308012D-05 -0.879924D-05 -0.209471D-03 -0.860768D-05  0.720163D-05
     20 -0.100070D-04 -0.285878D-04 -0.680548D-03  0.649915D-05 -0.543752D-05
     21  0.118805D-03  0.339401D-03  0.807964D-02 -0.162854D-03  0.136252D-03
     22  0.699716D-02 -0.266074D-01 -0.222112D-02 -0.148359D+00 -0.881994D-01
     23 -0.345198D-02  0.130553D-01 -0.119324D-02 -0.856186D-01 -0.281033D+00
     24  0.491739D-03 -0.882366D-03  0.315904D-01 -0.112409D-01 -0.176246D-01
     25 -0.253733D+00  0.101948D+00  0.124595D-01 -0.443702D-02  0.169000D-01
     26  0.102315D+00 -0.179410D+00 -0.643718D-02 -0.643467D-02  0.244138D-01
     27  0.159972D-01 -0.806276D-02 -0.851091D-01  0.775561D-03 -0.201173D-02
                6             7             8             9            10 
      6  0.202055D+00
      7 -0.140348D-01  0.530408D+00
      8  0.160414D-01  0.146429D-01  0.657742D+00
      9 -0.468974D-01  0.158732D-01 -0.160374D-01  0.554053D-01
     10 -0.721820D-04 -0.287530D+00 -0.205158D+00  0.177718D-02  0.977275D+00
     11 -0.779627D-04 -0.161727D+00 -0.346935D+00  0.190376D-02 -0.503359D-01
     12 -0.135408D-02 -0.113406D-02 -0.744885D-03 -0.457422D-01 -0.967318D-02
     13  0.252982D-02 -0.918487D-02  0.725244D-02  0.316291D-03 -0.546559D+00
     14  0.104955D-03 -0.285357D-01  0.225189D-01  0.682134D-03  0.129175D+00
     15 -0.146981D-03  0.701349D-04 -0.286084D-03  0.742149D-02 -0.187921D-02
     16 -0.478706D-03  0.000000D+00  0.000000D+00 -0.165941D-03 -0.573265D-02
     17  0.161322D-03  0.000000D+00  0.000000D+00 -0.539907D-03  0.690152D-02
     18  0.369167D-02  0.933299D-05  0.466603D-05  0.661363D-02 -0.280002D-03
     19  0.223208D-03  0.205215D-01 -0.162042D-01 -0.171546D-02 -0.171578D+00
     20 -0.168531D-03  0.115538D-01 -0.912371D-02 -0.129629D-02  0.102308D+00
     21  0.422300D-02 -0.121513D-03  0.104583D-03  0.475525D-02  0.988829D-02
     22 -0.929656D-02  0.206007D-01  0.155727D-01  0.245411D-02  0.161042D-04
     23 -0.133458D-01 -0.101742D-01 -0.771238D-02 -0.156193D-02  0.291645D-05
     24 -0.773196D-01  0.160153D-02  0.150731D-02  0.504358D-02 -0.149505D-03
     25  0.229985D-02 -0.136219D-05  0.115748D-04  0.206014D-03  0.510576D-05
     26  0.284762D-03  0.348665D-05 -0.296268D-04 -0.527312D-03  0.211708D-05
     27  0.298894D-01 -0.540002D-04  0.458851D-03  0.816686D-02  0.516111D-04
               11            12            13            14            15 
     11  0.861228D+00
     12  0.139854D-01  0.211900D+00
     13  0.104444D+00  0.497735D-02  0.894684D+00
     14 -0.229579D+00 -0.130045D-02 -0.180486D-01  0.759878D+00
     15  0.165878D-03 -0.110188D+00  0.132797D-01 -0.436687D-02  0.199938D+00
     16 -0.178016D-01 -0.261769D-02 -0.209778D+00 -0.911073D-01 -0.131797D-01
     17  0.214418D-01  0.308176D-03 -0.953644D-01 -0.180557D+00 -0.843574D-02
     18 -0.963133D-03  0.253253D-01 -0.172405D-01 -0.108691D-01 -0.740407D-01
     19  0.109077D+00  0.895026D-02  0.826528D-02  0.256729D-01  0.195814D-02
     20 -0.292182D+00 -0.136621D-01  0.468530D-02  0.145615D-01 -0.118172D-02
     21 -0.158454D-01 -0.861804D-01 -0.506458D-03 -0.169418D-02  0.327861D-01
     22 -0.134736D-04 -0.417603D-03  0.000000D+00  0.998927D-05  0.236636D-03
     23 -0.244005D-05 -0.756272D-04  0.193816D-05 -0.279379D-04 -0.661822D-03
     24  0.125083D-03  0.387684D-02 -0.221876D-04  0.319827D-03  0.757638D-02
     25  0.145861D-04  0.347230D-03  0.156752D-01 -0.197151D-03 -0.318494D-03
     26  0.604804D-05  0.143977D-03  0.227447D-01 -0.350403D-03 -0.198748D-02
     27  0.147442D-03  0.350994D-02 -0.285961D-02  0.674835D-03  0.152046D-01
               16            17            18            19            20 
     16  0.198537D+00
     17  0.109099D+00  0.159061D+00
     18  0.148816D-01  0.102825D-01  0.392491D-01
     19 -0.747223D-05 -0.243117D-04  0.297808D-03  0.142811D+00
     20 -0.242764D-04 -0.789861D-04  0.967546D-03 -0.118519D+00  0.286857D+00
     21  0.288216D-03  0.937743D-03 -0.114870D-01 -0.950449D-02  0.160216D-01
     22  0.000000D+00  0.000000D+00  0.000000D+00  0.000000D+00  0.000000D+00
     23  0.000000D+00  0.000000D+00  0.000000D+00  0.000000D+00  0.000000D+00
     24  0.000000D+00  0.000000D+00  0.000000D+00  0.000000D+00  0.000000D+00
     25  0.649856D-04 -0.219000D-04 -0.501154D-03  0.000000D+00  0.000000D+00
     26  0.269459D-04 -0.908070D-05 -0.207801D-03  0.000000D+00  0.000000D+00
     27  0.656900D-03 -0.221373D-03 -0.506586D-02  0.000000D+00  0.000000D+00
               21            22            23            24            25 
     21  0.478233D-01
     22  0.000000D+00  0.120756D+00
     23  0.000000D+00  0.992126D-01  0.275791D+00
     24  0.000000D+00  0.963343D-02  0.157508D-01  0.416838D-01
     25  0.000000D+00 -0.981015D-05  0.274369D-04 -0.314092D-03  0.242435D+00
     26  0.000000D+00  0.251100D-04 -0.702274D-04  0.803947D-03 -0.118682D+00
     27  0.000000D+00 -0.388897D-03  0.108766D-02 -0.124513D-01 -0.141788D-01
               26            27 
     26  0.155450D+00
     27  0.792708D-02  0.458554D-01
 Leave Link  716 at Tue Dec 15 16:29:41 2015, MaxMem=    33554432 cpu:         0.0
 (Enter /home/Applications/g09/g09/l103.exe)

 GradGradGradGradGradGradGradGradGradGradGradGradGradGradGradGradGradGrad
 Berny optimization.
 Search for a local minimum.
 Step number   1 out of a maximum of    2
 All quantities printed in internal units (Hartrees-Bohrs-Radians)
 Second derivative matrix not updated -- first step.
 ITU=  0
     Eigenvalues ---    0.01918   0.02955   0.06533   0.07247   0.07330
     Eigenvalues ---    0.08699   0.12717   0.13646   0.16273   0.22958
     Eigenvalues ---    0.25434   0.32963   0.40098   0.41354   0.60589
     Eigenvalues ---    0.76016   1.00273   1.28309   1.34953   1.62823
     Eigenvalues ---    1.71429
 Quadratic step=4.354D-01 exceeds max=3.000D-01 adjusted using Lamda=-9.184D-02.
 Angle between NR and scaled steps=  19.42 degrees.
 Angle between quadratic step and forces=  34.89 degrees.
 Linear search not attempted -- first point.
 TrRot= -0.005305 -0.001414 -0.000235 -1.570821  0.002229  1.572997
 Variable       Old X    -DE/DX   Delta X   Delta X   Delta X     New X
                                 (Linear)    (Quad)   (Total)
    X1        1.76925   0.15433   0.00000   0.13222   0.12995   1.89919
    Y1       -1.43642   0.05275   0.00000   0.04199   0.04466  -1.39176
    Z1        0.03889  -0.00774   0.00000  -0.01464  -0.01798   0.02091
    X2       -0.63622  -0.11312   0.00000  -0.05989  -0.06056  -0.69678
    Y2       -2.07065  -0.08871   0.00000  -0.05864  -0.06163  -2.13229
    Z2        0.05862  -0.00634   0.00000  -0.02673  -0.03171   0.02690
    X3       -2.20765  -0.06608   0.00000  -0.13376  -0.13907  -2.34672
    Y3        0.02838  -0.01050   0.00000  -0.02280  -0.02916  -0.00078
    Z3       -0.06971   0.00002   0.00000   0.00537   0.00514  -0.06457
    X4       -0.59902  -0.09215   0.00000  -0.06242  -0.07229  -0.67131
    Y4        2.06601   0.06173   0.00000   0.03392   0.03120   2.09721
    Z4       -0.07342   0.00173   0.00000   0.00899   0.01343  -0.05999
    X5        1.80124   0.14960   0.00000   0.13659   0.12844   1.92968
    Y5        1.29347  -0.01498   0.00000   0.01201   0.01493   1.30840
    Z5       -0.07626   0.01108   0.00000   0.02211   0.02480  -0.05146
    X6        3.45934  -0.02047   0.00000   0.05644   0.04546   3.50480
    Y6        2.67701  -0.02916   0.00000  -0.07074  -0.06464   2.61237
    Z6        0.07829  -0.00639   0.00000  -0.02404  -0.01845   0.05985
    X7       -1.60198   0.00101   0.00000  -0.02188  -0.03567  -1.63765
    Y7        3.84874   0.00633   0.00000   0.05611   0.05106   3.89980
    Z7        0.05074  -0.00135   0.00000  -0.01311  -0.00465   0.04609
    X8       -1.55514  -0.00087   0.00000  -0.05492  -0.05161  -1.60675
    Y8       -3.95262   0.01546   0.00000  -0.00740  -0.01217  -3.96480
    Z8       -0.07708   0.00431   0.00000   0.01937   0.01030  -0.06678
    X9        3.48601  -0.01225   0.00000   0.05498   0.05536   3.54137
    Y9       -2.63476   0.00707   0.00000   0.01933   0.02576  -2.60900
    Z9       -0.08179   0.00467   0.00000   0.02517   0.01912  -0.06267
         Item               Value     Threshold  Converged?
 Maximum Force            0.154334     0.000450     NO 
 RMS     Force            0.057320     0.000300     NO 
 Maximum Displacement     0.139069     0.001800     NO 
 RMS     Displacement     0.057447     0.001200     NO 
 Predicted change in Energy=-4.080079D-02
 GradGradGradGradGradGradGradGradGradGradGradGradGradGradGradGradGradGrad

 Leave Link  103 at Tue Dec 15 16:29:41 2015, MaxMem=    33554432 cpu:         0.0
 (Enter /home/Applications/g09/g09/l9999.exe)
 1\1\GINC-DUSTIN-DESKTOP\Force\RAM1-FC\STO-3G\C4H4O1\DUSTIN\15-Dec-2015
 \0\\#P AM1(Input,print) CIS(Singlets,NStates=15) pop(full) force\\AM1-
 Reparam Input\\0,1\C,0.936245,-0.760121,0.020578\C,-0.336674,-1.095742
 ,0.031018\O,-1.16824,0.01502,-0.036888\C,-0.316987,1.093283,-0.03885\C
 ,0.953176,0.684474,-0.040354\H,1.830604,1.416615,0.04143\H,-0.847731,2
 .036664,0.026851\H,-0.822943,-2.091639,-0.040789\H,1.844717,-1.394254,
 -0.043283\\Version=ES64L-G09RevD.01\State=1-A\HF=0.020145\RMSD=7.670e-
 09\RMSF=5.732e-02\Dipole=0.3168629,0.0407985,0.0159513\PG=C01 [X(C4H4O
 1)]\\@


 NEVER LOSE YOUR IGNORANCE, IT CAN'T BE REPLACED.
   -- ANDY CAPP
 Job cpu time:       0 days  0 hours  0 minutes  0.7 seconds.
 File lengths (MBytes):  RWF=      7 Int=      0 D2E=      0 Chk=      2 Scr=      1
 Normal termination of Gaussian 09 at Tue Dec 15 16:29:41 2015.
