 Entering Gaussian System, Link 0=g09
 Input=FuranAM1_93P10.com
 Output=FuranAM1_93P10.log
 Initial command:
 /home/Applications/g09/g09/l1.exe "/home/Applications/g09/scratch/Gau-9613.inp" -scrdir="/home/Applications/g09/scratch/"
 Entering Link 1 = /home/Applications/g09/g09/l1.exe PID=      9615.
  
 Copyright (c) 1988,1990,1992,1993,1995,1998,2003,2009,2013,
            Gaussian, Inc.  All Rights Reserved.
  
 This is part of the Gaussian(R) 09 program.  It is based on
 the Gaussian(R) 03 system (copyright 2003, Gaussian, Inc.),
 the Gaussian(R) 98 system (copyright 1998, Gaussian, Inc.),
 the Gaussian(R) 94 system (copyright 1995, Gaussian, Inc.),
 the Gaussian 92(TM) system (copyright 1992, Gaussian, Inc.),
 the Gaussian 90(TM) system (copyright 1990, Gaussian, Inc.),
 the Gaussian 88(TM) system (copyright 1988, Gaussian, Inc.),
 the Gaussian 86(TM) system (copyright 1986, Carnegie Mellon
 University), and the Gaussian 82(TM) system (copyright 1983,
 Carnegie Mellon University). Gaussian is a federally registered
 trademark of Gaussian, Inc.
  
 This software contains proprietary and confidential information,
 including trade secrets, belonging to Gaussian, Inc.
  
 This software is provided under written license and may be
 used, copied, transmitted, or stored only in accord with that
 written license.
  
 The following legend is applicable only to US Government
 contracts under FAR:
  
                    RESTRICTED RIGHTS LEGEND
  
 Use, reproduction and disclosure by the US Government is
 subject to restrictions as set forth in subparagraphs (a)
 and (c) of the Commercial Computer Software - Restricted
 Rights clause in FAR 52.227-19.
  
 Gaussian, Inc.
 340 Quinnipiac St., Bldg. 40, Wallingford CT 06492
  
  
 ---------------------------------------------------------------
 Warning -- This program may not be used in any manner that
 competes with the business of Gaussian, Inc. or will provide
 assistance to any competitor of Gaussian, Inc.  The licensee
 of this program is prohibited from giving any competitor of
 Gaussian, Inc. access to this program.  By using this program,
 the user acknowledges that Gaussian, Inc. is engaged in the
 business of creating and licensing software in the field of
 computational chemistry and represents and warrants to the
 licensee that it is not a competitor of Gaussian, Inc. and that
 it will not use this program in any manner prohibited above.
 ---------------------------------------------------------------
  

 Cite this work as:
 Gaussian 09, Revision D.01,
 M. J. Frisch, G. W. Trucks, H. B. Schlegel, G. E. Scuseria, 
 M. A. Robb, J. R. Cheeseman, G. Scalmani, V. Barone, B. Mennucci, 
 G. A. Petersson, H. Nakatsuji, M. Caricato, X. Li, H. P. Hratchian, 
 A. F. Izmaylov, J. Bloino, G. Zheng, J. L. Sonnenberg, M. Hada, 
 M. Ehara, K. Toyota, R. Fukuda, J. Hasegawa, M. Ishida, T. Nakajima, 
 Y. Honda, O. Kitao, H. Nakai, T. Vreven, J. A. Montgomery, Jr., 
 J. E. Peralta, F. Ogliaro, M. Bearpark, J. J. Heyd, E. Brothers, 
 K. N. Kudin, V. N. Staroverov, T. Keith, R. Kobayashi, J. Normand, 
 K. Raghavachari, A. Rendell, J. C. Burant, S. S. Iyengar, J. Tomasi, 
 M. Cossi, N. Rega, J. M. Millam, M. Klene, J. E. Knox, J. B. Cross, 
 V. Bakken, C. Adamo, J. Jaramillo, R. Gomperts, R. E. Stratmann, 
 O. Yazyev, A. J. Austin, R. Cammi, C. Pomelli, J. W. Ochterski, 
 R. L. Martin, K. Morokuma, V. G. Zakrzewski, G. A. Voth, 
 P. Salvador, J. J. Dannenberg, S. Dapprich, A. D. Daniels, 
 O. Farkas, J. B. Foresman, J. V. Ortiz, J. Cioslowski, 
 and D. J. Fox, Gaussian, Inc., Wallingford CT, 2013.
 
 ******************************************
 Gaussian 09:  ES64L-G09RevD.01 24-Apr-2013
                15-Dec-2015 
 ******************************************
 ------------------------------------------------------------
 #P AM1(Input,print) CIS(Singlets,NStates=15) pop(full) force
 ------------------------------------------------------------
 1/10=7,30=1,38=1/1,3;
 2/12=2,17=6,18=5,40=1/2;
 3/5=2,16=1,25=1,41=700000,71=1,135=100,136=1/1,2,8,3;
 4/35=1/1;
 5/5=2,35=1,38=5/2;
 8/6=1,10=1,108=15/1;
 9/15=2,41=15,42=1,48=1,49=10/14;
 10/5=4/2;
 6/7=3,18=1/1;
 7/12=6,13=5,29=1/1,2,3,16;
 1/10=7,30=1/3;
 99//99;
 Leave Link    1 at Tue Dec 15 17:07:48 2015, MaxMem=           0 cpu:         0.0
 (Enter /home/Applications/g09/g09/l101.exe)
 -----------------
 AM1-Reparam Input
 -----------------
 Symbolic Z-matrix:
 Charge =  0 Multiplicity = 1
 6                     0.9669   -0.68367   0.04833 
 6                    -0.31889  -1.09541  -0.02424 
 8                    -1.17935   0.01564  -0.03743 
 6                    -0.31167   1.09588   0.04212 
 6                     0.97924   0.75854  -0.01862 
 1                     1.79232   1.38826  -0.04745 
 1                    -0.8574    2.06603  -0.04722 
 1                    -0.83916  -2.03209  -0.03001 
 1                     1.82062  -1.38212   0.04991 
 
 NAtoms=      9 NQM=        9 NQMF=       0 NMMI=      0 NMMIF=      0
                NMic=       0 NMicF=      0.
                    Isotopes and Nuclear Properties:
 (Nuclear quadrupole moments (NQMom) in fm**2, nuclear magnetic moments (NMagM)
  in nuclear magnetons)

  Atom         1           2           3           4           5           6           7           8           9
 IAtWgt=          12          12          16          12          12           1           1           1           1
 AtmWgt=  12.0000000  12.0000000  15.9949146  12.0000000  12.0000000   1.0078250   1.0078250   1.0078250   1.0078250
 NucSpn=           0           0           0           0           0           1           1           1           1
 AtZEff=   0.0000000   0.0000000   0.0000000   0.0000000   0.0000000   0.0000000   0.0000000   0.0000000   0.0000000
 NQMom=    0.0000000   0.0000000   0.0000000   0.0000000   0.0000000   0.0000000   0.0000000   0.0000000   0.0000000
 NMagM=    0.0000000   0.0000000   0.0000000   0.0000000   0.0000000   2.7928460   2.7928460   2.7928460   2.7928460
 AtZNuc=   6.0000000   6.0000000   8.0000000   6.0000000   6.0000000   1.0000000   1.0000000   1.0000000   1.0000000
 Leave Link  101 at Tue Dec 15 17:07:48 2015, MaxMem=    33554432 cpu:         0.0
 (Enter /home/Applications/g09/g09/l103.exe)

 GradGradGradGradGradGradGradGradGradGradGradGradGradGradGradGradGradGrad
 Berny optimization.
 Initialization pass.
 Trust Radius=3.00D-01 FncErr=1.00D-07 GrdErr=1.00D-07
 Number of steps in this run=      2 maximum allowed number of steps=      2.
 GradGradGradGradGradGradGradGradGradGradGradGradGradGradGradGradGradGrad

 Leave Link  103 at Tue Dec 15 17:07:48 2015, MaxMem=    33554432 cpu:         0.0
 (Enter /home/Applications/g09/g09/l202.exe)
                          Input orientation:                          
 ---------------------------------------------------------------------
 Center     Atomic      Atomic             Coordinates (Angstroms)
 Number     Number       Type             X           Y           Z
 ---------------------------------------------------------------------
      1          6           0        0.966903   -0.683672    0.048334
      2          6           0       -0.318890   -1.095414   -0.024242
      3          8           0       -1.179346    0.015643   -0.037425
      4          6           0       -0.311672    1.095879    0.042116
      5          6           0        0.979242    0.758535   -0.018622
      6          1           0        1.792324    1.388256   -0.047449
      7          1           0       -0.857401    2.066031   -0.047219
      8          1           0       -0.839161   -2.032088   -0.030008
      9          1           0        1.820622   -1.382122    0.049910
 ---------------------------------------------------------------------
                    Distance matrix (angstroms):
                    1          2          3          4          5
     1  C    0.000000
     2  C    1.352059   0.000000
     3  O    2.258934   1.405349   0.000000
     4  C    2.191254   2.192309   1.387838   0.000000
     5  C    1.443813   2.263251   2.282924   1.335646   0.000000
     6  H    2.232349   3.259813   3.273376   2.126101   1.028825
     7  H    3.301224   3.207064   2.075533   1.116690   2.254689
     8  H    2.255267   1.071482   2.075809   3.172952   3.330810
     9  H    1.103028   2.159910   3.310768   3.269133   2.301093
                    6          7          8          9
     6  H    0.000000
     7  H    2.735036   0.000000
     8  H    4.315527   4.098196   0.000000
     9  H    2.772233   4.367036   2.739213   0.000000
 Stoichiometry    C4H4O
 Framework group  C1[X(C4H4O)]
 Deg. of freedom    21
 Full point group                 C1      NOp   1
 Largest Abelian subgroup         C1      NOp   1
 Largest concise Abelian subgroup C1      NOp   1
                         Standard orientation:                         
 ---------------------------------------------------------------------
 Center     Atomic      Atomic             Coordinates (Angstroms)
 Number     Number       Type             X           Y           Z
 ---------------------------------------------------------------------
      1          6           0        0.476524    1.086467    0.033147
      2          6           0        1.157561   -0.080477   -0.016795
      3          8           0        0.259620   -1.161541   -0.013717
      4          6           0       -0.983331   -0.547575    0.051192
      5          6           0       -0.933816    0.784504   -0.032855
      6          1           0       -1.724804    1.440999   -0.075685
      7          1           0       -1.811747   -1.292232   -0.027602
      8          1           0        2.184792   -0.385207   -0.014027
      9          1           0        0.973178    2.071253    0.018917
 ---------------------------------------------------------------------
 Rotational constants (GHZ):      9.4535596      9.0719422      4.6353892
 Leave Link  202 at Tue Dec 15 17:07:48 2015, MaxMem=    33554432 cpu:         0.0
 (Enter /home/Applications/g09/g09/l301.exe)

 Semi-emprical parameters in input format:
 Method=8 CoreType=1 PeptideFC=0.0106250000 RIJScale=0.5404210000
 ****
 H       
 PQN=1 NValence=1 F0ss=0.4721550000 ZetaOverlap=1.0856700000 U=-0.3858490000
 Beta=-0.2268830000 CoreKO=1.0354420000 KON=0,0,0,1.0458670000 KON=1,0,1,1.0589200000
 KON=0,1,1,1.1438880000 KON=2,1,1,1.0589200000 EISol=-0.4188110042 EHeat=0.0830298228
 Alpha=1.4046640000
 GCore=0.0085280000,1.5127750000,2.2676710000
 GCore=0.0003530000,1.4368830000,3.4779940000
 GCore=-0.0013010000,0.5600570000,3.5861320000
 ****
 C       
 PQN=2,2 NValence=4 F0ss=0.4494440000 F0sp=0.4261420000 F0pp=0.3497590000 F2pp=0.1878900000
 G1sp=0.2701540000
 ZetaOverlap=1.8086650000,1.3781170000
 U=-1.6741410000,-1.4557970000
 Beta=-0.5453250000,-0.2836780000 DDN=0,1,0.7474020000 DDN=1,1,0.7964360000
 CoreKO=1.1124280000 KON=0,0,0,1.1124280000 KON=1,0,1,0.8159680000 KON=0,1,1,1.1124280000
 KON=2,1,1,0.8516400000 EISol=-4.4398989268 EHeat=0.2723305520 Alpha=1.3653470000
 DipHyp=1.4947180026
 GCore=0.0007890000,1.3361580000,2.6678360000
 GCore=0.0031890000,1.4001430000,3.2045450000
 GCore=-0.0015090000,1.3827320000,3.8739390000
 GCore=-0.0001030000,1.2700780000,4.6088130000
 ****
 O       
 PQN=2,2 NValence=6 F0ss=0.6666250000 F0sp=0.5321300000 F0pp=0.4958710000 F2pp=0.2358080000
 G1sp=0.4343770000
 ZetaOverlap=2.7336680000,2.5240390000
 U=-3.5951870000,-1.8323600000
 Beta=-1.1573400000,-1.2481890000 DDN=0,1,0.4953610000 DDN=1,1,0.5211070000
 CoreKO=0.8515990000 KON=0,0,0,0.8822960000 KON=1,0,1,0.5019540000 KON=0,1,1,0.8671530000
 KON=2,1,1,0.5515580000 EISol=-11.6164441184 EHeat=0.0949133088 Alpha=2.4031680000
 DipHyp=0.9906650029
 GCore=0.0204720000,1.2640290000,1.6023330000
 GCore=0.0052790000,1.9602000000,2.5761670000
 ****
 
 Standard basis: VSTO-6G (5D, 7F)
 Ernie: Thresh=  0.10000D-02 Tol=  0.10000D-05 Strict=F.
  NNHCO=     0 NNPyr=     0 NCTC=     0               EPep=         0.000000000
    EC=        68.584315419  ECS=         2.018832634   EG=         0.369131576
   EHC=         0.000000000  EAt=       -31.051283842  AtH=         1.516354808
 EPDDG=         0.000000000  ECC=        70.972279629 EAtT=        32.567638650
 There are    24 symmetry adapted cartesian basis functions of A   symmetry.
 There are    24 symmetry adapted basis functions of A   symmetry.
    24 basis functions,   144 primitive gaussians,    24 cartesian basis functions
    13 alpha electrons       13 beta electrons
       nuclear repulsion energy       103.5399182792 Hartrees.
 IExCor=    0 DFT=F Ex=HF Corr=None ExCW=0 ScaHFX=  1.000000
 ScaDFX=  1.000000  1.000000  1.000000  1.000000 ScalE2=  1.000000  1.000000
 IRadAn=      0 IRanWt=     -1 IRanGd=            0 ICorTp=0 IEmpDi=  4
 Integral buffers will be    131072 words long.
 Regular integral format.
 Two-electron integral symmetry is turned off.
 Leave Link  301 at Tue Dec 15 17:07:48 2015, MaxMem=    33554432 cpu:         0.0
 (Enter /home/Applications/g09/g09/l302.exe)
 Do NDO integrals.
 NPDir=0 NMtPBC=     1 NCelOv=     1 NCel=       1 NClECP=     1 NCelD=      1
         NCelK=      1 NCelE2=     1 NClLst=     1 CellRange=     0.0.
 One-electron integrals computed using PRISM.
 NBasis=    24 RedAO= F EigKep=  0.00D+00  NBF=    24
 NBsUse=    24 1.00D-04 EigRej=  0.00D+00 NBFU=    24
 Leave Link  302 at Tue Dec 15 17:07:48 2015, MaxMem=    33554432 cpu:         0.0
 (Enter /home/Applications/g09/g09/l308.exe)
 Leave Link  308 at Tue Dec 15 17:07:48 2015, MaxMem=    33554432 cpu:         0.0
 (Enter /home/Applications/g09/g09/l303.exe)
 DipDrv:  MaxL=1.
 Leave Link  303 at Tue Dec 15 17:07:48 2015, MaxMem=    33554432 cpu:         0.0
 (Enter /home/Applications/g09/g09/l401.exe)
 Simple Huckel Guess.
 JPrj=0 DoOrth=F DoCkMO=F.
 Leave Link  401 at Tue Dec 15 17:07:48 2015, MaxMem=    33554432 cpu:         0.0
 (Enter /home/Applications/g09/g09/l502.exe)
 Closed shell SCF:
 Using DIIS extrapolation, IDIIS=  1040.
 Overlap will be assumed to be unity.
 Two-electron integral symmetry not used.
 Keep J ints in memory in canonical form, NReq=888082.
 IVT=       79475 IEndB=       79475 NGot=    33554432 MDV=    33473473
 LenX=    33473473 LenY=    33472456
 Requested convergence on RMS density matrix=1.00D-08 within 128 cycles.
 Requested convergence on MAX density matrix=1.00D-06.
 Requested convergence on             energy=1.00D-06.
 No special actions if energy rises.
 FoFCou: FMM=F IPFlag=           0 FMFlag=           0 FMFlg1=           0
         NFxFlg=           0 DoJE=F BraDBF=F KetDBF=F FulRan=T
         wScrn=  0.000000 ICntrl=     600 IOpCl=  2 I1Cent=           0 NGrid=           0
         NMat0=    1 NMatS0=     54 NMatT0=    0 NMatD0=    1 NMtDS0=    0 NMtDT0=    0
 Symmetry not used in FoFCou.

 Cycle   1  Pass 1  IDiag  1:
 E=  5.76746802698105    
 DIIS: error= 1.65D-01 at cycle   1 NSaved=   1.
 NSaved= 1 IEnMin= 1 EnMin=  5.76746802698105     IErMin= 1 ErrMin= 1.65D-01
 ErrMax= 1.65D-01  0.00D+00 EMaxC= 1.00D-01 BMatC= 6.66D-01 BMatP= 6.66D-01
 IDIUse=3 WtCom= 0.00D+00 WtEn= 1.00D+00
 Coeff-Com:  0.100D+01
 Coeff-En:   0.100D+01
 Coeff:      0.100D+01
 GapD=    2.000 DampG=2.000 DampE=0.250 DampFc=0.5000 IDamp=-1.
 Damping current iteration by 5.00D-01
 RMSDP=7.31D-02 MaxDP=7.91D-01              OVMax= 0.00D+00

 Cycle   2  Pass 1  IDiag  1:
 E=  4.33402545067689     Delta-E=       -1.433442576304 Rises=F Damp=T
 DIIS: error= 8.88D-02 at cycle   2 NSaved=   2.
 NSaved= 2 IEnMin= 2 EnMin=  4.33402545067689     IErMin= 2 ErrMin= 8.88D-02
 ErrMax= 8.88D-02  0.00D+00 EMaxC= 1.00D-01 BMatC= 2.07D-01 BMatP= 6.66D-01
 IDIUse=3 WtCom= 1.12D-01 WtEn= 8.88D-01
 Coeff-Com: -0.108D+01 0.208D+01
 Coeff-En:   0.000D+00 0.100D+01
 Coeff:     -0.121D+00 0.112D+01
 RMSDP=3.94D-02 MaxDP=3.99D-01 DE=-1.43D+00 OVMax= 0.00D+00

 Cycle   3  Pass 1  IDiag  1:
 E=  2.67869423517541     Delta-E=       -1.655331215501 Rises=F Damp=F
 DIIS: error= 1.56D-02 at cycle   3 NSaved=   3.
 NSaved= 3 IEnMin= 3 EnMin=  2.67869423517541     IErMin= 3 ErrMin= 1.56D-02
 ErrMax= 1.56D-02  0.00D+00 EMaxC= 1.00D-01 BMatC= 1.28D-02 BMatP= 2.07D-01
 IDIUse=3 WtCom= 8.44D-01 WtEn= 1.56D-01
 Coeff-Com:  0.227D+00-0.532D+00 0.130D+01
 Coeff-En:   0.000D+00 0.000D+00 0.100D+01
 Coeff:      0.192D+00-0.449D+00 0.126D+01
 RMSDP=1.01D-02 MaxDP=5.20D-02 DE=-1.66D+00 OVMax= 0.00D+00

 Cycle   4  Pass 1  IDiag  3:
 E=  2.63228418411143     Delta-E=       -0.046410051064 Rises=F Damp=F
 DIIS: error= 4.62D-03 at cycle   4 NSaved=   4.
 NSaved= 4 IEnMin= 4 EnMin=  2.63228418411143     IErMin= 4 ErrMin= 4.62D-03
 ErrMax= 4.62D-03  0.00D+00 EMaxC= 1.00D-01 BMatC= 9.93D-04 BMatP= 1.28D-02
 IDIUse=3 WtCom= 9.54D-01 WtEn= 4.62D-02
 Coeff-Com: -0.150D-01 0.184D-01-0.301D+00 0.130D+01
 Coeff-En:   0.000D+00 0.000D+00 0.000D+00 0.100D+01
 Coeff:     -0.143D-01 0.175D-01-0.287D+00 0.128D+01
 Gap=     0.381 Goal=   None    Shift=    0.000
 RMSDP=3.69D-03 MaxDP=1.93D-02 DE=-4.64D-02 OVMax= 4.45D-02

 Cycle   5  Pass 1  IDiag  3:
 E=  2.62792721161270     Delta-E=       -0.004356972499 Rises=F Damp=F
 DIIS: error= 1.08D-03 at cycle   5 NSaved=   5.
 NSaved= 5 IEnMin= 5 EnMin=  2.62792721161270     IErMin= 5 ErrMin= 1.08D-03
 ErrMax= 1.08D-03  0.00D+00 EMaxC= 1.00D-01 BMatC= 4.04D-05 BMatP= 9.93D-04
 IDIUse=3 WtCom= 9.89D-01 WtEn= 1.08D-02
 Coeff-Com:  0.101D-01-0.164D-01 0.122D+00-0.599D+00 0.148D+01
 Coeff-En:   0.000D+00 0.000D+00 0.000D+00 0.000D+00 0.100D+01
 Coeff:      0.100D-01-0.162D-01 0.121D+00-0.592D+00 0.148D+01
 Gap=     0.381 Goal=   None    Shift=    0.000
 RMSDP=8.67D-04 MaxDP=4.39D-03 DE=-4.36D-03 OVMax= 9.55D-03

 Cycle   6  Pass 1  IDiag  3:
 E=  2.62772882704216     Delta-E=       -0.000198384571 Rises=F Damp=F
 DIIS: error= 1.77D-04 at cycle   6 NSaved=   6.
 NSaved= 6 IEnMin= 6 EnMin=  2.62772882704216     IErMin= 6 ErrMin= 1.77D-04
 ErrMax= 1.77D-04  0.00D+00 EMaxC= 1.00D-01 BMatC= 9.94D-07 BMatP= 4.04D-05
 IDIUse=3 WtCom= 9.98D-01 WtEn= 1.77D-03
 Coeff-Com: -0.129D-02 0.266D-02-0.305D-01 0.153D+00-0.470D+00 0.135D+01
 Coeff-En:   0.000D+00 0.000D+00 0.000D+00 0.000D+00 0.000D+00 0.100D+01
 Coeff:     -0.129D-02 0.265D-02-0.305D-01 0.152D+00-0.469D+00 0.135D+01
 Gap=     0.382 Goal=   None    Shift=    0.000
 RMSDP=1.26D-04 MaxDP=7.34D-04 DE=-1.98D-04 OVMax= 9.76D-04

 Cycle   7  Pass 1  IDiag  3:
 E=  2.62772423679279     Delta-E=       -0.000004590249 Rises=F Damp=F
 DIIS: error= 3.53D-05 at cycle   7 NSaved=   7.
 NSaved= 7 IEnMin= 7 EnMin=  2.62772423679279     IErMin= 7 ErrMin= 3.53D-05
 ErrMax= 3.53D-05  0.00D+00 EMaxC= 1.00D-01 BMatC= 4.31D-08 BMatP= 9.94D-07
 IDIUse=1 WtCom= 1.00D+00 WtEn= 0.00D+00
 Coeff-Com:  0.184D-03-0.454D-03 0.810D-02-0.434D-01 0.151D+00-0.575D+00
 Coeff-Com:  0.146D+01
 Coeff:      0.184D-03-0.454D-03 0.810D-02-0.434D-01 0.151D+00-0.575D+00
 Coeff:      0.146D+01
 Gap=     0.382 Goal=   None    Shift=    0.000
 RMSDP=2.66D-05 MaxDP=1.72D-04 DE=-4.59D-06 OVMax= 1.54D-04

 Cycle   8  Pass 1  IDiag  3:
 E=  2.62772403771288     Delta-E=       -0.000000199080 Rises=F Damp=F
 DIIS: error= 5.86D-06 at cycle   8 NSaved=   8.
 NSaved= 8 IEnMin= 8 EnMin=  2.62772403771288     IErMin= 8 ErrMin= 5.86D-06
 ErrMax= 5.86D-06  0.00D+00 EMaxC= 1.00D-01 BMatC= 1.21D-09 BMatP= 4.31D-08
 IDIUse=1 WtCom= 1.00D+00 WtEn= 0.00D+00
 Coeff-Com: -0.207D-04 0.480D-04-0.106D-02 0.698D-02-0.301D-01 0.143D+00
 Coeff-Com: -0.484D+00 0.136D+01
 Coeff:     -0.207D-04 0.480D-04-0.106D-02 0.698D-02-0.301D-01 0.143D+00
 Coeff:     -0.484D+00 0.136D+01
 Gap=     0.382 Goal=   None    Shift=    0.000
 RMSDP=4.50D-06 MaxDP=2.79D-05 DE=-1.99D-07 OVMax= 2.91D-05

 Cycle   9  Pass 1  IDiag  3:
 E=  2.62772403219499     Delta-E=       -0.000000005518 Rises=F Damp=F
 DIIS: error= 6.90D-07 at cycle   9 NSaved=   9.
 NSaved= 9 IEnMin= 9 EnMin=  2.62772403219499     IErMin= 9 ErrMin= 6.90D-07
 ErrMax= 6.90D-07  0.00D+00 EMaxC= 1.00D-01 BMatC= 3.04D-11 BMatP= 1.21D-09
 IDIUse=1 WtCom= 1.00D+00 WtEn= 0.00D+00
 Coeff-Com:  0.537D-05-0.104D-04 0.910D-04-0.920D-03 0.542D-02-0.307D-01
 Coeff-Com:  0.112D+00-0.409D+00 0.132D+01
 Coeff:      0.537D-05-0.104D-04 0.910D-04-0.920D-03 0.542D-02-0.307D-01
 Coeff:      0.112D+00-0.409D+00 0.132D+01
 Gap=     0.382 Goal=   None    Shift=    0.000
 RMSDP=7.59D-07 MaxDP=3.93D-06 DE=-5.52D-09 OVMax= 8.41D-06

 Cycle  10  Pass 1  IDiag  3:
 E=  2.62772403203509     Delta-E=       -0.000000000160 Rises=F Damp=F
 DIIS: error= 1.84D-07 at cycle  10 NSaved=  10.
 NSaved=10 IEnMin=10 EnMin=  2.62772403203509     IErMin=10 ErrMin= 1.84D-07
 ErrMax= 1.84D-07  0.00D+00 EMaxC= 1.00D-01 BMatC= 1.70D-12 BMatP= 3.04D-11
 IDIUse=1 WtCom= 1.00D+00 WtEn= 0.00D+00
 Coeff-Com: -0.984D-06 0.203D-05-0.309D-04 0.357D-03-0.220D-02 0.127D-01
 Coeff-Com: -0.459D-01 0.166D+00-0.653D+00 0.152D+01
 Coeff:     -0.984D-06 0.203D-05-0.309D-04 0.357D-03-0.220D-02 0.127D-01
 Coeff:     -0.459D-01 0.166D+00-0.653D+00 0.152D+01
 Gap=     0.382 Goal=   None    Shift=    0.000
 RMSDP=2.29D-07 MaxDP=1.25D-06 DE=-1.60D-10 OVMax= 3.10D-06

 Cycle  11  Pass 1  IDiag  3:
 E=  2.62772403202355     Delta-E=       -0.000000000012 Rises=F Damp=F
 DIIS: error= 3.48D-08 at cycle  11 NSaved=  11.
 NSaved=11 IEnMin=11 EnMin=  2.62772403202355     IErMin=11 ErrMin= 3.48D-08
 ErrMax= 3.48D-08  0.00D+00 EMaxC= 1.00D-01 BMatC= 7.46D-14 BMatP= 1.70D-12
 IDIUse=1 WtCom= 1.00D+00 WtEn= 0.00D+00
 Coeff-Com: -0.472D-07 0.367D-07 0.635D-05-0.975D-04 0.648D-03-0.386D-02
 Coeff-Com:  0.141D-01-0.516D-01 0.216D+00-0.657D+00 0.148D+01
 Coeff:     -0.472D-07 0.367D-07 0.635D-05-0.975D-04 0.648D-03-0.386D-02
 Coeff:      0.141D-01-0.516D-01 0.216D+00-0.657D+00 0.148D+01
 Gap=     0.382 Goal=   None    Shift=    0.000
 RMSDP=5.24D-08 MaxDP=2.60D-07 DE=-1.15D-11 OVMax= 7.49D-07

 Cycle  12  Pass 1  IDiag  3:
 E=  2.62772403202310     Delta-E=        0.000000000000 Rises=F Damp=F
 DIIS: error= 6.72D-09 at cycle  12 NSaved=  12.
 NSaved=12 IEnMin=12 EnMin=  2.62772403202310     IErMin=12 ErrMin= 6.72D-09
 ErrMax= 6.72D-09  0.00D+00 EMaxC= 1.00D-01 BMatC= 2.20D-15 BMatP= 7.46D-14
 IDIUse=1 WtCom= 1.00D+00 WtEn= 0.00D+00
 Coeff-Com:  0.224D-07-0.457D-07-0.956D-06 0.187D-04-0.129D-03 0.787D-03
 Coeff-Com: -0.290D-02 0.108D-01-0.469D-01 0.157D+00-0.471D+00 0.135D+01
 Coeff:      0.224D-07-0.457D-07-0.956D-06 0.187D-04-0.129D-03 0.787D-03
 Coeff:     -0.290D-02 0.108D-01-0.469D-01 0.157D+00-0.471D+00 0.135D+01
 Gap=     0.382 Goal=   None    Shift=    0.000
 RMSDP=7.18D-09 MaxDP=4.42D-08 DE=-4.55D-13 OVMax= 8.81D-08

 Cycle  13  Pass 2  IDiag  1:
 SCF Done:  E(RAM1) =   2.62772403202     A.U. after   13 cycles
            NFock= 12  Conv=0.72D-08     -V/T= 1.1835
 KE=-1.432322475844D+01 PE=-1.689068035711D+02 EE= 8.231783408239D+01
 Leave Link  502 at Tue Dec 15 17:07:48 2015, MaxMem=    33554432 cpu:         0.0
 (Enter /home/Applications/g09/g09/l801.exe)
 Range of M.O.s used for correlation:     1    24
 NBasis=    24 NAE=    13 NBE=    13 NFC=     0 NFV=     0
 NROrb=     24 NOA=    13 NOB=    13 NVA=    11 NVB=    11
 Leave Link  801 at Tue Dec 15 17:07:48 2015, MaxMem=    33554432 cpu:         0.0
 (Enter /home/Applications/g09/g09/l914.exe)
 RHF ground state
 MDV=    33554432 DFT=F DoStab=F Mixed=F DoRPA=F DoScal=F NonHer=F
 Making orbital integer symmetry assigments:
 Orbital symmetries:
       Occupied  (A) (A) (A) (A) (A) (A) (A) (A) (A) (A) (A) (A)
                 (A)
       Virtual   (A) (A) (A) (A) (A) (A) (A) (A) (A) (A) (A)
    60 initial guesses have been made.
 Convergence on wavefunction:    0.000001000000000
 Davidson Disk Diagonalization:  ConvIn= 1.00D-06 SkipCon=T Conv= 1.00D-06.
 Max sub-space:   240 roots to seek:    60 dimension of matrix:          286
 Iteration     1 Dimension    60 NMult     0 NNew     60
 CISAX will form    60 AO SS matrices at one time.
 NMat=    60 NSing=    60 JSym2X= 0.
 FoFJK:  IHMeth= 8 ICntrl=       0 DoSepK=F KAlg= 0 I1Cent=   0 FoldK=F
 IRaf=         1 NMat= 120 IRICut=       1 DoRegI=T DoRafI=F ISym2E= 0.
 FoFCou: FMM=F IPFlag=           0 FMFlag=      100000 FMFlg1=           0
         NFxFlg=           0 DoJE=F BraDBF=F KetDBF=F FulRan=T
         wScrn=  0.000000 ICntrl=       0 IOpCl=  0 I1Cent=           0 NGrid=           0
         NMat0=  120 NMatS0=     60 NMatT0=    0 NMatD0=  120 NMtDS0=    0 NMtDT0=    0
 Symmetry not used in FoFCou.
 New state      6 was old state      7
 New state      7 was old state      6
 New state      9 was old state     10
 New state     10 was old state      9
 New state     15 was old state     21
 Excitation Energies [eV] at current iteration:
 Root      1 :     5.029587949024630
 Root      2 :     5.883818667032280
 Root      3 :     6.347395205908646
 Root      4 :     6.546088311418566
 Root      5 :     7.464637723614636
 Root      6 :     7.715586431685272
 Root      7 :     8.498361595737100
 Root      8 :     8.992344124341813
 Root      9 :     9.261190162321993
 Root     10 :     9.305331286095559
 Root     11 :     9.808405837934194
 Root     12 :     9.889730124733578
 Root     13 :    10.010664859035680
 Root     14 :    10.236201250379550
 Root     15 :    10.398933179119970
 Root     16 :    10.624305377676740
 Root     17 :    10.924632172614940
 Root     18 :    10.932559174949580
 Root     19 :    11.307065603785500
 Root     20 :    11.478414709226950
 Root     21 :    11.961871637161390
 Root     22 :    12.007134427735810
 Root     23 :    12.149942219798450
 Root     24 :    12.632228385503990
 Root     25 :    12.815404100215130
 Root     26 :    12.919106252151310
 Root     27 :    13.134239493159170
 Root     28 :    13.336719583503780
 Root     29 :    13.424090863978640
 Root     30 :    13.640730326687570
 Root     31 :    13.763212445960500
 Root     32 :    13.837226989886460
 Root     33 :    13.984789332746550
 Root     34 :    14.095654960249590
 Root     35 :    14.172034282144090
 Root     36 :    14.561359678251400
 Root     37 :    14.622812134569290
 Root     38 :    15.268012075858160
 Root     39 :    15.351055164449780
 Root     40 :    15.597566961809290
 Root     41 :    15.656084382260770
 Root     42 :    15.842633568231050
 Root     43 :    15.931259937938930
 Root     44 :    15.978685958874930
 Root     45 :    16.032043213294160
 Root     46 :    16.281208496150080
 Root     47 :    16.525827608855290
 Root     48 :    16.742253806184860
 Root     49 :    16.774261715313880
 Root     50 :    16.796533626159640
 Root     51 :    16.858005556379130
 Root     52 :    16.909531477944090
 Root     53 :    17.178262787999210
 Root     54 :    17.235250381068680
 Root     55 :    17.355011450381530
 Root     56 :    17.580207622089320
 Root     57 :    17.835107332767850
 Root     58 :    17.914315839787040
 Root     59 :    18.894976703655810
 Root     60 :    18.934733543546050
 Iteration     2 Dimension   120 NMult    60 NNew     60
 CISAX will form    60 AO SS matrices at one time.
 NMat=    60 NSing=    60 JSym2X= 0.
 Root      1 not converged, maximum delta is    0.015808097532645
 Root      2 not converged, maximum delta is    0.025885627303290
 Root      3 not converged, maximum delta is    0.016300398254409
 Root      4 not converged, maximum delta is    0.019600622843447
 Root      5 not converged, maximum delta is    0.017630382542803
 Root      6 not converged, maximum delta is    0.007992749082017
 Root      7 not converged, maximum delta is    0.011380333198951
 Root      8 not converged, maximum delta is    0.037448539499381
 New state      9 was old state     10
 Root      9 not converged, maximum delta is    0.308153949227831
 New state     10 was old state      9
 Root     10 not converged, maximum delta is    0.282856294683323
 New state     11 was old state     12
 Root     11 not converged, maximum delta is    0.229390077558279
 New state     12 was old state     11
 Root     12 not converged, maximum delta is    0.126930259288535
 Root     13 not converged, maximum delta is    0.145179851847864
 Root     14 not converged, maximum delta is    0.138306786459149
 Root     15 not converged, maximum delta is    0.225866892033437
 Excitation Energies [eV] at current iteration:
 Root      1 :     4.957856120355560   Change is   -0.071731828669070
 Root      2 :     5.861348963860070   Change is   -0.022469703172210
 Root      3 :     6.339199363845207   Change is   -0.008195842063438
 Root      4 :     6.530215865491714   Change is   -0.015872445926851
 Root      5 :     7.451418122597435   Change is   -0.013219601017202
 Root      6 :     7.712258391618751   Change is   -0.003328040066521
 Root      7 :     8.480966078184792   Change is   -0.017395517552306
 Root      8 :     8.982954209061646   Change is   -0.009389915280166
 Root      9 :     9.151662289600742   Change is   -0.153668996494817
 Root     10 :     9.244422643411893   Change is   -0.016767518910101
 Root     11 :     9.683553735438164   Change is   -0.206176389295415
 Root     12 :     9.753841940646630   Change is   -0.054563897287563
 Root     13 :     9.956922445708447   Change is   -0.053742413327230
 Root     14 :    10.186471895530630   Change is   -0.049729354848917
 Root     15 :    10.248108002181050   Change is   -0.150825176938919
 Root     16 :    10.612038597596060   Change is   -0.012266780080682
 Root     17 :    10.734499270573230   Change is   -0.198059904376355
 Root     18 :    10.878284273926730   Change is   -0.046347898688211
 Root     19 :    11.012303500874210   Change is   -0.294762102911292
 Root     20 :    11.460507339777410   Change is   -0.017907369449542
 Root     21 :    11.756946001955890   Change is   -0.250188425779929
 Root     22 :    11.915893163517380   Change is   -0.045978473644004
 Root     23 :    11.969153657147900   Change is   -0.180788562650554
 Root     24 :    12.324743009412340   Change is   -0.307485376091647
 Root     25 :    12.560988212508680   Change is   -0.254415887706451
 Root     26 :    12.871995367757340   Change is   -0.047110884393960
 Root     27 :    13.056567924571020   Change is   -0.077671568588153
 Root     28 :    13.150144136404440   Change is   -0.186575447099337
 Root     29 :    13.256393554626500   Change is   -0.167697309352142
 Root     30 :    13.451658148376340   Change is   -0.189072178311221
 Root     31 :    13.567209764533600   Change is   -0.196002681426896
 Root     32 :    13.678330913182710   Change is   -0.158896076703745
 Root     33 :    13.767265443207150   Change is   -0.217523889539407
 Root     34 :    13.859035012972650   Change is   -0.236619947276940
 Root     35 :    14.059789728732630   Change is   -0.112244553411458
 Root     36 :    14.535051624430370   Change is   -0.087760510138916
 Root     37 :    14.558744110637000   Change is   -0.002615567614393
 Root     38 :    14.834591113711020   Change is   -0.433420962147137
 Root     39 :    15.045739576584620   Change is   -0.610344805676146
 Root     40 :    15.194654581276550   Change is   -0.156400583173233
 Root     41 :    15.438342822747050   Change is   -0.159224139062245
 Root     42 :    15.511131032605130   Change is   -0.520912180689027
 Root     43 :    15.570460229226300   Change is   -0.360799708712627
 Root     44 :    15.750567855103470   Change is   -0.092065713127577
 Root     45 :    15.901878092492550   Change is   -0.076807866382376
 Root     46 :    15.956266331174000   Change is   -0.324942164976075
 Root     47 :    16.217867162940790   Change is   -0.307960445914504
 Root     48 :    16.461793976952170   Change is   -0.334739649207466
 Root     49 :    16.469331899906720   Change is   -0.304929815407167
 Root     50 :    16.686548001364480   Change is   -0.171457555014651
 Root     51 :    16.729735472098230   Change is   -0.012518334086634
 Root     52 :    16.770296287472260   Change is   -0.139235190471831
 Root     53 :    16.790624324401720   Change is   -0.387638463597492
 Root     54 :    16.981052984181060   Change is   -0.373958466200471
 Root     55 :    17.065700866771170   Change is   -0.169549514297519
 Root     56 :    17.335185759737770   Change is   -0.245021862351549
 Root     57 :    17.691610899878490   Change is   -0.143496432889367
 Root     58 :    17.726469052215180   Change is   -0.187846787571859
 Root     59 :    18.345393807455500
 Root     60 :    18.440143948782980
 Iteration     3 Dimension   135 NMult   120 NNew     15
 CISAX will form    15 AO SS matrices at one time.
 NMat=    15 NSing=    15 JSym2X= 0.
 Root      1 not converged, maximum delta is    0.000776346171362
 Root      2 not converged, maximum delta is    0.000024899265603
 Root      3 not converged, maximum delta is    0.000033453353633
 Root      4 not converged, maximum delta is    0.000056848456906
 Root      5 not converged, maximum delta is    0.000097782734223
 Root      6 not converged, maximum delta is    0.000077660966575
 Root      7 not converged, maximum delta is    0.000638788831323
 Root      8 not converged, maximum delta is    0.000194948556494
 Root      9 not converged, maximum delta is    0.000797926882449
 Root     10 not converged, maximum delta is    0.000239042393303
 Root     11 not converged, maximum delta is    0.001236366934324
 Root     12 not converged, maximum delta is    0.001075517145985
 Root     13 not converged, maximum delta is    0.000462631228397
 Root     14 not converged, maximum delta is    0.001325957065205
 Root     15 not converged, maximum delta is    0.001523864025399
 Excitation Energies [eV] at current iteration:
 Root      1 :     4.957664424996469   Change is   -0.000191695359090
 Root      2 :     5.861348754822904   Change is   -0.000000209037166
 Root      3 :     6.339198660671583   Change is   -0.000000703173624
 Root      4 :     6.530214870861632   Change is   -0.000000994630082
 Root      5 :     7.451414823560540   Change is   -0.000003299036895
 Root      6 :     7.712257073936025   Change is   -0.000001317682727
 Root      7 :     8.480906554618786   Change is   -0.000059523566006
 Root      8 :     8.982936703216225   Change is   -0.000017505845422
 Root      9 :     9.151362248625718   Change is   -0.000300040975023
 Root     10 :     9.244411935682063   Change is   -0.000010707729830
 Root     11 :     9.683030300209145   Change is   -0.000523435229018
 Root     12 :     9.753677062769789   Change is   -0.000164877876843
 Root     13 :     9.956851895835502   Change is   -0.000070549872945
 Root     14 :    10.186237170484940   Change is   -0.000234725045687
 Root     15 :    10.247770628103050   Change is   -0.000337374077995
 Iteration     4 Dimension   143 NMult   135 NNew      8
 CISAX will form     8 AO SS matrices at one time.
 NMat=     8 NSing=     8 JSym2X= 0.
 Root      1 not converged, maximum delta is    0.000048227235055
 Root      2 not converged, maximum delta is    0.000001093851737
 Root      3 not converged, maximum delta is    0.000001946490413
 Root      4 not converged, maximum delta is    0.000001805727712
 Root      5 not converged, maximum delta is    0.000006205320407
 Root      6 not converged, maximum delta is    0.000003004359106
 Root      7 not converged, maximum delta is    0.000017165005165
 Root      8 not converged, maximum delta is    0.000013972359657
 Root      9 not converged, maximum delta is    0.000086461213397
 Root     10 not converged, maximum delta is    0.000014409672002
 Root     11 not converged, maximum delta is    0.000061334782013
 Root     12 not converged, maximum delta is    0.000069007178543
 Root     13 not converged, maximum delta is    0.000032667848662
 Root     14 not converged, maximum delta is    0.000050921972734
 Root     15 not converged, maximum delta is    0.000044872493960
 Excitation Energies [eV] at current iteration:
 Root      1 :     4.957664142089695   Change is   -0.000000282906774
 Root      2 :     5.861348754435778   Change is   -0.000000000387126
 Root      3 :     6.339198658629243   Change is   -0.000000002042340
 Root      4 :     6.530214869302825   Change is   -0.000000001558806
 Root      5 :     7.451414814914556   Change is   -0.000000008645984
 Root      6 :     7.712257072067257   Change is   -0.000000001868768
 Root      7 :     8.480906421437547   Change is   -0.000000133181240
 Root      8 :     8.982936646450769   Change is   -0.000000056765455
 Root      9 :     9.151361427166913   Change is   -0.000000821458805
 Root     10 :     9.244411894651600   Change is   -0.000000041030463
 Root     11 :     9.683029376900635   Change is   -0.000000923308511
 Root     12 :     9.753676188350076   Change is   -0.000000874419712
 Root     13 :     9.956851653425954   Change is   -0.000000242409548
 Root     14 :    10.186236747871570   Change is   -0.000000422613376
 Root     15 :    10.247770076564140   Change is   -0.000000551538912
 Convergence achieved on expansion vectors.
 ***********************************************************************
 Excited states from <AA,BB:AA,BB> singles matrix:
 ***********************************************************************
 
 1PDM for each excited state written to RWF  633
 Ground to excited state transition densities written to RWF  633
 Ground to excited state transition electric dipole moments (Au):
       state          X           Y           Z        Dip. S.      Osc.
         1        -1.6624     -0.3546     -0.0808      2.8958      0.3517
         2         0.0019     -0.0179      0.0362      0.0016      0.0002
         3        -0.0489      0.0015      0.1099      0.0145      0.0022
         4        -0.0531      0.0257     -0.0062      0.0035      0.0006
         5         0.1409      0.0711      0.1750      0.0555      0.0101
         6         0.0312      0.0285     -0.0147      0.0020      0.0004
         7         0.2531     -0.7129      0.0255      0.5729      0.1190
         8         0.2579      0.0816     -0.1989      0.1127      0.0248
         9        -0.6405     -0.1299     -0.0814      0.4337      0.0972
        10         0.1246      0.0476      0.0441      0.0197      0.0045
        11        -0.9274     -0.3464     -0.0088      0.9801      0.2325
        12         0.0023     -0.3126     -0.0074      0.0978      0.0234
        13        -0.2433     -0.2687     -0.0769      0.1373      0.0335
        14         0.1038     -0.0103     -0.0523      0.0136      0.0034
        15         0.2182     -0.1716      0.0263      0.0778      0.0195
 Ground to excited state transition velocity dipole moments (Au):
       state          X           Y           Z        Dip. S.      Osc.
         1         0.1875      0.0419      0.0147      0.0371      0.1359
         2         0.0047     -0.0139     -0.0639      0.0043      0.0133
         3         0.0024      0.0044     -0.1808      0.0327      0.0936
         4         0.0035     -0.0114     -0.0281      0.0009      0.0026
         5        -0.0206     -0.0110     -0.0175      0.0009      0.0021
         6        -0.0028     -0.0114      0.0038      0.0002      0.0004
         7        -0.0751      0.2427     -0.0023      0.0646      0.1381
         8        -0.0547     -0.0071     -0.0237      0.0036      0.0073
         9         0.1502      0.0450      0.0224      0.0251      0.0497
        10        -0.0244     -0.0222     -0.0135      0.0013      0.0025
        11         0.1140      0.0570      0.0203      0.0167      0.0312
        12         0.0006      0.0123      0.0394      0.0017      0.0032
        13         0.0398      0.0307     -0.1370      0.0213      0.0388
        14        -0.0113      0.0344     -0.0559      0.0044      0.0079
        15        -0.0286      0.0460      0.0731      0.0083      0.0147
 Ground to excited state transition magnetic dipole moments (Au):
       state          X           Y           Z
         1        -0.0086      0.0077     -0.5888
         2         0.0256     -0.3048     -0.0017
         3        -0.2657      0.1439      0.0040
         4         0.3121     -0.8116      0.0058
         5        -0.8287     -0.3291      0.0661
         6         0.1300     -0.6926      0.0156
         7        -0.0322     -0.1422      0.0280
         8         0.5672      0.1961      0.0884
         9         0.1133      0.1025     -0.2198
        10        -0.0475      0.2958      0.0573
        11         0.0153      0.0248     -0.1210
        12        -0.0471      0.0806      0.0286
        13         0.1239     -0.1947     -0.0387
        14        -0.0116      0.2758      0.0324
        15         0.0028     -0.1798      0.0075
 Ground to excited state transition velocity quadrupole moments (Au):
       state          XX          YY          ZZ          XY          XZ          YZ
         1        -0.1245      0.1173     -0.0007      0.2464     -0.0159      0.0483
         2         0.0074     -0.0053     -0.0170      0.0211      0.2389      0.0193
         3        -0.0326      0.0174      0.0101      0.0365     -0.0225     -0.1070
         4         0.0158     -0.0135     -0.0121      0.0068     -0.2356     -0.1021
         5         0.0337     -0.0104     -0.0106     -0.0235     -0.1342      0.0945
         6        -0.0196     -0.0254      0.0200      0.0026      0.4857      0.1432
         7        -0.1902      0.2937     -0.0064     -0.1139      0.0019      0.0047
         8         0.0607      0.0048     -0.0050     -0.0533     -0.1537      0.3058
         9        -0.2304     -0.0589     -0.0366      0.0755     -0.0427      0.0526
        10        -0.0222     -0.0679      0.0062     -0.0051     -0.0561      0.0035
        11         0.0105      0.2296      0.0604      0.2430     -0.0125      0.0009
        12        -0.5100     -0.1550     -0.1215     -0.0938     -0.1206     -0.0709
        13        -0.3147     -0.0671     -0.0789     -0.0153      0.1389      0.2183
        14        -0.1115     -0.1204      0.0270     -0.0974     -0.2509      0.0119
        15        -0.3164     -0.1413     -0.0523     -0.1885      0.2463     -0.0365
 <0|del|b> * <b|rxdel|0> + <0|del|b> * <b|delr+rdel|0>
 Rotatory Strengths (R) in cgs (10**-40 erg-esu-cm/Gauss)
       state          XX          YY          ZZ    R(velocity)    E-M Angle
         1        -7.8570     -9.4179    -21.3935    -12.8895       95.04
         2        10.3540      2.7370      1.5496      4.8802       77.15
         3       -10.0087      7.5600      0.2309     -0.7393       90.77
         4         9.1295      1.1211     19.6727      9.9744       67.47
         5         1.8085     17.4780     31.1156     16.8007       41.58
         6        16.7732     -0.8905      2.9765      6.2864       29.14
         7       -39.4559      1.9662    -35.4911    -24.3269      148.48
         8        -3.5691    -54.7712    -15.6518    -24.6640      161.43
         9         3.4711     19.2323     12.4119     11.7051       66.81
        10        -8.8812      0.2380     -4.2549     -4.2994      124.70
        11         4.5718     -5.5127      2.3271      0.4621       87.51
        12        -0.0930      4.6858     -0.4705      1.3741       58.75
        13        -2.7503     16.2712     -5.2877      2.7444       82.83
        14        20.5530     -6.8586      1.0584      4.9176       65.04
        15       -30.8181     14.3668      1.8152     -4.8787      118.42
 1/2[<0|r|b>*<b|rxdel|0> + (<0|rxdel|b>*<b|r|0>)*]
 Rotatory Strengths (R) in cgs (10**-40 erg-esu-cm/Gauss)
       state          XX          YY          ZZ     R(length)
         1       -10.1580      1.9434    -33.6325    -13.9490
         2        -0.0335     -3.8588      0.0429     -1.2831
         3        -9.1888     -0.1566     -0.3123     -3.2192
         4        11.7246     14.7485      0.0256      8.8329
         5        82.5877     16.5372     -8.1846     30.3134
         6        -2.8649     13.9366      0.1622      3.7446
         7         5.7630    -71.6866     -0.5051    -22.1429
         8      -103.4478    -11.3103     12.4349    -34.1077
         9        51.3186      9.4119    -12.6469     16.0279
        10         4.1847     -9.9573     -1.7873     -2.5200
        11        10.0307      6.0730     -0.7523      5.1171
        12         0.0749     17.8256      0.1490      6.0165
        13        21.3291    -36.9926     -2.1055     -5.9230
        14         0.8504      1.9991      1.1996      1.3497
        15        -0.4256    -21.8162     -0.1397     -7.4605
  1/2[<0|del|b>*<b|r|0> + (<0|r|b>*<b|del|0>)*] (Au)
       state          X           Y           Z        Dip. S.   Osc.(frdel)
         1        -0.3117     -0.0149     -0.0012      0.3277      0.2185
         2         0.0000      0.0002     -0.0023      0.0021      0.0014
         3        -0.0001      0.0000     -0.0199      0.0200      0.0133
         4        -0.0002     -0.0003      0.0002      0.0003      0.0002
         5        -0.0029     -0.0008     -0.0031      0.0067      0.0045
         6        -0.0001     -0.0003     -0.0001      0.0005      0.0003
         7        -0.0190     -0.1731     -0.0001      0.1921      0.1281
         8        -0.0141     -0.0006      0.0047      0.0100      0.0067
         9        -0.0962     -0.0058     -0.0018      0.1039      0.0692
        10        -0.0030     -0.0011     -0.0006      0.0047      0.0031
        11        -0.1058     -0.0197     -0.0002      0.1257      0.0838
        12         0.0000     -0.0038     -0.0003      0.0041      0.0027
        13        -0.0097     -0.0083      0.0105      0.0074      0.0049
        14        -0.0012     -0.0004      0.0029     -0.0014     -0.0009
        15        -0.0062     -0.0079      0.0019      0.0122      0.0081

 Excitation energies and oscillator strengths:
 
 Excited State   1:      Singlet-A      4.9577 eV  250.09 nm  f=0.3517  <S**2>=0.000
      13 -> 14         0.69846
 This state for optimization and/or second-order correction.
 Total Energy, E(CIS) =   2.80991484479    
 Copying the excited state density for this state as the 1-particle RhoCI density.
 
 Excited State   2:      Singlet-A      5.8613 eV  211.53 nm  f=0.0002  <S**2>=0.000
      13 -> 15         0.66911
      13 -> 17        -0.12075
      13 -> 19         0.12123
 
 Excited State   3:      Singlet-A      6.3392 eV  195.58 nm  f=0.0022  <S**2>=0.000
      12 -> 14        -0.10989
      13 -> 16         0.66255
      13 -> 18        -0.12925
 
 Excited State   4:      Singlet-A      6.5302 eV  189.86 nm  f=0.0006  <S**2>=0.000
      12 -> 14         0.68722
      13 -> 16         0.10779
 
 Excited State   5:      Singlet-A      7.4514 eV  166.39 nm  f=0.0101  <S**2>=0.000
      10 -> 14         0.44854
      11 -> 14         0.52918
 
 Excited State   6:      Singlet-A      7.7123 eV  160.76 nm  f=0.0004  <S**2>=0.000
      13 -> 15         0.10015
      13 -> 17         0.66243
      13 -> 18        -0.10512
      13 -> 21        -0.11707
 
 Excited State   7:      Singlet-A      8.4809 eV  146.19 nm  f=0.1190  <S**2>=0.000
      10 -> 14         0.52449
      11 -> 14        -0.45282
 
 Excited State   8:      Singlet-A      8.9829 eV  138.02 nm  f=0.0248  <S**2>=0.000
      10 -> 15         0.15624
      11 -> 15        -0.19350
      12 -> 15        -0.15394
      13 -> 18         0.59896
 
 Excited State   9:      Singlet-A      9.1514 eV  135.48 nm  f=0.0972  <S**2>=0.000
       9 -> 15         0.13926
      10 -> 16        -0.13810
      11 -> 18         0.10031
      12 -> 15         0.54345
      12 -> 16        -0.12159
      12 -> 17        -0.23291
      13 -> 18         0.14782
 
 Excited State  10:      Singlet-A      9.2444 eV  134.12 nm  f=0.0045  <S**2>=0.000
      10 -> 16        -0.13095
      11 -> 16         0.15193
      12 -> 16         0.11018
      13 -> 19         0.62949
 
 Excited State  11:      Singlet-A      9.6830 eV  128.04 nm  f=0.2325  <S**2>=0.000
      10 -> 16         0.22299
      10 -> 18        -0.13209
      11 -> 15         0.11307
      11 -> 16         0.30474
      11 -> 18        -0.15022
      12 -> 15         0.16823
      12 -> 16        -0.32339
      12 -> 17         0.32504
      12 -> 19         0.10708
 
 Excited State  12:      Singlet-A      9.7537 eV  127.12 nm  f=0.0234  <S**2>=0.000
      10 -> 15         0.10817
      11 -> 15         0.39509
      12 -> 15         0.16535
      12 -> 16         0.45352
      12 -> 17         0.12803
      12 -> 18        -0.10580
      13 -> 19        -0.14459
 
 Excited State  13:      Singlet-A      9.9569 eV  124.52 nm  f=0.0335  <S**2>=0.000
       7 -> 15        -0.11238
      10 -> 15         0.49718
      11 -> 15        -0.30744
      12 -> 16         0.15359
      12 -> 17         0.10400
      13 -> 15        -0.11423
      13 -> 18        -0.20080
      13 -> 19         0.10070
 
 Excited State  14:      Singlet-A     10.1862 eV  121.72 nm  f=0.0034  <S**2>=0.000
       9 -> 15         0.17894
      10 -> 15        -0.25378
      10 -> 16        -0.27437
      11 -> 15        -0.23533
      11 -> 16         0.34253
      11 -> 19        -0.11729
      12 -> 16         0.15838
      12 -> 17         0.11615
      13 -> 18        -0.11999
      13 -> 19        -0.13238
 
 Excited State  15:      Singlet-A     10.2478 eV  120.99 nm  f=0.0195  <S**2>=0.000
       8 -> 16        -0.10274
       9 -> 15         0.22942
      10 -> 15        -0.23141
      10 -> 16         0.32319
      10 -> 19        -0.10258
      11 -> 15        -0.15590
      11 -> 16        -0.28077
      12 -> 16         0.16709
      12 -> 17         0.19285
      13 -> 18         0.12951
      13 -> 19         0.10450
 SavETr:  write IOETrn=   770 NScale= 10 NData=  16 NLR=1 NState=   15 LETran=     280.
 The selected state is a singlet
 CISAX will form     1 AO SS matrices at one time.
 NMat=     1 NSing=     1 JSym2X= 0.
 Leave Link  914 at Tue Dec 15 17:07:48 2015, MaxMem=    33554432 cpu:         0.1
 (Enter /home/Applications/g09/g09/l1002.exe)
 Minotr:  Closed shell wavefunction.
          Computing CIS/TD-HF/TD-KS derivatives.
          Using Z-Vector for PSCF gradient.
          Skipping F1 and S1 gradient terms here.
          IDoAtm=111111111
          Direct CPHF calculation.
          Differentiating once with respect to electric field.
                with respect to dipole field.
          Differentiating once with respect to nuclear coordinates.
          Electric field/nuclear overlap derivatives assumed to be zero.
          Requested convergence is 1.0D-10 RMS, and 1.0D-09 maximum.
          NewPWx=T KeepS1=F KeepF1=F KeepIn=T MapXYZ=F SortEE=F KeepMc=T.
          MDV=      33495423 using IRadAn=       0.
 Keep J ints in memory in canonical form, NReq=871704.
 FoFCou: FMM=F IPFlag=           0 FMFlag=           0 FMFlg1=           0
         NFxFlg=           0 DoJE=F BraDBF=F KetDBF=F FulRan=T
         wScrn=  0.000000 ICntrl=     600 IOpCl=  2 I1Cent=           0 NGrid=           0
         NMat0=    1 NMatS0=     54 NMatT0=    0 NMatD0=    1 NMtDS0=    0 NMtDT0=    0
 Symmetry not used in FoFCou.
          Solving linear equations separately, MaxMat=       0.
          There are     1 degrees of freedom in the 1st order CPHF.  IDoFFX=0 NUNeed=     1.
 LinEq1:  Iter=  0 NonCon=     1 RMS=6.71D-03 Max=3.95D-02 NDo=     1
 AX will form     1 AO Fock derivatives at one time.
 LinEq1:  Iter=  1 NonCon=     1 RMS=5.77D-04 Max=2.34D-03 NDo=     1
 LinEq1:  Iter=  2 NonCon=     1 RMS=5.78D-05 Max=2.47D-04 NDo=     1
 LinEq1:  Iter=  3 NonCon=     1 RMS=6.07D-06 Max=2.15D-05 NDo=     1
 LinEq1:  Iter=  4 NonCon=     1 RMS=1.17D-06 Max=8.92D-06 NDo=     1
 LinEq1:  Iter=  5 NonCon=     1 RMS=1.43D-07 Max=5.04D-07 NDo=     1
 LinEq1:  Iter=  6 NonCon=     1 RMS=1.87D-08 Max=8.17D-08 NDo=     1
 LinEq1:  Iter=  7 NonCon=     1 RMS=2.14D-09 Max=1.04D-08 NDo=     1
 LinEq1:  Iter=  8 NonCon=     1 RMS=2.75D-10 Max=1.36D-09 NDo=     1
 LinEq1:  Iter=  9 NonCon=     0 RMS=3.09D-11 Max=1.68D-10 NDo=     1
 Linear equations converged to 1.000D-10 1.000D-09 after     9 iterations.
 End of Minotr F.D. properties file   721 does not exist.
 End of Minotr F.D. properties file   722 does not exist.
 End of Minotr F.D. properties file   788 does not exist.
 Leave Link 1002 at Tue Dec 15 17:07:48 2015, MaxMem=    33554432 cpu:         0.0
 (Enter /home/Applications/g09/g09/l601.exe)
 Copying SCF densities to generalized density rwf, IOpCl= 0 IROHF=0.

 **********************************************************************

            Population analysis using the SCF density.

 **********************************************************************

 Orbital symmetries:
       Occupied  (A) (A) (A) (A) (A) (A) (A) (A) (A) (A) (A) (A)
                 (A)
       Virtual   (A) (A) (A) (A) (A) (A) (A) (A) (A) (A) (A)
 The electronic state is 1-A.
 Alpha  occ. eigenvalues --   -1.83526  -1.11964  -0.86662  -0.78848  -0.74534
 Alpha  occ. eigenvalues --   -0.66461  -0.61875  -0.54748  -0.53688  -0.44209
 Alpha  occ. eigenvalues --   -0.43711  -0.41184  -0.28308
 Alpha virt. eigenvalues --    0.09848   0.16325   0.18249   0.26450   0.28843
 Alpha virt. eigenvalues --    0.30442   0.37200   0.41565   0.46018   0.54273
 Alpha virt. eigenvalues --    0.57203
     Molecular Orbital Coefficients:
                           1         2         3         4         5
                           O         O         O         O         O
     Eigenvalues --    -1.83526  -1.11964  -0.86662  -0.78848  -0.74534
   1 1   C  1S          0.07003   0.44610   0.25147   0.20280   0.21519
   2        1PX        -0.02462  -0.14525   0.26493   0.21110  -0.19718
   3        1PY        -0.10418  -0.17728  -0.09573   0.02878   0.31123
   4        1PZ        -0.00268  -0.01332  -0.00239  -0.00158  -0.00657
   5 2   C  1S          0.20702   0.24582   0.49426  -0.11157  -0.36591
   6        1PX        -0.18373  -0.23390   0.06212   0.01534  -0.08173
   7        1PY        -0.17037   0.22223  -0.00340   0.52158   0.24169
   8        1PZ         0.00168   0.00645   0.01262   0.01381  -0.00596
   9 3   O  1S          0.86256  -0.26439  -0.01350  -0.05197   0.27252
  10        1PX        -0.01042  -0.03201   0.18576  -0.26492   0.00592
  11        1PY         0.03950   0.15204   0.05053  -0.02690  -0.14799
  12        1PZ         0.00090   0.00147   0.00323   0.01116  -0.00280
  13 4   C  1S          0.21436   0.26607  -0.46822   0.19396  -0.35255
  14        1PX         0.24262   0.10702   0.09004   0.27850   0.04283
  15        1PY        -0.08386   0.32356   0.04722  -0.49486   0.14367
  16        1PZ        -0.01443  -0.01611   0.04338  -0.00785   0.02614
  17 5   C  1S          0.06649   0.46013  -0.25320  -0.24587   0.15376
  18        1PX         0.06738   0.19845   0.19566   0.20576   0.10427
  19        1PY        -0.08044  -0.10614   0.17704  -0.02806   0.38504
  20        1PZ         0.00142   0.01340   0.00152  -0.00408   0.00200
  21 6   H  1S          0.00392   0.14813  -0.15300  -0.20975   0.16025
  22 7   H  1S          0.04913   0.02978  -0.28332   0.12242  -0.24615
  23 8   H  1S          0.04871   0.02603   0.28810  -0.09005  -0.25947
  24 9   H  1S          0.00344   0.12816   0.14125   0.15498   0.19710
                           6         7         8         9        10
                           O         O         O         O         O
     Eigenvalues --    -0.66461  -0.61875  -0.54748  -0.53688  -0.44209
   1 1   C  1S         -0.18646   0.02205   0.01578  -0.16660  -0.07507
   2        1PX        -0.19122   0.01383  -0.31257   0.06829   0.11047
   3        1PY        -0.17455   0.01152   0.25626  -0.07595  -0.25245
   4        1PZ         0.04345   0.39072  -0.00243   0.00206   0.14508
   5 2   C  1S         -0.13451  -0.00422   0.05005  -0.14604   0.08927
   6        1PX        -0.42671   0.06410   0.31505   0.52149  -0.11711
   7        1PY        -0.19883   0.02328  -0.39456   0.27389   0.14349
   8        1PZ         0.05211   0.55109  -0.00402  -0.00399   0.50224
   9 3   O  1S         -0.18368   0.02834  -0.19546   0.10600  -0.03295
  10        1PX        -0.02470   0.00237  -0.08435  -0.11379  -0.04197
  11        1PY         0.16801  -0.02625   0.06255  -0.06817   0.03652
  12        1PZ         0.02755   0.18873   0.01471  -0.00320   0.01222
  13 4   C  1S         -0.11207   0.04965   0.13639   0.04384  -0.07201
  14        1PX         0.44107  -0.04372   0.42259   0.40597   0.13986
  15        1PY         0.05406   0.01402  -0.31226   0.39772  -0.14787
  16        1PZ         0.07971   0.57810   0.00842  -0.04363  -0.44613
  17 5   C  1S         -0.16994   0.01957   0.14723   0.06763   0.05200
  18        1PX         0.22084  -0.04202   0.12350  -0.08895  -0.32271
  19        1PY        -0.08629  -0.00273   0.31470  -0.26767   0.27918
  20        1PZ         0.04912   0.39613  -0.00152  -0.00471  -0.17828
  21 6   H  1S         -0.23207   0.02241   0.15949  -0.02516   0.32175
  22 7   H  1S         -0.28984   0.03431  -0.01574  -0.31995  -0.06432
  23 8   H  1S         -0.30043   0.03220   0.26096   0.19030  -0.03413
  24 9   H  1S         -0.24194   0.02189   0.07039  -0.12025  -0.16579
                          11        12        13        14        15
                           O         O         O         V         V
     Eigenvalues --    -0.43711  -0.41184  -0.28308   0.09848   0.16325
   1 1   C  1S         -0.08671  -0.02200   0.01294   0.01682  -0.05435
   2        1PX         0.01274   0.45539  -0.01069  -0.01021   0.20783
   3        1PY        -0.35352   0.37658  -0.02491  -0.00847  -0.02331
   4        1PZ        -0.16822  -0.01539   0.58220   0.67509   0.01266
   5 2   C  1S          0.08678   0.05066   0.01631  -0.00625   0.00586
   6        1PX        -0.04628  -0.24430  -0.01031   0.00142   0.13887
   7        1PY         0.21950  -0.15561   0.01851   0.00038  -0.04657
   8        1PZ        -0.45487  -0.12000  -0.37904  -0.21601  -0.00772
   9 3   O  1S         -0.00212  -0.09545  -0.00301   0.00109   0.00495
  10        1PX        -0.04512  -0.01766  -0.00784   0.00290   0.03737
  11        1PY         0.00046   0.13267   0.00415  -0.00567   0.04849
  12        1PZ         0.00909   0.00405  -0.15319   0.00154   0.00207
  13 4   C  1S         -0.04832   0.13015  -0.01614  -0.00557  -0.10306
  14        1PX         0.08453   0.27526   0.00642  -0.00696   0.29833
  15        1PY        -0.17079   0.11282  -0.01425  -0.01256   0.40567
  16        1PZ         0.47443   0.10216  -0.38098   0.20877   0.01028
  17 5   C  1S          0.06622  -0.04866  -0.01708   0.02019  -0.08021
  18        1PX        -0.24249  -0.44881  -0.02682   0.02711   0.12530
  19        1PY         0.28478  -0.09159   0.05185  -0.04190   0.31953
  20        1PZ         0.10701   0.02626   0.58518  -0.67086  -0.02362
  21 6   H  1S          0.28906   0.17041   0.00958   0.01259  -0.05253
  22 7   H  1S         -0.02984  -0.12823   0.00064  -0.00681   0.69747
  23 8   H  1S          0.00863  -0.12581   0.00590   0.00652  -0.20884
  24 9   H  1S         -0.26110   0.36349  -0.01717   0.00486  -0.07679
                          16        17        18        19        20
                           V         V         V         V         V
     Eigenvalues --     0.18249   0.26450   0.28843   0.30442   0.37200
   1 1   C  1S         -0.12565   0.05503  -0.10484  -0.11371   0.47689
   2        1PX        -0.19881  -0.45589   0.14191   0.25826   0.26112
   3        1PY         0.31296  -0.35062  -0.29050  -0.32196  -0.05345
   4        1PZ         0.00353  -0.00949  -0.00927   0.00683  -0.01064
   5 2   C  1S         -0.07961  -0.00861  -0.38157  -0.31172  -0.30923
   6        1PX        -0.42695   0.07341  -0.12873  -0.07556  -0.03888
   7        1PY         0.27449  -0.00082  -0.11921  -0.13693  -0.24886
   8        1PZ         0.01015  -0.00215  -0.00109  -0.00663  -0.00946
   9 3   O  1S          0.00949  -0.00370  -0.01706   0.00471  -0.03567
  10        1PX        -0.03763   0.00481  -0.00195  -0.05955   0.03104
  11        1PY         0.07168  -0.00215  -0.02601   0.00728  -0.18916
  12        1PZ         0.00194   0.00497  -0.00619  -0.00106   0.00743
  13 4   C  1S         -0.04188  -0.15841  -0.28408   0.39620  -0.21526
  14        1PX         0.06424   0.12052   0.07918  -0.15870   0.12414
  15        1PY         0.14404  -0.00084  -0.07406   0.15256  -0.15426
  16        1PZ         0.00582   0.00256   0.00063  -0.00537   0.00215
  17 5   C  1S         -0.11353  -0.09104  -0.03130   0.05559   0.36952
  18        1PX        -0.14712  -0.47370   0.28077   0.09819  -0.24519
  19        1PY         0.08447  -0.03880  -0.29198   0.49569  -0.09765
  20        1PZ        -0.01988  -0.01807   0.03746  -0.02207   0.00905
  21 6   H  1S         -0.15128  -0.29253   0.47572  -0.27770  -0.31121
  22 7   H  1S          0.18440   0.15520   0.17332  -0.21915   0.07950
  23 8   H  1S          0.65290  -0.03900   0.30730   0.20677   0.12417
  24 9   H  1S         -0.15530   0.52464   0.31193   0.24305  -0.30622
                          21        22        23        24
                           V         V         V         V
     Eigenvalues --     0.41565   0.46018   0.54273   0.57203
   1 1   C  1S         -0.53756   0.00197   0.07725  -0.00349
   2        1PX         0.13484  -0.00336   0.04099  -0.01123
   3        1PY         0.07095  -0.00128   0.01569   0.00210
   4        1PZ         0.01506   0.01334   0.00014   0.00004
   5 2   C  1S          0.19818  -0.00202  -0.17137  -0.17966
   6        1PX        -0.05969  -0.00542   0.17312   0.05819
   7        1PY         0.15335   0.00576   0.02485   0.17450
   8        1PZ         0.00215  -0.16997  -0.00576   0.00354
   9 3   O  1S         -0.00476   0.00071   0.11396  -0.00446
  10        1PX         0.03313   0.04012  -0.16523   0.91210
  11        1PY        -0.01869  -0.02450   0.90572   0.16854
  12        1PZ         0.01482   0.96799   0.03209  -0.03402
  13 4   C  1S         -0.23570   0.00484  -0.16789   0.19123
  14        1PX         0.04342  -0.00827  -0.16119   0.13158
  15        1PY        -0.19450   0.00807  -0.06054  -0.13475
  16        1PZ         0.00224  -0.17559   0.00502  -0.00711
  17 5   C  1S          0.62789  -0.01594   0.08518   0.00138
  18        1PX         0.11471   0.00610  -0.03851  -0.00722
  19        1PY        -0.02289  -0.00003  -0.00673  -0.00696
  20        1PZ         0.02263   0.01613   0.00301   0.00090
  21 6   H  1S         -0.27299   0.00977  -0.04500   0.00442
  22 7   H  1S          0.05076  -0.00190  -0.00198  -0.00028
  23 8   H  1S         -0.04152   0.00133  -0.00333   0.00090
  24 9   H  1S          0.19236   0.00031  -0.04222  -0.00299
     Density Matrix:
                           1         2         3         4         5
   1 1   C  1S          0.86330
   2        1PX         0.00115   1.06864
   3        1PY         0.10571   0.07054   1.16464
   4        1PZ         0.00647   0.00195  -0.00108   1.08667
   5 2   C  1S          0.36413   0.34529  -0.43350  -0.00656   1.10839
   6        1PX        -0.19792  -0.06148   0.20040  -0.00133  -0.13384
   7        1PY         0.40744   0.32286  -0.38183  -0.01172  -0.27555
   8        1PZ         0.02040   0.00838  -0.01837   0.29607  -0.01409
   9 3   O  1S          0.01204   0.01125  -0.02186  -0.00279   0.00860
  10        1PX         0.01778   0.01442  -0.01068  -0.00516   0.23241
  11        1PY         0.04158   0.04309  -0.10138   0.00222   0.25673
  12        1PZ        -0.00159   0.00200  -0.00158  -0.02828  -0.00358
  13 4   C  1S          0.00559  -0.04831   0.01521  -0.00084  -0.00656
  14        1PX        -0.02980   0.01036   0.01350   0.00890   0.02177
  15        1PY         0.04637  -0.03515  -0.00324   0.00458  -0.03085
  16        1PZ        -0.00559   0.00375  -0.00159  -0.27739  -0.00051
  17 5   C  1S          0.28770  -0.48360  -0.03087  -0.03814   0.00162
  18        1PX         0.47212  -0.57219  -0.04867  -0.05269   0.02990
  19        1PY         0.18266  -0.25105   0.07670   0.03357   0.03860
  20        1PZ         0.03500  -0.03845  -0.00744   0.90626   0.00129
  21 6   H  1S          0.03491  -0.05637  -0.00823  -0.00620   0.06348
  22 7   H  1S          0.07088  -0.06627  -0.01325  -0.00041   0.04766
  23 8   H  1S          0.09435   0.06361  -0.11469  -0.00213   0.56168
  24 9   H  1S          0.52078   0.34599   0.74065  -0.00340   0.09367
                           6         7         8         9        10
   6        1PX         1.46459
   7        1PY         0.16616   1.54595
   8        1PZ         0.00972  -0.01257   1.84820
   9 3   O  1S         -0.03869  -0.02794   0.00130   1.97051
  10        1PX        -0.09487  -0.29792   0.00754   0.04913   0.26142
  11        1PY        -0.30794  -0.23100  -0.00572  -0.22136   0.00940
  12        1PZ         0.00428  -0.00435   0.33040  -0.00855  -0.00667
  13 4   C  1S         -0.00608  -0.03940  -0.00389   0.00959  -0.32355
  14        1PX         0.00597  -0.02120  -0.00456   0.04813  -0.34038
  15        1PY         0.01598   0.01566   0.00069  -0.01096   0.24610
  16        1PZ        -0.00188   0.00092   0.03062  -0.00136   0.02623
  17 5   C  1S          0.01285   0.04927   0.00991   0.01360  -0.03292
  18        1PX         0.00504   0.03262   0.01306  -0.00105   0.00434
  19        1PY        -0.01825   0.01068  -0.01090  -0.02530   0.05904
  20        1PZ         0.00289   0.00900  -0.28448   0.00359  -0.00216
  21 6   H  1S         -0.03278   0.04444   0.00185   0.00553  -0.02224
  22 7   H  1S         -0.03459  -0.03048   0.00284   0.00535  -0.07340
  23 8   H  1S          0.73735  -0.17368  -0.00748   0.00715   0.08309
  24 9   H  1S         -0.05717   0.01162   0.00324   0.00552   0.01689
                          11        12        13        14        15
  11        1PY         0.21257
  12        1PZ         0.00340   0.12093
  13 4   C  1S          0.14435   0.02410   1.11631
  14        1PX         0.26455   0.03016   0.24527   1.60037
  15        1PY         0.02364  -0.01564  -0.19466  -0.12911   1.40450
  16        1PZ        -0.01374   0.33829   0.01844  -0.00654   0.00002
  17 5   C  1S          0.02917   0.00273   0.36680  -0.01216   0.44574
  18        1PX         0.00440  -0.00122  -0.11627   0.08590  -0.08550
  19        1PY        -0.08941  -0.00154  -0.55093   0.03673  -0.52092
  20        1PZ        -0.00097  -0.02932   0.03411  -0.00449   0.03223
  21 6   H  1S          0.00703   0.00596   0.09474   0.04345   0.03459
  22 7   H  1S         -0.04571  -0.00233   0.53805  -0.59909  -0.48239
  23 8   H  1S         -0.00924   0.00002   0.04251   0.03866  -0.01414
  24 9   H  1S          0.01355   0.00083   0.06788   0.01363   0.05452
                          16        17        18        19        20
  16        1PZ         1.85064
  17 5   C  1S         -0.01520   0.85922
  18        1PX        -0.00609  -0.05005   1.14841
  19        1PY         0.01631   0.09375  -0.06633   1.09277
  20        1PZ         0.28614  -0.01481   0.00192   0.00744   1.09183
  21 6   H  1S          0.00201   0.54489  -0.61529   0.51678  -0.03212
  22 7   H  1S         -0.01823   0.09528  -0.00020  -0.12911   0.01043
  23 8   H  1S         -0.00383   0.06462   0.06413   0.01746   0.00914
  24 9   H  1S          0.00184   0.03221   0.04984   0.00602   0.00012
                          21        22        23        24
  21 6   H  1S          0.82336
  22 7   H  1S          0.01048   0.73684
  23 8   H  1S          0.02936   0.03130   0.74840
  24 9   H  1S          0.00063   0.02900   0.01110   0.81154
    Full Mulliken population analysis:
                           1         2         3         4         5
   1 1   C  1S          0.86330
   2        1PX         0.00000   1.06864
   3        1PY         0.00000   0.00000   1.16464
   4        1PZ         0.00000   0.00000   0.00000   1.08667
   5 2   C  1S          0.00000   0.00000   0.00000   0.00000   1.10839
   6        1PX         0.00000   0.00000   0.00000   0.00000   0.00000
   7        1PY         0.00000   0.00000   0.00000   0.00000   0.00000
   8        1PZ         0.00000   0.00000   0.00000   0.00000   0.00000
   9 3   O  1S          0.00000   0.00000   0.00000   0.00000   0.00000
  10        1PX         0.00000   0.00000   0.00000   0.00000   0.00000
  11        1PY         0.00000   0.00000   0.00000   0.00000   0.00000
  12        1PZ         0.00000   0.00000   0.00000   0.00000   0.00000
  13 4   C  1S          0.00000   0.00000   0.00000   0.00000   0.00000
  14        1PX         0.00000   0.00000   0.00000   0.00000   0.00000
  15        1PY         0.00000   0.00000   0.00000   0.00000   0.00000
  16        1PZ         0.00000   0.00000   0.00000   0.00000   0.00000
  17 5   C  1S          0.00000   0.00000   0.00000   0.00000   0.00000
  18        1PX         0.00000   0.00000   0.00000   0.00000   0.00000
  19        1PY         0.00000   0.00000   0.00000   0.00000   0.00000
  20        1PZ         0.00000   0.00000   0.00000   0.00000   0.00000
  21 6   H  1S          0.00000   0.00000   0.00000   0.00000   0.00000
  22 7   H  1S          0.00000   0.00000   0.00000   0.00000   0.00000
  23 8   H  1S          0.00000   0.00000   0.00000   0.00000   0.00000
  24 9   H  1S          0.00000   0.00000   0.00000   0.00000   0.00000
                           6         7         8         9        10
   6        1PX         1.46459
   7        1PY         0.00000   1.54595
   8        1PZ         0.00000   0.00000   1.84820
   9 3   O  1S          0.00000   0.00000   0.00000   1.97051
  10        1PX         0.00000   0.00000   0.00000   0.00000   0.26142
  11        1PY         0.00000   0.00000   0.00000   0.00000   0.00000
  12        1PZ         0.00000   0.00000   0.00000   0.00000   0.00000
  13 4   C  1S          0.00000   0.00000   0.00000   0.00000   0.00000
  14        1PX         0.00000   0.00000   0.00000   0.00000   0.00000
  15        1PY         0.00000   0.00000   0.00000   0.00000   0.00000
  16        1PZ         0.00000   0.00000   0.00000   0.00000   0.00000
  17 5   C  1S          0.00000   0.00000   0.00000   0.00000   0.00000
  18        1PX         0.00000   0.00000   0.00000   0.00000   0.00000
  19        1PY         0.00000   0.00000   0.00000   0.00000   0.00000
  20        1PZ         0.00000   0.00000   0.00000   0.00000   0.00000
  21 6   H  1S          0.00000   0.00000   0.00000   0.00000   0.00000
  22 7   H  1S          0.00000   0.00000   0.00000   0.00000   0.00000
  23 8   H  1S          0.00000   0.00000   0.00000   0.00000   0.00000
  24 9   H  1S          0.00000   0.00000   0.00000   0.00000   0.00000
                          11        12        13        14        15
  11        1PY         0.21257
  12        1PZ         0.00000   0.12093
  13 4   C  1S          0.00000   0.00000   1.11631
  14        1PX         0.00000   0.00000   0.00000   1.60037
  15        1PY         0.00000   0.00000   0.00000   0.00000   1.40450
  16        1PZ         0.00000   0.00000   0.00000   0.00000   0.00000
  17 5   C  1S          0.00000   0.00000   0.00000   0.00000   0.00000
  18        1PX         0.00000   0.00000   0.00000   0.00000   0.00000
  19        1PY         0.00000   0.00000   0.00000   0.00000   0.00000
  20        1PZ         0.00000   0.00000   0.00000   0.00000   0.00000
  21 6   H  1S          0.00000   0.00000   0.00000   0.00000   0.00000
  22 7   H  1S          0.00000   0.00000   0.00000   0.00000   0.00000
  23 8   H  1S          0.00000   0.00000   0.00000   0.00000   0.00000
  24 9   H  1S          0.00000   0.00000   0.00000   0.00000   0.00000
                          16        17        18        19        20
  16        1PZ         1.85064
  17 5   C  1S          0.00000   0.85922
  18        1PX         0.00000   0.00000   1.14841
  19        1PY         0.00000   0.00000   0.00000   1.09277
  20        1PZ         0.00000   0.00000   0.00000   0.00000   1.09183
  21 6   H  1S          0.00000   0.00000   0.00000   0.00000   0.00000
  22 7   H  1S          0.00000   0.00000   0.00000   0.00000   0.00000
  23 8   H  1S          0.00000   0.00000   0.00000   0.00000   0.00000
  24 9   H  1S          0.00000   0.00000   0.00000   0.00000   0.00000
                          21        22        23        24
  21 6   H  1S          0.82336
  22 7   H  1S          0.00000   0.73684
  23 8   H  1S          0.00000   0.00000   0.74840
  24 9   H  1S          0.00000   0.00000   0.00000   0.81154
     Gross orbital populations:
                           1
   1 1   C  1S          0.86330
   2        1PX         1.06864
   3        1PY         1.16464
   4        1PZ         1.08667
   5 2   C  1S          1.10839
   6        1PX         1.46459
   7        1PY         1.54595
   8        1PZ         1.84820
   9 3   O  1S          1.97051
  10        1PX         0.26142
  11        1PY         0.21257
  12        1PZ         0.12093
  13 4   C  1S          1.11631
  14        1PX         1.60037
  15        1PY         1.40450
  16        1PZ         1.85064
  17 5   C  1S          0.85922
  18        1PX         1.14841
  19        1PY         1.09277
  20        1PZ         1.09183
  21 6   H  1S          0.82336
  22 7   H  1S          0.73684
  23 8   H  1S          0.74840
  24 9   H  1S          0.81154
          Condensed to atoms (all electrons):
               1          2          3          4          5          6
     1  C    4.183244   0.000000   0.000000   0.000000   0.000000   0.000000
     2  C    0.000000   5.967133   0.000000   0.000000   0.000000   0.000000
     3  O    0.000000   0.000000   2.565437   0.000000   0.000000   0.000000
     4  C    0.000000   0.000000   0.000000   5.971818   0.000000   0.000000
     5  C    0.000000   0.000000   0.000000   0.000000   4.192229   0.000000
     6  H    0.000000   0.000000   0.000000   0.000000   0.000000   0.823362
     7  H    0.000000   0.000000   0.000000   0.000000   0.000000   0.000000
     8  H    0.000000   0.000000   0.000000   0.000000   0.000000   0.000000
     9  H    0.000000   0.000000   0.000000   0.000000   0.000000   0.000000
               7          8          9
     1  C    0.000000   0.000000   0.000000
     2  C    0.000000   0.000000   0.000000
     3  O    0.000000   0.000000   0.000000
     4  C    0.000000   0.000000   0.000000
     5  C    0.000000   0.000000   0.000000
     6  H    0.000000   0.000000   0.000000
     7  H    0.736841   0.000000   0.000000
     8  H    0.000000   0.748399   0.000000
     9  H    0.000000   0.000000   0.811536
 Mulliken charges:
               1
     1  C   -0.183244
     2  C   -1.967133
     3  O    3.434563
     4  C   -1.971818
     5  C   -0.192229
     6  H    0.176638
     7  H    0.263159
     8  H    0.251601
     9  H    0.188464
 Sum of Mulliken charges =   0.00000
 Mulliken charges with hydrogens summed into heavy atoms:
               1
     1  C    0.005220
     2  C   -1.715532
     3  O    3.434563
     4  C   -1.708660
     5  C   -0.015591
 Charge=              0.0000 electrons
 Dipole moment (field-independent basis, Debye):
    X=              2.5082    Y=            -12.3113    Z=             -0.6135  Tot=             12.5792
 N-N= 1.035399182792D+02 E-N=-1.689068036392D+02  KE=-1.432322475844D+01
 Orbital energies and kinetic energies (alpha):
                                 1                 2
   1         O                -1.835263         -1.213974
   2         O                -1.119638         -0.974479
   3         O                -0.866621         -0.800785
   4         O                -0.788477         -0.531411
   5         O                -0.745341         -0.606210
   6         O                -0.664611         -0.549582
   7         O                -0.618748         -0.493304
   8         O                -0.547484         -0.341147
   9         O                -0.536878         -0.342686
  10         O                -0.442089         -0.361277
  11         O                -0.437112         -0.362364
  12         O                -0.411841         -0.329638
  13         O                -0.283076         -0.254758
  14         V                 0.098484         -0.175010
  15         V                 0.163247         -0.181033
  16         V                 0.182494         -0.165555
  17         V                 0.264502         -0.140011
  18         V                 0.288432         -0.134541
  19         V                 0.304420         -0.082346
  20         V                 0.371999         -0.041593
  21         V                 0.415647         -0.039769
  22         V                 0.460177          0.685751
  23         V                 0.542730          0.697397
  24         V                 0.572026          0.754371
 Total kinetic energy from orbitals=-1.432322475844D+01
 Leave Link  601 at Tue Dec 15 17:07:48 2015, MaxMem=    33554432 cpu:         0.0
 (Enter /home/Applications/g09/g09/l701.exe)
 Compute integral first derivatives.
 ... and contract with generalized density number  6.
 Leave Link  701 at Tue Dec 15 17:07:48 2015, MaxMem=    33554432 cpu:         0.0
 (Enter /home/Applications/g09/g09/l702.exe)
 L702 exits ... SP integral derivatives will be done elsewhere.
 Leave Link  702 at Tue Dec 15 17:07:48 2015, MaxMem=    33554432 cpu:         0.0
 (Enter /home/Applications/g09/g09/l703.exe)
 Compute integral first derivatives, UseDBF=F ICtDFT=           0.
 Integral derivatives from FoFJK, PRISM(SPDF).
 Calling FoFJK, ICntrl=  10005127 FMM=F ISym2X=0 I1Cent= 0 IOpClX= 0 NMat=1 NMatS=1 NMatT=0.
 FoFJK:  IHMeth= 8 ICntrl=10005127 DoSepK=F KAlg= 0 I1Cent=   0 FoldK=F
 IRaf=         0 NMat=   1 IRICut=       1 DoRegI=T DoRafI=F ISym2E= 0.
 FoFCou: FMM=F IPFlag=           0 FMFlag=      100000 FMFlg1=         800
         NFxFlg=           0 DoJE=F BraDBF=F KetDBF=F FulRan=T
         wScrn=  0.000000 ICntrl=10005127 IOpCl=  0 I1Cent=           0 NGrid=           0
         NMat0=    1 NMatS0=      1 NMatT0=    0 NMatD0=    1 NMtDS0=    0 NMtDT0=    0
 Symmetry not used in FoFCou.
 Leave Link  703 at Tue Dec 15 17:07:48 2015, MaxMem=    33554432 cpu:         0.0
 (Enter /home/Applications/g09/g09/l716.exe)
 Dipole        = 1.07070376D+00-5.25168150D+00-2.33250542D-01
 ***** Axes restored to original set *****
 -------------------------------------------------------------------
 Center     Atomic                   Forces (Hartrees/Bohr)
 Number     Number              X              Y              Z
 -------------------------------------------------------------------
      1        6           0.061701387    0.019712637   -0.005467544
      2        6          -0.197191133    0.005998310   -0.009457872
      3        8           0.215805683   -0.017805183    0.015195291
      4        6          -0.234954060    0.053997317   -0.012270677
      5        6           0.028517420   -0.075888886    0.009229516
      6        1           0.082629092    0.061073458   -0.007373882
      7        1           0.012315733    0.036933279    0.005006051
      8        1          -0.002101038   -0.063144619   -0.000737755
      9        1           0.033276915   -0.020876314    0.005876872
 -------------------------------------------------------------------
 Cartesian Forces:  Max     0.234954060 RMS     0.080047485
 Z-matrix is all fixed cartesians, so copy forces.
 Force constants in Cartesian coordinates: 
                1             2             3             4             5 
      1  0.890102D+00
      2 -0.483764D-02  0.776149D+00
      3  0.248925D-01 -0.102001D-01  0.199445D+00
      4 -0.509732D+00 -0.116659D+00 -0.246564D-01  0.918297D+00
      5 -0.943621D-01 -0.222370D+00 -0.621983D-02  0.695940D-01  0.834387D+00
      6 -0.265867D-01 -0.662948D-02 -0.105719D+00  0.306459D-01  0.660108D-02
      7 -0.885638D-02  0.276580D-01 -0.250223D-03 -0.259853D+00  0.138018D+00
      8 -0.684488D-02  0.214707D-01  0.435659D-03  0.180059D+00 -0.313577D+00
      9 -0.161223D-02  0.213119D-02  0.586636D-02 -0.421076D-02 -0.102579D-02
     10  0.899776D-02 -0.122962D-03 -0.767621D-03  0.220316D-01  0.170743D-01
     11  0.348884D-01 -0.486092D-03 -0.391708D-02 -0.177120D-01 -0.137518D-01
     12 -0.228354D-02  0.219971D-03  0.206396D-03  0.620326D-03  0.236182D-03
     13 -0.166026D+00  0.101646D-01  0.234284D-03  0.107504D-01 -0.339983D-01
     14 -0.133431D-01 -0.389669D+00  0.174680D-01 -0.697353D-04  0.151470D-03
     15  0.506383D-03  0.182405D-01 -0.809902D-01  0.977657D-03 -0.272581D-02
     16  0.184871D-01 -0.149235D-03  0.192441D-03  0.000000D+00  0.000000D+00
     17 -0.237727D-01  0.229778D-03  0.568379D-03 -0.134504D-04  0.884772D-05
     18  0.213007D-02  0.810205D-03  0.178440D-01 -0.289689D-03  0.190559D-03
     19  0.351480D-04  0.273330D-04  0.595220D-03  0.237878D-04  0.132142D-04
     20  0.585935D-04  0.455655D-04  0.992261D-03 -0.467153D-05 -0.259504D-05
     21  0.421596D-03  0.327856D-03  0.713959D-02 -0.196046D-03 -0.108904D-03
     22  0.822685D-02 -0.256142D-01 -0.435431D-03 -0.175746D+00 -0.114383D+00
     23 -0.456457D-02  0.142454D-01  0.505149D-04 -0.108134D+00 -0.306906D+00
     24 -0.810763D-03 -0.294705D-02  0.310832D-01 -0.736409D-03  0.786837D-03
     25 -0.241234D+00  0.109533D+00  0.195200D-03 -0.577168D-02  0.180431D-01
     26  0.112778D+00 -0.199616D+00  0.822149D-03 -0.705962D-02  0.220593D-01
     27  0.334264D-02 -0.195308D-02 -0.748753D-01 -0.215460D-02  0.226567D-02
                6             7             8             9            10 
      6  0.198116D+00
      7 -0.672001D-02  0.514639D+00
      8  0.256366D-02  0.134683D-01  0.613745D+00
      9 -0.422715D-01  0.244672D-01  0.171213D-01  0.510964D-01
     10  0.214529D-02 -0.278222D+00 -0.192883D+00 -0.228624D-01  0.963042D+00
     11 -0.204473D-02 -0.150387D+00 -0.326443D+00 -0.217766D-01 -0.285652D-01
     12 -0.134855D-02 -0.166875D-01 -0.194152D-01 -0.446809D-01  0.540444D-02
     13  0.243131D-02 -0.756387D-02  0.597919D-02  0.134593D-02 -0.554802D+00
     14  0.338917D-03 -0.283516D-01  0.226225D-01  0.201533D-02  0.107665D+00
     15 -0.145229D-02 -0.273197D-02  0.173003D-02  0.577564D-02  0.277426D-01
     16 -0.204878D-05  0.803114D-05 -0.321798D-04  0.349421D-03 -0.494462D-02
     17  0.188098D-03 -0.203769D-05  0.816477D-05 -0.886565D-04  0.650596D-02
     18  0.405118D-02  0.182010D-03 -0.729290D-03  0.791894D-02  0.265587D-02
     19 -0.438949D-03  0.192698D-01 -0.156808D-01  0.275444D-02 -0.156113D+00
     20  0.862023D-04  0.110065D-01 -0.898563D-02  0.196850D-02  0.903158D-01
     21  0.361758D-02  0.181173D-02 -0.179033D-02  0.455104D-02 -0.143564D-01
     22 -0.136563D-02  0.205665D-01  0.159280D-01  0.236842D-04  0.250210D-05
     23 -0.102741D-02 -0.114250D-01 -0.884861D-02 -0.472009D-04  0.000000D+00
     24 -0.803121D-01  0.228693D-03  0.242733D-03  0.553063D-02 -0.184646D-03
     25 -0.109204D-03  0.123230D-04  0.651457D-05 -0.255279D-03  0.799718D-05
     26 -0.763516D-04  0.143857D-04  0.760501D-05 -0.298009D-03  0.102778D-04
     27  0.253182D-01 -0.299934D-03 -0.158560D-03  0.621334D-02  0.222855D-03
               11            12            13            14            15 
     11  0.796867D+00
     12  0.825249D-02  0.197224D+00
     13  0.853608D-01  0.233460D-01  0.100696D+01
     14 -0.217926D+00 -0.530590D-02  0.566816D-01  0.810124D+00
     15 -0.847019D-02 -0.111695D+00 -0.303282D-01 -0.165949D-01  0.222329D+00
     16 -0.191148D-01  0.107343D-02 -0.313573D+00 -0.147496D+00  0.706772D-02
     17  0.249083D-01 -0.661148D-04 -0.149587D+00 -0.238984D+00  0.641042D-02
     18  0.497203D-02  0.288323D-01  0.470601D-02  0.361337D-02 -0.902098D-01
     19  0.955220D-01 -0.115624D-01  0.644677D-02  0.251048D-01 -0.241589D-02
     20 -0.263176D+00  0.158998D-01  0.369725D-02  0.138724D-01  0.153200D-02
     21  0.229134D-01 -0.757195D-01  0.769018D-03 -0.270984D-02  0.313953D-01
     22  0.138992D-05 -0.461704D-04  0.356151D-04 -0.234278D-04 -0.498063D-03
     23  0.000000D+00  0.467093D-05 -0.164734D-04  0.108363D-04  0.230373D-03
     24 -0.102571D-03  0.340721D-02 -0.537517D-03  0.353582D-03  0.751696D-02
     25  0.621904D-05  0.135429D-03  0.177721D-01 -0.166922D-03 -0.320306D-03
     26  0.799261D-05  0.174052D-03  0.217185D-01 -0.202176D-03 -0.352407D-03
     27  0.173304D-03  0.377397D-02 -0.196684D-02  0.821397D-03  0.173301D-01
               16            17            18            19            20 
     16  0.300068D+00
     17  0.166868D+00  0.213823D+00
     18 -0.814144D-02 -0.686814D-02  0.499259D-01
     19 -0.452343D-04  0.114770D-04 -0.102515D-02  0.130383D+00
     20 -0.754078D-04  0.191328D-04 -0.170897D-02 -0.104998D+00  0.258227D+00
     21 -0.542580D-03  0.137665D-03 -0.122965D-01  0.120927D-01 -0.187698D-01
     22  0.000000D+00  0.000000D+00  0.000000D+00  0.000000D+00  0.000000D+00
     23  0.000000D+00  0.000000D+00  0.000000D+00  0.000000D+00  0.000000D+00
     24  0.000000D+00  0.000000D+00  0.000000D+00  0.000000D+00  0.000000D+00
     25  0.000000D+00 -0.101070D-04 -0.217681D-03  0.000000D+00  0.000000D+00
     26  0.000000D+00 -0.129894D-04 -0.279761D-03  0.000000D+00  0.000000D+00
     27  0.306775D-05 -0.281649D-03 -0.606606D-02  0.000000D+00  0.000000D+00
               21            22            23            24            25 
     21  0.413125D-01
     22  0.000000D+00  0.146945D+00
     23  0.000000D+00  0.124126D+00  0.301482D+00
     24  0.000000D+00  0.158206D-02  0.113112D-02  0.439358D-01
     25  0.000000D+00 -0.303851D-04  0.140543D-04  0.458585D-03  0.229244D+00
     26  0.000000D+00 -0.354711D-04  0.164068D-04  0.535345D-03 -0.127426D+00
     27  0.000000D+00  0.739555D-03 -0.342073D-03 -0.111617D-01  0.113256D-03
               26            27 
     26  0.177740D+00
     27 -0.525016D-03  0.394674D-01
 Leave Link  716 at Tue Dec 15 17:07:48 2015, MaxMem=    33554432 cpu:         0.0
 (Enter /home/Applications/g09/g09/l103.exe)

 GradGradGradGradGradGradGradGradGradGradGradGradGradGradGradGradGradGrad
 Berny optimization.
 Search for a local minimum.
 Step number   1 out of a maximum of    2
 All quantities printed in internal units (Hartrees-Bohrs-Radians)
 Second derivative matrix not updated -- first step.
 ITU=  0
     Eigenvalues ---    0.01900   0.02765   0.07042   0.07314   0.07979
     Eigenvalues ---    0.08445   0.12933   0.14095   0.15675   0.23253
     Eigenvalues ---    0.26747   0.31542   0.40128   0.43937   0.62189
     Eigenvalues ---    0.82699   1.02669   1.28115   1.33289   1.56147
     Eigenvalues ---    1.68438
 Quadratic step=9.757D-01 exceeds max=3.000D-01 adjusted using Lamda=-5.338D-01.
 Angle between NR and scaled steps=  29.35 degrees.
 Angle between quadratic step and forces=  24.62 degrees.
 Linear search not attempted -- first point.
 TrRot= -0.001174 -0.001226  0.000343 -0.812556  0.000275  0.812811
 Variable       Old X    -DE/DX   Delta X   Delta X   Delta X     New X
                                 (Linear)    (Quad)   (Total)
    X1        1.82718   0.06170   0.00000   0.01122   0.01039   1.83758
    Y1       -1.29195   0.01971   0.00000  -0.01506  -0.01584  -1.30779
    Z1        0.09134  -0.00547   0.00000  -0.00967  -0.00993   0.08140
    X2       -0.60261  -0.19719   0.00000  -0.10909  -0.10974  -0.71235
    Y2       -2.07003   0.00600   0.00000  -0.03038  -0.03178  -2.10181
    Z2       -0.04581  -0.00946   0.00000  -0.00689  -0.00683  -0.05264
    X3       -2.22864   0.21581   0.00000   0.15650   0.15531  -2.07333
    Y3        0.02956  -0.01781   0.00000  -0.01021  -0.01195   0.01761
    Z3       -0.07072   0.01520   0.00000   0.01354   0.01428  -0.05645
    X4       -0.58897  -0.23495   0.00000  -0.13274  -0.13444  -0.72342
    Y4        2.07091   0.05400   0.00000   0.06674   0.06532   2.13623
    Z4        0.07959  -0.01227   0.00000  -0.01286  -0.01195   0.06763
    X5        1.85050   0.02852   0.00000  -0.00689  -0.00842   1.84207
    Y5        1.43342  -0.07589   0.00000  -0.01652  -0.01727   1.41616
    Z5       -0.03519   0.00923   0.00000   0.01220   0.01248  -0.02271
    X6        3.38700   0.08263   0.00000   0.08357   0.08170   3.46870
    Y6        2.62342   0.06107   0.00000   0.05558   0.05526   2.67868
    Z6       -0.08967  -0.00737   0.00000  -0.00789  -0.00767  -0.09734
    X7       -1.62025   0.01232   0.00000  -0.01260  -0.01480  -1.63506
    Y7        3.90423   0.03693   0.00000   0.08123   0.07961   3.98384
    Z7       -0.08923   0.00501   0.00000   0.00164   0.00309  -0.08614
    X8       -1.58578  -0.00210   0.00000  -0.02435  -0.02453  -1.61031
    Y8       -3.84009  -0.06314   0.00000  -0.09427  -0.09589  -3.93598
    Z8       -0.05671  -0.00074   0.00000  -0.00153  -0.00167  -0.05838
    X9        3.44048   0.03328   0.00000   0.04502   0.04454   3.48502
    Y9       -2.61183  -0.02088   0.00000  -0.02710  -0.02745  -2.63928
    Z9        0.09432   0.00588   0.00000   0.00905   0.00821   0.10252
         Item               Value     Threshold  Converged?
 Maximum Force            0.234954     0.000450     NO 
 RMS     Force            0.080047     0.000300     NO 
 Maximum Displacement     0.155308     0.001800     NO 
 RMS     Displacement     0.057732     0.001200     NO 
 Predicted change in Energy=-8.075469D-02
 GradGradGradGradGradGradGradGradGradGradGradGradGradGradGradGradGradGrad

 Leave Link  103 at Tue Dec 15 17:07:48 2015, MaxMem=    33554432 cpu:         0.0
 (Enter /home/Applications/g09/g09/l9999.exe)
 1\1\GINC-DUSTIN-DESKTOP\Force\RAM1-FC\STO-3G\C4H4O1\DUSTIN\15-Dec-2015
 \0\\#P AM1(Input,print) CIS(Singlets,NStates=15) pop(full) force\\AM1-
 Reparam Input\\0,1\C,0.966903,-0.683672,0.048334\C,-0.31889,-1.095414,
 -0.024242\O,-1.179346,0.015643,-0.037425\C,-0.311672,1.095879,0.042116
 \C,0.979242,0.758535,-0.018622\H,1.792324,1.388256,-0.047449\H,-0.8574
 01,2.066031,-0.047219\H,-0.839161,-2.032088,-0.030008\H,1.820622,-1.38
 2122,0.04991\\Version=ES64L-G09RevD.01\State=1-A\HF=2.627724\RMSD=7.18
 2e-09\RMSF=8.005e-02\Dipole=-5.3538741,0.0937367,-0.3289624\PG=C01 [X(
 C4H4O1)]\\@


 ... A MOLECULAR SYSTEM ... (PASSES) ... FROM ONE STATE OF EQUILIBRIUM 
 TO ANOTHER ... BY MEANS OF ALL POSSIBLE INTERMEDIATE PATHS, 
 BUT THE PATH MOST ECONOMICAL OF ENERGY WILL BE THE MORE OFTEN TRAVELED.

                      -- HENRY EYRING, 1945
 Job cpu time:       0 days  0 hours  0 minutes  0.7 seconds.
 File lengths (MBytes):  RWF=      7 Int=      0 D2E=      0 Chk=      2 Scr=      1
 Normal termination of Gaussian 09 at Tue Dec 15 17:07:48 2015.
