 Entering Gaussian System, Link 0=g09
 Input=FuranAM1Best0.com
 Output=FuranAM1Best0.log
 Initial command:
 /home/Applications/g09/g09/l1.exe "/home/Applications/g09/scratch/Gau-23873.inp" -scrdir="/home/Applications/g09/scratch/"
 Entering Link 1 = /home/Applications/g09/g09/l1.exe PID=     23875.
  
 Copyright (c) 1988,1990,1992,1993,1995,1998,2003,2009,2013,
            Gaussian, Inc.  All Rights Reserved.
  
 This is part of the Gaussian(R) 09 program.  It is based on
 the Gaussian(R) 03 system (copyright 2003, Gaussian, Inc.),
 the Gaussian(R) 98 system (copyright 1998, Gaussian, Inc.),
 the Gaussian(R) 94 system (copyright 1995, Gaussian, Inc.),
 the Gaussian 92(TM) system (copyright 1992, Gaussian, Inc.),
 the Gaussian 90(TM) system (copyright 1990, Gaussian, Inc.),
 the Gaussian 88(TM) system (copyright 1988, Gaussian, Inc.),
 the Gaussian 86(TM) system (copyright 1986, Carnegie Mellon
 University), and the Gaussian 82(TM) system (copyright 1983,
 Carnegie Mellon University). Gaussian is a federally registered
 trademark of Gaussian, Inc.
  
 This software contains proprietary and confidential information,
 including trade secrets, belonging to Gaussian, Inc.
  
 This software is provided under written license and may be
 used, copied, transmitted, or stored only in accord with that
 written license.
  
 The following legend is applicable only to US Government
 contracts under FAR:
  
                    RESTRICTED RIGHTS LEGEND
  
 Use, reproduction and disclosure by the US Government is
 subject to restrictions as set forth in subparagraphs (a)
 and (c) of the Commercial Computer Software - Restricted
 Rights clause in FAR 52.227-19.
  
 Gaussian, Inc.
 340 Quinnipiac St., Bldg. 40, Wallingford CT 06492
  
  
 ---------------------------------------------------------------
 Warning -- This program may not be used in any manner that
 competes with the business of Gaussian, Inc. or will provide
 assistance to any competitor of Gaussian, Inc.  The licensee
 of this program is prohibited from giving any competitor of
 Gaussian, Inc. access to this program.  By using this program,
 the user acknowledges that Gaussian, Inc. is engaged in the
 business of creating and licensing software in the field of
 computational chemistry and represents and warrants to the
 licensee that it is not a competitor of Gaussian, Inc. and that
 it will not use this program in any manner prohibited above.
 ---------------------------------------------------------------
  

 Cite this work as:
 Gaussian 09, Revision D.01,
 M. J. Frisch, G. W. Trucks, H. B. Schlegel, G. E. Scuseria, 
 M. A. Robb, J. R. Cheeseman, G. Scalmani, V. Barone, B. Mennucci, 
 G. A. Petersson, H. Nakatsuji, M. Caricato, X. Li, H. P. Hratchian, 
 A. F. Izmaylov, J. Bloino, G. Zheng, J. L. Sonnenberg, M. Hada, 
 M. Ehara, K. Toyota, R. Fukuda, J. Hasegawa, M. Ishida, T. Nakajima, 
 Y. Honda, O. Kitao, H. Nakai, T. Vreven, J. A. Montgomery, Jr., 
 J. E. Peralta, F. Ogliaro, M. Bearpark, J. J. Heyd, E. Brothers, 
 K. N. Kudin, V. N. Staroverov, T. Keith, R. Kobayashi, J. Normand, 
 K. Raghavachari, A. Rendell, J. C. Burant, S. S. Iyengar, J. Tomasi, 
 M. Cossi, N. Rega, J. M. Millam, M. Klene, J. E. Knox, J. B. Cross, 
 V. Bakken, C. Adamo, J. Jaramillo, R. Gomperts, R. E. Stratmann, 
 O. Yazyev, A. J. Austin, R. Cammi, C. Pomelli, J. W. Ochterski, 
 R. L. Martin, K. Morokuma, V. G. Zakrzewski, G. A. Voth, 
 P. Salvador, J. J. Dannenberg, S. Dapprich, A. D. Daniels, 
 O. Farkas, J. B. Foresman, J. V. Ortiz, J. Cioslowski, 
 and D. J. Fox, Gaussian, Inc., Wallingford CT, 2013.
 
 ******************************************
 Gaussian 09:  ES64L-G09RevD.01 24-Apr-2013
                 1-Dec-2015 
 ******************************************
 ----------------------------
 #P AM1(Input,print) Opt Freq
 ----------------------------
 1/14=-1,18=20,19=15,26=1,38=1/1,3;
 2/9=110,12=2,17=6,18=5,40=1/2;
 3/5=2,16=1,25=1,41=700000,71=1,135=100,136=1/1,2,3;
 4/35=1/1;
 5/5=2,35=1,38=5/2;
 6/7=2,8=2,9=2,10=2,28=1/1;
 7//1,2,3,16;
 1/14=-1,18=20,19=15,26=1/3(2);
 2/9=110/2;
 99//99;
 2/9=110/2;
 3/5=2,16=1,25=1,41=700000,71=1,135=20,136=1/1,2,3;
 4/5=5,16=3,35=1/1;
 5/5=2,35=1,38=5/2;
 7//1,2,3,16;
 1/14=-1,18=20,19=15,26=1/3(-5);
 2/9=110/2;
 6/7=2,8=2,9=2,10=2,19=2,28=1/1;
 99/9=1/99;
 Leave Link    1 at Tue Dec  1 17:37:42 2015, MaxMem=           0 cpu:         0.0
 (Enter /home/Applications/g09/g09/l101.exe)
 -----------------
 AM1-Reparam Input
 -----------------
 Symbolic Z-matrix:
 Charge =  0 Multiplicity = 1
 6                     1.00361  -0.7542   -0.03051 
 6                    -0.35481  -1.07676  -0.04311 
 8                    -1.15912  -0.02888   0.01194 
 6                    -0.31803   1.09519   0.0095 
 6                     0.96799   0.74477   0.03235 
 1                     1.85301   1.36977   0.01242 
 1                    -0.8377    2.08021  -0.04503 
 1                    -0.85168  -2.02586  -0.01848 
 1                     1.84252  -1.38614   0.0328 
 
 NAtoms=      9 NQM=        9 NQMF=       0 NMMI=      0 NMMIF=      0
                NMic=       0 NMicF=      0.
                    Isotopes and Nuclear Properties:
 (Nuclear quadrupole moments (NQMom) in fm**2, nuclear magnetic moments (NMagM)
  in nuclear magnetons)

  Atom         1           2           3           4           5           6           7           8           9
 IAtWgt=          12          12          16          12          12           1           1           1           1
 AtmWgt=  12.0000000  12.0000000  15.9949146  12.0000000  12.0000000   1.0078250   1.0078250   1.0078250   1.0078250
 NucSpn=           0           0           0           0           0           1           1           1           1
 AtZEff=   0.0000000   0.0000000   0.0000000   0.0000000   0.0000000   0.0000000   0.0000000   0.0000000   0.0000000
 NQMom=    0.0000000   0.0000000   0.0000000   0.0000000   0.0000000   0.0000000   0.0000000   0.0000000   0.0000000
 NMagM=    0.0000000   0.0000000   0.0000000   0.0000000   0.0000000   2.7928460   2.7928460   2.7928460   2.7928460
 AtZNuc=   6.0000000   6.0000000   8.0000000   6.0000000   6.0000000   1.0000000   1.0000000   1.0000000   1.0000000
 Leave Link  101 at Tue Dec  1 17:37:42 2015, MaxMem=    33554432 cpu:         0.0
 (Enter /home/Applications/g09/g09/l103.exe)

 GradGradGradGradGradGradGradGradGradGradGradGradGradGradGradGradGradGrad
 Berny optimization.
 Initialization pass.
                           ----------------------------
                           !    Initial Parameters    !
                           ! (Angstroms and Degrees)  !
 --------------------------                            --------------------------
 ! Name  Definition              Value          Derivative Info.                !
 --------------------------------------------------------------------------------
 ! R1    R(1,2)                  1.3962         estimate D2E/DX2                !
 ! R2    R(1,5)                  1.5007         estimate D2E/DX2                !
 ! R3    R(1,9)                  1.0522         estimate D2E/DX2                !
 ! R4    R(2,3)                  1.3221         estimate D2E/DX2                !
 ! R5    R(2,8)                  1.0716         estimate D2E/DX2                !
 ! R6    R(3,4)                  1.4039         estimate D2E/DX2                !
 ! R7    R(4,5)                  1.3331         estimate D2E/DX2                !
 ! R8    R(4,7)                  1.115          estimate D2E/DX2                !
 ! R9    R(5,6)                  1.0836         estimate D2E/DX2                !
 ! A1    A(2,1,5)              102.0077         estimate D2E/DX2                !
 ! A2    A(2,1,9)              129.6044         estimate D2E/DX2                !
 ! A3    A(5,1,9)              128.0461         estimate D2E/DX2                !
 ! A4    A(1,2,3)              114.1038         estimate D2E/DX2                !
 ! A5    A(1,2,8)              130.9598         estimate D2E/DX2                !
 ! A6    A(3,2,8)              114.7681         estimate D2E/DX2                !
 ! A7    A(2,3,4)              105.6675         estimate D2E/DX2                !
 ! A8    A(3,4,5)              111.5582         estimate D2E/DX2                !
 ! A9    A(3,4,7)              115.3522         estimate D2E/DX2                !
 ! A10   A(5,4,7)              133.051          estimate D2E/DX2                !
 ! A11   A(1,5,4)              106.543          estimate D2E/DX2                !
 ! A12   A(1,5,6)              123.7753         estimate D2E/DX2                !
 ! A13   A(4,5,6)              129.4896         estimate D2E/DX2                !
 ! D1    D(5,1,2,3)             -0.5019         estimate D2E/DX2                !
 ! D2    D(5,1,2,8)           -175.462          estimate D2E/DX2                !
 ! D3    D(9,1,2,3)            173.1039         estimate D2E/DX2                !
 ! D4    D(9,1,2,8)             -1.8562         estimate D2E/DX2                !
 ! D5    D(2,1,5,4)             -1.7206         estimate D2E/DX2                !
 ! D6    D(2,1,5,6)           -177.1048         estimate D2E/DX2                !
 ! D7    D(9,1,5,4)           -175.4654         estimate D2E/DX2                !
 ! D8    D(9,1,5,6)              9.1504         estimate D2E/DX2                !
 ! D9    D(1,2,3,4)              2.4086         estimate D2E/DX2                !
 ! D10   D(8,2,3,4)            178.2187         estimate D2E/DX2                !
 ! D11   D(2,3,4,5)             -3.6014         estimate D2E/DX2                !
 ! D12   D(2,3,4,7)            174.4385         estimate D2E/DX2                !
 ! D13   D(3,4,5,1)              3.2915         estimate D2E/DX2                !
 ! D14   D(3,4,5,6)            178.3191         estimate D2E/DX2                !
 ! D15   D(7,4,5,1)           -174.2843         estimate D2E/DX2                !
 ! D16   D(7,4,5,6)              0.7433         estimate D2E/DX2                !
 --------------------------------------------------------------------------------
 Trust Radius=3.00D-01 FncErr=1.00D-07 GrdErr=1.00D-07
 Number of steps in this run=     48 maximum allowed number of steps=    100.
 GradGradGradGradGradGradGradGradGradGradGradGradGradGradGradGradGradGrad

 Leave Link  103 at Tue Dec  1 17:37:42 2015, MaxMem=    33554432 cpu:         0.0
 (Enter /home/Applications/g09/g09/l202.exe)
                          Input orientation:                          
 ---------------------------------------------------------------------
 Center     Atomic      Atomic             Coordinates (Angstroms)
 Number     Number       Type             X           Y           Z
 ---------------------------------------------------------------------
      1          6           0        1.003608   -0.754198   -0.030507
      2          6           0       -0.354806   -1.076761   -0.043112
      3          8           0       -1.159121   -0.028881    0.011937
      4          6           0       -0.318033    1.095193    0.009504
      5          6           0        0.967992    0.744768    0.032351
      6          1           0        1.853012    1.369770    0.012417
      7          1           0       -0.837703    2.080213   -0.045028
      8          1           0       -0.851680   -2.025863   -0.018479
      9          1           0        1.842516   -1.386138    0.032801
 ---------------------------------------------------------------------
                    Distance matrix (angstroms):
                    1          2          3          4          5
     1  C    0.000000
     2  C    1.396243   0.000000
     3  O    2.281509   1.322122   0.000000
     4  C    2.273452   2.172902   1.403915   0.000000
     5  C    1.500706   2.252434   2.263528   1.333109   0.000000
     6  H    2.287918   3.295915   3.321019   2.188341   1.083644
     7  H    3.380018   3.193693   2.134205   1.115031   2.247206
     8  H    2.249304   1.071581   2.020738   3.166473   3.315145
     9  H    1.052199   2.220293   3.294299   3.290216   2.303379
                    6          7          8          9
     6  H    0.000000
     7  H    2.783519   0.000000
     8  H    4.341271   4.106186   0.000000
     9  H    2.756003   4.382376   2.769579   0.000000
 Stoichiometry    C4H4O
 Framework group  C1[X(C4H4O)]
 Deg. of freedom    21
 Full point group                 C1      NOp   1
 Largest Abelian subgroup         C1      NOp   1
 Largest concise Abelian subgroup C1      NOp   1
                         Standard orientation:                         
 ---------------------------------------------------------------------
 Center     Atomic      Atomic             Coordinates (Angstroms)
 Number     Number       Type             X           Y           Z
 ---------------------------------------------------------------------
      1          6           0       -0.548162    1.114029    0.018386
      2          6           0       -1.124186   -0.157852    0.021446
      3          8           0       -0.248288   -1.147374   -0.019232
      4          6           0        1.015438   -0.536283    0.004043
      5          6           0        0.917289    0.792984   -0.020360
      6          1           0        1.699279    1.542449    0.012491
      7          1           0        1.882154   -1.234400    0.072824
      8          1           0       -2.150128   -0.464450   -0.020102
      9          1           0       -1.007271    2.058129   -0.052447
 ---------------------------------------------------------------------
 Rotational constants (GHZ):      9.3493343      9.0241969      4.5942523
 Leave Link  202 at Tue Dec  1 17:37:42 2015, MaxMem=    33554432 cpu:         0.0
 (Enter /home/Applications/g09/g09/l301.exe)

 Semi-emprical parameters in input format:
 Method=8 CoreType=1 PeptideFC=0.0120930000 RIJScale=0.5388840000
 ****
 H       
 PQN=1 NValence=1 F0ss=0.5586300000 ZetaOverlap=1.0950750000 U=-0.4119510000
 Beta=-0.2338190000 CoreKO=1.1007910000 KON=0,0,0,0.9764370000 KON=1,0,1,1.1361190000
 KON=0,1,1,1.0139660000 KON=2,1,1,1.2635130000 EISol=-0.4188110042 EHeat=0.0830298228
 Alpha=1.4078420000
 GCore=0.0080140000,1.2229470000,2.2663690000
 GCore=0.0002960000,1.5853770000,2.7382840000
 GCore=-0.0012210000,0.6561060000,3.9519220000
 ****
 C       
 PQN=2,2 NValence=4 F0ss=0.4805700000 F0sp=0.4819370000 F0pp=0.3439950000 F2pp=0.1961420000
 G1sp=0.2678900000
 ZetaOverlap=1.8366850000,1.4875730000
 U=-1.4842670000,-1.3886060000
 Beta=-0.6376780000,-0.3536670000 DDN=0,1,0.9094820000 DDN=1,1,0.8346670000
 CoreKO=1.1045690000 KON=0,0,0,1.0182330000 KON=1,0,1,0.7342900000 KON=0,1,1,1.1944780000
 KON=2,1,1,0.7056720000 EISol=-4.4398989268 EHeat=0.2723305520 Alpha=1.4025920000
 DipHyp=1.8188593534
 GCore=0.0007870000,1.5590290000,2.8992300000
 GCore=0.0031100000,1.3744800000,3.7653660000
 GCore=-0.0013700000,1.3772400000,4.0631190000
 GCore=-0.0000820000,1.5210550000,5.3709760000
 ****
 O       
 PQN=2,2 NValence=6 F0ss=0.7455940000 F0sp=0.5814220000 F0pp=0.4393740000 F2pp=0.2294290000
 G1sp=0.3535640000
 ZetaOverlap=2.7714830000,2.5744810000
 U=-3.8069400000,-2.7329690000
 Beta=-1.1272460000,-1.1587550000 DDN=0,1,0.5172290000 DDN=1,1,0.4110560000
 CoreKO=0.8743200000 KON=0,0,0,0.8886000000 KON=1,0,1,0.5063100000 KON=0,1,1,0.8996480000
 KON=2,1,1,0.5582300000 EISol=-11.6164441184 EHeat=0.0949133088 Alpha=2.3820330000
 DipHyp=1.0343984867
 GCore=0.0192970000,1.5130470000,1.5620930000
 GCore=0.0058890000,1.6294880000,2.3818730000
 ****
 
 Standard basis: VSTO-6G (5D, 7F)
 Ernie: Thresh=  0.10000D-02 Tol=  0.10000D-05 Strict=F.
  NNHCO=     0 NNPyr=     0 NCTC=     0               EPep=         0.000000000
    EC=        68.329114458  ECS=         1.834488180   EG=         0.335910091
   EHC=         0.000000000  EAt=       -31.051283842  AtH=         1.516354808
 EPDDG=         0.000000000  ECC=        70.499512729 EAtT=        32.567638650
 There are    24 symmetry adapted cartesian basis functions of A   symmetry.
 There are    24 symmetry adapted basis functions of A   symmetry.
    24 basis functions,   144 primitive gaussians,    24 cartesian basis functions
    13 alpha electrons       13 beta electrons
       nuclear repulsion energy       103.0671513797 Hartrees.
 IExCor=    0 DFT=F Ex=HF Corr=None ExCW=0 ScaHFX=  1.000000
 ScaDFX=  1.000000  1.000000  1.000000  1.000000 ScalE2=  1.000000  1.000000
 IRadAn=      0 IRanWt=     -1 IRanGd=            0 ICorTp=0 IEmpDi=  4
 Integral buffers will be    131072 words long.
 Regular integral format.
 Two-electron integral symmetry is turned off.
 Leave Link  301 at Tue Dec  1 17:37:42 2015, MaxMem=    33554432 cpu:         0.0
 (Enter /home/Applications/g09/g09/l302.exe)
 Do NDO integrals.
 NPDir=0 NMtPBC=     1 NCelOv=     1 NCel=       1 NClECP=     1 NCelD=      1
         NCelK=      1 NCelE2=     1 NClLst=     1 CellRange=     0.0.
 One-electron integrals computed using PRISM.
 NBasis=    24 RedAO= F EigKep=  0.00D+00  NBF=    24
 NBsUse=    24 1.00D-04 EigRej=  0.00D+00 NBFU=    24
 Leave Link  302 at Tue Dec  1 17:37:42 2015, MaxMem=    33554432 cpu:         0.0
 (Enter /home/Applications/g09/g09/l303.exe)
 DipDrv:  MaxL=1.
 Leave Link  303 at Tue Dec  1 17:37:42 2015, MaxMem=    33554432 cpu:         0.0
 (Enter /home/Applications/g09/g09/l401.exe)
 Simple Huckel Guess.
 JPrj=0 DoOrth=F DoCkMO=F.
 Leave Link  401 at Tue Dec  1 17:37:42 2015, MaxMem=    33554432 cpu:         0.0
 (Enter /home/Applications/g09/g09/l502.exe)
 Closed shell SCF:
 Using DIIS extrapolation, IDIIS=  1040.
 Overlap will be assumed to be unity.
 Two-electron integral symmetry not used.
 Keep J ints in memory in canonical form, NReq=888082.
 IVT=       79475 IEndB=       79475 NGot=    33554432 MDV=    33473473
 LenX=    33473473 LenY=    33472456
 Requested convergence on RMS density matrix=1.00D-08 within 128 cycles.
 Requested convergence on MAX density matrix=1.00D-06.
 Requested convergence on             energy=1.00D-06.
 No special actions if energy rises.
 FoFCou: FMM=F IPFlag=           0 FMFlag=           0 FMFlg1=           0
         NFxFlg=           0 DoJE=F BraDBF=F KetDBF=F FulRan=T
         wScrn=  0.000000 ICntrl=     600 IOpCl=  2 I1Cent=           0 NGrid=           0
         NMat0=    1 NMatS0=     54 NMatT0=    0 NMatD0=    1 NMtDS0=    0 NMtDT0=    0
 Symmetry not used in FoFCou.

 Cycle   1  Pass 1  IDiag  1:
 E=  2.14201398027458    
 DIIS: error= 6.76D-02 at cycle   1 NSaved=   1.
 NSaved= 1 IEnMin= 1 EnMin=  2.14201398027458     IErMin= 1 ErrMin= 6.76D-02
 ErrMax= 6.76D-02  0.00D+00 EMaxC= 1.00D-01 BMatC= 1.67D-01 BMatP= 1.67D-01
 IDIUse=3 WtCom= 3.24D-01 WtEn= 6.76D-01
 Coeff-Com:  0.100D+01
 Coeff-En:   0.100D+01
 Coeff:      0.100D+01
 GapD=    2.000 DampG=2.000 DampE=0.500 DampFc=1.0000 IDamp=-1.
 RMSDP=1.81D-02 MaxDP=1.30D-01              OVMax= 0.00D+00

 Cycle   2  Pass 1  IDiag  1:
 E=  1.83451996600805     Delta-E=       -0.307494014267 Rises=F Damp=F
 DIIS: error= 1.62D-02 at cycle   2 NSaved=   2.
 NSaved= 2 IEnMin= 2 EnMin=  1.83451996600805     IErMin= 2 ErrMin= 1.62D-02
 ErrMax= 1.62D-02  0.00D+00 EMaxC= 1.00D-01 BMatC= 1.16D-02 BMatP= 1.67D-01
 IDIUse=3 WtCom= 8.38D-01 WtEn= 1.62D-01
 Coeff-Com: -0.306D+00 0.131D+01
 Coeff-En:   0.000D+00 0.100D+01
 Coeff:     -0.256D+00 0.126D+01
 RMSDP=6.77D-03 MaxDP=3.82D-02 DE=-3.07D-01 OVMax= 0.00D+00

 Cycle   3  Pass 1  IDiag  3:
 E=  1.80690732626579     Delta-E=       -0.027612639742 Rises=F Damp=F
 DIIS: error= 2.61D-03 at cycle   3 NSaved=   3.
 NSaved= 3 IEnMin= 3 EnMin=  1.80690732626579     IErMin= 3 ErrMin= 2.61D-03
 ErrMax= 2.61D-03  0.00D+00 EMaxC= 1.00D-01 BMatC= 4.33D-04 BMatP= 1.16D-02
 IDIUse=3 WtCom= 9.74D-01 WtEn= 2.61D-02
 Coeff-Com:  0.536D-01-0.369D+00 0.132D+01
 Coeff-En:   0.000D+00 0.000D+00 0.100D+01
 Coeff:      0.522D-01-0.360D+00 0.131D+01
 Gap=     0.424 Goal=   None    Shift=    0.000
 RMSDP=1.90D-03 MaxDP=1.24D-02 DE=-2.76D-02 OVMax= 1.14D-02

 Cycle   4  Pass 1  IDiag  3:
 E=  1.80530902306892     Delta-E=       -0.001598303197 Rises=F Damp=F
 DIIS: error= 1.05D-03 at cycle   4 NSaved=   4.
 NSaved= 4 IEnMin= 4 EnMin=  1.80530902306892     IErMin= 4 ErrMin= 1.05D-03
 ErrMax= 1.05D-03  0.00D+00 EMaxC= 1.00D-01 BMatC= 3.39D-05 BMatP= 4.33D-04
 IDIUse=3 WtCom= 9.89D-01 WtEn= 1.05D-02
 Coeff-Com:  0.367D-02 0.231D-01-0.392D+00 0.137D+01
 Coeff-En:   0.000D+00 0.000D+00 0.000D+00 0.100D+01
 Coeff:      0.364D-02 0.228D-01-0.388D+00 0.136D+01
 Gap=     0.425 Goal=   None    Shift=    0.000
 RMSDP=7.09D-04 MaxDP=5.86D-03 DE=-1.60D-03 OVMax= 5.45D-03

 Cycle   5  Pass 1  IDiag  3:
 E=  1.80514174667096     Delta-E=       -0.000167276398 Rises=F Damp=F
 DIIS: error= 3.46D-04 at cycle   5 NSaved=   5.
 NSaved= 5 IEnMin= 5 EnMin=  1.80514174667096     IErMin= 5 ErrMin= 3.46D-04
 ErrMax= 3.46D-04  0.00D+00 EMaxC= 1.00D-01 BMatC= 2.50D-06 BMatP= 3.39D-05
 IDIUse=3 WtCom= 9.97D-01 WtEn= 3.46D-03
 Coeff-Com: -0.407D-02 0.127D-01 0.535D-01-0.518D+00 0.146D+01
 Coeff-En:   0.000D+00 0.000D+00 0.000D+00 0.000D+00 0.100D+01
 Coeff:     -0.406D-02 0.127D-01 0.534D-01-0.516D+00 0.145D+01
 Gap=     0.424 Goal=   None    Shift=    0.000
 RMSDP=2.39D-04 MaxDP=2.09D-03 DE=-1.67D-04 OVMax= 1.96D-03

 Cycle   6  Pass 1  IDiag  3:
 E=  1.80512790214957     Delta-E=       -0.000013844521 Rises=F Damp=F
 DIIS: error= 3.99D-05 at cycle   6 NSaved=   6.
 NSaved= 6 IEnMin= 6 EnMin=  1.80512790214957     IErMin= 6 ErrMin= 3.99D-05
 ErrMax= 3.99D-05  0.00D+00 EMaxC= 1.00D-01 BMatC= 1.07D-07 BMatP= 2.50D-06
 IDIUse=1 WtCom= 1.00D+00 WtEn= 0.00D+00
 Coeff-Com:  0.210D-02-0.940D-02 0.295D-02 0.149D+00-0.623D+00 0.148D+01
 Coeff:      0.210D-02-0.940D-02 0.295D-02 0.149D+00-0.623D+00 0.148D+01
 Gap=     0.424 Goal=   None    Shift=    0.000
 RMSDP=4.68D-05 MaxDP=3.44D-04 DE=-1.38D-05 OVMax= 4.34D-04

 Cycle   7  Pass 1  IDiag  3:
 E=  1.80512736486756     Delta-E=       -0.000000537282 Rises=F Damp=F
 DIIS: error= 9.70D-06 at cycle   7 NSaved=   7.
 NSaved= 7 IEnMin= 7 EnMin=  1.80512736486756     IErMin= 7 ErrMin= 9.70D-06
 ErrMax= 9.70D-06  0.00D+00 EMaxC= 1.00D-01 BMatC= 3.78D-09 BMatP= 1.07D-07
 IDIUse=1 WtCom= 1.00D+00 WtEn= 0.00D+00
 Coeff-Com: -0.222D-03 0.125D-02-0.204D-02-0.129D-01 0.814D-01-0.370D+00
 Coeff-Com:  0.130D+01
 Coeff:     -0.222D-03 0.125D-02-0.204D-02-0.129D-01 0.814D-01-0.370D+00
 Coeff:      0.130D+01
 Gap=     0.424 Goal=   None    Shift=    0.000
 RMSDP=7.92D-06 MaxDP=4.41D-05 DE=-5.37D-07 OVMax= 8.29D-05

 Cycle   8  Pass 1  IDiag  3:
 E=  1.80512734884879     Delta-E=       -0.000000016019 Rises=F Damp=F
 DIIS: error= 1.15D-06 at cycle   8 NSaved=   8.
 NSaved= 8 IEnMin= 8 EnMin=  1.80512734884879     IErMin= 8 ErrMin= 1.15D-06
 ErrMax= 1.15D-06  0.00D+00 EMaxC= 1.00D-01 BMatC= 1.01D-10 BMatP= 3.78D-09
 IDIUse=1 WtCom= 1.00D+00 WtEn= 0.00D+00
 Coeff-Com:  0.217D-04-0.217D-03 0.954D-03-0.105D-02-0.662D-02 0.707D-01
 Coeff-Com: -0.380D+00 0.132D+01
 Coeff:      0.217D-04-0.217D-03 0.954D-03-0.105D-02-0.662D-02 0.707D-01
 Coeff:     -0.380D+00 0.132D+01
 Gap=     0.424 Goal=   None    Shift=    0.000
 RMSDP=1.04D-06 MaxDP=7.55D-06 DE=-1.60D-08 OVMax= 9.85D-06

 Cycle   9  Pass 1  IDiag  3:
 E=  1.80512734847021     Delta-E=       -0.000000000379 Rises=F Damp=F
 DIIS: error= 3.24D-07 at cycle   9 NSaved=   9.
 NSaved= 9 IEnMin= 9 EnMin=  1.80512734847021     IErMin= 9 ErrMin= 3.24D-07
 ErrMax= 3.24D-07  0.00D+00 EMaxC= 1.00D-01 BMatC= 4.58D-12 BMatP= 1.01D-10
 IDIUse=1 WtCom= 1.00D+00 WtEn= 0.00D+00
 Coeff-Com: -0.429D-05 0.581D-04-0.279D-03 0.354D-03 0.199D-02-0.258D-01
 Coeff-Com:  0.152D+00-0.668D+00 0.154D+01
 Coeff:     -0.429D-05 0.581D-04-0.279D-03 0.354D-03 0.199D-02-0.258D-01
 Coeff:      0.152D+00-0.668D+00 0.154D+01
 Gap=     0.424 Goal=   None    Shift=    0.000
 RMSDP=3.07D-07 MaxDP=2.67D-06 DE=-3.79D-10 OVMax= 3.42D-06

 Cycle  10  Pass 1  IDiag  3:
 E=  1.80512734844730     Delta-E=       -0.000000000023 Rises=F Damp=F
 DIIS: error= 6.11D-08 at cycle  10 NSaved=  10.
 NSaved=10 IEnMin=10 EnMin=  1.80512734844730     IErMin=10 ErrMin= 6.11D-08
 ErrMax= 6.11D-08  0.00D+00 EMaxC= 1.00D-01 BMatC= 1.17D-13 BMatP= 4.58D-12
 IDIUse=1 WtCom= 1.00D+00 WtEn= 0.00D+00
 Coeff-Com:  0.168D-05-0.225D-04 0.107D-03-0.132D-03-0.761D-03 0.948D-02
 Coeff-Com: -0.557D-01 0.248D+00-0.658D+00 0.146D+01
 Coeff:      0.168D-05-0.225D-04 0.107D-03-0.132D-03-0.761D-03 0.948D-02
 Coeff:     -0.557D-01 0.248D+00-0.658D+00 0.146D+01
 Gap=     0.424 Goal=   None    Shift=    0.000
 RMSDP=5.44D-08 MaxDP=4.67D-07 DE=-2.29D-11 OVMax= 6.59D-07

 Cycle  11  Pass 1  IDiag  3:
 E=  1.80512734844680     Delta-E=        0.000000000000 Rises=F Damp=F
 DIIS: error= 1.04D-08 at cycle  11 NSaved=  11.
 NSaved=11 IEnMin=11 EnMin=  1.80512734844680     IErMin=11 ErrMin= 1.04D-08
 ErrMax= 1.04D-08  0.00D+00 EMaxC= 1.00D-01 BMatC= 3.80D-15 BMatP= 1.17D-13
 IDIUse=1 WtCom= 1.00D+00 WtEn= 0.00D+00
 Coeff-Com: -0.761D-06 0.941D-05-0.431D-04 0.473D-04 0.322D-03-0.380D-02
 Coeff-Com:  0.222D-01-0.991D-01 0.267D+00-0.682D+00 0.150D+01
 Coeff:     -0.761D-06 0.941D-05-0.431D-04 0.473D-04 0.322D-03-0.380D-02
 Coeff:      0.222D-01-0.991D-01 0.267D+00-0.682D+00 0.150D+01
 Gap=     0.424 Goal=   None    Shift=    0.000
 RMSDP=1.02D-08 MaxDP=8.37D-08 DE=-4.97D-13 OVMax= 9.76D-08

 Cycle  12  Pass 1  IDiag  3:
 E=  1.80512734844689     Delta-E=        0.000000000000 Rises=F Damp=F
 DIIS: error= 2.55D-09 at cycle  12 NSaved=  12.
 NSaved=12 IEnMin=11 EnMin=  1.80512734844680     IErMin=12 ErrMin= 2.55D-09
 ErrMax= 2.55D-09  0.00D+00 EMaxC= 1.00D-01 BMatC= 1.68D-16 BMatP= 3.80D-15
 IDIUse=1 WtCom= 1.00D+00 WtEn= 0.00D+00
 Coeff-Com:  0.286D-06-0.328D-05 0.143D-04-0.126D-04-0.118D-03 0.127D-02
 Coeff-Com: -0.731D-02 0.328D-01-0.878D-01 0.229D+00-0.620D+00 0.145D+01
 Coeff:      0.286D-06-0.328D-05 0.143D-04-0.126D-04-0.118D-03 0.127D-02
 Coeff:     -0.731D-02 0.328D-01-0.878D-01 0.229D+00-0.620D+00 0.145D+01
 Gap=     0.424 Goal=   None    Shift=    0.000
 RMSDP=2.01D-09 MaxDP=1.81D-08 DE= 8.53D-14 OVMax= 1.91D-08

 Cycle  13  Pass 2  IDiag  1:
 SCF Done:  E(RAM1) =   1.80512734845     A.U. after   13 cycles
            NFock= 12  Conv=0.20D-08     -V/T= 1.1395
 KE=-1.294010098776D+01 PE=-1.703394706438D+02 EE= 8.201754760030D+01
 Leave Link  502 at Tue Dec  1 17:37:42 2015, MaxMem=    33554432 cpu:         0.0
 (Enter /home/Applications/g09/g09/l601.exe)
 Copying SCF densities to generalized density rwf, IOpCl= 0 IROHF=0.

 **********************************************************************

            Population analysis using the SCF density.

 **********************************************************************

 Orbital symmetries:
       Occupied  (A) (A) (A) (A) (A) (A) (A) (A) (A) (A) (A) (A)
                 (A)
       Virtual   (A) (A) (A) (A) (A) (A) (A) (A) (A) (A) (A)
 The electronic state is 1-A.
 Alpha  occ. eigenvalues --   -1.53066  -1.08010  -0.89268  -0.86091  -0.77062
 Alpha  occ. eigenvalues --   -0.70952  -0.69968  -0.57609  -0.56337  -0.55264
 Alpha  occ. eigenvalues --   -0.51533  -0.46871  -0.40192
 Alpha virt. eigenvalues --    0.02250   0.05877   0.12806   0.14384   0.20176
 Alpha virt. eigenvalues --    0.20333   0.21259   0.40129   0.47784   0.58334
 Alpha virt. eigenvalues --    0.66315
          Condensed to atoms (all electrons):
               1          2          3          4          5          6
     1  C    4.076073   0.000000   0.000000   0.000000   0.000000   0.000000
     2  C    0.000000   3.616200   0.000000   0.000000   0.000000   0.000000
     3  O    0.000000   0.000000   6.291193   0.000000   0.000000   0.000000
     4  C    0.000000   0.000000   0.000000   3.671460   0.000000   0.000000
     5  C    0.000000   0.000000   0.000000   0.000000   4.043212   0.000000
     6  H    0.000000   0.000000   0.000000   0.000000   0.000000   1.046887
     7  H    0.000000   0.000000   0.000000   0.000000   0.000000   0.000000
     8  H    0.000000   0.000000   0.000000   0.000000   0.000000   0.000000
     9  H    0.000000   0.000000   0.000000   0.000000   0.000000   0.000000
               7          8          9
     1  C    0.000000   0.000000   0.000000
     2  C    0.000000   0.000000   0.000000
     3  O    0.000000   0.000000   0.000000
     4  C    0.000000   0.000000   0.000000
     5  C    0.000000   0.000000   0.000000
     6  H    0.000000   0.000000   0.000000
     7  H    1.083328   0.000000   0.000000
     8  H    0.000000   1.096773   0.000000
     9  H    0.000000   0.000000   1.074874
 Mulliken charges:
               1
     1  C   -0.076073
     2  C    0.383800
     3  O   -0.291193
     4  C    0.328540
     5  C   -0.043212
     6  H   -0.046887
     7  H   -0.083328
     8  H   -0.096773
     9  H   -0.074874
 Sum of Mulliken charges =   0.00000
 Mulliken charges with hydrogens summed into heavy atoms:
               1
     1  C   -0.150947
     2  C    0.287027
     3  O   -0.291193
     4  C    0.245211
     5  C   -0.090099
 Charge=              0.0000 electrons
 Dipole moment (field-independent basis, Debye):
    X=              0.1666    Y=              0.0983    Z=              0.0672  Tot=              0.2048
 N-N= 1.030671513797D+02 E-N=-1.703394706376D+02  KE=-1.294010098776D+01
 Leave Link  601 at Tue Dec  1 17:37:42 2015, MaxMem=    33554432 cpu:         0.0
 (Enter /home/Applications/g09/g09/l701.exe)
 Compute integral first derivatives.
 ... and contract with generalized density number  0.
 Leave Link  701 at Tue Dec  1 17:37:42 2015, MaxMem=    33554432 cpu:         0.0
 (Enter /home/Applications/g09/g09/l702.exe)
 L702 exits ... SP integral derivatives will be done elsewhere.
 Leave Link  702 at Tue Dec  1 17:37:42 2015, MaxMem=    33554432 cpu:         0.0
 (Enter /home/Applications/g09/g09/l703.exe)
 Compute integral first derivatives, UseDBF=F ICtDFT=           0.
 Integral derivatives from FoFJK, PRISM(SPDF).
 Calling FoFJK, ICntrl=      2127 FMM=F ISym2X=0 I1Cent= 0 IOpClX= 0 NMat=1 NMatS=1 NMatT=0.
 FoFJK:  IHMeth= 8 ICntrl=    2127 DoSepK=F KAlg= 0 I1Cent=   0 FoldK=F
 IRaf=         0 NMat=   1 IRICut=       1 DoRegI=T DoRafI=F ISym2E= 0.
 FoFCou: FMM=F IPFlag=           0 FMFlag=      100000 FMFlg1=         800
         NFxFlg=           0 DoJE=F BraDBF=F KetDBF=F FulRan=T
         wScrn=  0.000000 ICntrl=    2127 IOpCl=  0 I1Cent=           0 NGrid=           0
         NMat0=    1 NMatS0=      1 NMatT0=    0 NMatD0=    1 NMtDS0=    0 NMtDT0=    0
 Symmetry not used in FoFCou.
 Leave Link  703 at Tue Dec  1 17:37:42 2015, MaxMem=    33554432 cpu:         0.0
 (Enter /home/Applications/g09/g09/l716.exe)
 Dipole        = 6.55477030D-02 3.86909383D-02 2.64425587D-02
 ***** Axes restored to original set *****
 -------------------------------------------------------------------
 Center     Atomic                   Forces (Hartrees/Bohr)
 Number     Number              X              Y              Z
 -------------------------------------------------------------------
      1        6          -0.175378481    0.133255094    0.016983639
      2        6           0.144739428   -0.004150910    0.012175373
      3        8           0.052189524    0.073720896   -0.008360231
      4        6           0.025160676   -0.032566888    0.001797135
      5        6          -0.075822947   -0.128396465   -0.021739309
      6        1          -0.010696782   -0.007481546    0.003247702
      7        1           0.022566401   -0.031344819    0.005919556
      8        1           0.012482821   -0.001400847   -0.004790054
      9        1           0.004759359   -0.001634515   -0.005233811
 -------------------------------------------------------------------
 Cartesian Forces:  Max     0.175378481 RMS     0.062209856
 Leave Link  716 at Tue Dec  1 17:37:42 2015, MaxMem=    33554432 cpu:         0.0
 (Enter /home/Applications/g09/g09/l103.exe)

 GradGradGradGradGradGradGradGradGradGradGradGradGradGradGradGradGradGrad
 Berny optimization.
 FormGI is forming the generalized inverse of G from B-inverse, IUseBI=4.
 Internal  Forces:  Max     0.158060867 RMS     0.041743975
 Search for a local minimum.
 Step number   1 out of a maximum of   48
 All quantities printed in internal units (Hartrees-Bohrs-Radians)
 RMS Force = .41744D-01 SwitMx=.10000D-02 MixMth= 1
 Mixed Optimization -- RFO/linear search
 Second derivative matrix not updated -- first step.
 ITU=  0
     Eigenvalues ---    0.01357   0.01812   0.01950   0.02286   0.02365
     Eigenvalues ---    0.02708   0.15799   0.15919   0.15961   0.15990
     Eigenvalues ---    0.21992   0.22893   0.31435   0.32073   0.35558
     Eigenvalues ---    0.37031   0.39574   0.41450   0.44953   0.54601
     Eigenvalues ---    0.59836
 RFO step:  Lambda=-1.26589914D-01 EMin= 1.35682827D-02
 Linear search not attempted -- first point.
 Maximum step size (   0.300) exceeded in Quadratic search.
    -- Step size scaled by   0.603
 Iteration  1 RMS(Cart)=  0.05987833 RMS(Int)=  0.00118811
 Iteration  2 RMS(Cart)=  0.00121931 RMS(Int)=  0.00050921
 Iteration  3 RMS(Cart)=  0.00000087 RMS(Int)=  0.00050921
 ITry= 1 IFail=0 DXMaxC= 1.47D-01 DCOld= 1.00D+10 DXMaxT= 3.00D-01 DXLimC= 3.00D+00 Rises=F
 Variable       Old X    -DE/DX   Delta X   Delta X   Delta X     New X
                                 (Linear)    (Quad)   (Total)
    R1        2.63852  -0.15806   0.00000  -0.16204  -0.16167   2.47684
    R2        2.83592  -0.14345   0.00000  -0.19724  -0.19634   2.63958
    R3        1.98837   0.00446   0.00000   0.00515   0.00515   1.99352
    R4        2.49845   0.01146   0.00000   0.01196   0.01133   2.50978
    R5        2.02499  -0.00466   0.00000  -0.00565  -0.00565   2.01934
    R6        2.65301  -0.07537   0.00000  -0.07624  -0.07703   2.57598
    R7        2.51921  -0.09581   0.00000  -0.08218  -0.08204   2.43718
    R8        2.10710  -0.03850   0.00000  -0.05190  -0.05190   2.05521
    R9        2.04779  -0.01311   0.00000  -0.01640  -0.01640   2.03139
    A1        1.78037   0.03259   0.00000   0.04926   0.05048   1.83085
    A2        2.26202  -0.01481   0.00000  -0.02098  -0.02165   2.24037
    A3        2.23483  -0.01725   0.00000  -0.02631  -0.02702   2.20781
    A4        1.99149  -0.02202   0.00000  -0.03464  -0.03477   1.95672
    A5        2.28568  -0.00065   0.00000  -0.00692  -0.00691   2.27877
    A6        2.00308   0.02290   0.00000   0.04272   0.04274   2.04582
    A7        1.84425  -0.01434   0.00000  -0.01145  -0.01325   1.83099
    A8        1.94706  -0.01579   0.00000  -0.02727  -0.02772   1.91934
    A9        2.01328   0.01350   0.00000   0.02538   0.02560   2.03888
   A10        2.32218   0.00225   0.00000   0.00175   0.00198   2.32416
   A11        1.85953   0.01984   0.00000   0.02529   0.02628   1.88580
   A12        2.16029  -0.00950   0.00000  -0.01146  -0.01201   2.14827
   A13        2.26002  -0.01004   0.00000  -0.01259  -0.01313   2.24689
    D1       -0.00876  -0.00059   0.00000  -0.00075  -0.00064  -0.00940
    D2       -3.06239  -0.00502   0.00000  -0.01987  -0.01983  -3.08222
    D3        3.02123   0.00389   0.00000   0.01691   0.01709   3.03833
    D4       -0.03240  -0.00054   0.00000  -0.00220  -0.00210  -0.03449
    D5       -0.03003   0.00263   0.00000   0.01080   0.01098  -0.01905
    D6       -3.09106  -0.00066   0.00000  -0.00370  -0.00366  -3.09472
    D7       -3.06245  -0.00188   0.00000  -0.00683  -0.00664  -3.06909
    D8        0.15970  -0.00518   0.00000  -0.02133  -0.02129   0.13842
    D9        0.04204  -0.00210   0.00000  -0.00944  -0.00967   0.03237
   D10        3.11050   0.00077   0.00000   0.00455   0.00472   3.11522
   D11       -0.06286   0.00501   0.00000   0.01862   0.01843  -0.04442
   D12        3.04453   0.00409   0.00000   0.01522   0.01507   3.05960
   D13        0.05745  -0.00415   0.00000  -0.01768  -0.01770   0.03975
   D14        3.11226  -0.00043   0.00000  -0.00183  -0.00172   3.11053
   D15       -3.04184  -0.00319   0.00000  -0.01392  -0.01403  -3.05587
   D16        0.01297   0.00052   0.00000   0.00194   0.00194   0.01491
         Item               Value     Threshold  Converged?
 Maximum Force            0.158061     0.000450     NO 
 RMS     Force            0.041744     0.000300     NO 
 Maximum Displacement     0.146716     0.001800     NO 
 RMS     Displacement     0.060390     0.001200     NO 
 Predicted change in Energy=-5.918826D-02
 Lowest energy point so far.  Saving SCF results.
 GradGradGradGradGradGradGradGradGradGradGradGradGradGradGradGradGradGrad

 Leave Link  103 at Tue Dec  1 17:37:42 2015, MaxMem=    33554432 cpu:         0.0
 (Enter /home/Applications/g09/g09/l202.exe)
                          Input orientation:                          
 ---------------------------------------------------------------------
 Center     Atomic      Atomic             Coordinates (Angstroms)
 Number     Number       Type             X           Y           Z
 ---------------------------------------------------------------------
      1          6           0        0.939604   -0.701923   -0.022646
      2          6           0       -0.322723   -1.054336   -0.038132
      3          8           0       -1.135355   -0.004788    0.006267
      4          6           0       -0.308562    1.078993    0.010070
      5          6           0        0.922250    0.693993    0.024106
      6          1           0        1.814673    1.292952    0.004562
      7          1           0       -0.781646    2.057226   -0.035264
      8          1           0       -0.774041   -2.022834   -0.023718
      9          1           0        1.791585   -1.321180    0.036640
 ---------------------------------------------------------------------
                    Distance matrix (angstroms):
                    1          2          3          4          5
     1  C    0.000000
     2  C    1.310688   0.000000
     3  O    2.189129   1.328116   0.000000
     4  C    2.175005   2.133920   1.363150   0.000000
     5  C    1.396806   2.147203   2.173096   1.289698   0.000000
     6  H    2.178534   3.174909   3.222855   2.133996   1.074967
     7  H    3.252040   3.145224   2.092542   1.087568   2.182932
     8  H    2.163651   1.068590   2.050355   3.136740   3.203254
     9  H    1.054925   2.132392   3.209484   3.189381   2.194726
                    6          7          8          9
     6  H    0.000000
     7  H    2.706764   0.000000
     8  H    4.206742   4.080083   0.000000
     9  H    2.614431   4.247389   2.660526   0.000000
 Stoichiometry    C4H4O
 Framework group  C1[X(C4H4O)]
 Deg. of freedom    21
 Full point group                 C1      NOp   1
 RotChk:  IX=0 Diff= 3.50D-01
 Largest Abelian subgroup         C1      NOp   1
 Largest concise Abelian subgroup C1      NOp   1
                         Standard orientation:                         
 ---------------------------------------------------------------------
 Center     Atomic      Atomic             Coordinates (Angstroms)
 Number     Number       Type             X           Y           Z
 ---------------------------------------------------------------------
      1          6           0       -0.754855    0.889024    0.013265
      2          6           0       -1.036385   -0.391061    0.018447
      3          8           0        0.057427   -1.143634   -0.014782
      4          6           0        1.093282   -0.257652    0.000056
      5          6           0        0.640360    0.949817   -0.014093
      6          1           0        1.188211    1.874159    0.017609
      7          1           0        2.095701   -0.675642    0.057005
      8          1           0       -1.977872   -0.895634   -0.011396
      9          1           0       -1.419866    1.705415   -0.051013
 ---------------------------------------------------------------------
 Rotational constants (GHZ):      9.9384924      9.7950932      4.9347943
 Leave Link  202 at Tue Dec  1 17:37:42 2015, MaxMem=    33554432 cpu:         0.0
 (Enter /home/Applications/g09/g09/l301.exe)

 Semi-emprical parameters in input format:
 Method=8 CoreType=1 PeptideFC=0.0120930000 RIJScale=0.5388840000
 ****
 H       
 PQN=1 NValence=1 F0ss=0.5586300000 ZetaOverlap=1.0950750000 U=-0.4119510000
 Beta=-0.2338190000 CoreKO=1.1007910000 KON=0,0,0,0.9764370000 KON=1,0,1,1.1361190000
 KON=0,1,1,1.0139660000 KON=2,1,1,1.2635130000 EISol=-0.4188110042 EHeat=0.0830298228
 Alpha=1.4078420000
 GCore=0.0080140000,1.2229470000,2.2663690000
 GCore=0.0002960000,1.5853770000,2.7382840000
 GCore=-0.0012210000,0.6561060000,3.9519220000
 ****
 C       
 PQN=2,2 NValence=4 F0ss=0.4805700000 F0sp=0.4819370000 F0pp=0.3439950000 F2pp=0.1961420000
 G1sp=0.2678900000
 ZetaOverlap=1.8366850000,1.4875730000
 U=-1.4842670000,-1.3886060000
 Beta=-0.6376780000,-0.3536670000 DDN=0,1,0.9094820000 DDN=1,1,0.8346670000
 CoreKO=1.1045690000 KON=0,0,0,1.0182330000 KON=1,0,1,0.7342900000 KON=0,1,1,1.1944780000
 KON=2,1,1,0.7056720000 EISol=-4.4398989268 EHeat=0.2723305520 Alpha=1.4025920000
 DipHyp=1.8188593534
 GCore=0.0007870000,1.5590290000,2.8992300000
 GCore=0.0031100000,1.3744800000,3.7653660000
 GCore=-0.0013700000,1.3772400000,4.0631190000
 GCore=-0.0000820000,1.5210550000,5.3709760000
 ****
 O       
 PQN=2,2 NValence=6 F0ss=0.7455940000 F0sp=0.5814220000 F0pp=0.4393740000 F2pp=0.2294290000
 G1sp=0.3535640000
 ZetaOverlap=2.7714830000,2.5744810000
 U=-3.8069400000,-2.7329690000
 Beta=-1.1272460000,-1.1587550000 DDN=0,1,0.5172290000 DDN=1,1,0.4110560000
 CoreKO=0.8743200000 KON=0,0,0,0.8886000000 KON=1,0,1,0.5063100000 KON=0,1,1,0.8996480000
 KON=2,1,1,0.5582300000 EISol=-11.6164441184 EHeat=0.0949133088 Alpha=2.3820330000
 DipHyp=1.0343984867
 GCore=0.0192970000,1.5130470000,1.5620930000
 GCore=0.0058890000,1.6294880000,2.3818730000
 ****
 
 Standard basis: VSTO-6G (5D, 7F)
 Ernie: Thresh=  0.10000D-02 Tol=  0.10000D-05 Strict=F.
  NNHCO=     0 NNPyr=     0 NCTC=     0               EPep=         0.000000000
    EC=        69.884210004  ECS=         2.074696891   EG=         0.356629050
   EHC=         0.000000000  EAt=       -31.051283842  AtH=         1.516354808
 EPDDG=         0.000000000  ECC=        72.315535945 EAtT=        32.567638650
 There are    24 symmetry adapted cartesian basis functions of A   symmetry.
 There are    24 symmetry adapted basis functions of A   symmetry.
    24 basis functions,   144 primitive gaussians,    24 cartesian basis functions
    13 alpha electrons       13 beta electrons
       nuclear repulsion energy       104.8831745952 Hartrees.
 IExCor=    0 DFT=F Ex=HF Corr=None ExCW=0 ScaHFX=  1.000000
 ScaDFX=  1.000000  1.000000  1.000000  1.000000 ScalE2=  1.000000  1.000000
 IRadAn=      0 IRanWt=     -1 IRanGd=            0 ICorTp=0 IEmpDi=  4
 Integral buffers will be    131072 words long.
 Regular integral format.
 Two-electron integral symmetry is turned off.
 Leave Link  301 at Tue Dec  1 17:37:42 2015, MaxMem=    33554432 cpu:         0.0
 (Enter /home/Applications/g09/g09/l302.exe)
 Do NDO integrals.
 NPDir=0 NMtPBC=     1 NCelOv=     1 NCel=       1 NClECP=     1 NCelD=      1
         NCelK=      1 NCelE2=     1 NClLst=     1 CellRange=     0.0.
 One-electron integrals computed using PRISM.
 NBasis=    24 RedAO= F EigKep=  0.00D+00  NBF=    24
 NBsUse=    24 1.00D-04 EigRej=  0.00D+00 NBFU=    24
 Leave Link  302 at Tue Dec  1 17:37:42 2015, MaxMem=    33554432 cpu:         0.0
 (Enter /home/Applications/g09/g09/l303.exe)
 DipDrv:  MaxL=1.
 Leave Link  303 at Tue Dec  1 17:37:42 2015, MaxMem=    33554432 cpu:         0.0
 (Enter /home/Applications/g09/g09/l401.exe)
 Initial guess from the checkpoint file:  "/home/Applications/g09/scratch/Gau-23875.chk"
 B after Tr=     0.000000    0.000000    0.000000
         Rot=    0.992190    0.000117   -0.000115   -0.124738 Ang=  14.33 deg.
 Guess basis will be translated and rotated to current coordinates.
 JPrj=0 DoOrth=T DoCkMO=T.
 Leave Link  401 at Tue Dec  1 17:37:42 2015, MaxMem=    33554432 cpu:         0.0
 (Enter /home/Applications/g09/g09/l502.exe)
 Closed shell SCF:
 Using DIIS extrapolation, IDIIS=  1040.
 Overlap will be assumed to be unity.
 Two-electron integral symmetry not used.
 Keep J ints in memory in canonical form, NReq=888082.
 IVT=       79475 IEndB=       79475 NGot=    33554432 MDV=    33473473
 LenX=    33473473 LenY=    33472456
 Requested convergence on RMS density matrix=1.00D-08 within 128 cycles.
 Requested convergence on MAX density matrix=1.00D-06.
 Requested convergence on             energy=1.00D-06.
 No special actions if energy rises.
 FoFCou: FMM=F IPFlag=           0 FMFlag=           0 FMFlg1=           0
         NFxFlg=           0 DoJE=F BraDBF=F KetDBF=F FulRan=T
         wScrn=  0.000000 ICntrl=     600 IOpCl=  2 I1Cent=           0 NGrid=           0
         NMat0=    1 NMatS0=     54 NMatT0=    0 NMatD0=    1 NMtDS0=    0 NMtDT0=    0
 Symmetry not used in FoFCou.

 Cycle   1  Pass 1  IDiag  1:
 E=  1.76562247339658    
 DIIS: error= 8.67D-03 at cycle   1 NSaved=   1.
 NSaved= 1 IEnMin= 1 EnMin=  1.76562247339658     IErMin= 1 ErrMin= 8.67D-03
 ErrMax= 8.67D-03  0.00D+00 EMaxC= 1.00D-01 BMatC= 3.79D-03 BMatP= 3.79D-03
 IDIUse=3 WtCom= 9.13D-01 WtEn= 8.67D-02
 Coeff-Com:  0.100D+01
 Coeff-En:   0.100D+01
 Coeff:      0.100D+01
 GapD=    2.000 DampG=2.000 DampE=1.000 DampFc=2.0000 IDamp=-1.
 RMSDP=3.07D-03 MaxDP=1.63D-02              OVMax= 0.00D+00

 Cycle   2  Pass 1  IDiag  3:
 E=  1.75816491839402     Delta-E=       -0.007457555003 Rises=F Damp=F
 DIIS: error= 1.77D-03 at cycle   2 NSaved=   2.
 NSaved= 2 IEnMin= 2 EnMin=  1.75816491839402     IErMin= 2 ErrMin= 1.77D-03
 ErrMax= 1.77D-03  0.00D+00 EMaxC= 1.00D-01 BMatC= 1.89D-04 BMatP= 3.79D-03
 IDIUse=3 WtCom= 9.82D-01 WtEn= 1.77D-02
 Coeff-Com: -0.246D+00 0.125D+01
 Coeff-En:   0.000D+00 0.100D+01
 Coeff:     -0.241D+00 0.124D+01
 Gap=     0.441 Goal=   None    Shift=    0.000
 RMSDP=1.02D-03 MaxDP=4.59D-03 DE=-7.46D-03 OVMax= 4.44D-03

 Cycle   3  Pass 1  IDiag  3:
 E=  1.75765952779479     Delta-E=       -0.000505390599 Rises=F Damp=F
 DIIS: error= 3.09D-04 at cycle   3 NSaved=   3.
 NSaved= 3 IEnMin= 3 EnMin=  1.75765952779479     IErMin= 3 ErrMin= 3.09D-04
 ErrMax= 3.09D-04  0.00D+00 EMaxC= 1.00D-01 BMatC= 4.83D-06 BMatP= 1.89D-04
 IDIUse=3 WtCom= 9.97D-01 WtEn= 3.09D-03
 Coeff-Com:  0.814D-01-0.471D+00 0.139D+01
 Coeff-En:   0.000D+00 0.000D+00 0.100D+01
 Coeff:      0.811D-01-0.470D+00 0.139D+01
 Gap=     0.441 Goal=   None    Shift=    0.000
 RMSDP=2.60D-04 MaxDP=1.58D-03 DE=-5.05D-04 OVMax= 2.05D-03

 Cycle   4  Pass 1  IDiag  3:
 E=  1.75763814408472     Delta-E=       -0.000021383710 Rises=F Damp=F
 DIIS: error= 8.01D-05 at cycle   4 NSaved=   4.
 NSaved= 4 IEnMin= 4 EnMin=  1.75763814408472     IErMin= 4 ErrMin= 8.01D-05
 ErrMax= 8.01D-05  0.00D+00 EMaxC= 1.00D-01 BMatC= 2.30D-07 BMatP= 4.83D-06
 IDIUse=1 WtCom= 1.00D+00 WtEn= 0.00D+00
 Coeff-Com: -0.319D-01 0.192D+00-0.692D+00 0.153D+01
 Coeff:     -0.319D-01 0.192D+00-0.692D+00 0.153D+01
 Gap=     0.441 Goal=   None    Shift=    0.000
 RMSDP=7.88D-05 MaxDP=7.37D-04 DE=-2.14D-05 OVMax= 8.37D-04

 Cycle   5  Pass 1  IDiag  3:
 E=  1.75763675076733     Delta-E=       -0.000001393317 Rises=F Damp=F
 DIIS: error= 2.12D-05 at cycle   5 NSaved=   5.
 NSaved= 5 IEnMin= 5 EnMin=  1.75763675076733     IErMin= 5 ErrMin= 2.12D-05
 ErrMax= 2.12D-05  0.00D+00 EMaxC= 1.00D-01 BMatC= 1.21D-08 BMatP= 2.30D-07
 IDIUse=1 WtCom= 1.00D+00 WtEn= 0.00D+00
 Coeff-Com:  0.113D-01-0.690D-01 0.266D+00-0.736D+00 0.153D+01
 Coeff:      0.113D-01-0.690D-01 0.266D+00-0.736D+00 0.153D+01
 Gap=     0.441 Goal=   None    Shift=    0.000
 RMSDP=1.85D-05 MaxDP=1.99D-04 DE=-1.39D-06 OVMax= 2.20D-04

 Cycle   6  Pass 1  IDiag  3:
 E=  1.75763668062356     Delta-E=       -0.000000070144 Rises=F Damp=F
 DIIS: error= 3.20D-06 at cycle   6 NSaved=   6.
 NSaved= 6 IEnMin= 6 EnMin=  1.75763668062356     IErMin= 6 ErrMin= 3.20D-06
 ErrMax= 3.20D-06  0.00D+00 EMaxC= 1.00D-01 BMatC= 4.35D-10 BMatP= 1.21D-08
 IDIUse=1 WtCom= 1.00D+00 WtEn= 0.00D+00
 Coeff-Com: -0.151D-02 0.900D-02-0.347D-01 0.106D+00-0.354D+00 0.128D+01
 Coeff:     -0.151D-02 0.900D-02-0.347D-01 0.106D+00-0.354D+00 0.128D+01
 Gap=     0.441 Goal=   None    Shift=    0.000
 RMSDP=3.04D-06 MaxDP=2.91D-05 DE=-7.01D-08 OVMax= 3.69D-05

 Cycle   7  Pass 1  IDiag  3:
 E=  1.75763667836841     Delta-E=       -0.000000002255 Rises=F Damp=F
 DIIS: error= 6.62D-07 at cycle   7 NSaved=   7.
 NSaved= 7 IEnMin= 7 EnMin=  1.75763667836841     IErMin= 7 ErrMin= 6.62D-07
 ErrMax= 6.62D-07  0.00D+00 EMaxC= 1.00D-01 BMatC= 2.59D-11 BMatP= 4.35D-10
 IDIUse=1 WtCom= 1.00D+00 WtEn= 0.00D+00
 Coeff-Com: -0.203D-03 0.122D-02-0.449D-02 0.102D-01 0.602D-02-0.307D+00
 Coeff-Com:  0.129D+01
 Coeff:     -0.203D-03 0.122D-02-0.449D-02 0.102D-01 0.602D-02-0.307D+00
 Coeff:      0.129D+01
 Gap=     0.441 Goal=   None    Shift=    0.000
 RMSDP=7.11D-07 MaxDP=5.92D-06 DE=-2.26D-09 OVMax= 7.71D-06

 Cycle   8  Pass 1  IDiag  3:
 E=  1.75763667823875     Delta-E=       -0.000000000130 Rises=F Damp=F
 DIIS: error= 1.48D-07 at cycle   8 NSaved=   8.
 NSaved= 8 IEnMin= 8 EnMin=  1.75763667823875     IErMin= 8 ErrMin= 1.48D-07
 ErrMax= 1.48D-07  0.00D+00 EMaxC= 1.00D-01 BMatC= 1.39D-12 BMatP= 2.59D-11
 IDIUse=1 WtCom= 1.00D+00 WtEn= 0.00D+00
 Coeff-Com:  0.152D-03-0.915D-03 0.348D-02-0.944D-02 0.162D-01 0.559D-01
 Coeff-Com: -0.506D+00 0.144D+01
 Coeff:      0.152D-03-0.915D-03 0.348D-02-0.944D-02 0.162D-01 0.559D-01
 Coeff:     -0.506D+00 0.144D+01
 Gap=     0.441 Goal=   None    Shift=    0.000
 RMSDP=1.66D-07 MaxDP=1.18D-06 DE=-1.30D-10 OVMax= 1.39D-06

 Cycle   9  Pass 1  IDiag  3:
 E=  1.75763667823200     Delta-E=       -0.000000000007 Rises=F Damp=F
 DIIS: error= 2.62D-08 at cycle   9 NSaved=   9.
 NSaved= 9 IEnMin= 9 EnMin=  1.75763667823200     IErMin= 9 ErrMin= 2.62D-08
 ErrMax= 2.62D-08  0.00D+00 EMaxC= 1.00D-01 BMatC= 3.67D-14 BMatP= 1.39D-12
 IDIUse=1 WtCom= 1.00D+00 WtEn= 0.00D+00
 Coeff-Com: -0.572D-04 0.342D-03-0.130D-02 0.354D-02-0.680D-02-0.132D-01
 Coeff-Com:  0.166D+00-0.574D+00 0.143D+01
 Coeff:     -0.572D-04 0.342D-03-0.130D-02 0.354D-02-0.680D-02-0.132D-01
 Coeff:      0.166D+00-0.574D+00 0.143D+01
 Gap=     0.441 Goal=   None    Shift=    0.000
 RMSDP=2.72D-08 MaxDP=1.90D-07 DE=-6.75D-12 OVMax= 2.11D-07

 Cycle  10  Pass 1  IDiag  3:
 E=  1.75763667823200     Delta-E=        0.000000000000 Rises=F Damp=F
 DIIS: error= 5.26D-09 at cycle  10 NSaved=  10.
 NSaved=10 IEnMin= 9 EnMin=  1.75763667823200     IErMin=10 ErrMin= 5.26D-09
 ErrMax= 5.26D-09  0.00D+00 EMaxC= 1.00D-01 BMatC= 1.56D-15 BMatP= 3.67D-14
 IDIUse=1 WtCom= 1.00D+00 WtEn= 0.00D+00
 Coeff-Com:  0.173D-04-0.103D-03 0.380D-03-0.101D-02 0.196D-02 0.310D-02
 Coeff-Com: -0.439D-01 0.157D+00-0.525D+00 0.141D+01
 Coeff:      0.173D-04-0.103D-03 0.380D-03-0.101D-02 0.196D-02 0.310D-02
 Coeff:     -0.439D-01 0.157D+00-0.525D+00 0.141D+01
 Gap=     0.441 Goal=   None    Shift=    0.000
 RMSDP=5.70D-09 MaxDP=4.01D-08 DE= 0.00D+00 OVMax= 4.13D-08

 Cycle  11  Pass 2  IDiag  1:
 SCF Done:  E(RAM1) =   1.75763667823     A.U. after   11 cycles
            NFock= 10  Conv=0.57D-08     -V/T= 1.1334
 KE=-1.318035399521D+01 PE=-1.733423073818D+02 EE= 8.339712346002D+01
 Leave Link  502 at Tue Dec  1 17:37:42 2015, MaxMem=    33554432 cpu:         0.0
 (Enter /home/Applications/g09/g09/l701.exe)
 Compute integral first derivatives.
 ... and contract with generalized density number  0.
 Leave Link  701 at Tue Dec  1 17:37:42 2015, MaxMem=    33554432 cpu:         0.0
 (Enter /home/Applications/g09/g09/l702.exe)
 L702 exits ... SP integral derivatives will be done elsewhere.
 Leave Link  702 at Tue Dec  1 17:37:42 2015, MaxMem=    33554432 cpu:         0.0
 (Enter /home/Applications/g09/g09/l703.exe)
 Compute integral first derivatives, UseDBF=F ICtDFT=           0.
 Integral derivatives from FoFJK, PRISM(SPDF).
 Calling FoFJK, ICntrl=      2127 FMM=F ISym2X=0 I1Cent= 0 IOpClX= 0 NMat=1 NMatS=1 NMatT=0.
 FoFJK:  IHMeth= 8 ICntrl=    2127 DoSepK=F KAlg= 0 I1Cent=   0 FoldK=F
 IRaf=         0 NMat=   1 IRICut=       1 DoRegI=T DoRafI=F ISym2E= 0.
 FoFCou: FMM=F IPFlag=           0 FMFlag=      100000 FMFlg1=         800
         NFxFlg=           0 DoJE=F BraDBF=F KetDBF=F FulRan=T
         wScrn=  0.000000 ICntrl=    2127 IOpCl=  0 I1Cent=           0 NGrid=           0
         NMat0=    1 NMatS0=      1 NMatT0=    0 NMatD0=    1 NMtDS0=    0 NMtDT0=    0
 Symmetry not used in FoFCou.
 Leave Link  703 at Tue Dec  1 17:37:42 2015, MaxMem=    33554432 cpu:         0.0
 (Enter /home/Applications/g09/g09/l716.exe)
 Dipole        = 1.87627081D-02 1.32847525D-01 1.75044287D-02
 ***** Axes restored to original set *****
 -------------------------------------------------------------------
 Center     Atomic                   Forces (Hartrees/Bohr)
 Number     Number              X              Y              Z
 -------------------------------------------------------------------
      1        6          -0.044022853    0.053375498    0.011113770
      2        6           0.033640089   -0.032309198    0.009102331
      3        8          -0.003173632    0.033386967   -0.006245365
      4        6          -0.021570251    0.014070687   -0.000504671
      5        6           0.006644931   -0.048500417   -0.012797594
      6        1           0.001867242    0.003790224    0.002867715
      7        1           0.010236898   -0.011954222    0.004504608
      8        1           0.003039936   -0.003083962   -0.003693186
      9        1           0.013337640   -0.008775577   -0.004347607
 -------------------------------------------------------------------
 Cartesian Forces:  Max     0.053375498 RMS     0.021218991
 Leave Link  716 at Tue Dec  1 17:37:42 2015, MaxMem=    33554432 cpu:         0.0
 (Enter /home/Applications/g09/g09/l103.exe)

 GradGradGradGradGradGradGradGradGradGradGradGradGradGradGradGradGradGrad
 Berny optimization.
 Using GEDIIS/GDIIS optimizer.
 FormGI is forming the generalized inverse of G from B-inverse, IUseBI=4.
 Internal  Forces:  Max     0.037041391 RMS     0.010440138
 Search for a local minimum.
 Step number   2 out of a maximum of   48
 All quantities printed in internal units (Hartrees-Bohrs-Radians)
 RMS Force = .10440D-01 SwitMx=.10000D-02 MixMth= 1
 Mixed Optimization -- RFO/linear search
 Update second derivatives using D2CorX and points    1    2
 DE= -4.75D-02 DEPred=-5.92D-02 R= 8.02D-01
 TightC=F SS=  1.41D+00  RLast= 3.04D-01 DXNew= 5.0454D-01 9.1224D-01
 Trust test= 8.02D-01 RLast= 3.04D-01 DXMaxT set to 5.05D-01
 ITU=  1  0
 Use linear search instead of GDIIS.
     Eigenvalues ---    0.01350   0.01777   0.01942   0.02290   0.02373
     Eigenvalues ---    0.02701   0.15874   0.15935   0.15973   0.16019
     Eigenvalues ---    0.21947   0.22827   0.31978   0.33267   0.35795
     Eigenvalues ---    0.37055   0.39411   0.41282   0.49748   0.56011
     Eigenvalues ---    0.87825
 RFO step:  Lambda=-8.66342864D-03 EMin= 1.35005335D-02
 Quartic linear search produced a step of  0.20964.
 Iteration  1 RMS(Cart)=  0.03559849 RMS(Int)=  0.00266372
 Iteration  2 RMS(Cart)=  0.00243114 RMS(Int)=  0.00123489
 Iteration  3 RMS(Cart)=  0.00000369 RMS(Int)=  0.00123489
 Iteration  4 RMS(Cart)=  0.00000000 RMS(Int)=  0.00123489
 ITry= 1 IFail=0 DXMaxC= 7.79D-02 DCOld= 1.00D+10 DXMaxT= 5.05D-01 DXLimC= 3.00D+00 Rises=F
 Variable       Old X    -DE/DX   Delta X   Delta X   Delta X     New X
                                 (Linear)    (Quad)   (Total)
    R1        2.47684  -0.02139  -0.03389   0.01280  -0.01990   2.45694
    R2        2.63958  -0.03704  -0.04116  -0.04682  -0.08710   2.55248
    R3        1.99352   0.01568   0.00108   0.04445   0.04553   2.03905
    R4        2.50978   0.02912   0.00237   0.05522   0.05748   2.56725
    R5        2.01934   0.00146  -0.00118   0.00726   0.00607   2.02542
    R6        2.57598  -0.01019  -0.01615   0.01068  -0.00674   2.56924
    R7        2.43718   0.00448  -0.01720   0.04019   0.02235   2.45952
    R8        2.05521  -0.01539  -0.01088  -0.03100  -0.04188   2.01333
    R9        2.03139   0.00361  -0.00344   0.01964   0.01621   2.04760
    A1        1.83085   0.01482   0.01058   0.03613   0.04672   1.87757
    A2        2.24037  -0.00673  -0.00454  -0.01078  -0.01846   2.22191
    A3        2.20781  -0.00777  -0.00566  -0.01549  -0.02430   2.18351
    A4        1.95672  -0.01155  -0.00729  -0.03543  -0.04359   1.91314
    A5        2.27877   0.00182  -0.00145   0.00899   0.00490   2.28367
    A6        2.04582   0.00994   0.00896   0.03301   0.03927   2.08509
    A7        1.83099  -0.00365  -0.00278   0.01037   0.00608   1.83708
    A8        1.91934  -0.00610  -0.00581  -0.01302  -0.02028   1.89906
    A9        2.03888   0.00717   0.00537   0.02782   0.03389   2.07277
   A10        2.32416  -0.00107   0.00041  -0.01466  -0.01351   2.31065
   A11        1.88580   0.00665   0.00551   0.00633   0.01071   1.89651
   A12        2.14827  -0.00093  -0.00252   0.01568   0.01137   2.15964
   A13        2.24689  -0.00552  -0.00275  -0.01583  -0.02029   2.22660
    D1       -0.00940   0.00022  -0.00013   0.01237   0.01211   0.00271
    D2       -3.08222  -0.00388  -0.00416  -0.10891  -0.11263   3.08834
    D3        3.03833   0.00371   0.00358   0.12318   0.12652  -3.11834
    D4       -0.03449  -0.00040  -0.00044   0.00191   0.00179  -0.03270
    D5       -0.01905   0.00195   0.00230   0.04534   0.04793   0.02889
    D6       -3.09472  -0.00079  -0.00077  -0.04544  -0.04735   3.14111
    D7       -3.06909  -0.00148  -0.00139  -0.06299  -0.06359  -3.13268
    D8        0.13842  -0.00422  -0.00446  -0.15377  -0.15888  -0.02046
    D9        0.03237  -0.00207  -0.00203  -0.06112  -0.06377  -0.03140
   D10        3.11522   0.00122   0.00099   0.04186   0.04358  -3.12438
   D11       -0.04442   0.00361   0.00386   0.09032   0.09364   0.04921
   D12        3.05960   0.00334   0.00316   0.09328   0.09572  -3.12786
   D13        0.03975  -0.00320  -0.00371  -0.08487  -0.08870  -0.04896
   D14        3.11053   0.00002  -0.00036   0.01430   0.01292   3.12345
   D15       -3.05587  -0.00309  -0.00294  -0.08978  -0.09256   3.13475
   D16        0.01491   0.00013   0.00041   0.00939   0.00906   0.02398
         Item               Value     Threshold  Converged?
 Maximum Force            0.037041     0.000450     NO 
 RMS     Force            0.010440     0.000300     NO 
 Maximum Displacement     0.077899     0.001800     NO 
 RMS     Displacement     0.035364     0.001200     NO 
 Predicted change in Energy=-7.469598D-03
 Lowest energy point so far.  Saving SCF results.
 GradGradGradGradGradGradGradGradGradGradGradGradGradGradGradGradGradGrad

 Leave Link  103 at Tue Dec  1 17:37:42 2015, MaxMem=    33554432 cpu:         0.0
 (Enter /home/Applications/g09/g09/l202.exe)
                          Input orientation:                          
 ---------------------------------------------------------------------
 Center     Atomic      Atomic             Coordinates (Angstroms)
 Number     Number       Type             X           Y           Z
 ---------------------------------------------------------------------
      1          6           0        0.913145   -0.677027    0.015673
      2          6           0       -0.326135   -1.069909    0.000230
      3          8           0       -1.147113    0.011924   -0.034955
      4          6           0       -0.319799    1.090206    0.001378
      5          6           0        0.913196    0.673515   -0.005951
      6          1           0        1.814127    1.275466    0.000646
      7          1           0       -0.748397    2.065587   -0.003990
      8          1           0       -0.749093   -2.054113   -0.034598
      9          1           0        1.795853   -1.297546    0.023450
 ---------------------------------------------------------------------
                    Distance matrix (angstroms):
                    1          2          3          4          5
     1  C    0.000000
     2  C    1.300157   0.000000
     3  O    2.172989   1.358531   0.000000
     4  C    2.154871   2.160124   1.359581   0.000000
     5  C    1.350715   2.139043   2.164121   1.301523   0.000000
     6  H    2.150400   3.175138   3.219744   2.141952   1.083543
     7  H    3.206718   3.163804   2.092239   1.065408   2.167663
     8  H    2.159150   1.071804   2.104027   3.173693   3.194367
     9  H    1.079017   2.134289   3.221673   3.190271   2.159868
                    6          7          8          9
     6  H    0.000000
     7  H    2.681574   0.000000
     8  H    4.202075   4.119814   0.000000
     9  H    2.573178   4.217182   2.655656   0.000000
 Stoichiometry    C4H4O
 Framework group  C1[X(C4H4O)]
 Deg. of freedom    21
 Full point group                 C1      NOp   1
 RotChk:  IX=0 Diff= 4.50D-02
 Largest Abelian subgroup         C1      NOp   1
 Largest concise Abelian subgroup C1      NOp   1
                         Standard orientation:                         
 ---------------------------------------------------------------------
 Center     Atomic      Atomic             Coordinates (Angstroms)
 Number     Number       Type             X           Y           Z
 ---------------------------------------------------------------------
      1          6           0       -0.754178    0.854362   -0.007187
      2          6           0       -1.044960   -0.412858   -0.009819
      3          8           0        0.100130   -1.143561    0.011379
      4          6           0        1.107477   -0.230838   -0.014109
      5          6           0        0.591943    0.963935    0.012411
      6          1           0        1.118634    1.910837    0.018479
      7          1           0        2.114486   -0.578718   -0.016657
      8          1           0       -1.991421   -0.914935    0.020111
      9          1           0       -1.444427    1.683694   -0.000741
 ---------------------------------------------------------------------
 Rotational constants (GHZ):      9.9674610      9.8401301      4.9525707
 Leave Link  202 at Tue Dec  1 17:37:42 2015, MaxMem=    33554432 cpu:         0.0
 (Enter /home/Applications/g09/g09/l301.exe)

 Semi-emprical parameters in input format:
 Method=8 CoreType=1 PeptideFC=0.0120930000 RIJScale=0.5388840000
 ****
 H       
 PQN=1 NValence=1 F0ss=0.5586300000 ZetaOverlap=1.0950750000 U=-0.4119510000
 Beta=-0.2338190000 CoreKO=1.1007910000 KON=0,0,0,0.9764370000 KON=1,0,1,1.1361190000
 KON=0,1,1,1.0139660000 KON=2,1,1,1.2635130000 EISol=-0.4188110042 EHeat=0.0830298228
 Alpha=1.4078420000
 GCore=0.0080140000,1.2229470000,2.2663690000
 GCore=0.0002960000,1.5853770000,2.7382840000
 GCore=-0.0012210000,0.6561060000,3.9519220000
 ****
 C       
 PQN=2,2 NValence=4 F0ss=0.4805700000 F0sp=0.4819370000 F0pp=0.3439950000 F2pp=0.1961420000
 G1sp=0.2678900000
 ZetaOverlap=1.8366850000,1.4875730000
 U=-1.4842670000,-1.3886060000
 Beta=-0.6376780000,-0.3536670000 DDN=0,1,0.9094820000 DDN=1,1,0.8346670000
 CoreKO=1.1045690000 KON=0,0,0,1.0182330000 KON=1,0,1,0.7342900000 KON=0,1,1,1.1944780000
 KON=2,1,1,0.7056720000 EISol=-4.4398989268 EHeat=0.2723305520 Alpha=1.4025920000
 DipHyp=1.8188593534
 GCore=0.0007870000,1.5590290000,2.8992300000
 GCore=0.0031100000,1.3744800000,3.7653660000
 GCore=-0.0013700000,1.3772400000,4.0631190000
 GCore=-0.0000820000,1.5210550000,5.3709760000
 ****
 O       
 PQN=2,2 NValence=6 F0ss=0.7455940000 F0sp=0.5814220000 F0pp=0.4393740000 F2pp=0.2294290000
 G1sp=0.3535640000
 ZetaOverlap=2.7714830000,2.5744810000
 U=-3.8069400000,-2.7329690000
 Beta=-1.1272460000,-1.1587550000 DDN=0,1,0.5172290000 DDN=1,1,0.4110560000
 CoreKO=0.8743200000 KON=0,0,0,0.8886000000 KON=1,0,1,0.5063100000 KON=0,1,1,0.8996480000
 KON=2,1,1,0.5582300000 EISol=-11.6164441184 EHeat=0.0949133088 Alpha=2.3820330000
 DipHyp=1.0343984867
 GCore=0.0192970000,1.5130470000,1.5620930000
 GCore=0.0058890000,1.6294880000,2.3818730000
 ****
 
 Standard basis: VSTO-6G (5D, 7F)
 Ernie: Thresh=  0.10000D-02 Tol=  0.10000D-05 Strict=F.
  NNHCO=     0 NNPyr=     0 NCTC=     0               EPep=         0.000000000
    EC=        69.918818058  ECS=         2.082642031   EG=         0.347133262
   EHC=         0.000000000  EAt=       -31.051283842  AtH=         1.516354808
 EPDDG=         0.000000000  ECC=        72.348593352 EAtT=        32.567638650
 There are    24 symmetry adapted cartesian basis functions of A   symmetry.
 There are    24 symmetry adapted basis functions of A   symmetry.
    24 basis functions,   144 primitive gaussians,    24 cartesian basis functions
    13 alpha electrons       13 beta electrons
       nuclear repulsion energy       104.9162320023 Hartrees.
 IExCor=    0 DFT=F Ex=HF Corr=None ExCW=0 ScaHFX=  1.000000
 ScaDFX=  1.000000  1.000000  1.000000  1.000000 ScalE2=  1.000000  1.000000
 IRadAn=      0 IRanWt=     -1 IRanGd=            0 ICorTp=0 IEmpDi=  4
 Integral buffers will be    131072 words long.
 Regular integral format.
 Two-electron integral symmetry is turned off.
 Leave Link  301 at Tue Dec  1 17:37:42 2015, MaxMem=    33554432 cpu:         0.0
 (Enter /home/Applications/g09/g09/l302.exe)
 Do NDO integrals.
 NPDir=0 NMtPBC=     1 NCelOv=     1 NCel=       1 NClECP=     1 NCelD=      1
         NCelK=      1 NCelE2=     1 NClLst=     1 CellRange=     0.0.
 One-electron integrals computed using PRISM.
 NBasis=    24 RedAO= F EigKep=  0.00D+00  NBF=    24
 NBsUse=    24 1.00D-04 EigRej=  0.00D+00 NBFU=    24
 Leave Link  302 at Tue Dec  1 17:37:42 2015, MaxMem=    33554432 cpu:         0.0
 (Enter /home/Applications/g09/g09/l303.exe)
 DipDrv:  MaxL=1.
 Leave Link  303 at Tue Dec  1 17:37:42 2015, MaxMem=    33554432 cpu:         0.0
 (Enter /home/Applications/g09/g09/l401.exe)
 Initial guess from the checkpoint file:  "/home/Applications/g09/scratch/Gau-23875.chk"
 B after Tr=     0.000000    0.000000    0.000000
         Rot=    0.999905    0.000023    0.000046   -0.013791 Ang=   1.58 deg.
 Guess basis will be translated and rotated to current coordinates.
 JPrj=0 DoOrth=T DoCkMO=T.
 Leave Link  401 at Tue Dec  1 17:37:42 2015, MaxMem=    33554432 cpu:         0.0
 (Enter /home/Applications/g09/g09/l502.exe)
 Closed shell SCF:
 Using DIIS extrapolation, IDIIS=  1040.
 Overlap will be assumed to be unity.
 Two-electron integral symmetry not used.
 Keep J ints in memory in canonical form, NReq=888082.
 IVT=       79475 IEndB=       79475 NGot=    33554432 MDV=    33473473
 LenX=    33473473 LenY=    33472456
 Requested convergence on RMS density matrix=1.00D-08 within 128 cycles.
 Requested convergence on MAX density matrix=1.00D-06.
 Requested convergence on             energy=1.00D-06.
 No special actions if energy rises.
 FoFCou: FMM=F IPFlag=           0 FMFlag=           0 FMFlg1=           0
         NFxFlg=           0 DoJE=F BraDBF=F KetDBF=F FulRan=T
         wScrn=  0.000000 ICntrl=     600 IOpCl=  2 I1Cent=           0 NGrid=           0
         NMat0=    1 NMatS0=     54 NMatT0=    0 NMatD0=    1 NMtDS0=    0 NMtDT0=    0
 Symmetry not used in FoFCou.

 Cycle   1  Pass 1  IDiag  1:
 E=  1.76019150350376    
 DIIS: error= 6.67D-03 at cycle   1 NSaved=   1.
 NSaved= 1 IEnMin= 1 EnMin=  1.76019150350376     IErMin= 1 ErrMin= 6.67D-03
 ErrMax= 6.67D-03  0.00D+00 EMaxC= 1.00D-01 BMatC= 2.97D-03 BMatP= 2.97D-03
 IDIUse=3 WtCom= 9.33D-01 WtEn= 6.67D-02
 Coeff-Com:  0.100D+01
 Coeff-En:   0.100D+01
 Coeff:      0.100D+01
 GapD=    2.000 DampG=2.000 DampE=1.000 DampFc=2.0000 IDamp=-1.
 RMSDP=2.99D-03 MaxDP=1.04D-02              OVMax= 0.00D+00

 Cycle   2  Pass 1  IDiag  3:
 E=  1.75355897068589     Delta-E=       -0.006632532818 Rises=F Damp=F
 DIIS: error= 2.00D-03 at cycle   2 NSaved=   2.
 NSaved= 2 IEnMin= 2 EnMin=  1.75355897068589     IErMin= 2 ErrMin= 2.00D-03
 ErrMax= 2.00D-03  0.00D+00 EMaxC= 1.00D-01 BMatC= 2.08D-04 BMatP= 2.97D-03
 IDIUse=3 WtCom= 9.80D-01 WtEn= 2.00D-02
 Coeff-Com: -0.309D+00 0.131D+01
 Coeff-En:   0.000D+00 0.100D+01
 Coeff:     -0.303D+00 0.130D+01
 Gap=     0.435 Goal=   None    Shift=    0.000
 RMSDP=1.29D-03 MaxDP=5.16D-03 DE=-6.63D-03 OVMax= 8.39D-03

 Cycle   3  Pass 1  IDiag  3:
 E=  1.75286716457097     Delta-E=       -0.000691806115 Rises=F Damp=F
 DIIS: error= 3.58D-04 at cycle   3 NSaved=   3.
 NSaved= 3 IEnMin= 3 EnMin=  1.75286716457097     IErMin= 3 ErrMin= 3.58D-04
 ErrMax= 3.58D-04  0.00D+00 EMaxC= 1.00D-01 BMatC= 6.86D-06 BMatP= 2.08D-04
 IDIUse=3 WtCom= 9.96D-01 WtEn= 3.58D-03
 Coeff-Com:  0.131D+00-0.633D+00 0.150D+01
 Coeff-En:   0.000D+00 0.000D+00 0.100D+01
 Coeff:      0.130D+00-0.631D+00 0.150D+01
 Gap=     0.435 Goal=   None    Shift=    0.000
 RMSDP=3.71D-04 MaxDP=1.65D-03 DE=-6.92D-04 OVMax= 3.13D-03

 Cycle   4  Pass 1  IDiag  3:
 E=  1.75283117150616     Delta-E=       -0.000035993065 Rises=F Damp=F
 DIIS: error= 6.23D-05 at cycle   4 NSaved=   4.
 NSaved= 4 IEnMin= 4 EnMin=  1.75283117150616     IErMin= 4 ErrMin= 6.23D-05
 ErrMax= 6.23D-05  0.00D+00 EMaxC= 1.00D-01 BMatC= 2.03D-07 BMatP= 6.86D-06
 IDIUse=1 WtCom= 1.00D+00 WtEn= 0.00D+00
 Coeff-Com: -0.426D-01 0.211D+00-0.596D+00 0.143D+01
 Coeff:     -0.426D-01 0.211D+00-0.596D+00 0.143D+01
 Gap=     0.435 Goal=   None    Shift=    0.000
 RMSDP=6.86D-05 MaxDP=5.46D-04 DE=-3.60D-05 OVMax= 5.26D-04

 Cycle   5  Pass 1  IDiag  3:
 E=  1.75283004717183     Delta-E=       -0.000001124334 Rises=F Damp=F
 DIIS: error= 1.98D-05 at cycle   5 NSaved=   5.
 NSaved= 5 IEnMin= 5 EnMin=  1.75283004717183     IErMin= 5 ErrMin= 1.98D-05
 ErrMax= 1.98D-05  0.00D+00 EMaxC= 1.00D-01 BMatC= 8.74D-09 BMatP= 2.03D-07
 IDIUse=1 WtCom= 1.00D+00 WtEn= 0.00D+00
 Coeff-Com:  0.113D-01-0.568D-01 0.175D+00-0.566D+00 0.144D+01
 Coeff:      0.113D-01-0.568D-01 0.175D+00-0.566D+00 0.144D+01
 Gap=     0.435 Goal=   None    Shift=    0.000
 RMSDP=1.47D-05 MaxDP=1.64D-04 DE=-1.12D-06 OVMax= 1.29D-04

 Cycle   6  Pass 1  IDiag  3:
 E=  1.75282999578629     Delta-E=       -0.000000051386 Rises=F Damp=F
 DIIS: error= 3.65D-06 at cycle   6 NSaved=   6.
 NSaved= 6 IEnMin= 6 EnMin=  1.75282999578629     IErMin= 6 ErrMin= 3.65D-06
 ErrMax= 3.65D-06  0.00D+00 EMaxC= 1.00D-01 BMatC= 5.50D-10 BMatP= 8.74D-09
 IDIUse=1 WtCom= 1.00D+00 WtEn= 0.00D+00
 Coeff-Com: -0.284D-02 0.143D-01-0.443D-01 0.161D+00-0.596D+00 0.147D+01
 Coeff:     -0.284D-02 0.143D-01-0.443D-01 0.161D+00-0.596D+00 0.147D+01
 Gap=     0.435 Goal=   None    Shift=    0.000
 RMSDP=3.90D-06 MaxDP=3.94D-05 DE=-5.14D-08 OVMax= 3.60D-05

 Cycle   7  Pass 1  IDiag  3:
 E=  1.75282999245512     Delta-E=       -0.000000003331 Rises=F Damp=F
 DIIS: error= 6.26D-07 at cycle   7 NSaved=   7.
 NSaved= 7 IEnMin= 7 EnMin=  1.75282999245512     IErMin= 7 ErrMin= 6.26D-07
 ErrMax= 6.26D-07  0.00D+00 EMaxC= 1.00D-01 BMatC= 2.63D-11 BMatP= 5.50D-10
 IDIUse=1 WtCom= 1.00D+00 WtEn= 0.00D+00
 Coeff-Com: -0.165D-03 0.842D-03-0.238D-02 0.253D-02 0.412D-01-0.333D+00
 Coeff-Com:  0.129D+01
 Coeff:     -0.165D-03 0.842D-03-0.238D-02 0.253D-02 0.412D-01-0.333D+00
 Coeff:      0.129D+01
 Gap=     0.435 Goal=   None    Shift=    0.000
 RMSDP=7.79D-07 MaxDP=6.59D-06 DE=-3.33D-09 OVMax= 6.53D-06

 Cycle   8  Pass 1  IDiag  3:
 E=  1.75282999231291     Delta-E=       -0.000000000142 Rises=F Damp=F
 DIIS: error= 1.40D-07 at cycle   8 NSaved=   8.
 NSaved= 8 IEnMin= 8 EnMin=  1.75282999231291     IErMin= 8 ErrMin= 1.40D-07
 ErrMax= 1.40D-07  0.00D+00 EMaxC= 1.00D-01 BMatC= 1.27D-12 BMatP= 2.63D-11
 IDIUse=1 WtCom= 1.00D+00 WtEn= 0.00D+00
 Coeff-Com:  0.191D-03-0.967D-03 0.297D-02-0.903D-02 0.170D-01 0.293D-01
 Coeff-Com: -0.401D+00 0.136D+01
 Coeff:      0.191D-03-0.967D-03 0.297D-02-0.903D-02 0.170D-01 0.293D-01
 Coeff:     -0.401D+00 0.136D+01
 Gap=     0.435 Goal=   None    Shift=    0.000
 RMSDP=1.55D-07 MaxDP=9.69D-07 DE=-1.42D-10 OVMax= 9.66D-07

 Cycle   9  Pass 1  IDiag  3:
 E=  1.75282999230706     Delta-E=       -0.000000000006 Rises=F Damp=F
 DIIS: error= 2.90D-08 at cycle   9 NSaved=   9.
 NSaved= 9 IEnMin= 9 EnMin=  1.75282999230706     IErMin= 9 ErrMin= 2.90D-08
 ErrMax= 2.90D-08  0.00D+00 EMaxC= 1.00D-01 BMatC= 4.55D-14 BMatP= 1.27D-12
 IDIUse=1 WtCom= 1.00D+00 WtEn= 0.00D+00
 Coeff-Com: -0.720D-04 0.365D-03-0.113D-02 0.356D-02-0.780D-02-0.279D-02
 Coeff-Com:  0.129D+00-0.572D+00 0.145D+01
 Coeff:     -0.720D-04 0.365D-03-0.113D-02 0.356D-02-0.780D-02-0.279D-02
 Coeff:      0.129D+00-0.572D+00 0.145D+01
 Gap=     0.435 Goal=   None    Shift=    0.000
 RMSDP=2.92D-08 MaxDP=1.97D-07 DE=-5.85D-12 OVMax= 1.77D-07

 Cycle  10  Pass 1  IDiag  3:
 E=  1.75282999230673     Delta-E=        0.000000000000 Rises=F Damp=F
 DIIS: error= 6.83D-09 at cycle  10 NSaved=  10.
 NSaved=10 IEnMin=10 EnMin=  1.75282999230673     IErMin=10 ErrMin= 6.83D-09
 ErrMax= 6.83D-09  0.00D+00 EMaxC= 1.00D-01 BMatC= 1.44D-15 BMatP= 4.55D-14
 IDIUse=1 WtCom= 1.00D+00 WtEn= 0.00D+00
 Coeff-Com:  0.156D-04-0.791D-04 0.245D-03-0.782D-03 0.171D-02 0.411D-03
 Coeff-Com: -0.290D-01 0.137D+00-0.460D+00 0.135D+01
 Coeff:      0.156D-04-0.791D-04 0.245D-03-0.782D-03 0.171D-02 0.411D-03
 Coeff:     -0.290D-01 0.137D+00-0.460D+00 0.135D+01
 Gap=     0.435 Goal=   None    Shift=    0.000
 RMSDP=5.02D-09 MaxDP=4.24D-08 DE=-3.27D-13 OVMax= 4.29D-08

 Cycle  11  Pass 2  IDiag  1:
 SCF Done:  E(RAM1) =   1.75282999231     A.U. after   11 cycles
            NFock= 10  Conv=0.50D-08     -V/T= 1.1331
 KE=-1.317351277833D+01 PE=-1.734489422910D+02 EE= 8.345905305939D+01
 Leave Link  502 at Tue Dec  1 17:37:42 2015, MaxMem=    33554432 cpu:         0.0
 (Enter /home/Applications/g09/g09/l701.exe)
 Compute integral first derivatives.
 ... and contract with generalized density number  0.
 Leave Link  701 at Tue Dec  1 17:37:42 2015, MaxMem=    33554432 cpu:         0.0
 (Enter /home/Applications/g09/g09/l702.exe)
 L702 exits ... SP integral derivatives will be done elsewhere.
 Leave Link  702 at Tue Dec  1 17:37:42 2015, MaxMem=    33554432 cpu:         0.0
 (Enter /home/Applications/g09/g09/l703.exe)
 Compute integral first derivatives, UseDBF=F ICtDFT=           0.
 Integral derivatives from FoFJK, PRISM(SPDF).
 Calling FoFJK, ICntrl=      2127 FMM=F ISym2X=0 I1Cent= 0 IOpClX= 0 NMat=1 NMatS=1 NMatT=0.
 FoFJK:  IHMeth= 8 ICntrl=    2127 DoSepK=F KAlg= 0 I1Cent=   0 FoldK=F
 IRaf=         0 NMat=   1 IRICut=       1 DoRegI=T DoRafI=F ISym2E= 0.
 FoFCou: FMM=F IPFlag=           0 FMFlag=      100000 FMFlg1=         800
         NFxFlg=           0 DoJE=F BraDBF=F KetDBF=F FulRan=T
         wScrn=  0.000000 ICntrl=    2127 IOpCl=  0 I1Cent=           0 NGrid=           0
         NMat0=    1 NMatS0=      1 NMatT0=    0 NMatD0=    1 NMtDS0=    0 NMtDT0=    0
 Symmetry not used in FoFCou.
 Leave Link  703 at Tue Dec  1 17:37:42 2015, MaxMem=    33554432 cpu:         0.0
 (Enter /home/Applications/g09/g09/l716.exe)
 Dipole        =-1.43524275D-02 1.82474769D-01-2.43030986D-02
 ***** Axes restored to original set *****
 -------------------------------------------------------------------
 Center     Atomic                   Forces (Hartrees/Bohr)
 Number     Number              X              Y              Z
 -------------------------------------------------------------------
      1        6          -0.007050971   -0.009078821   -0.002926115
      2        6          -0.003718245   -0.000658631   -0.008266734
      3        8           0.011126069   -0.000771911    0.008660017
      4        6          -0.001233030   -0.007530350   -0.010095102
      5        6          -0.001797481    0.013607330    0.008802649
      6        1          -0.001476024    0.001899413   -0.000450930
      7        1           0.001666066   -0.000065105    0.000594128
      8        1           0.001049481    0.004688812    0.002832436
      9        1           0.001434135   -0.002090737    0.000849650
 -------------------------------------------------------------------
 Cartesian Forces:  Max     0.013607330 RMS     0.005760912
 Leave Link  716 at Tue Dec  1 17:37:42 2015, MaxMem=    33554432 cpu:         0.0
 (Enter /home/Applications/g09/g09/l103.exe)

 GradGradGradGradGradGradGradGradGradGradGradGradGradGradGradGradGradGrad
 Berny optimization.
 Using GEDIIS/GDIIS optimizer.
 FormGI is forming the generalized inverse of G from B-inverse, IUseBI=4.
 Internal  Forces:  Max     0.011155991 RMS     0.003360615
 Search for a local minimum.
 Step number   3 out of a maximum of   48
 All quantities printed in internal units (Hartrees-Bohrs-Radians)
 RMS Force = .33606D-02 SwitMx=.10000D-02 MixMth= 1
 Mixed Optimization -- RFO/linear search
 Update second derivatives using D2CorX and points    1    2    3
 DE= -4.81D-03 DEPred=-7.47D-03 R= 6.43D-01
 TightC=F SS=  1.41D+00  RLast= 3.58D-01 DXNew= 8.4853D-01 1.0742D+00
 Trust test= 6.43D-01 RLast= 3.58D-01 DXMaxT set to 8.49D-01
 ITU=  1  1  0
 Use linear search instead of GDIIS.
     Eigenvalues ---    0.01386   0.01742   0.02028   0.02344   0.02652
     Eigenvalues ---    0.02914   0.15451   0.15989   0.15998   0.16110
     Eigenvalues ---    0.21168   0.22588   0.31426   0.35379   0.36694
     Eigenvalues ---    0.38212   0.39730   0.42092   0.50217   0.56983
     Eigenvalues ---    0.82989
 RFO step:  Lambda=-1.92215617D-03 EMin= 1.38638952D-02
 Quartic linear search produced a step of -0.19220.
 Iteration  1 RMS(Cart)=  0.02732660 RMS(Int)=  0.00121037
 Iteration  2 RMS(Cart)=  0.00090605 RMS(Int)=  0.00074855
 Iteration  3 RMS(Cart)=  0.00000056 RMS(Int)=  0.00074855
 ITry= 1 IFail=0 DXMaxC= 7.77D-02 DCOld= 1.00D+10 DXMaxT= 8.49D-01 DXLimC= 3.00D+00 Rises=F
 Variable       Old X    -DE/DX   Delta X   Delta X   Delta X     New X
                                 (Linear)    (Quad)   (Total)
    R1        2.45694  -0.00332   0.00382  -0.01931  -0.01547   2.44148
    R2        2.55248   0.01116   0.01674  -0.00967   0.00694   2.55942
    R3        2.03905   0.00238  -0.00875   0.02095   0.01220   2.05125
    R4        2.56725  -0.00708  -0.01105   0.01020  -0.00071   2.56654
    R5        2.02542  -0.00481  -0.00117  -0.00885  -0.01002   2.01540
    R6        2.56924  -0.00575   0.00130  -0.01716  -0.01579   2.55345
    R7        2.45952  -0.00649  -0.00429  -0.00446  -0.00887   2.45065
    R8        2.01333  -0.00073   0.00805  -0.01891  -0.01086   2.00246
    R9        2.04760  -0.00017  -0.00311   0.00445   0.00133   2.04893
    A1        1.87757  -0.00094  -0.00898   0.01981   0.01010   1.88768
    A2        2.22191  -0.00042   0.00355  -0.01331  -0.00905   2.21286
    A3        2.18351   0.00139   0.00467  -0.00629  -0.00092   2.18259
    A4        1.91314  -0.00155   0.00838  -0.02167  -0.01445   1.89869
    A5        2.28367   0.00178  -0.00094   0.00916   0.00816   2.29183
    A6        2.08509  -0.00008  -0.00755   0.01497   0.00737   2.09247
    A7        1.83708   0.00507  -0.00117   0.01515   0.01294   1.85001
    A8        1.89906   0.00112   0.00390  -0.00377  -0.00270   1.89636
    A9        2.07277   0.00098  -0.00651   0.02053   0.01254   2.08531
   A10        2.31065  -0.00198   0.00260  -0.01274  -0.01154   2.29911
   A11        1.89651  -0.00347  -0.00206  -0.00384  -0.00711   1.88940
   A12        2.15964   0.00423  -0.00219   0.02065   0.01884   2.17849
   A13        2.22660  -0.00071   0.00390  -0.01586  -0.01153   2.21506
    D1        0.00271  -0.00059  -0.00233  -0.00244  -0.00439  -0.00168
    D2        3.08834   0.00275   0.02165   0.05171   0.07344  -3.12141
    D3       -3.11834  -0.00210  -0.02432  -0.01309  -0.03695   3.12790
    D4       -0.03270   0.00123  -0.00034   0.04106   0.04088   0.00818
    D5        0.02889  -0.00212  -0.00921  -0.06048  -0.06975  -0.04087
    D6        3.14111  -0.00029   0.00910  -0.02833  -0.01863   3.12248
    D7       -3.13268  -0.00068   0.01222  -0.05024  -0.03803   3.11247
    D8       -0.02046   0.00116   0.03054  -0.01810   0.01310  -0.00737
    D9       -0.03140   0.00284   0.01226   0.06036   0.07281   0.04141
   D10       -3.12438  -0.00013  -0.00838   0.01335   0.00525  -3.11913
   D11        0.04921  -0.00397  -0.01800  -0.09760  -0.11614  -0.06693
   D12       -3.12786  -0.00086  -0.01840   0.00286  -0.01474   3.14059
   D13       -0.04896   0.00400   0.01705   0.09941   0.11592   0.06696
[...]
               16            17            18            19            20 
     16  0.133596D+00
     17 -0.560571D-01  0.112130D+00
     18  0.270882D-01 -0.617696D-01  0.945797D-01
     19  0.289689D-01 -0.503606D-01 -0.328102D-01  0.831708D-01
     20 -0.107401D-01 -0.258180D-01  0.193192D-01  0.649872D-02  0.938173D-01
     21  0.964760D-02  0.148970D-01 -0.960165D-02 -0.529530D-02 -0.470684D-01
     22  0.109248D-02  0.109210D-01 -0.971759D-02 -0.120343D-02 -0.467489D-01
     23 -0.456570D-05  0.000000D+00 -0.238363D-05  0.418702D-05  0.162312D-05
     24 -0.240319D-05  0.000000D+00  0.000000D+00  0.000000D+00  0.000000D+00
     25 -0.325046D-05  0.000000D+00  0.000000D+00  0.220141D-05  0.147765D-05
     26 -0.108795D-05  0.176748D-05  0.105086D-05 -0.298291D-05  0.000000D+00
     27  0.000000D+00  0.136132D-05  0.159720D-05  0.000000D+00 -0.316255D-05
     28  0.000000D+00  0.000000D+00  0.490665D-05 -0.185941D-05  0.136338D-05
     29 -0.335357D-05  0.126780D-05 -0.101838D-05  0.000000D+00 -0.198000D-05
     30 -0.267968D-05 -0.103009D-05  0.229107D-05  0.000000D+00  0.254593D-05
     31  0.000000D+00  0.236533D-05  0.217440D-05 -0.858278D-05  0.181358D-05
     32 -0.233656D-05  0.130613D-05  0.000000D+00 -0.392799D-05  0.267617D-05
     33  0.000000D+00  0.553435D-05 -0.463076D-05  0.492895D-05 -0.512001D-05
     34  0.204649D-05  0.000000D+00  0.166529D-04 -0.191662D-04 -0.305211D-05
     35  0.627356D-05 -0.687247D-05  0.360887D-05 -0.213075D-05  0.265241D-05
     36  0.322352D-05 -0.543684D-05  0.000000D+00  0.000000D+00 -0.271515D-05
     37  0.000000D+00  0.238771D-05  0.679093D-05 -0.530781D-05  0.199940D-05
     38 -0.286075D-05  0.382334D-05  0.320441D-05 -0.242958D-05 -0.336816D-05
               21            22            23            24            25 
     21  0.739078D-01
     22 -0.268394D-01  0.735883D-01
     23 -0.100472D-05  0.310648D-05  0.228209D-01
     24  0.263124D-05 -0.195514D-05  0.325504D-02  0.172863D-01
     25 -0.559624D-05  0.602672D-05  0.916784D-02 -0.775617D-02  0.154809D-01
     26 -0.196028D-05  0.000000D+00 -0.103981D-01  0.627513D-02 -0.144311D-02
     27  0.000000D+00 -0.143616D-05 -0.177984D-01 -0.756023D-02 -0.297504D-02
     28 -0.107374D-04  0.111115D-04 -0.787981D-02 -0.391199D-02  0.210590D-02
     29  0.270177D-05 -0.439244D-05 -0.442945D-02  0.322179D-02 -0.915669D-02
     30 -0.718470D-05  0.815518D-05  0.548911D-02  0.687002D-02 -0.407575D-02
     31  0.169370D-05 -0.421351D-05 -0.191143D-01  0.203693D-02 -0.116391D-01
     32 -0.152569D-05  0.000000D+00 -0.227177D-02 -0.100413D-01  0.292925D-02
     33 -0.113980D-05  0.351130D-05  0.783162D-02 -0.682977D-02  0.975341D-02
     34 -0.652635D-05  0.766443D-05  0.512922D-02 -0.803191D-03  0.153812D-02
     35  0.279622D-05  0.000000D+00  0.573689D-02  0.887505D-02 -0.439396D-02
     36 -0.156199D-04  0.160110D-04 -0.439677D-02  0.514769D-02 -0.958509D-02
     37  0.880310D-05 -0.675310D-05  0.887655D-02  0.187335D-02  0.515060D-02
     38 -0.961303D-05  0.968764D-05 -0.125712D-02 -0.185401D-02 -0.405337D-04
               26            27            28            29            30 
     26  0.152301D-01
     27  0.726310D-02  0.221842D-01
     28  0.607372D-02  0.767301D-02  0.122995D-01
     29 -0.150545D-02  0.766938D-02 -0.210485D-02  0.122982D-01
     30 -0.269484D-02 -0.684178D-02  0.252167D-02  0.252400D-02  0.118874D-01
     31  0.951212D-02  0.703160D-02  0.515107D-02 -0.287987D-03 -0.216852D-02
     32 -0.484031D-02 -0.178148D-02  0.173554D-02 -0.687424D-02 -0.335722D-02
     33 -0.490798D-02  0.703176D-02 -0.286944D-03  0.514997D-02 -0.216874D-02
     34 -0.439430D-02 -0.177834D-02 -0.687500D-02  0.173802D-02 -0.335864D-02
     35 -0.125580D-02 -0.177958D-01 -0.443155D-02 -0.787585D-02  0.548843D-02
     36 -0.406255D-04 -0.296996D-02 -0.915841D-02  0.211037D-02 -0.407808D-02
     37 -0.185260D-02 -0.756023D-02  0.322248D-02 -0.391183D-02  0.687087D-02
     38 -0.637422D-03  0.726565D-02 -0.150438D-02  0.607439D-02 -0.269564D-02
               31            32            33            34            35 
     31  0.234804D-01
     32  0.527327D-02  0.119614D-01
     33 -0.190234D-01 -0.640279D-02  0.234817D-01
     34 -0.640383D-02 -0.129716D-02  0.527664D-02  0.119634D-01
     35  0.783122D-02  0.512987D-02 -0.191131D-01 -0.227564D-02  0.228157D-01
     36  0.975254D-02  0.153658D-02 -0.116356D-01  0.293156D-02  0.916156D-02
     37 -0.683028D-02 -0.801867D-03  0.203770D-02 -0.100443D-01  0.325393D-02
     38 -0.490896D-02 -0.439516D-02  0.951514D-02 -0.483711D-02 -0.104002D-01
               36            37            38 
     36  0.154842D-01
     37 -0.776263D-02  0.172909D-01
     38 -0.143996D-02  0.627430D-02  0.152345D-01
 Leave Link  716 at Tue Dec  1 17:37:44 2015, MaxMem=    33554432 cpu:         0.0
 (Enter /home/Applications/g09/g09/l103.exe)

 GradGradGradGradGradGradGradGradGradGradGradGradGradGradGradGradGradGrad
 Berny optimization.
 Red2BG is reusing G-inverse.
 Internal  Forces:  Max     0.000086923 RMS     0.000032904
 Search for a local minimum.
 Step number   1 out of a maximum of    2
 All quantities printed in internal units (Hartrees-Bohrs-Radians)
 Second derivative matrix not updated -- analytic derivatives used.
 ITU=  0
     Eigenvalues ---    0.01639   0.02070   0.03754   0.04041   0.07367
     Eigenvalues ---    0.08249   0.09708   0.09911   0.11459   0.11681
     Eigenvalues ---    0.16703   0.24982   0.37605   0.38137   0.40487
     Eigenvalues ---    0.41277   0.61511   0.62089   0.66458   0.78783
     Eigenvalues ---    1.04157
 Angle between quadratic step and forces=  58.98 degrees.
 Linear search not attempted -- first point.
 Iteration  1 RMS(Cart)=  0.00019592 RMS(Int)=  0.00000007
 Iteration  2 RMS(Cart)=  0.00000005 RMS(Int)=  0.00000004
 ITry= 1 IFail=0 DXMaxC= 6.34D-04 DCOld= 1.00D+10 DXMaxT= 3.00D-01 DXLimC= 3.00D+00 Rises=F
 Variable       Old X    -DE/DX   Delta X   Delta X   Delta X     New X
                                 (Linear)    (Quad)   (Total)
    R1        2.45412   0.00009   0.00000   0.00011   0.00011   2.45423
    R2        2.56921  -0.00003   0.00000  -0.00009  -0.00009   2.56912
    R3        2.04483   0.00001   0.00000   0.00000   0.00000   2.04483
    R4        2.55827   0.00007   0.00000   0.00011   0.00011   2.55838
    R5        2.01322   0.00006   0.00000   0.00013   0.00013   2.01335
    R6        2.55846  -0.00005   0.00000  -0.00009  -0.00009   2.55838
    R7        2.45428  -0.00006   0.00000  -0.00005  -0.00005   2.45423
    R8        2.01350  -0.00007   0.00000  -0.00015  -0.00015   2.01335
    R9        2.04479   0.00001   0.00000   0.00004   0.00004   2.04483
    A1        1.88410  -0.00003   0.00000  -0.00011  -0.00011   1.88399
    A2        2.21400   0.00000   0.00000  -0.00012  -0.00012   2.21389
    A3        2.18508   0.00003   0.00000   0.00023   0.00023   2.18531
    A4        1.90498  -0.00003   0.00000   0.00002   0.00002   1.90500
    A5        2.29387   0.00001   0.00000  -0.00001  -0.00001   2.29386
    A6        2.08433   0.00001   0.00000  -0.00001  -0.00001   2.08433
    A7        1.84683  -0.00001   0.00000  -0.00003  -0.00003   1.84680
    A8        1.90500   0.00003   0.00000   0.00000   0.00000   1.90500
    A9        2.08426  -0.00001   0.00000   0.00007   0.00007   2.08433
   A10        2.29393  -0.00002   0.00000  -0.00007  -0.00007   2.29386
   A11        1.88387   0.00004   0.00000   0.00012   0.00012   1.88399
   A12        2.18491   0.00002   0.00000   0.00039   0.00039   2.18531
   A13        2.21441  -0.00007   0.00000  -0.00052  -0.00052   2.21389
    D1        0.00004   0.00000   0.00000  -0.00004  -0.00004   0.00000
    D2        3.14158   0.00001   0.00000   0.00001   0.00001   3.14159
    D3       -3.14128  -0.00001   0.00000  -0.00032  -0.00032  -3.14159
    D4        0.00026   0.00000   0.00000  -0.00026  -0.00026   0.00000
    D5        0.00002   0.00000   0.00000  -0.00002  -0.00002   0.00000
    D6        3.14123   0.00001   0.00000   0.00037   0.00037   3.14159
    D7        3.14135   0.00000   0.00000   0.00025   0.00025   3.14159
    D8       -0.00063   0.00002   0.00000   0.00063   0.00063   0.00000
    D9       -0.00009   0.00000   0.00000   0.00009   0.00009   0.00000
   D10        3.14156   0.00000   0.00000   0.00004   0.00004   3.14159
   D11        0.00010  -0.00001   0.00000  -0.00010  -0.00010   0.00000
   D12       -3.14120  -0.00001   0.00000  -0.00039  -0.00039  -3.14159
   D13       -0.00007   0.00001   0.00000   0.00007   0.00007   0.00000
   D14       -3.14127  -0.00001   0.00000  -0.00032  -0.00032  -3.14159
   D15        3.14118   0.00002   0.00000   0.00041   0.00041   3.14159
   D16       -0.00002   0.00000   0.00000   0.00002   0.00002   0.00000
         Item               Value     Threshold  Converged?
 Maximum Force            0.000087     0.000450     YES
 RMS     Force            0.000033     0.000300     YES
 Maximum Displacement     0.000634     0.001800     YES
 RMS     Displacement     0.000196     0.001200     YES
 Predicted change in Energy=-7.061970D-08
 Optimization completed.
    -- Stationary point found.
                           ----------------------------
                           !   Optimized Parameters   !
                           ! (Angstroms and Degrees)  !
 --------------------------                            --------------------------
 ! Name  Definition              Value          Derivative Info.                !
 --------------------------------------------------------------------------------
 ! R1    R(1,2)                  1.2987         -DE/DX =    0.0001              !
 ! R2    R(1,5)                  1.3596         -DE/DX =    0.0                 !
 ! R3    R(1,9)                  1.0821         -DE/DX =    0.0                 !
 ! R4    R(2,3)                  1.3538         -DE/DX =    0.0001              !
 ! R5    R(2,8)                  1.0653         -DE/DX =    0.0001              !
 ! R6    R(3,4)                  1.3539         -DE/DX =   -0.0001              !
 ! R7    R(4,5)                  1.2988         -DE/DX =   -0.0001              !
 ! R8    R(4,7)                  1.0655         -DE/DX =   -0.0001              !
 ! R9    R(5,6)                  1.0821         -DE/DX =    0.0                 !
 ! A1    A(2,1,5)              107.951          -DE/DX =    0.0                 !
 ! A2    A(2,1,9)              126.853          -DE/DX =    0.0                 !
 ! A3    A(5,1,9)              125.196          -DE/DX =    0.0                 !
 ! A4    A(1,2,3)              109.1473         -DE/DX =    0.0                 !
 ! A5    A(1,2,8)              131.4291         -DE/DX =    0.0                 !
 ! A6    A(3,2,8)              119.4235         -DE/DX =    0.0                 !
 ! A7    A(2,3,4)              105.8158         -DE/DX =    0.0                 !
 ! A8    A(3,4,5)              109.1483         -DE/DX =    0.0                 !
 ! A9    A(3,4,7)              119.4194         -DE/DX =    0.0                 !
 ! A10   A(5,4,7)              131.4324         -DE/DX =    0.0                 !
 ! A11   A(1,5,4)              107.9376         -DE/DX =    0.0                 !
 ! A12   A(1,5,6)              125.1863         -DE/DX =    0.0                 !
 ! A13   A(4,5,6)              126.8762         -DE/DX =   -0.0001              !
 ! D1    D(5,1,2,3)              0.0024         -DE/DX =    0.0                 !
 ! D2    D(5,1,2,8)            179.9991         -DE/DX =    0.0                 !
 ! D3    D(9,1,2,3)           -179.9819         -DE/DX =    0.0                 !
 ! D4    D(9,1,2,8)              0.0148         -DE/DX =    0.0                 !
 ! D5    D(2,1,5,4)              0.0011         -DE/DX =    0.0                 !
 ! D6    D(2,1,5,6)            179.979          -DE/DX =    0.0                 !
 ! D7    D(9,1,5,4)            179.9858         -DE/DX =    0.0                 !
 ! D8    D(9,1,5,6)             -0.0363         -DE/DX =    0.0                 !
 ! D9    D(1,2,3,4)             -0.0049         -DE/DX =    0.0                 !
 ! D10   D(8,2,3,4)            179.9979         -DE/DX =    0.0                 !
 ! D11   D(2,3,4,5)              0.0056         -DE/DX =    0.0                 !
 ! D12   D(2,3,4,7)           -179.9776         -DE/DX =    0.0                 !
 ! D13   D(3,4,5,1)             -0.0043         -DE/DX =    0.0                 !
 ! D14   D(3,4,5,6)           -179.9816         -DE/DX =    0.0                 !
 ! D15   D(7,4,5,1)            179.9763         -DE/DX =    0.0                 !
 ! D16   D(7,4,5,6)             -0.0011         -DE/DX =    0.0                 !
 --------------------------------------------------------------------------------
 GradGradGradGradGradGradGradGradGradGradGradGradGradGradGradGradGradGrad

 Leave Link  103 at Tue Dec  1 17:37:44 2015, MaxMem=    33554432 cpu:         0.0
 (Enter /home/Applications/g09/g09/l9999.exe)
 1\1\GINC-DUSTIN-DESKTOP\Freq\RAM1\ZDO\C4H4O1\DUSTIN\01-Dec-2015\0\\#P 
 Geom=AllCheck Guess=TCheck SCRF=Check GenChk RAM1/ZDO Freq\\AM1-Repara
 m Input\\0,1\C,0.9104021639,-0.6805864446,0.0033573355\C,-0.3266629176
 ,-1.0754834741,-0.0127106092\O,-1.1385083144,0.0078198289,-0.021678057
 9\C,-0.3175149398,1.0843076509,-0.0099459489\C,0.9162705369,0.67896908
 55,0.0050834373\H,1.8032252399,1.2986511978,0.0173368279\H,-0.73804139
 08,2.0633024552,-0.0137163819\H,-0.7552769035,-2.0507856449,-0.0193086
 202\H,1.7918915253,-1.3080916547,0.0134660174\\Version=ES64L-G09RevD.0
 1\State=1-A\HF=1.7520186\RMSD=5.864e-10\RMSF=4.825e-05\ZeroPoint=0.078
 7214\Thermal=0.0821454\Dipole=0.1735771,-0.0007954,0.0021916\DipoleDer
 iv=-0.5415007,0.3206352,-0.0048127,0.1342321,-0.2483366,0.0014801,-0.0
 050559,0.0038789,-0.1202436,0.6228063,-0.1798812,0.0031535,-0.3519196,
 -0.0492577,-0.0049125,0.002974,-0.0027909,0.3540542,-0.6150229,0.00237
 46,-0.0034133,0.0024431,-0.035537,0.0004179,-0.0034545,0.0004112,-0.34
 44368,0.6270917,0.1742565,0.0037724,0.346226,-0.0537438,0.0037702,0.00
 39079,0.0016485,0.3539819,-0.5453003,-0.3181371,-0.0059446,-0.131615,-
 0.2442564,-0.0018219,-0.0056152,-0.0042771,-0.1202081,0.2090038,0.1173
 084,0.0026961,0.1086405,0.1746584,0.0016031,0.0026997,0.0017497,0.0108
 736,0.01728,-0.0723623,0.0010203,-0.0888836,0.1405947,-0.0007877,0.001
 0047,-0.0005795,-0.0724468,0.0186063,0.0733778,0.0012449,0.0898814,0.1
 391824,0.001395,0.0012558,0.0011993,-0.0724807,0.2070358,-0.1175719,0.
 0022833,-0.1090053,0.1766935,-0.0011442,0.0022842,-0.00124,0.0109072\P
 olar=36.5031431,-0.0055086,35.6033196,0.3797485,0.0379015,6.3907374\Hy
 perPolar=2.4510052,-0.1245228,-13.1406714,0.1799679,-0.0774103,-0.0245
 874,-0.1635624,4.2364571,-0.0184004,0.1603672\PG=C01 [X(C4H4O1)]\NImag
 =0\\1.13779151,0.01748021,0.92601208,0.01140187,0.00109536,0.23166979,
 -0.69813169,-0.14504706,-0.00744108,1.05784788,-0.24646138,-0.14968503
 ,-0.00313860,0.11188430,0.95118251,-0.00756230,-0.00185173,-0.12174170
 ,0.01040762,0.00226197,0.24330826,-0.11667125,0.01573574,-0.00184556,-
 0.23599333,0.26200501,-0.00127123,0.70146037,0.07276641,0.00691439,0.0
 0088621,0.21168154,-0.39018947,0.00234797,0.00046839,0.86054097,-0.001
 77358,0.00016512,0.03084890,-0.00133575,0.00297596,-0.11021661,0.00727
 794,0.00091340,0.12655163,0.01148774,0.08726794,0.00014285,-0.00138555
 ,-0.01182458,-0.00036569,-0.23989462,-0.21278104,-0.00190254,1.0555819
 1,0.01170713,-0.02321908,0.00011335,0.01097018,-0.10306164,-0.00002535
 ,-0.26309371,-0.38598326,-0.00367028,-0.11273740,0.95268068,0.00004446
 ,0.00106188,0.00910299,-0.00033021,-0.00030570,0.02571455,-0.00197161,
 -0.00304104,-0.11026628,0.01006779,-0.00045327,0.24341788,-0.08250575,
 -0.05953046,0.00034253,0.01062520,-0.01201245,0.00000994,-0.11737363,-
 0.07169702,-0.00196247,-0.69453999,0.25094249,-0.00689594,1.13731653,0
 .05522462,-0.58104496,0.00013491,-0.08756543,-0.02239669,-0.00115029,-
 0.01467142,0.00764799,-0.00020866,0.14951291,-0.15304846,0.00184394,-0
 .01905161,0.92627358,0.00048741,-0.00131664,-0.11587423,-0.00008467,-0
 .00019084,0.00910229,-0.00188927,-0.00092956,0.03083530,-0.00702380,0.
 00312173,-0.12177180,0.01143536,0.00065776,0.23173008,-0.00147299,-0.0
 1512434,-0.00012468,0.00001649,-0.00168320,-0.00009001,-0.00371475,-0.
 00038409,-0.00014981,-0.03998610,-0.01179023,-0.00058243,-0.22757490,-
 0.12952254,-0.00234986,0.27507240,-0.02432235,-0.02903181,-0.00035498,
 -0.00149876,-0.00440093,-0.00003342,0.00138250,0.00041668,0.00000700,-
 0.00325451,0.00893088,-0.00003724,-0.12982018,-0.13137445,-0.00176770,
 0.15807318,0.15820459,-0.00013761,-0.00023838,0.00673886,-0.00009038,-
 0.00003650,0.00688618,-0.00014521,-0.00001596,0.00799217,-0.00057382,-
 0.00014434,0.00469015,-0.00234737,-0.00176324,-0.05871239,0.00330920,0
 .00219532,0.03366372,-0.00314882,0.00180086,-0.00017943,0.00117164,-0.
 00193951,-0.00006180,0.00786063,-0.02035781,-0.00003036,-0.09248574,0.
 11047291,-0.00019174,-0.02163473,0.03298534,-0.00031082,-0.00250030,-0
 .00012142,-0.00003423,0.11145265,0.00198725,-0.00185740,0.00000580,0.0
 0093208,-0.00552274,-0.00000378,-0.00232682,-0.04978059,-0.00011014,0.
 10334365,-0.28633897,0.00095388,0.01906434,-0.01486408,0.00020868,0.00
 115246,0.00017972,0.00001477,-0.12406190,0.35916271,-0.00018039,0.0000
 0521,0.01132567,-0.00005790,-0.00004023,0.00591787,-0.00000522,-0.0003
 3634,0.00812798,-0.00020087,0.00104304,-0.06369389,-0.00033030,0.00038
 397,0.00662741,-0.00003192,-0.00000143,0.00017908,0.00077273,-0.001071
 94,0.03494530,-0.02207793,-0.03293294,-0.00040121,-0.09428595,-0.11217
 938,-0.00052338,0.00805156,0.01988333,0.00002245,0.00117988,0.00188373
 ,-0.00005738,-0.00318087,-0.00178841,-0.00018517,-0.00043751,-0.001095
 53,0.00000554,-0.00028792,-0.00012836,0.00002666,0.11355016,-0.0190117
 0,-0.01443207,-0.00026494,-0.10504304,-0.28472039,-0.00159539,0.001846
 19,-0.04999355,-0.00004560,-0.00098686,-0.00553038,-0.00002637,-0.0019
 7664,-0.00182324,-0.00004055,-0.00003962,-0.00066938,-0.00000037,0.000
 12807,-0.00030010,0.00000393,0.12621407,0.35728023,-0.00038462,-0.0004
 4136,0.00663164,-0.00051450,-0.00168345,-0.06366456,-0.00000058,0.0001
 7967,0.00813311,-0.00006007,0.00000988,0.00591977,-0.00018510,-0.00003
 808,0.01132512,0.00000746,-0.00001331,-0.00100942,0.00002685,0.0000015
 4,-0.00242013,0.00114589,0.00198334,0.03490595,-0.22527096,0.13034983,
 -0.00189528,-0.03986453,0.01221128,-0.00054314,-0.00372503,0.00042027,
 -0.00014590,0.00004261,0.00164480,-0.00008294,-0.00113200,0.01487678,-
 0.00007919,0.00059770,0.00065708,0.00001387,-0.00042742,0.00003731,0.0
 0000721,-0.00251143,-0.00113047,-0.00003532,0.27229110,0.13062978,-0.1
 3365624,0.00152288,0.00368622,0.00879455,0.00005002,-0.00134590,0.0004
 2679,-0.00002680,0.00145987,-0.00442961,0.00000391,0.02408156,-0.02936
 983,0.00025711,-0.00068167,-0.00225525,-0.00001129,0.00109350,-0.00067
 859,0.00001380,0.00014348,0.00018885,0.00000178,-0.15906684,0.16097937
 ,-0.00189522,0.00152056,-0.05870186,-0.00055314,0.00015738,0.00469373,
 -0.00014925,-0.00000436,0.00799374,-0.00008386,0.00000525,0.00688663,-
 0.00006664,0.00013969,0.00673828,0.00001205,0.00000576,-0.00042839,0.0
 0000878,0.00000118,-0.00100933,-0.00003341,-0.00001405,0.00017848,0.00
 276069,-0.00181141,0.03364870\\-0.00011748,-0.00007477,0.00003367,0.00
 002543,0.00003554,0.00002042,0.00001820,-0.00011861,-0.00001124,-0.000
 01393,-0.00000805,-0.00002166,0.00007527,0.00007576,-0.00004243,0.0000
 2091,-0.00003977,0.00002054,-0.00003315,0.00005954,0.00002047,0.000022
 80,0.00005479,-0.00000334,0.00000195,0.00001558,-0.00001642\\\@


 POCKETA-POCKETA
 BARON VON RICHTOFEN
 SLAUGHTERED THE ALLIES WITH
 HARDLY A CARE.
 KILLED EIGHTY-ONE WITH HIS
 BLOOD-COLORED TRIPLANE, THEN
 UN-AEROBATICALLY
 PLUNGED FROM THE AIR.
   -- TONY HOFFMAN
 Job cpu time:       0 days  0 hours  0 minutes  0.3 seconds.
 File lengths (MBytes):  RWF=      5 Int=      0 D2E=      0 Chk=      2 Scr=      1
 Normal termination of Gaussian 09 at Tue Dec  1 17:37:44 2015.
