 Entering Gaussian System, Link 0=g09
 Input=FuranAM1_83P4.com
 Output=FuranAM1_83P4.log
 Initial command:
 /home/Applications/g09/g09/l1.exe "/home/Applications/g09/scratch/Gau-7684.inp" -scrdir="/home/Applications/g09/scratch/"
 Entering Link 1 = /home/Applications/g09/g09/l1.exe PID=      7688.
  
 Copyright (c) 1988,1990,1992,1993,1995,1998,2003,2009,2013,
            Gaussian, Inc.  All Rights Reserved.
  
 This is part of the Gaussian(R) 09 program.  It is based on
 the Gaussian(R) 03 system (copyright 2003, Gaussian, Inc.),
 the Gaussian(R) 98 system (copyright 1998, Gaussian, Inc.),
 the Gaussian(R) 94 system (copyright 1995, Gaussian, Inc.),
 the Gaussian 92(TM) system (copyright 1992, Gaussian, Inc.),
 the Gaussian 90(TM) system (copyright 1990, Gaussian, Inc.),
 the Gaussian 88(TM) system (copyright 1988, Gaussian, Inc.),
 the Gaussian 86(TM) system (copyright 1986, Carnegie Mellon
 University), and the Gaussian 82(TM) system (copyright 1983,
 Carnegie Mellon University). Gaussian is a federally registered
 trademark of Gaussian, Inc.
  
 This software contains proprietary and confidential information,
 including trade secrets, belonging to Gaussian, Inc.
  
 This software is provided under written license and may be
 used, copied, transmitted, or stored only in accord with that
 written license.
  
 The following legend is applicable only to US Government
 contracts under FAR:
  
                    RESTRICTED RIGHTS LEGEND
  
 Use, reproduction and disclosure by the US Government is
 subject to restrictions as set forth in subparagraphs (a)
 and (c) of the Commercial Computer Software - Restricted
 Rights clause in FAR 52.227-19.
  
 Gaussian, Inc.
 340 Quinnipiac St., Bldg. 40, Wallingford CT 06492
  
  
 ---------------------------------------------------------------
 Warning -- This program may not be used in any manner that
 competes with the business of Gaussian, Inc. or will provide
 assistance to any competitor of Gaussian, Inc.  The licensee
 of this program is prohibited from giving any competitor of
 Gaussian, Inc. access to this program.  By using this program,
 the user acknowledges that Gaussian, Inc. is engaged in the
 business of creating and licensing software in the field of
 computational chemistry and represents and warrants to the
 licensee that it is not a competitor of Gaussian, Inc. and that
 it will not use this program in any manner prohibited above.
 ---------------------------------------------------------------
  

 Cite this work as:
 Gaussian 09, Revision D.01,
 M. J. Frisch, G. W. Trucks, H. B. Schlegel, G. E. Scuseria, 
 M. A. Robb, J. R. Cheeseman, G. Scalmani, V. Barone, B. Mennucci, 
 G. A. Petersson, H. Nakatsuji, M. Caricato, X. Li, H. P. Hratchian, 
 A. F. Izmaylov, J. Bloino, G. Zheng, J. L. Sonnenberg, M. Hada, 
 M. Ehara, K. Toyota, R. Fukuda, J. Hasegawa, M. Ishida, T. Nakajima, 
 Y. Honda, O. Kitao, H. Nakai, T. Vreven, J. A. Montgomery, Jr., 
 J. E. Peralta, F. Ogliaro, M. Bearpark, J. J. Heyd, E. Brothers, 
 K. N. Kudin, V. N. Staroverov, T. Keith, R. Kobayashi, J. Normand, 
 K. Raghavachari, A. Rendell, J. C. Burant, S. S. Iyengar, J. Tomasi, 
 M. Cossi, N. Rega, J. M. Millam, M. Klene, J. E. Knox, J. B. Cross, 
 V. Bakken, C. Adamo, J. Jaramillo, R. Gomperts, R. E. Stratmann, 
 O. Yazyev, A. J. Austin, R. Cammi, C. Pomelli, J. W. Ochterski, 
 R. L. Martin, K. Morokuma, V. G. Zakrzewski, G. A. Voth, 
 P. Salvador, J. J. Dannenberg, S. Dapprich, A. D. Daniels, 
 O. Farkas, J. B. Foresman, J. V. Ortiz, J. Cioslowski, 
 and D. J. Fox, Gaussian, Inc., Wallingford CT, 2013.
 
 ******************************************
 Gaussian 09:  ES64L-G09RevD.01 24-Apr-2013
                15-Dec-2015 
 ******************************************
 ------------------------------------------------------------
 #P AM1(Input,print) CIS(Singlets,NStates=15) pop(full) force
 ------------------------------------------------------------
 1/10=7,30=1,38=1/1,3;
 2/12=2,17=6,18=5,40=1/2;
 3/5=2,16=1,25=1,41=700000,71=1,135=100,136=1/1,2,8,3;
 4/35=1/1;
 5/5=2,35=1,38=5/2;
 8/6=1,10=1,108=15/1;
 9/15=2,41=15,42=1,48=1,49=10/14;
 10/5=4/2;
 6/7=3,18=1/1;
 7/12=6,13=5,29=1/1,2,3,16;
 1/10=7,30=1/3;
 99//99;
 Leave Link    1 at Tue Dec 15 17:05:44 2015, MaxMem=           0 cpu:         0.0
 (Enter /home/Applications/g09/g09/l101.exe)
 -----------------
 AM1-Reparam Input
 -----------------
 Symbolic Z-matrix:
 Charge =  0 Multiplicity = 1
 6                     0.98662  -0.7557    0.03334 
 6                    -0.38533  -1.08652   0.00418 
 8                    -1.20151   0.03892  -0.003 
 6                    -0.30339   1.08977  -0.0387 
 6                     0.92447   0.75093   0.00226 
 1                     1.76717   1.33867  -0.01306 
 1                    -0.8839    2.06123   0.03973 
 1                    -0.86106  -2.08691  -0.02037 
 1                     1.84476  -1.33507   0.03369 
 
 NAtoms=      9 NQM=        9 NQMF=       0 NMMI=      0 NMMIF=      0
                NMic=       0 NMicF=      0.
                    Isotopes and Nuclear Properties:
 (Nuclear quadrupole moments (NQMom) in fm**2, nuclear magnetic moments (NMagM)
  in nuclear magnetons)

  Atom         1           2           3           4           5           6           7           8           9
 IAtWgt=          12          12          16          12          12           1           1           1           1
 AtmWgt=  12.0000000  12.0000000  15.9949146  12.0000000  12.0000000   1.0078250   1.0078250   1.0078250   1.0078250
 NucSpn=           0           0           0           0           0           1           1           1           1
 AtZEff=   0.0000000   0.0000000   0.0000000   0.0000000   0.0000000   0.0000000   0.0000000   0.0000000   0.0000000
 NQMom=    0.0000000   0.0000000   0.0000000   0.0000000   0.0000000   0.0000000   0.0000000   0.0000000   0.0000000
 NMagM=    0.0000000   0.0000000   0.0000000   0.0000000   0.0000000   2.7928460   2.7928460   2.7928460   2.7928460
 AtZNuc=   6.0000000   6.0000000   8.0000000   6.0000000   6.0000000   1.0000000   1.0000000   1.0000000   1.0000000
 Leave Link  101 at Tue Dec 15 17:05:44 2015, MaxMem=    33554432 cpu:         0.0
 (Enter /home/Applications/g09/g09/l103.exe)

 GradGradGradGradGradGradGradGradGradGradGradGradGradGradGradGradGradGrad
 Berny optimization.
 Initialization pass.
 Trust Radius=3.00D-01 FncErr=1.00D-07 GrdErr=1.00D-07
 Number of steps in this run=      2 maximum allowed number of steps=      2.
 GradGradGradGradGradGradGradGradGradGradGradGradGradGradGradGradGradGrad

 Leave Link  103 at Tue Dec 15 17:05:44 2015, MaxMem=    33554432 cpu:         0.0
 (Enter /home/Applications/g09/g09/l202.exe)
                          Input orientation:                          
 ---------------------------------------------------------------------
 Center     Atomic      Atomic             Coordinates (Angstroms)
 Number     Number       Type             X           Y           Z
 ---------------------------------------------------------------------
      1          6           0        0.986622   -0.755700    0.033335
      2          6           0       -0.385329   -1.086516    0.004177
      3          8           0       -1.201510    0.038924   -0.002999
      4          6           0       -0.303388    1.089770   -0.038696
      5          6           0        0.924467    0.750927    0.002261
      6          1           0        1.767174    1.338667   -0.013055
      7          1           0       -0.883899    2.061226    0.039726
      8          1           0       -0.861062   -2.086912   -0.020366
      9          1           0        1.844764   -1.335068    0.033694
 ---------------------------------------------------------------------
                    Distance matrix (angstroms):
                    1          2          3          4          5
     1  C    0.000000
     2  C    1.411573   0.000000
     3  O    2.328233   1.390258   0.000000
     4  C    2.252792   2.178250   1.382814   0.000000
     5  C    1.508229   2.256494   2.242042   1.274410   0.000000
     6  H    2.235573   3.242696   3.240759   2.085626   1.027535
     7  H    3.381414   3.187180   2.047537   1.134403   2.233489
     8  H    2.277926   1.108024   2.152994   3.225313   3.352903
     9  H    1.035411   2.244095   3.342003   3.240314   2.280199
                    6          7          8          9
     6  H    0.000000
     7  H    2.748284   0.000000
     8  H    4.317669   4.148636   0.000000
     9  H    2.675269   4.356656   2.808859   0.000000
 Stoichiometry    C4H4O
 Framework group  C1[X(C4H4O)]
 Deg. of freedom    21
 Full point group                 C1      NOp   1
 Largest Abelian subgroup         C1      NOp   1
 Largest concise Abelian subgroup C1      NOp   1
                         Standard orientation:                         
 ---------------------------------------------------------------------
 Center     Atomic      Atomic             Coordinates (Angstroms)
 Number     Number       Type             X           Y           Z
 ---------------------------------------------------------------------
      1          6           0        0.959612    0.811778    0.014553
      2          6           0        0.988970   -0.599361   -0.004518
      3          8           0       -0.284980   -1.155866    0.008552
      4          6           0       -1.119805   -0.053989   -0.024754
      5          6           0       -0.525720    1.073199    0.000333
      6          1           0       -0.919785    2.022008   -0.017033
      7          1           0       -2.191863   -0.412602    0.069901
      8          1           0        1.864087   -1.278295   -0.035103
      9          1           0        1.709057    1.526061    0.000133
 ---------------------------------------------------------------------
 Rotational constants (GHZ):      9.3148635      9.0169507      4.5831576
 Leave Link  202 at Tue Dec 15 17:05:44 2015, MaxMem=    33554432 cpu:         0.0
 (Enter /home/Applications/g09/g09/l301.exe)

 Semi-emprical parameters in input format:
 Method=8 CoreType=1 PeptideFC=0.0108360000 RIJScale=0.5404210000
 ****
 H       
 PQN=1 NValence=1 F0ss=0.4721550000 ZetaOverlap=1.0856700000 U=-0.4188110000
 Beta=-0.2268830000 CoreKO=1.0354420000 KON=0,0,0,1.0458670000 KON=1,0,1,1.0589200000
 KON=0,1,1,1.0589200000 KON=2,1,1,1.0697690000 EISol=-0.4188110042 EHeat=0.0830298228
 Alpha=1.4609850000
 GCore=0.0085280000,1.4001430000,2.2676710000
 GCore=0.0003530000,1.4368830000,3.4779940000
 GCore=-0.0011900000,0.5600570000,3.5861320000
 ****
 C       
 PQN=2,2 NValence=4 F0ss=0.4494440000 F0sp=0.4261420000 F0pp=0.3497590000 F2pp=0.1878900000
 G1sp=0.2503010000
 ZetaOverlap=1.8632470000,1.4040900000
 U=-1.7215630000,-1.4557970000
 Beta=-0.5453250000,-0.3063130000 DDN=0,1,0.7474020000 DDN=1,1,0.7268010000
 CoreKO=1.0436360000 KON=0,0,0,1.1124280000 KON=1,0,1,0.8998210000 KON=0,1,1,1.1124280000
 KON=2,1,1,0.8516400000 EISol=-4.4398989268 EHeat=0.2723305520 Alpha=1.4989150000
 DipHyp=1.4947180026
 GCore=0.0007890000,1.3361580000,2.6678360000
 GCore=0.0028980000,1.4001430000,3.7217330000
 GCore=-0.0013930000,1.3827320000,3.8739390000
 GCore=-0.0001030000,1.4001430000,4.6088130000
 ****
 O       
 PQN=2,2 NValence=6 F0ss=0.5666750000 F0sp=0.5772260000 F0pp=0.4958710000 F2pp=0.2358080000
 G1sp=0.4210010000
 ZetaOverlap=2.6354490000,2.5240390000
 U=-3.5951870000,-2.4766000000
 Beta=-1.1573400000,-1.2994290000 DDN=0,1,0.4953610000 DDN=1,1,0.4852320000
 CoreKO=0.8515990000 KON=0,0,0,0.9256950000 KON=1,0,1,0.5019540000 KON=0,1,1,0.8593090000
 KON=2,1,1,0.5515580000 EISol=-11.6164441184 EHeat=0.0949133088 Alpha=2.4031680000
 DipHyp=0.9906650029
 GCore=0.0204720000,1.2640290000,1.6023330000
 GCore=0.0047010000,1.8659010000,2.7307880000
 ****
 
 Standard basis: VSTO-6G (5D, 7F)
 Ernie: Thresh=  0.10000D-02 Tol=  0.10000D-05 Strict=F.
  NNHCO=     0 NNPyr=     0 NCTC=     0               EPep=         0.000000000
    EC=        69.284498101  ECS=         1.524326056   EG=         0.338229063
   EHC=         0.000000000  EAt=       -31.051283842  AtH=         1.516354808
 EPDDG=         0.000000000  ECC=        71.147053220 EAtT=        32.567638650
 There are    24 symmetry adapted cartesian basis functions of A   symmetry.
 There are    24 symmetry adapted basis functions of A   symmetry.
    24 basis functions,   144 primitive gaussians,    24 cartesian basis functions
    13 alpha electrons       13 beta electrons
       nuclear repulsion energy       103.7146918708 Hartrees.
 IExCor=    0 DFT=F Ex=HF Corr=None ExCW=0 ScaHFX=  1.000000
 ScaDFX=  1.000000  1.000000  1.000000  1.000000 ScalE2=  1.000000  1.000000
 IRadAn=      0 IRanWt=     -1 IRanGd=            0 ICorTp=0 IEmpDi=  4
 Integral buffers will be    131072 words long.
 Regular integral format.
 Two-electron integral symmetry is turned off.
 Leave Link  301 at Tue Dec 15 17:05:44 2015, MaxMem=    33554432 cpu:         0.0
 (Enter /home/Applications/g09/g09/l302.exe)
 Do NDO integrals.
 NPDir=0 NMtPBC=     1 NCelOv=     1 NCel=       1 NClECP=     1 NCelD=      1
         NCelK=      1 NCelE2=     1 NClLst=     1 CellRange=     0.0.
 One-electron integrals computed using PRISM.
 NBasis=    24 RedAO= F EigKep=  0.00D+00  NBF=    24
 NBsUse=    24 1.00D-04 EigRej=  0.00D+00 NBFU=    24
 Leave Link  302 at Tue Dec 15 17:05:44 2015, MaxMem=    33554432 cpu:         0.0
 (Enter /home/Applications/g09/g09/l308.exe)
 Leave Link  308 at Tue Dec 15 17:05:44 2015, MaxMem=    33554432 cpu:         0.0
 (Enter /home/Applications/g09/g09/l303.exe)
 DipDrv:  MaxL=1.
 Leave Link  303 at Tue Dec 15 17:05:44 2015, MaxMem=    33554432 cpu:         0.0
 (Enter /home/Applications/g09/g09/l401.exe)
 Simple Huckel Guess.
 JPrj=0 DoOrth=F DoCkMO=F.
 Leave Link  401 at Tue Dec 15 17:05:44 2015, MaxMem=    33554432 cpu:         0.0
 (Enter /home/Applications/g09/g09/l502.exe)
 Closed shell SCF:
 Using DIIS extrapolation, IDIIS=  1040.
 Overlap will be assumed to be unity.
 Two-electron integral symmetry not used.
 Keep J ints in memory in canonical form, NReq=888082.
 IVT=       79475 IEndB=       79475 NGot=    33554432 MDV=    33473473
 LenX=    33473473 LenY=    33472456
 Requested convergence on RMS density matrix=1.00D-08 within 128 cycles.
 Requested convergence on MAX density matrix=1.00D-06.
 Requested convergence on             energy=1.00D-06.
 No special actions if energy rises.
 FoFCou: FMM=F IPFlag=           0 FMFlag=           0 FMFlg1=           0
         NFxFlg=           0 DoJE=F BraDBF=F KetDBF=F FulRan=T
         wScrn=  0.000000 ICntrl=     600 IOpCl=  2 I1Cent=           0 NGrid=           0
         NMat0=    1 NMatS0=     54 NMatT0=    0 NMatD0=    1 NMtDS0=    0 NMtDT0=    0
 Symmetry not used in FoFCou.

 Cycle   1  Pass 1  IDiag  1:
 E=  2.06741663645992    
 DIIS: error= 8.72D-02 at cycle   1 NSaved=   1.
 NSaved= 1 IEnMin= 1 EnMin=  2.06741663645992     IErMin= 1 ErrMin= 8.72D-02
 ErrMax= 8.72D-02  0.00D+00 EMaxC= 1.00D-01 BMatC= 1.85D-01 BMatP= 1.85D-01
 IDIUse=3 WtCom= 1.28D-01 WtEn= 8.72D-01
 Coeff-Com:  0.100D+01
 Coeff-En:   0.100D+01
 Coeff:      0.100D+01
 GapD=    2.000 DampG=2.000 DampE=0.500 DampFc=1.0000 IDamp=-1.
 RMSDP=4.38D-02 MaxDP=4.85D-01              OVMax= 0.00D+00

 Cycle   2  Pass 1  IDiag  1:
 E=  1.27061817794596     Delta-E=       -0.796798458514 Rises=F Damp=F
 DIIS: error= 3.96D-02 at cycle   2 NSaved=   2.
 NSaved= 2 IEnMin= 2 EnMin=  1.27061817794596     IErMin= 2 ErrMin= 3.96D-02
 ErrMax= 3.96D-02  0.00D+00 EMaxC= 1.00D-01 BMatC= 2.72D-02 BMatP= 1.85D-01
 IDIUse=3 WtCom= 6.04D-01 WtEn= 3.96D-01
 Coeff-Com: -0.459D-01 0.105D+01
 Coeff-En:   0.000D+00 0.100D+01
 Coeff:     -0.277D-01 0.103D+01
 RMSDP=1.39D-02 MaxDP=1.03D-01 DE=-7.97D-01 OVMax= 0.00D+00

 Cycle   3  Pass 1  IDiag  1:
 E=  1.17011010687452     Delta-E=       -0.100508071071 Rises=F Damp=F
 DIIS: error= 1.13D-02 at cycle   3 NSaved=   3.
 NSaved= 3 IEnMin= 3 EnMin=  1.17011010687452     IErMin= 3 ErrMin= 1.13D-02
 ErrMax= 1.13D-02  0.00D+00 EMaxC= 1.00D-01 BMatC= 4.03D-03 BMatP= 2.72D-02
 IDIUse=3 WtCom= 8.87D-01 WtEn= 1.13D-01
 Coeff-Com: -0.692D-01-0.277D+00 0.135D+01
 Coeff-En:   0.000D+00 0.000D+00 0.100D+01
 Coeff:     -0.614D-01-0.245D+00 0.131D+01
 RMSDP=7.80D-03 MaxDP=6.79D-02 DE=-1.01D-01 OVMax= 0.00D+00

 Cycle   4  Pass 1  IDiag  3:
 E=  1.15014808887442     Delta-E=       -0.019962018000 Rises=F Damp=F
 DIIS: error= 2.80D-03 at cycle   4 NSaved=   4.
 NSaved= 4 IEnMin= 4 EnMin=  1.15014808887442     IErMin= 4 ErrMin= 2.80D-03
 ErrMax= 2.80D-03  0.00D+00 EMaxC= 1.00D-01 BMatC= 2.75D-04 BMatP= 4.03D-03
 IDIUse=3 WtCom= 9.72D-01 WtEn= 2.80D-02
 Coeff-Com:  0.363D-01 0.100D+00-0.664D+00 0.153D+01
 Coeff-En:   0.000D+00 0.000D+00 0.000D+00 0.100D+01
 Coeff:      0.353D-01 0.972D-01-0.646D+00 0.151D+01
 Gap=     0.395 Goal=   None    Shift=    0.000
 RMSDP=2.32D-03 MaxDP=1.47D-02 DE=-2.00D-02 OVMax= 2.15D-02

 Cycle   5  Pass 1  IDiag  3:
 E=  1.14867975771836     Delta-E=       -0.001468331156 Rises=F Damp=F
 DIIS: error= 5.36D-04 at cycle   5 NSaved=   5.
 NSaved= 5 IEnMin= 5 EnMin=  1.14867975771836     IErMin= 5 ErrMin= 5.36D-04
 ErrMax= 5.36D-04  0.00D+00 EMaxC= 1.00D-01 BMatC= 1.19D-05 BMatP= 2.75D-04
 IDIUse=3 WtCom= 9.95D-01 WtEn= 5.36D-03
 Coeff-Com: -0.636D-02-0.268D-01 0.106D+00-0.329D+00 0.126D+01
 Coeff-En:   0.000D+00 0.000D+00 0.000D+00 0.000D+00 0.100D+01
 Coeff:     -0.632D-02-0.266D-01 0.106D+00-0.327D+00 0.125D+01
 Gap=     0.399 Goal=   None    Shift=    0.000
 RMSDP=5.49D-04 MaxDP=2.93D-03 DE=-1.47D-03 OVMax= 6.04D-03

 Cycle   6  Pass 1  IDiag  3:
 E=  1.14861261305281     Delta-E=       -0.000067144666 Rises=F Damp=F
 DIIS: error= 1.77D-04 at cycle   6 NSaved=   6.
 NSaved= 6 IEnMin= 6 EnMin=  1.14861261305281     IErMin= 6 ErrMin= 1.77D-04
 ErrMax= 1.77D-04  0.00D+00 EMaxC= 1.00D-01 BMatC= 9.04D-07 BMatP= 1.19D-05
 IDIUse=3 WtCom= 9.98D-01 WtEn= 1.77D-03
 Coeff-Com: -0.994D-03 0.146D-02 0.284D-01-0.447D-01-0.379D+00 0.139D+01
 Coeff-En:   0.000D+00 0.000D+00 0.000D+00 0.000D+00 0.000D+00 0.100D+01
 Coeff:     -0.993D-03 0.146D-02 0.283D-01-0.446D-01-0.378D+00 0.139D+01
 Gap=     0.398 Goal=   None    Shift=    0.000
 RMSDP=1.31D-04 MaxDP=9.33D-04 DE=-6.71D-05 OVMax= 9.89D-04

 Cycle   7  Pass 1  IDiag  3:
 E=  1.14860808298903     Delta-E=       -0.000004530064 Rises=F Damp=F
 DIIS: error= 3.26D-05 at cycle   7 NSaved=   7.
 NSaved= 7 IEnMin= 7 EnMin=  1.14860808298903     IErMin= 7 ErrMin= 3.26D-05
 ErrMax= 3.26D-05  0.00D+00 EMaxC= 1.00D-01 BMatC= 2.99D-08 BMatP= 9.04D-07
 IDIUse=1 WtCom= 1.00D+00 WtEn= 0.00D+00
 Coeff-Com:  0.301D-03-0.465D-03-0.129D-01 0.210D-01 0.168D+00-0.703D+00
 Coeff-Com:  0.153D+01
 Coeff:      0.301D-03-0.465D-03-0.129D-01 0.210D-01 0.168D+00-0.703D+00
 Coeff:      0.153D+01
 Gap=     0.398 Goal=   None    Shift=    0.000
 RMSDP=2.86D-05 MaxDP=2.90D-04 DE=-4.53D-06 OVMax= 2.47D-04

 Cycle   8  Pass 1  IDiag  3:
 E=  1.14860790195961     Delta-E=       -0.000000181029 Rises=F Damp=F
 DIIS: error= 7.59D-06 at cycle   8 NSaved=   8.
 NSaved= 8 IEnMin= 8 EnMin=  1.14860790195961     IErMin= 8 ErrMin= 7.59D-06
 ErrMax= 7.59D-06  0.00D+00 EMaxC= 1.00D-01 BMatC= 2.11D-09 BMatP= 2.99D-08
 IDIUse=1 WtCom= 1.00D+00 WtEn= 0.00D+00
 Coeff-Com: -0.107D-03-0.396D-03 0.585D-02-0.987D-02-0.464D-01 0.210D+00
 Coeff-Com: -0.556D+00 0.140D+01
 Coeff:     -0.107D-03-0.396D-03 0.585D-02-0.987D-02-0.464D-01 0.210D+00
 Coeff:     -0.556D+00 0.140D+01
 Gap=     0.398 Goal=   None    Shift=    0.000
 RMSDP=5.93D-06 MaxDP=3.87D-05 DE=-1.81D-07 OVMax= 4.29D-05

 Cycle   9  Pass 1  IDiag  3:
 E=  1.14860789199460     Delta-E=       -0.000000009965 Rises=F Damp=F
 DIIS: error= 2.45D-06 at cycle   9 NSaved=   9.
 NSaved= 9 IEnMin= 9 EnMin=  1.14860789199460     IErMin= 9 ErrMin= 2.45D-06
 ErrMax= 2.45D-06  0.00D+00 EMaxC= 1.00D-01 BMatC= 1.17D-10 BMatP= 2.11D-09
 IDIUse=1 WtCom= 1.00D+00 WtEn= 0.00D+00
 Coeff-Com:  0.106D-04 0.138D-03-0.136D-02 0.206D-02 0.110D-01-0.448D-01
 Coeff-Com:  0.109D+00-0.500D+00 0.142D+01
 Coeff:      0.106D-04 0.138D-03-0.136D-02 0.206D-02 0.110D-01-0.448D-01
 Coeff:      0.109D+00-0.500D+00 0.142D+01
 Gap=     0.398 Goal=   None    Shift=    0.000
 RMSDP=2.09D-06 MaxDP=1.75D-05 DE=-9.97D-09 OVMax= 1.80D-05

 Cycle  10  Pass 1  IDiag  3:
 E=  1.14860789116572     Delta-E=       -0.000000000829 Rises=F Damp=F
 DIIS: error= 3.84D-07 at cycle  10 NSaved=  10.
 NSaved=10 IEnMin=10 EnMin=  1.14860789116572     IErMin=10 ErrMin= 3.84D-07
 ErrMax= 3.84D-07  0.00D+00 EMaxC= 1.00D-01 BMatC= 5.45D-12 BMatP= 1.17D-10
 IDIUse=1 WtCom= 1.00D+00 WtEn= 0.00D+00
 Coeff-Com:  0.511D-06-0.339D-04 0.311D-03-0.398D-03-0.305D-02 0.108D-01
 Coeff-Com: -0.203D-01 0.137D+00-0.606D+00 0.148D+01
 Coeff:      0.511D-06-0.339D-04 0.311D-03-0.398D-03-0.305D-02 0.108D-01
 Coeff:     -0.203D-01 0.137D+00-0.606D+00 0.148D+01
 Gap=     0.398 Goal=   None    Shift=    0.000
 RMSDP=4.42D-07 MaxDP=3.91D-06 DE=-8.29D-10 OVMax= 4.76D-06

 Cycle  11  Pass 1  IDiag  3:
 E=  1.14860789112898     Delta-E=       -0.000000000037 Rises=F Damp=F
 DIIS: error= 9.89D-08 at cycle  11 NSaved=  11.
 NSaved=11 IEnMin=11 EnMin=  1.14860789112898     IErMin=11 ErrMin= 9.89D-08
 ErrMax= 9.89D-08  0.00D+00 EMaxC= 1.00D-01 BMatC= 2.83D-13 BMatP= 5.45D-12
 IDIUse=1 WtCom= 1.00D+00 WtEn= 0.00D+00
 Coeff-Com: -0.762D-06 0.496D-05-0.398D-04 0.291D-04 0.493D-03-0.133D-02
 Coeff-Com:  0.646D-03-0.265D-01 0.179D+00-0.603D+00 0.145D+01
 Coeff:     -0.762D-06 0.496D-05-0.398D-04 0.291D-04 0.493D-03-0.133D-02
 Coeff:      0.646D-03-0.265D-01 0.179D+00-0.603D+00 0.145D+01
 Gap=     0.398 Goal=   None    Shift=    0.000
 RMSDP=9.34D-08 MaxDP=1.01D-06 DE=-3.67D-11 OVMax= 1.02D-06

 Cycle  12  Pass 1  IDiag  3:
 E=  1.14860789112709     Delta-E=       -0.000000000002 Rises=F Damp=F
 DIIS: error= 2.90D-08 at cycle  12 NSaved=  12.
 NSaved=12 IEnMin=12 EnMin=  1.14860789112709     IErMin=12 ErrMin= 2.90D-08
 ErrMax= 2.90D-08  0.00D+00 EMaxC= 1.00D-01 BMatC= 3.07D-14 BMatP= 2.83D-13
 IDIUse=1 WtCom= 1.00D+00 WtEn= 0.00D+00
 Coeff-Com:  0.406D-07-0.731D-06 0.101D-04-0.635D-05-0.117D-03 0.284D-03
 Coeff-Com:  0.242D-03 0.782D-02-0.634D-01 0.233D+00-0.811D+00 0.163D+01
 Coeff:      0.406D-07-0.731D-06 0.101D-04-0.635D-05-0.117D-03 0.284D-03
 Coeff:      0.242D-03 0.782D-02-0.634D-01 0.233D+00-0.811D+00 0.163D+01
 Gap=     0.398 Goal=   None    Shift=    0.000
 RMSDP=3.63D-08 MaxDP=3.86D-07 DE=-1.89D-12 OVMax= 4.06D-07

 Cycle  13  Pass 1  IDiag  3:
 E=  1.14860789112677     Delta-E=        0.000000000000 Rises=F Damp=F
 DIIS: error= 6.55D-09 at cycle  13 NSaved=  13.
 NSaved=13 IEnMin=13 EnMin=  1.14860789112677     IErMin=13 ErrMin= 6.55D-09
 ErrMax= 6.55D-09  0.00D+00 EMaxC= 1.00D-01 BMatC= 1.09D-15 BMatP= 3.07D-14
 IDIUse=1 WtCom= 1.00D+00 WtEn= 0.00D+00
 Coeff-Com:  0.926D-08 0.713D-08-0.355D-06-0.129D-05-0.169D-05 0.458D-04
 Coeff-Com: -0.336D-03-0.136D-02 0.160D-01-0.632D-01 0.247D+00-0.665D+00
 Coeff-Com:  0.147D+01
 Coeff:      0.926D-08 0.713D-08-0.355D-06-0.129D-05-0.169D-05 0.458D-04
 Coeff:     -0.336D-03-0.136D-02 0.160D-01-0.632D-01 0.247D+00-0.665D+00
 Coeff:      0.147D+01
 Gap=     0.398 Goal=   None    Shift=    0.000
 RMSDP=6.34D-09 MaxDP=5.43D-08 DE=-3.13D-13 OVMax= 5.51D-08

 Cycle  14  Pass 2  IDiag  1:
 SCF Done:  E(RAM1) =   1.14860789113     A.U. after   14 cycles
            NFock= 13  Conv=0.63D-08     -V/T= 1.0771
 KE=-1.489542828855D+01 PE=-1.701363640299D+02 EE= 8.246570833878D+01
 Leave Link  502 at Tue Dec 15 17:05:44 2015, MaxMem=    33554432 cpu:         0.0
 (Enter /home/Applications/g09/g09/l801.exe)
 Range of M.O.s used for correlation:     1    24
 NBasis=    24 NAE=    13 NBE=    13 NFC=     0 NFV=     0
 NROrb=     24 NOA=    13 NOB=    13 NVA=    11 NVB=    11
 Leave Link  801 at Tue Dec 15 17:05:44 2015, MaxMem=    33554432 cpu:         0.0
 (Enter /home/Applications/g09/g09/l914.exe)
 RHF ground state
 MDV=    33554432 DFT=F DoStab=F Mixed=F DoRPA=F DoScal=F NonHer=F
 Making orbital integer symmetry assigments:
 Orbital symmetries:
       Occupied  (A) (A) (A) (A) (A) (A) (A) (A) (A) (A) (A) (A)
                 (A)
       Virtual   (A) (A) (A) (A) (A) (A) (A) (A) (A) (A) (A)
    60 initial guesses have been made.
 Convergence on wavefunction:    0.000001000000000
 Davidson Disk Diagonalization:  ConvIn= 1.00D-06 SkipCon=T Conv= 1.00D-06.
 Max sub-space:   240 roots to seek:    60 dimension of matrix:          286
 Iteration     1 Dimension    60 NMult     0 NNew     60
 CISAX will form    60 AO SS matrices at one time.
 NMat=    60 NSing=    60 JSym2X= 0.
 FoFJK:  IHMeth= 8 ICntrl=       0 DoSepK=F KAlg= 0 I1Cent=   0 FoldK=F
 IRaf=         1 NMat= 120 IRICut=       1 DoRegI=T DoRafI=F ISym2E= 0.
 FoFCou: FMM=F IPFlag=           0 FMFlag=      100000 FMFlg1=           0
         NFxFlg=           0 DoJE=F BraDBF=F KetDBF=F FulRan=T
         wScrn=  0.000000 ICntrl=       0 IOpCl=  0 I1Cent=           0 NGrid=           0
         NMat0=  120 NMatS0=     60 NMatT0=    0 NMatD0=  120 NMtDS0=    0 NMtDT0=    0
 Symmetry not used in FoFCou.
 New state      2 was old state      3
 New state      3 was old state      4
 New state      4 was old state      2
 New state      5 was old state      6
 New state      6 was old state      7
 New state      7 was old state      5
 New state      8 was old state     10
 New state      9 was old state      8
 New state     10 was old state      9
 New state     12 was old state     14
 New state     14 was old state     15
 New state     15 was old state     12
 Excitation Energies [eV] at current iteration:
 Root      1 :     5.295553631092728
 Root      2 :     6.284394204046628
 Root      3 :     6.381491772819296
 Root      4 :     6.627093628673098
 Root      5 :     7.042260657429659
 Root      6 :     7.844452016648177
 Root      7 :     7.967291501845387
 Root      8 :     8.226973010390420
 Root      9 :     8.404169668220799
 Root     10 :     8.593070606892601
 Root     11 :     8.826402629304528
 Root     12 :     8.872598952750513
 Root     13 :     8.925060990783344
 Root     14 :     9.174876625870150
 Root     15 :     9.332514889877094
 Root     16 :     9.584683657655507
 Root     17 :     9.599398943946831
 Root     18 :     9.851531098979885
 Root     19 :    10.136913722597580
 Root     20 :    10.345010792729980
 Root     21 :    10.413160894872240
 Root     22 :    10.550262373070210
 Root     23 :    10.656923170172410
 Root     24 :    10.783149148721090
 Root     25 :    10.854092835790480
 Root     26 :    10.865816881547130
 Root     27 :    10.893950765781410
 Root     28 :    11.013303408189420
 Root     29 :    11.357275750107560
 Root     30 :    11.362664309728110
 Root     31 :    11.485659160845820
 Root     32 :    11.770839371561710
 Root     33 :    11.917718894998410
 Root     34 :    11.980092115493960
 Root     35 :    12.121191127354680
 Root     36 :    12.230597230328290
 Root     37 :    12.413782743820360
 Root     38 :    12.610138132131160
 Root     39 :    12.775251255583650
 Root     40 :    12.785589044914250
 Root     41 :    12.837360979818590
 Root     42 :    13.140138204388220
 Root     43 :    13.346079772292020
 Root     44 :    13.636394893780130
 Root     45 :    13.671035390770370
 Root     46 :    13.800216494127230
 Root     47 :    13.872531177323210
 Root     48 :    13.975608757783830
 Root     49 :    13.996744805792630
 Root     50 :    14.074245547625110
 Root     51 :    14.270045209772660
 Root     52 :    14.451866764814550
 Root     53 :    14.740956206864400
 Root     54 :    14.895137165064070
 Root     55 :    14.940378938304850
 Root     56 :    15.055342708209860
 Root     57 :    15.068795274934780
 Root     58 :    15.164535177031830
 Root     59 :    15.622448537071430
 Root     60 :    15.935194324534420
 Iteration     2 Dimension   120 NMult    60 NNew     60
 CISAX will form    60 AO SS matrices at one time.
 NMat=    60 NSing=    60 JSym2X= 0.
 Root      1 not converged, maximum delta is    0.022957973605985
 Root      2 not converged, maximum delta is    0.028911723990830
 Root      3 not converged, maximum delta is    0.039939516002568
 Root      4 not converged, maximum delta is    0.033184720073959
 Root      5 not converged, maximum delta is    0.028815033770933
 Root      6 not converged, maximum delta is    0.037170297269922
 Root      7 not converged, maximum delta is    0.039218269912840
 Root      8 not converged, maximum delta is    0.093705247567768
 Root      9 not converged, maximum delta is    0.134202508581054
 Root     10 not converged, maximum delta is    0.037310842882603
 New state     11 was old state     13
 Root     11 not converged, maximum delta is    0.187132622446715
 Root     12 not converged, maximum delta is    0.271546946433590
 New state     13 was old state     11
 Root     13 not converged, maximum delta is    0.341734744222309
 Root     14 not converged, maximum delta is    0.091396325693046
 Root     15 not converged, maximum delta is    0.057548343791011
 Excitation Energies [eV] at current iteration:
 Root      1 :     5.227477485445674   Change is   -0.068076145647054
 Root      2 :     6.239346429211029   Change is   -0.045047774835600
 Root      3 :     6.303044702033858   Change is   -0.078447070785438
 Root      4 :     6.534032420667560   Change is   -0.093061208005538
 Root      5 :     7.009287711153174   Change is   -0.032972946276485
 Root      6 :     7.791058252458676   Change is   -0.053393764189501
 Root      7 :     7.865372797626420   Change is   -0.101918704218968
 Root      8 :     8.186655539696130   Change is   -0.040317470694290
 Root      9 :     8.278528184401649   Change is   -0.125641483819151
 Root     10 :     8.467860418425571   Change is   -0.125210188467028
 Root     11 :     8.665359492349285   Change is   -0.259701498434058
 Root     12 :     8.702415053835979   Change is   -0.170183898914534
 Root     13 :     8.791325020563338   Change is   -0.035077608741190
 Root     14 :     9.091470533260212   Change is   -0.083406092609939
 Root     15 :     9.278100755352343   Change is   -0.054414134524752
 Root     16 :     9.374783845321879   Change is   -0.224615098624952
 Root     17 :     9.469244752836659   Change is   -0.115438904818849
 Root     18 :     9.677069588265100   Change is   -0.174461510714786
 Root     19 :     9.986154006697641   Change is   -0.150759715899936
 Root     20 :    10.107866552552220   Change is   -0.237144240177754
 Root     21 :    10.289993077944650   Change is   -0.366930092227754
 Root     22 :    10.326378914989020   Change is   -0.086781979883216
 Root     23 :    10.452947524697570   Change is   -0.401145311092916
 Root     24 :    10.470957996470720   Change is   -0.079304376599492
 Root     25 :    10.698012921249530   Change is   -0.085136227471556
 Root     26 :    10.789866113822320   Change is   -0.075950767724819
 Root     27 :    10.825810694686040   Change is   -0.068140071095364
 Root     28 :    10.943218813558660   Change is   -0.070084594630762
 Root     29 :    11.101339138695320   Change is   -0.255936611412234
 Root     30 :    11.270807216432250   Change is   -0.214851944413570
 Root     31 :    11.321685330463910   Change is   -0.040978979264199
 Root     32 :    11.424992022927900   Change is   -0.345847348633806
 Root     33 :    11.629177659245360   Change is   -0.288541235753054
 Root     34 :    11.796548362623590   Change is   -0.183543752870366
 Root     35 :    11.900471368981250   Change is   -0.220719758373421
 Root     36 :    11.948290892595130   Change is   -0.465491851225226
 Root     37 :    12.017526899444220   Change is   -0.213070330884071
 Root     38 :    12.184697331700930   Change is   -0.425440800430227
 Root     39 :    12.337795027631520   Change is   -0.802343176756703
 Root     40 :    12.584088600038160   Change is   -0.191162655545499
 Root     41 :    12.712041717576230   Change is   -0.073547327338013
 Root     42 :    12.759513235393130   Change is   -0.077847744425457
 Root     43 :    13.026673463233050   Change is   -0.319406309058977
 Root     44 :    13.238903279188590   Change is   -0.397491614591535
 Root     45 :    13.352052326640690   Change is   -0.318983064129684
 Root     46 :    13.461853804271750   Change is   -0.410677373051461
 Root     47 :    13.632199526322200   Change is   -0.442046021302913
 Root     48 :    13.699848294695900   Change is   -0.275760463087932
 Root     49 :    13.797500747254730   Change is   -0.002715746872499
 Root     50 :    13.852770203780190   Change is   -0.143974602012445
 Root     51 :    14.052082075970620   Change is   -0.399784688843929
 Root     52 :    14.103577845895580   Change is   -0.166467363877074
 Root     53 :    14.139480653417950   Change is   -0.601475553446446
 Root     54 :    14.340560409590830   Change is   -0.728234865343951
 Root     55 :    14.648441962259840   Change is   -0.291936976045007
 Root     56 :    14.753971265213630   Change is   -0.301371442996234
 Root     57 :    14.795595882694690   Change is   -0.099541282369379
 Root     58 :    14.927315878789470   Change is   -0.237219298242368
 Root     59 :    15.095938786652410   Change is   -0.839255537882007
 Root     60 :    15.486608221776110   Change is   -0.135840315295322
 Iteration     3 Dimension   135 NMult   120 NNew     15
 CISAX will form    15 AO SS matrices at one time.
 NMat=    15 NSing=    15 JSym2X= 0.
 Root      1 not converged, maximum delta is    0.000900619888964
 Root      2 not converged, maximum delta is    0.000186327135801
 Root      3 not converged, maximum delta is    0.000229770127528
 Root      4 not converged, maximum delta is    0.001157368605701
 Root      5 not converged, maximum delta is    0.000140086022742
 Root      6 not converged, maximum delta is    0.000573631231896
 Root      7 not converged, maximum delta is    0.001472451849756
 Root      8 not converged, maximum delta is    0.000293247864592
 Root      9 not converged, maximum delta is    0.000183675614121
 Root     10 not converged, maximum delta is    0.002308669921779
 Root     11 not converged, maximum delta is    0.000570123680837
 Root     12 not converged, maximum delta is    0.000689383878202
 Root     13 not converged, maximum delta is    0.000502746564808
 Root     14 not converged, maximum delta is    0.000305525596106
 Root     15 not converged, maximum delta is    0.000675084190247
 Excitation Energies [eV] at current iteration:
 Root      1 :     5.227200266670676   Change is   -0.000277218774999
 Root      2 :     6.239336279851504   Change is   -0.000010149359525
 Root      3 :     6.303029062513328   Change is   -0.000015639520530
 Root      4 :     6.533676335196686   Change is   -0.000356085470875
 Root      5 :     7.009283215411227   Change is   -0.000004495741948
 Root      6 :     7.791046107067605   Change is   -0.000012145391070
 Root      7 :     7.864881246206846   Change is   -0.000491551419573
 Root      8 :     8.186640865485915   Change is   -0.000014674210215
 Root      9 :     8.278521137063521   Change is   -0.000007047338128
 Root     10 :     8.467102958164626   Change is   -0.000757460260947
 Root     11 :     8.665317882371699   Change is   -0.000041609977587
 Root     12 :     8.702344074383049   Change is   -0.000070979452929
 Root     13 :     8.791287816212318   Change is   -0.000037204351021
 Root     14 :     9.091457313595974   Change is   -0.000013219664237
 Root     15 :     9.278078364050410   Change is   -0.000022391301932
 Iteration     4 Dimension   143 NMult   135 NNew      8
 CISAX will form     8 AO SS matrices at one time.
 NMat=     8 NSing=     8 JSym2X= 0.
 Root      1 not converged, maximum delta is    0.000037712186226
 Root      2 not converged, maximum delta is    0.000004794780972
 Root      3 not converged, maximum delta is    0.000004767158534
 Root      4 not converged, maximum delta is    0.000020810724470
 Root      5 not converged, maximum delta is    0.000004912028309
 Root      6 not converged, maximum delta is    0.000007612530351
 Root      7 not converged, maximum delta is    0.000048742672701
 Root      8 not converged, maximum delta is    0.000008982249533
 Root      9 not converged, maximum delta is    0.000006114534054
 Root     10 not converged, maximum delta is    0.000067231127691
 Root     11 not converged, maximum delta is    0.000020438262364
 Root     12 not converged, maximum delta is    0.000022656100159
 Root     13 not converged, maximum delta is    0.000012918466576
 Root     14 not converged, maximum delta is    0.000012113844182
 Root     15 not converged, maximum delta is    0.000010902308518
 Excitation Energies [eV] at current iteration:
 Root      1 :     5.227199755917746   Change is   -0.000000510752930
 Root      2 :     6.239336271096782   Change is   -0.000000008754721
 Root      3 :     6.303029054403082   Change is   -0.000000008110247
 Root      4 :     6.533676142195308   Change is   -0.000000193001378
 Root      5 :     7.009283212536897   Change is   -0.000000002874330
 Root      6 :     7.791046082776129   Change is   -0.000000024291476
 Root      7 :     7.864880523999016   Change is   -0.000000722207830
 Root      8 :     8.186640842091489   Change is   -0.000000023394427
 Root      9 :     8.278521117376441   Change is   -0.000000019687079
 Root     10 :     8.467101640957067   Change is   -0.000001317207559
 Root     11 :     8.665317758412147   Change is   -0.000000123959552
 Root     12 :     8.702343937128814   Change is   -0.000000137254235
 Root     13 :     8.791287775086053   Change is   -0.000000041126265
 Root     14 :     9.091457290160873   Change is   -0.000000023435101
 Root     15 :     9.278078319697517   Change is   -0.000000044352893
 Convergence achieved on expansion vectors.
 ***********************************************************************
 Excited states from <AA,BB:AA,BB> singles matrix:
 ***********************************************************************
 
 1PDM for each excited state written to RWF  633
 Ground to excited state transition densities written to RWF  633
 Ground to excited state transition electric dipole moments (Au):
       state          X           Y           Z        Dip. S.      Osc.
         1        -1.3261      0.0876     -0.0095      1.7663      0.2262
         2         0.0322      0.0830      0.0314      0.0089      0.0014
         3         0.0135     -0.1261      0.1198      0.0304      0.0047
         4        -0.1092     -0.4625      0.0066      0.2259      0.0362
         5         0.0096      0.1040      0.0302      0.0118      0.0020
         6         0.0038     -0.1637      0.0216      0.0273      0.0052
         7        -0.0297     -1.1726     -0.0279      1.3768      0.2653
         8         0.0380     -0.0140     -0.0395      0.0032      0.0006
         9         0.0283     -0.0280     -0.0098      0.0017      0.0003
        10         0.5890     -0.1791      0.0500      0.3816      0.0792
        11         0.0906      0.0249      0.2792      0.0868      0.0184
        12        -0.1680      0.0761      0.0076      0.0341      0.0073
        13         0.1250     -0.0149     -0.0882      0.0236      0.0051
        14        -0.0709     -0.0069     -0.0329      0.0062      0.0014
        15         0.1903      0.0202      0.0447      0.0386      0.0088
 Ground to excited state transition velocity dipole moments (Au):
       state          X           Y           Z        Dip. S.      Osc.
         1         0.1353     -0.0013     -0.0032      0.0183      0.0635
         2        -0.0032     -0.0044     -0.0798      0.0064      0.0186
         3        -0.0048      0.0144     -0.1295      0.0170      0.0489
         4         0.0079      0.0336      0.0110      0.0013      0.0037
         5        -0.0026     -0.0171      0.0020      0.0003      0.0008
         6         0.0037      0.0378      0.0186      0.0018      0.0042
         7         0.0235      0.2730      0.0011      0.0751      0.1732
         8        -0.0060      0.0029      0.0607      0.0037      0.0083
         9        -0.0040     -0.0005      0.0911      0.0083      0.0182
        10        -0.0863      0.0197      0.0307      0.0088      0.0188
        11        -0.0186     -0.0005      0.0062      0.0004      0.0008
        12         0.0260     -0.0097      0.0625      0.0047      0.0098
        13        -0.0266     -0.0030     -0.0528      0.0035      0.0072
        14         0.0059      0.0037      0.1323      0.0175      0.0350
        15        -0.0350     -0.0056     -0.1207      0.0158      0.0309
 Ground to excited state transition magnetic dipole moments (Au):
       state          X           Y           Z
         1         0.0052     -0.0233     -0.3442
         2         0.0135     -0.1530     -0.0012
         3         0.0236     -0.0673     -0.0028
         4        -0.0328     -0.0564      0.0176
         5        -0.3275     -0.9061      0.0084
         6         0.2304      0.5983      0.0080
         7        -0.0513     -0.1444     -0.0070
         8         1.2401     -0.5103      0.0001
         9        -0.0743     -0.1031     -0.0189
        10        -0.2167      0.0349     -0.1766
        11         0.2437      0.0788      0.0117
        12        -0.4296     -0.1353      0.0595
        13         0.5275     -0.2350      0.0078
        14        -0.0149     -0.1572      0.0228
        15        -0.1665     -0.1980      0.0568
 Ground to excited state transition velocity quadrupole moments (Au):
       state          XX          YY          ZZ          XY          XZ          YZ
         1         0.1714     -0.1268     -0.0021      0.3917      0.0088     -0.0003
         2        -0.0056      0.0548     -0.0155     -0.0009      0.1106     -0.0619
         3         0.0106     -0.0474      0.0157     -0.0346     -0.0039     -0.0386
         4         0.1196     -0.3265      0.0903     -0.1084     -0.0002      0.0241
         5        -0.0050      0.0053     -0.0106      0.0027     -0.2216      0.0738
         6        -0.0343      0.0280     -0.0070      0.0280     -0.4339      0.1362
         7        -0.2321      0.1369      0.0113      0.1184      0.0687     -0.0065
         8        -0.0031     -0.0154     -0.0044      0.0009     -0.0108     -0.1015
         9         0.0190      0.0135     -0.0019      0.0170      0.2140      0.2907
        10         0.1120     -0.0934     -0.0235      0.3098      0.0283     -0.1194
        11         0.0309     -0.0136      0.0080      0.0091      0.0089     -0.1526
        12        -0.0050      0.0372     -0.0016     -0.1094      0.1931     -0.2084
        13         0.0679     -0.0061     -0.0006      0.0393      0.1794      0.3110
        14        -0.0222      0.0136     -0.0071     -0.0360     -0.1014      0.0074
        15         0.0395     -0.0002      0.0063      0.0231     -0.0290      0.0261
 <0|del|b> * <b|rxdel|0> + <0|del|b> * <b|delr+rdel|0>
 Rotatory Strengths (R) in cgs (10**-40 erg-esu-cm/Gauss)
       state          XX          YY          ZZ    R(velocity)    E-M Angle
         1        -0.2035      5.5181      1.3996      2.2381       87.76
         2         2.0299      0.2686     -0.0843      0.7381       86.65
         3         5.9993     -6.1817     -2.0128     -0.7317       94.43
         4        -4.2549      1.9423     -3.4693     -1.9273      143.20
         5        16.0580      0.9146     27.8295     14.9340       12.73
         6        49.0236      1.2015      8.1004     19.4418       29.49
         7       -71.0366     -1.8364    -26.5730    -33.1487      165.19
         8        -1.6161     -8.0908    -11.2324     -6.9798       96.24
         9        -0.0273     -4.8126      1.6453     -1.0649       96.74
        10         4.7929     16.0013     10.9605     10.5849       58.05
        11         0.1062     -1.8615     -8.2254     -3.3269      153.38
        12         0.0555     -6.6918     -6.9833     -4.5399      101.43
        13        -1.3423    -22.5896     -6.1195    -10.0171      113.68
        14        -2.0569      8.1847     -1.1522      1.6585       83.61
        15        -9.0270      0.8734      8.2935      0.0466       90.00
 1/2[<0|r|b>*<b|rxdel|0> + (<0|rxdel|b>*<b|r|0>)*]
 Rotatory Strengths (R) in cgs (10**-40 erg-esu-cm/Gauss)
       state          XX          YY          ZZ     R(length)
         1         4.8335      1.4405     -2.3188      1.3184
         2        -0.3086      8.9762      0.0260      2.8979
         3        -0.2257     -5.9989      0.2351     -1.9965
         4        -2.5360    -18.4524     -0.0825     -7.0236
         5         2.2223     66.6138     -0.1790     22.8857
         6        -0.6130     69.2749     -0.1226     22.8465
         7        -1.0778   -119.7723     -0.1379    -40.3293
         8       -33.2844     -5.0580      0.0036    -12.7796
         9         1.4877     -2.0410     -0.1311     -0.2281
        10        90.2782      4.4206      6.2492     33.6493
        11       -15.6177     -1.3895     -2.3106     -6.4392
        12       -51.0179      7.2852     -0.3179    -14.6835
        13       -46.6307     -2.4807      0.4847    -16.2089
        14        -0.7454     -0.7625      0.5311     -0.3256
        15        22.4019      2.8294     -1.7945      7.8123
  1/2[<0|del|b>*<b|r|0> + (<0|r|b>*<b|del|0>)*] (Au)
       state          X           Y           Z        Dip. S.   Osc.(frdel)
         1        -0.1794     -0.0001      0.0000      0.1794      0.1196
         2        -0.0001     -0.0004     -0.0025      0.0030      0.0020
         3        -0.0001     -0.0018     -0.0155      0.0174      0.0116
         4        -0.0009     -0.0156      0.0001      0.0163      0.0109
         5         0.0000     -0.0018      0.0001      0.0017      0.0012
         6         0.0000     -0.0062      0.0004      0.0058      0.0038
         7        -0.0007     -0.3201      0.0000      0.3209      0.2139
         8        -0.0002      0.0000     -0.0024      0.0027      0.0018
         9        -0.0001      0.0000     -0.0009      0.0010      0.0007
        10        -0.0508     -0.0035      0.0015      0.0528      0.0352
        11        -0.0017      0.0000      0.0017      0.0000      0.0000
        12        -0.0044     -0.0007      0.0005      0.0046      0.0031
        13        -0.0033      0.0000      0.0047     -0.0014     -0.0009
        14        -0.0004      0.0000     -0.0044      0.0048      0.0032
        15        -0.0066     -0.0001     -0.0054      0.0122      0.0081

 Excitation energies and oscillator strengths:
 
 Excited State   1:      Singlet-A      5.2272 eV  237.19 nm  f=0.2262  <S**2>=0.000
      12 -> 15         0.13415
      13 -> 14         0.68333
 This state for optimization and/or second-order correction.
 Total Energy, E(CIS) =   1.34070395587    
 Copying the excited state density for this state as the 1-particle RhoCI density.
 
 Excited State   2:      Singlet-A      6.2393 eV  198.71 nm  f=0.0014  <S**2>=0.000
      13 -> 15        -0.24840
      13 -> 16         0.60977
      13 -> 17        -0.12376
      13 -> 18         0.15856
 
 Excited State   3:      Singlet-A      6.3030 eV  196.71 nm  f=0.0047  <S**2>=0.000
      13 -> 15         0.15741
      13 -> 16         0.20013
      13 -> 17         0.61935
      13 -> 19         0.17025
 
 Excited State   4:      Singlet-A      6.5337 eV  189.76 nm  f=0.0362  <S**2>=0.000
      12 -> 14        -0.31910
      13 -> 15         0.54310
      13 -> 16         0.18795
      13 -> 17        -0.21672
 
 Excited State   5:      Singlet-A      7.0093 eV  176.89 nm  f=0.0020  <S**2>=0.000
      11 -> 14         0.68912
 
 Excited State   6:      Singlet-A      7.7910 eV  159.14 nm  f=0.0052  <S**2>=0.000
      13 -> 16        -0.13474
      13 -> 18         0.61806
      13 -> 19         0.17796
      13 -> 24         0.12917
 
 Excited State   7:      Singlet-A      7.8649 eV  157.64 nm  f=0.2653  <S**2>=0.000
      11 -> 19         0.10445
      12 -> 14         0.59442
      13 -> 15         0.28317
 
 Excited State   8:      Singlet-A      8.1866 eV  151.45 nm  f=0.0006  <S**2>=0.000
       9 -> 15        -0.14602
      10 -> 14         0.58708
      11 -> 15         0.23578
      13 -> 19         0.10794
      13 -> 20         0.21272
 
 Excited State   9:      Singlet-A      8.2785 eV  149.77 nm  f=0.0003  <S**2>=0.000
      10 -> 14        -0.22251
      13 -> 17        -0.13169
      13 -> 18        -0.12760
      13 -> 19         0.41905
      13 -> 20         0.40400
      13 -> 21        -0.15373
      13 -> 23         0.11462
 
 Excited State  10:      Singlet-A      8.4671 eV  146.43 nm  f=0.0792  <S**2>=0.000
      11 -> 16         0.15127
      11 -> 17        -0.11254
      11 -> 18         0.14806
      12 -> 15         0.58886
      12 -> 17         0.12626
      13 -> 14        -0.10989
 
 Excited State  11:      Singlet-A      8.6653 eV  143.08 nm  f=0.0184  <S**2>=0.000
       9 -> 15        -0.22795
      10 -> 14        -0.28192
      11 -> 15         0.54553
      11 -> 16         0.10104
      12 -> 17         0.12973
 
 Excited State  12:      Singlet-A      8.7023 eV  142.47 nm  f=0.0073  <S**2>=0.000
      12 -> 15        -0.11837
      12 -> 16         0.10208
      12 -> 17         0.60066
      13 -> 19         0.15458
      13 -> 20        -0.13822
 
 Excited State  13:      Singlet-A      8.7913 eV  141.03 nm  f=0.0051  <S**2>=0.000
       7 -> 16        -0.10406
      12 -> 16         0.52653
      13 -> 19        -0.21399
      13 -> 20         0.35099
 
 Excited State  14:      Singlet-A      9.0915 eV  136.37 nm  f=0.0014  <S**2>=0.000
      12 -> 16        -0.29677
      12 -> 17         0.12685
      13 -> 16         0.10449
      13 -> 19        -0.20689
      13 -> 20         0.28483
      13 -> 21         0.46917
      13 -> 22         0.12131
 
 Excited State  15:      Singlet-A      9.2781 eV  133.63 nm  f=0.0088  <S**2>=0.000
      12 -> 16         0.26010
      12 -> 17        -0.20032
      13 -> 17        -0.12246
      13 -> 19         0.33610
      13 -> 20        -0.17234
      13 -> 21         0.42716
      13 -> 22         0.16179
 SavETr:  write IOETrn=   770 NScale= 10 NData=  16 NLR=1 NState=   15 LETran=     280.
 The selected state is a singlet
 CISAX will form     1 AO SS matrices at one time.
 NMat=     1 NSing=     1 JSym2X= 0.
 Leave Link  914 at Tue Dec 15 17:05:44 2015, MaxMem=    33554432 cpu:         0.1
 (Enter /home/Applications/g09/g09/l1002.exe)
 Minotr:  Closed shell wavefunction.
          Computing CIS/TD-HF/TD-KS derivatives.
          Using Z-Vector for PSCF gradient.
          Skipping F1 and S1 gradient terms here.
          IDoAtm=111111111
          Direct CPHF calculation.
          Differentiating once with respect to electric field.
                with respect to dipole field.
          Differentiating once with respect to nuclear coordinates.
          Electric field/nuclear overlap derivatives assumed to be zero.
          Requested convergence is 1.0D-10 RMS, and 1.0D-09 maximum.
          NewPWx=T KeepS1=F KeepF1=F KeepIn=T MapXYZ=F SortEE=F KeepMc=T.
          MDV=      33495423 using IRadAn=       0.
 Keep J ints in memory in canonical form, NReq=871704.
 FoFCou: FMM=F IPFlag=           0 FMFlag=           0 FMFlg1=           0
         NFxFlg=           0 DoJE=F BraDBF=F KetDBF=F FulRan=T
         wScrn=  0.000000 ICntrl=     600 IOpCl=  2 I1Cent=           0 NGrid=           0
         NMat0=    1 NMatS0=     54 NMatT0=    0 NMatD0=    1 NMtDS0=    0 NMtDT0=    0
 Symmetry not used in FoFCou.
          Solving linear equations separately, MaxMat=       0.
          There are     1 degrees of freedom in the 1st order CPHF.  IDoFFX=0 NUNeed=     1.
 LinEq1:  Iter=  0 NonCon=     1 RMS=1.21D-02 Max=1.19D-01 NDo=     1
 AX will form     1 AO Fock derivatives at one time.
 LinEq1:  Iter=  1 NonCon=     1 RMS=2.16D-03 Max=1.98D-02 NDo=     1
 LinEq1:  Iter=  2 NonCon=     1 RMS=2.33D-04 Max=1.25D-03 NDo=     1
 LinEq1:  Iter=  3 NonCon=     1 RMS=2.89D-05 Max=1.37D-04 NDo=     1
 LinEq1:  Iter=  4 NonCon=     1 RMS=4.88D-06 Max=2.96D-05 NDo=     1
 LinEq1:  Iter=  5 NonCon=     1 RMS=5.82D-07 Max=1.86D-06 NDo=     1
 LinEq1:  Iter=  6 NonCon=     1 RMS=7.37D-08 Max=4.33D-07 NDo=     1
 LinEq1:  Iter=  7 NonCon=     1 RMS=1.01D-08 Max=4.32D-08 NDo=     1
 LinEq1:  Iter=  8 NonCon=     1 RMS=1.33D-09 Max=4.73D-09 NDo=     1
 LinEq1:  Iter=  9 NonCon=     1 RMS=1.83D-10 Max=5.40D-10 NDo=     1
 LinEq1:  Iter= 10 NonCon=     0 RMS=2.07D-11 Max=7.59D-11 NDo=     1
 Linear equations converged to 1.000D-10 1.000D-09 after    10 iterations.
 End of Minotr F.D. properties file   721 does not exist.
 End of Minotr F.D. properties file   722 does not exist.
 End of Minotr F.D. properties file   788 does not exist.
 Leave Link 1002 at Tue Dec 15 17:05:44 2015, MaxMem=    33554432 cpu:         0.0
 (Enter /home/Applications/g09/g09/l601.exe)
 Copying SCF densities to generalized density rwf, IOpCl= 0 IROHF=0.

 **********************************************************************

            Population analysis using the SCF density.

 **********************************************************************

 Orbital symmetries:
       Occupied  (A) (A) (A) (A) (A) (A) (A) (A) (A) (A) (A) (A)
                 (A)
       Virtual   (A) (A) (A) (A) (A) (A) (A) (A) (A) (A) (A)
 The electronic state is 1-A.
 Alpha  occ. eigenvalues --   -1.79698  -1.18181  -0.97102  -0.86972  -0.79744
 Alpha  occ. eigenvalues --   -0.73627  -0.70234  -0.58786  -0.55486  -0.53210
 Alpha  occ. eigenvalues --   -0.48799  -0.46883  -0.36297
 Alpha virt. eigenvalues --    0.03511   0.08956   0.09888   0.11141   0.18613
 Alpha virt. eigenvalues --    0.19201   0.21373   0.22316   0.26228   0.27171
 Alpha virt. eigenvalues --    0.28549
     Molecular Orbital Coefficients:
                           1         2         3         4         5
                           O         O         O         O         O
     Eigenvalues --    -1.79698  -1.18181  -0.97102  -0.86972  -0.79744
   1 1   C  1S          0.07851   0.40935  -0.28241  -0.28087   0.20920
   2        1PX        -0.07884  -0.20302  -0.10359  -0.18316  -0.10758
   3        1PY        -0.08800  -0.08231   0.16226   0.06414   0.41285
   4        1PZ        -0.00080  -0.00480   0.00443   0.00029  -0.00241
   5 2   C  1S          0.23585   0.18611  -0.47821   0.06650  -0.37636
   6        1PX        -0.26524  -0.05520   0.00820  -0.22972  -0.07469
   7        1PY        -0.05712   0.30001   0.00888  -0.42847   0.10397
   8        1PZ         0.00223   0.00094  -0.00042  -0.00016  -0.00111
   9 3   O  1S          0.81668  -0.30602   0.00398   0.04878   0.24544
  10        1PX         0.02281   0.03565  -0.32071   0.36794  -0.09016
  11        1PY         0.10913   0.17979   0.06130  -0.13365  -0.17711
  12        1PZ        -0.00208  -0.00027   0.00324   0.00213   0.00040
  13 4   C  1S          0.25256   0.27504   0.49258  -0.09574  -0.27964
  14        1PX         0.20744   0.20374  -0.10016  -0.04843   0.09341
  15        1PY        -0.18106   0.29341  -0.04269   0.50022   0.01967
  16        1PZ         0.00832   0.00586   0.02260  -0.01071  -0.01411
  17 5   C  1S          0.09214   0.49121   0.19764   0.26258   0.19355
  18        1PX         0.03275   0.10227  -0.27243  -0.22635   0.26059
  19        1PY        -0.12828  -0.16886  -0.11043   0.09082   0.33826
  20        1PZ         0.00048  -0.00228   0.00238  -0.00770  -0.00227
  21 6   H  1S          0.00655   0.16954   0.10750   0.22299   0.22489
  22 7   H  1S          0.05855   0.02678   0.28561  -0.07998  -0.19417
  23 8   H  1S          0.04525   0.01092  -0.23542   0.05311  -0.26405
  24 9   H  1S          0.00465   0.12791  -0.13662  -0.19436   0.22611
                           6         7         8         9        10
                           O         O         O         O         O
     Eigenvalues --    -0.73627  -0.70234  -0.58786  -0.55486  -0.53210
   1 1   C  1S          0.21215  -0.00261  -0.14657   0.00251   0.08283
   2        1PX         0.24399  -0.02606  -0.04342   0.24679   0.30166
   3        1PY         0.07873  -0.01119   0.02664  -0.27903   0.45497
   4        1PZ         0.02046   0.34022   0.02021  -0.00019   0.00341
   5 2   C  1S          0.17469  -0.01019  -0.06699  -0.14103  -0.09885
   6        1PX         0.40245  -0.05124   0.54603   0.11858  -0.09019
   7        1PY        -0.07526   0.01319  -0.19225   0.43781  -0.32041
   8        1PZ         0.03088   0.49618   0.01710   0.02910   0.00013
   9 3   O  1S          0.18001  -0.01154   0.04319   0.28219  -0.04943
  10        1PX        -0.07195   0.02260  -0.24690  -0.04728   0.12144
  11        1PY        -0.25906   0.01725   0.01561  -0.26141   0.04769
  12        1PZ         0.03443   0.37228   0.01715   0.01808   0.00179
  13 4   C  1S          0.11926  -0.03556   0.01891  -0.12093   0.14416
  14        1PX        -0.39472   0.00303   0.54326   0.02037   0.12779
  15        1PY         0.07416   0.00585  -0.00548   0.47263   0.18785
  16        1PZ         0.05460   0.57673   0.03154  -0.02922   0.00954
  17 5   C  1S          0.14905  -0.01567   0.13044  -0.05377  -0.08535
  18        1PX        -0.16005   0.02183  -0.03082  -0.29741  -0.01928
  19        1PY         0.19152  -0.00926  -0.03917  -0.24467  -0.40397
  20        1PZ         0.02862   0.39647   0.02208  -0.02468   0.00248
  21 6   H  1S          0.23981  -0.02450   0.06273  -0.12989  -0.32817
  22 7   H  1S          0.29300  -0.00236  -0.35941  -0.18418  -0.03527
  23 8   H  1S          0.31997  -0.04306   0.33359  -0.20509   0.01370
  24 9   H  1S          0.27257  -0.02065  -0.10663  -0.01697   0.45014
                          11        12        13        14        15
                           O         O         O         V         V
     Eigenvalues --    -0.48799  -0.46883  -0.36297   0.03511   0.08956
   1 1   C  1S         -0.08135   0.01134   0.00978   0.00192   0.00666
   2        1PX         0.46362  -0.04601   0.00307   0.00673  -0.05851
   3        1PY        -0.02480   0.01262  -0.00604  -0.00031   0.04793
   4        1PZ         0.02638   0.25526   0.61832   0.65228   0.09687
   5 2   C  1S          0.09684  -0.00305  -0.00084  -0.00446   0.00598
   6        1PX        -0.20643   0.02442  -0.00265  -0.00150  -0.05382
   7        1PY         0.08798  -0.03254   0.00770   0.00530   0.04498
   8        1PZ         0.06996   0.69819  -0.20491  -0.28743  -0.35587
   9 3   O  1S         -0.10479  -0.00302   0.00339   0.00268   0.00095
  10        1PX         0.04425  -0.00598  -0.00016   0.00148  -0.03679
  11        1PY         0.31745  -0.01729  -0.01475   0.00906   0.03492
  12        1PZ         0.00387   0.06055  -0.43960   0.07666   0.78604
  13 4   C  1S          0.05324   0.02447   0.00527  -0.01027   0.03097
  14        1PX         0.25337  -0.02846  -0.00758   0.01551  -0.11501
  15        1PY        -0.13742  -0.01689   0.00208   0.01625  -0.03934
  16        1PZ        -0.03677  -0.59498  -0.28149   0.25596  -0.38193
  17 5   C  1S         -0.05048   0.00896   0.00730  -0.01213   0.00123
  18        1PX        -0.44667   0.04799  -0.01766   0.01816  -0.06344
  19        1PY         0.33230  -0.02366  -0.00743   0.01052  -0.02924
  20        1PZ        -0.02262  -0.28191   0.54971  -0.64680   0.18585
  21 6   H  1S          0.35077  -0.02157  -0.00033   0.00134  -0.00328
  22 7   H  1S         -0.15625   0.01657  -0.00862   0.02654  -0.15473
  23 8   H  1S         -0.10510   0.01650  -0.00214   0.00584   0.08731
  24 9   H  1S          0.20002  -0.01316   0.00175  -0.00724   0.01497
                          16        17        18        19        20
                           V         V         V         V         V
     Eigenvalues --     0.09888   0.11141   0.18613   0.19201   0.21373
   1 1   C  1S         -0.09860  -0.11514  -0.13447  -0.03395  -0.07427
   2        1PX         0.18882  -0.15046   0.52858   0.06457  -0.25362
   3        1PY        -0.02479   0.36927  -0.01794   0.15578  -0.20571
   4        1PZ         0.00612  -0.01361  -0.00235   0.00150  -0.00057
   5 2   C  1S         -0.06653  -0.09079  -0.17984   0.16850  -0.22480
   6        1PX         0.15233  -0.15403  -0.15884   0.40236   0.19316
   7        1PY         0.01981   0.44817   0.06765  -0.00994  -0.06081
   8        1PZ        -0.07211   0.05327   0.00523  -0.00271   0.00113
   9 3   O  1S          0.04894   0.09536   0.00590   0.15709   0.10581
  10        1PX         0.14811  -0.01792   0.03917   0.15357   0.12807
  11        1PY         0.11164   0.30780   0.02050   0.50524   0.42562
  12        1PZ         0.17057  -0.09602  -0.00617  -0.01681  -0.01459
  13 4   C  1S         -0.13516  -0.08175   0.06083   0.20622  -0.34671
  14        1PX         0.43334  -0.07491  -0.15568  -0.29465  -0.14246
  15        1PY         0.24709   0.19286   0.00683   0.20900  -0.02279
  16        1PZ        -0.11911   0.03412   0.00458   0.00706  -0.00369
  17 5   C  1S         -0.06717  -0.12214   0.10655  -0.01374  -0.11826
  18        1PX         0.22798  -0.12469   0.49906   0.18816  -0.04604
  19        1PY         0.18715   0.13436  -0.26580   0.19382  -0.37526
  20        1PZ         0.07282  -0.01514   0.00814   0.00155  -0.00275
  21 6   H  1S         -0.03704  -0.15837   0.36640  -0.12960   0.38878
  22 7   H  1S          0.67882   0.04365  -0.12220  -0.24929   0.09248
  23 8   H  1S         -0.08327   0.58909   0.23660  -0.35632   0.00767
  24 9   H  1S         -0.08746  -0.07141  -0.27147  -0.15514   0.36001
                          21        22        23        24
                           V         V         V         V
     Eigenvalues --     0.22316   0.26228   0.27171   0.28549
   1 1   C  1S          0.01677   0.12680   0.67576  -0.15123
   2        1PX        -0.01348  -0.05615   0.11668   0.19761
   3        1PY         0.52823  -0.06440  -0.02091  -0.04591
   4        1PZ         0.00252  -0.00020  -0.00931   0.00396
   5 2   C  1S          0.35045  -0.37843  -0.26373  -0.03535
   6        1PX         0.16712   0.18349  -0.05064   0.04017
   7        1PY         0.21404   0.15066  -0.29078   0.03905
   8        1PZ        -0.00168  -0.00433  -0.00085  -0.00162
   9 3   O  1S         -0.01824   0.00728   0.03017   0.02394
  10        1PX         0.15461   0.74801  -0.09177   0.09614
  11        1PY        -0.13694  -0.15718   0.23167   0.14403
  12        1PZ         0.00532   0.00652  -0.00199   0.00035
  13 4   C  1S         -0.18999   0.29395  -0.16946  -0.36357
  14        1PX         0.08310   0.07450  -0.02968  -0.10026
  15        1PY        -0.22170  -0.25672   0.02876  -0.29173
  16        1PZ        -0.00154   0.00910  -0.00463  -0.00289
  17 5   C  1S         -0.03952  -0.03670  -0.04730   0.70864
  18        1PX        -0.19047  -0.07999  -0.25102  -0.11385
  19        1PY        -0.37018   0.07815  -0.02062  -0.03372
  20        1PZ        -0.00435  -0.00252  -0.00155  -0.01151
  21 6   H  1S          0.25503  -0.03720  -0.02423  -0.39188
  22 7   H  1S          0.10587  -0.07474   0.04503   0.05845
  23 8   H  1S         -0.20057   0.11436   0.05329   0.00408
  24 9   H  1S         -0.31210  -0.02911  -0.45602   0.01604
     Density Matrix:
                           1         2         3         4         5
   1 1   C  1S          0.91269
   2        1PX         0.02898   1.06870
   3        1PY         0.06769   0.05063   1.01621
   4        1PZ         0.00741  -0.00120  -0.00203   1.12962
   5 2   C  1S          0.32556   0.09536  -0.52151  -0.00515   1.07835
   6        1PX         0.03703   0.12484  -0.07646   0.00256  -0.11508
   7        1PY         0.47439   0.10661  -0.56911  -0.01014  -0.10274
   8        1PZ         0.00709   0.00118  -0.00646   0.44628   0.00241
   9 3   O  1S          0.02479   0.02126  -0.04962  -0.00154   0.05650
  10        1PX         0.02377   0.00965  -0.03165  -0.00019   0.45299
  11        1PY        -0.02965   0.05108  -0.05936  -0.00870   0.20827
  12        1PZ        -0.00325   0.00013  -0.00174  -0.25706  -0.00639
  13 4   C  1S         -0.01610  -0.02548   0.04410   0.00690   0.00377
  14        1PX        -0.02526  -0.01234   0.02681  -0.00546   0.00022
  15        1PY         0.05168  -0.01209  -0.02509  -0.00811  -0.05408
  16        1PZ        -0.00723   0.00268   0.00445  -0.25759   0.00013
  17 5   C  1S          0.25771  -0.45615   0.14631   0.00719  -0.01637
  18        1PX         0.48868  -0.61708   0.21980  -0.01870   0.03651
  19        1PY        -0.03561   0.04874   0.08573  -0.00717   0.02546
  20        1PZ         0.01216  -0.00730  -0.00160   0.80659  -0.00037
  21 6   H  1S          0.01886  -0.04423   0.01771  -0.00107   0.06922
  22 7   H  1S          0.08203  -0.09254   0.01338  -0.01169   0.07908
  23 8   H  1S          0.06556   0.01202  -0.09568  -0.00328   0.55905
  24 9   H  1S          0.57509   0.59141   0.54205  -0.00178   0.04898
                           6         7         8         9        10
   6        1PX         1.31993
   7        1PY         0.03045   1.26746
   8        1PZ         0.00482  -0.00880   1.56529
   9 3   O  1S         -0.14628  -0.05105  -0.00020   1.90145
  10        1PX        -0.55841  -0.32565   0.00524  -0.09115   0.66756
  11        1PY        -0.38454   0.00495   0.01397  -0.34238   0.00703
  12        1PZ         0.01610   0.00109   0.63843   0.00835   0.00119
  13 4   C  1S         -0.02572  -0.04775   0.00706   0.05311  -0.28209
  14        1PX         0.02519  -0.00942  -0.00156   0.10510  -0.12370
  15        1PY         0.01740   0.03293  -0.00633  -0.11402   0.38587
  16        1PZ         0.00059   0.00030  -0.14545   0.00325  -0.00737
  17 5   C  1S          0.03849   0.02821  -0.00193   0.02603  -0.03601
  18        1PX        -0.01299   0.00741   0.00523  -0.03896  -0.00744
  19        1PY        -0.01852  -0.00559   0.00188  -0.03407   0.00486
  20        1PZ        -0.00323   0.00204  -0.22757  -0.00060   0.00011
  21 6   H  1S         -0.00991   0.05738   0.00377   0.01802  -0.03574
  22 7   H  1S         -0.09196  -0.03073  -0.00192  -0.01499  -0.07242
  23 8   H  1S          0.60533  -0.48874  -0.01329  -0.00926   0.04104
  24 9   H  1S         -0.02671   0.01955   0.00065   0.01373   0.05446
                          11        12        13        14        15
  11        1PY         0.67356
  12        1PZ        -0.00128   0.67469
  13 4   C  1S          0.38641  -0.02137   1.04829
  14        1PX         0.47131  -0.00167   0.05883   1.27680
  15        1PY        -0.43423   0.02457  -0.13743  -0.05769   1.30941
  16        1PZ         0.02887   0.60844  -0.01335   0.01513   0.00672
  17 5   C  1S         -0.00407  -0.00300   0.37805   0.18328   0.45951
  18        1PX        -0.06964   0.00852  -0.31791   0.02757  -0.33523
  19        1PY        -0.04571   0.00146  -0.45133  -0.18268  -0.38393
  20        1PZ        -0.00571  -0.22059  -0.02019  -0.00121  -0.00524
  21 6   H  1S          0.07324  -0.00335   0.06840   0.03919   0.01271
  22 7   H  1S         -0.02212   0.00878   0.52451  -0.76887  -0.21516
  23 8   H  1S         -0.05128  -0.00460   0.06959   0.06648  -0.06424
  24 9   H  1S          0.03606  -0.00247   0.06589   0.02776   0.03940
                          16        17        18        19        20
  16        1PZ         1.54612
  17 5   C  1S          0.00203   0.89516
  18        1PX        -0.00462   0.00537   1.04576
  19        1PY         0.00166   0.05381  -0.04465   1.10445
  20        1PZ         0.49129   0.00322  -0.00432  -0.00071   1.08269
  21 6   H  1S         -0.00089   0.53722  -0.31440   0.76021  -0.00693
  22 7   H  1S          0.03471   0.06826  -0.03064  -0.07848  -0.00040
  23 8   H  1S          0.00441   0.06604   0.06396  -0.01638   0.00144
  24 9   H  1S          0.00195   0.01664   0.03789  -0.00526  -0.00138
                          21        22        23        24
  21 6   H  1S          0.90152
  22 7   H  1S          0.00448   0.80956
  23 8   H  1S          0.02587   0.02137   0.79845
  24 9   H  1S         -0.00270   0.02064   0.00934   0.90627
    Full Mulliken population analysis:
                           1         2         3         4         5
   1 1   C  1S          0.91269
   2        1PX         0.00000   1.06870
   3        1PY         0.00000   0.00000   1.01621
   4        1PZ         0.00000   0.00000   0.00000   1.12962
   5 2   C  1S          0.00000   0.00000   0.00000   0.00000   1.07835
   6        1PX         0.00000   0.00000   0.00000   0.00000   0.00000
   7        1PY         0.00000   0.00000   0.00000   0.00000   0.00000
   8        1PZ         0.00000   0.00000   0.00000   0.00000   0.00000
   9 3   O  1S          0.00000   0.00000   0.00000   0.00000   0.00000
  10        1PX         0.00000   0.00000   0.00000   0.00000   0.00000
  11        1PY         0.00000   0.00000   0.00000   0.00000   0.00000
  12        1PZ         0.00000   0.00000   0.00000   0.00000   0.00000
  13 4   C  1S          0.00000   0.00000   0.00000   0.00000   0.00000
  14        1PX         0.00000   0.00000   0.00000   0.00000   0.00000
  15        1PY         0.00000   0.00000   0.00000   0.00000   0.00000
  16        1PZ         0.00000   0.00000   0.00000   0.00000   0.00000
  17 5   C  1S          0.00000   0.00000   0.00000   0.00000   0.00000
  18        1PX         0.00000   0.00000   0.00000   0.00000   0.00000
  19        1PY         0.00000   0.00000   0.00000   0.00000   0.00000
  20        1PZ         0.00000   0.00000   0.00000   0.00000   0.00000
  21 6   H  1S          0.00000   0.00000   0.00000   0.00000   0.00000
  22 7   H  1S          0.00000   0.00000   0.00000   0.00000   0.00000
  23 8   H  1S          0.00000   0.00000   0.00000   0.00000   0.00000
  24 9   H  1S          0.00000   0.00000   0.00000   0.00000   0.00000
                           6         7         8         9        10
   6        1PX         1.31993
   7        1PY         0.00000   1.26746
   8        1PZ         0.00000   0.00000   1.56529
   9 3   O  1S          0.00000   0.00000   0.00000   1.90145
  10        1PX         0.00000   0.00000   0.00000   0.00000   0.66756
  11        1PY         0.00000   0.00000   0.00000   0.00000   0.00000
  12        1PZ         0.00000   0.00000   0.00000   0.00000   0.00000
  13 4   C  1S          0.00000   0.00000   0.00000   0.00000   0.00000
  14        1PX         0.00000   0.00000   0.00000   0.00000   0.00000
  15        1PY         0.00000   0.00000   0.00000   0.00000   0.00000
  16        1PZ         0.00000   0.00000   0.00000   0.00000   0.00000
  17 5   C  1S          0.00000   0.00000   0.00000   0.00000   0.00000
  18        1PX         0.00000   0.00000   0.00000   0.00000   0.00000
  19        1PY         0.00000   0.00000   0.00000   0.00000   0.00000
  20        1PZ         0.00000   0.00000   0.00000   0.00000   0.00000
  21 6   H  1S          0.00000   0.00000   0.00000   0.00000   0.00000
  22 7   H  1S          0.00000   0.00000   0.00000   0.00000   0.00000
  23 8   H  1S          0.00000   0.00000   0.00000   0.00000   0.00000
  24 9   H  1S          0.00000   0.00000   0.00000   0.00000   0.00000
                          11        12        13        14        15
  11        1PY         0.67356
  12        1PZ         0.00000   0.67469
  13 4   C  1S          0.00000   0.00000   1.04829
  14        1PX         0.00000   0.00000   0.00000   1.27680
  15        1PY         0.00000   0.00000   0.00000   0.00000   1.30941
  16        1PZ         0.00000   0.00000   0.00000   0.00000   0.00000
  17 5   C  1S          0.00000   0.00000   0.00000   0.00000   0.00000
  18        1PX         0.00000   0.00000   0.00000   0.00000   0.00000
  19        1PY         0.00000   0.00000   0.00000   0.00000   0.00000
  20        1PZ         0.00000   0.00000   0.00000   0.00000   0.00000
  21 6   H  1S          0.00000   0.00000   0.00000   0.00000   0.00000
  22 7   H  1S          0.00000   0.00000   0.00000   0.00000   0.00000
  23 8   H  1S          0.00000   0.00000   0.00000   0.00000   0.00000
  24 9   H  1S          0.00000   0.00000   0.00000   0.00000   0.00000
                          16        17        18        19        20
  16        1PZ         1.54612
  17 5   C  1S          0.00000   0.89516
  18        1PX         0.00000   0.00000   1.04576
  19        1PY         0.00000   0.00000   0.00000   1.10445
  20        1PZ         0.00000   0.00000   0.00000   0.00000   1.08269
  21 6   H  1S          0.00000   0.00000   0.00000   0.00000   0.00000
  22 7   H  1S          0.00000   0.00000   0.00000   0.00000   0.00000
  23 8   H  1S          0.00000   0.00000   0.00000   0.00000   0.00000
  24 9   H  1S          0.00000   0.00000   0.00000   0.00000   0.00000
                          21        22        23        24
  21 6   H  1S          0.90152
  22 7   H  1S          0.00000   0.80956
  23 8   H  1S          0.00000   0.00000   0.79845
  24 9   H  1S          0.00000   0.00000   0.00000   0.90627
     Gross orbital populations:
                           1
   1 1   C  1S          0.91269
   2        1PX         1.06870
   3        1PY         1.01621
   4        1PZ         1.12962
   5 2   C  1S          1.07835
   6        1PX         1.31993
   7        1PY         1.26746
   8        1PZ         1.56529
   9 3   O  1S          1.90145
  10        1PX         0.66756
  11        1PY         0.67356
  12        1PZ         0.67469
  13 4   C  1S          1.04829
  14        1PX         1.27680
  15        1PY         1.30941
  16        1PZ         1.54612
  17 5   C  1S          0.89516
  18        1PX         1.04576
  19        1PY         1.10445
  20        1PZ         1.08269
  21 6   H  1S          0.90152
  22 7   H  1S          0.80956
  23 8   H  1S          0.79845
  24 9   H  1S          0.90627
          Condensed to atoms (all electrons):
               1          2          3          4          5          6
     1  C    4.127230   0.000000   0.000000   0.000000   0.000000   0.000000
     2  C    0.000000   5.231030   0.000000   0.000000   0.000000   0.000000
     3  O    0.000000   0.000000   3.917265   0.000000   0.000000   0.000000
     4  C    0.000000   0.000000   0.000000   5.180618   0.000000   0.000000
     5  C    0.000000   0.000000   0.000000   0.000000   4.128058   0.000000
     6  H    0.000000   0.000000   0.000000   0.000000   0.000000   0.901519
     7  H    0.000000   0.000000   0.000000   0.000000   0.000000   0.000000
     8  H    0.000000   0.000000   0.000000   0.000000   0.000000   0.000000
     9  H    0.000000   0.000000   0.000000   0.000000   0.000000   0.000000
               7          8          9
     1  C    0.000000   0.000000   0.000000
     2  C    0.000000   0.000000   0.000000
     3  O    0.000000   0.000000   0.000000
     4  C    0.000000   0.000000   0.000000
     5  C    0.000000   0.000000   0.000000
     6  H    0.000000   0.000000   0.000000
     7  H    0.809562   0.000000   0.000000
     8  H    0.000000   0.798446   0.000000
     9  H    0.000000   0.000000   0.906272
 Mulliken charges:
               1
     1  C   -0.127230
     2  C   -1.231030
     3  O    2.082735
     4  C   -1.180618
     5  C   -0.128058
     6  H    0.098481
     7  H    0.190438
     8  H    0.201554
     9  H    0.093728
 Sum of Mulliken charges =   0.00000
 Mulliken charges with hydrogens summed into heavy atoms:
               1
     1  C   -0.033502
     2  C   -1.029476
     3  O    2.082735
     4  C   -0.990180
     5  C   -0.029577
 Charge=              0.0000 electrons
 Dipole moment (field-independent basis, Debye):
    X=             -2.1647    Y=             -7.5276    Z=              0.2456  Tot=              7.8365
 N-N= 1.037146918708D+02 E-N=-1.701363640118D+02  KE=-1.489542828855D+01
 Orbital energies and kinetic energies (alpha):
                                 1                 2
   1         O                -1.796980         -1.212006
   2         O                -1.181813         -0.973788
   3         O                -0.971015         -0.819282
   4         O                -0.869718         -0.618753
   5         O                -0.797438         -0.664462
   6         O                -0.736273         -0.599089
   7         O                -0.702335         -0.505914
   8         O                -0.587865         -0.401210
   9         O                -0.554857         -0.307565
  10         O                -0.532100         -0.441142
  11         O                -0.487990         -0.337548
  12         O                -0.468831         -0.325219
  13         O                -0.362970         -0.241738
  14         V                 0.035114         -0.165479
  15         V                 0.089560          0.109107
  16         V                 0.098879         -0.162289
  17         V                 0.111415         -0.126939
  18         V                 0.186125         -0.124008
  19         V                 0.192014          0.025688
  20         V                 0.213731         -0.026668
  21         V                 0.223156         -0.071000
  22         V                 0.262277          0.241040
  23         V                 0.271711         -0.076427
  24         V                 0.285486         -0.068250
 Total kinetic energy from orbitals=-1.489542828855D+01
 Leave Link  601 at Tue Dec 15 17:05:44 2015, MaxMem=    33554432 cpu:         0.0
 (Enter /home/Applications/g09/g09/l701.exe)
 Compute integral first derivatives.
 ... and contract with generalized density number  6.
 Leave Link  701 at Tue Dec 15 17:05:44 2015, MaxMem=    33554432 cpu:         0.0
 (Enter /home/Applications/g09/g09/l702.exe)
 L702 exits ... SP integral derivatives will be done elsewhere.
 Leave Link  702 at Tue Dec 15 17:05:44 2015, MaxMem=    33554432 cpu:         0.0
 (Enter /home/Applications/g09/g09/l703.exe)
 Compute integral first derivatives, UseDBF=F ICtDFT=           0.
 Integral derivatives from FoFJK, PRISM(SPDF).
 Calling FoFJK, ICntrl=  10005127 FMM=F ISym2X=0 I1Cent= 0 IOpClX= 0 NMat=1 NMatS=1 NMatT=0.
 FoFJK:  IHMeth= 8 ICntrl=10005127 DoSepK=F KAlg= 0 I1Cent=   0 FoldK=F
 IRaf=         0 NMat=   1 IRICut=       1 DoRegI=T DoRafI=F ISym2E= 0.
 FoFCou: FMM=F IPFlag=           0 FMFlag=      100000 FMFlg1=         800
         NFxFlg=           0 DoJE=F BraDBF=F KetDBF=F FulRan=T
         wScrn=  0.000000 ICntrl=10005127 IOpCl=  0 I1Cent=           0 NGrid=           0
         NMat0=    1 NMatS0=      1 NMatT0=    0 NMatD0=    1 NMtDS0=    0 NMtDT0=    0
 Symmetry not used in FoFCou.
 Leave Link  703 at Tue Dec 15 17:05:44 2015, MaxMem=    33554432 cpu:         0.0
 (Enter /home/Applications/g09/g09/l716.exe)
 Dipole        =-8.94272599D-01-3.26099076D+00 1.00378390D-01
 ***** Axes restored to original set *****
 -------------------------------------------------------------------
 Center     Atomic                   Forces (Hartrees/Bohr)
 Number     Number              X              Y              Z
 -------------------------------------------------------------------
      1        6          -0.110900759    0.096916669   -0.005370808
      2        6          -0.064139186    0.134787870    0.002176903
      3        8           0.209588173   -0.047724605   -0.007936657
      4        6          -0.226152695   -0.059879241    0.013629159
      5        6           0.060295467   -0.132560076    0.000668937
      6        1           0.060940361    0.041328610    0.000605834
      7        1           0.018596301    0.006454032   -0.005097506
      8        1           0.006707254   -0.005467243    0.000843181
      9        1           0.045065083   -0.033856016    0.000480956
 -------------------------------------------------------------------
 Cartesian Forces:  Max     0.226152695 RMS     0.080619785
 Z-matrix is all fixed cartesians, so copy forces.
 Force constants in Cartesian coordinates: 
                1             2             3             4             5 
      1  0.874768D+00
      2 -0.877652D-01  0.685174D+00
      3  0.853347D-02 -0.418143D-02  0.165308D+00
      4 -0.422642D+00 -0.707075D-01 -0.697924D-02  0.806353D+00
      5 -0.503695D-01 -0.188604D+00 -0.153180D-02 -0.650205D-02  0.806577D+00
      6 -0.852368D-02 -0.220350D-02 -0.826150D-01  0.126190D-01  0.546979D-02
      7 -0.677036D-02  0.280645D-01  0.141191D-03 -0.262454D+00  0.145044D+00
      8 -0.490188D-02  0.203506D-01 -0.217820D-03  0.187882D+00 -0.341882D+00
      9 -0.224435D-03  0.716384D-03  0.299020D-02 -0.188975D-02  0.144395D-02
     10  0.967451D-02  0.417043D-03  0.801507D-03  0.223972D-01  0.162366D-01
     11  0.349920D-01  0.151522D-02  0.339977D-02 -0.191394D-01 -0.138744D-01
     12 -0.462853D-03  0.635191D-04  0.131157D-03  0.111670D-03  0.484439D-04
     13 -0.151207D+00  0.158987D-01 -0.113667D-02  0.768410D-02 -0.319256D-01
     14 -0.350711D-02 -0.314969D+00  0.301962D-02  0.315466D-03 -0.133435D-02
     15 -0.588872D-03  0.651342D-02 -0.630755D-01  0.149156D-04 -0.740354D-03
     16  0.165289D-01  0.679597D-03 -0.111121D-03  0.000000D+00  0.000000D+00
     17 -0.236886D-01 -0.967700D-03  0.463446D-03  0.000000D+00  0.000000D+00
     18  0.409739D-03  0.257603D-03  0.116704D-01 -0.398021D-04  0.299707D-04
     19  0.171087D-04 -0.119040D-04 -0.611387D-03  0.507656D-05  0.553487D-05
     20  0.309549D-04 -0.215379D-04 -0.110619D-02 -0.215528D-05 -0.234986D-05
     21 -0.256810D-03  0.178684D-03  0.917720D-02  0.642774D-04  0.700803D-04
     22  0.607565D-02 -0.251324D-01 -0.730971D-03 -0.147322D+00 -0.891593D-01
     23 -0.288244D-02  0.119718D-01 -0.202815D-03 -0.858882D-01 -0.285572D+00
     24 -0.277512D-03 -0.826596D-03  0.224358D-01 -0.329433D-02 -0.532463D-02
     25 -0.326445D+00  0.138557D+00  0.932191D-04 -0.402173D-02  0.166700D-01
     26  0.138092D+00 -0.214450D+00  0.357212D-03 -0.595723D-02  0.246914D-01
     27  0.139095D-02 -0.518084D-03 -0.660221D-01 -0.606698D-03  0.534549D-03
                6             7             8             9            10 
      6  0.152083D+00
      7 -0.939557D-03  0.531073D+00
      8  0.799848D-03  0.100542D-01  0.636336D+00
      9 -0.400252D-01 -0.736630D-02 -0.943312D-02  0.530524D-01
     10 -0.110541D-02 -0.293521D+00 -0.199440D+00  0.120001D-01  0.113037D+01
     11  0.999967D-03 -0.155100D+00 -0.322718D+00  0.108724D-01 -0.620479D-01
     12  0.388150D-03  0.755447D-02  0.836319D-02 -0.498322D-01  0.190918D-02
     13  0.797557D-03 -0.807490D-02  0.686881D-02 -0.830722D-03 -0.708087D+00
     14 -0.583789D-04 -0.290610D-01  0.247716D-01 -0.203293D-02  0.151268D+00
     15  0.694659D-03  0.165622D-02 -0.980777D-03  0.791549D-02 -0.228803D-01
     16  0.564676D-05  0.383979D-05 -0.100034D-04 -0.197873D-03 -0.519158D-02
     17  0.318456D-04 -0.108429D-04  0.282481D-04  0.558761D-03  0.737669D-02
     18  0.153274D-02 -0.204818D-03  0.533595D-03  0.105548D-01 -0.257277D-02
     19  0.290660D-03  0.184886D-01 -0.158706D-01 -0.203133D-02 -0.155635D+00
     20 -0.123401D-03  0.111160D-01 -0.955371D-02 -0.156840D-02  0.861917D-01
     21  0.368021D-02 -0.839377D-03  0.866580D-03  0.439194D-02  0.118305D-01
     22 -0.324423D-02  0.212532D-01  0.154170D-01  0.627233D-03 -0.175131D-05
     23 -0.507829D-02 -0.101094D-01 -0.733422D-02 -0.431743D-03  0.000000D+00
     24 -0.582205D-01  0.105100D-03  0.110907D-03  0.544020D-02  0.680342D-04
     25  0.100055D-03  0.168633D-05  0.000000D+00 -0.869319D-04  0.000000D+00
     26  0.162129D-03  0.243148D-05  0.000000D+00 -0.125345D-03 -0.107821D-05
     27  0.224817D-01 -0.106932D-03 -0.424000D-04  0.551247D-02 -0.508636D-04
               11            12            13            14            15 
     11  0.805657D+00
     12 -0.526019D-02  0.239984D+00
     13  0.128201D+00 -0.192931D-01  0.116604D+01
     14 -0.252137D+00  0.714984D-02 -0.663555D-03  0.751864D+00
     15  0.109647D-01 -0.142867D+00  0.165635D-01 -0.159671D-01  0.232809D+00
     16 -0.187768D-01  0.296256D-03 -0.329382D+00 -0.144498D+00  0.398677D-02
     17  0.268013D-01  0.584142D-03 -0.146377D+00 -0.224243D+00  0.308761D-02
     18 -0.464310D-02  0.387164D-01  0.561717D-02  0.566380D-02 -0.937312D-01
     19  0.918722D-01  0.995936D-02  0.698397D-02  0.254899D-01  0.150829D-02
     20 -0.245244D+00 -0.109396D-01  0.424499D-02  0.150756D-01 -0.253848D-02
     21 -0.164432D-01 -0.922331D-01 -0.886858D-03  0.193679D-02  0.426105D-01
     22 -0.190942D-05 -0.100272D-03  0.191229D-05 -0.143993D-05 -0.736404D-04
     23  0.000000D+00 -0.478810D-04  0.179873D-05 -0.135443D-05 -0.692677D-04
     24  0.741763D-04  0.389531D-02 -0.110385D-03  0.831191D-04  0.425084D-02
     25  0.000000D+00  0.252530D-04  0.160354D-01  0.657674D-03 -0.186892D-03
     26  0.000000D+00  0.385303D-04  0.237506D-01  0.974254D-03 -0.269758D-03
     27  0.353901D-04  0.181763D-02 -0.720537D-03  0.205259D-03  0.113933D-01
               16            17            18            19            20 
     16  0.318062D+00
     17  0.162643D+00  0.198276D+00
     18 -0.428207D-02 -0.379248D-02  0.504344D-01
     19 -0.207708D-04  0.586533D-04  0.110794D-02  0.130161D+00
     20 -0.375808D-04  0.106122D-03  0.200460D-02 -0.101544D+00  0.239639D+00
     21  0.311780D-03 -0.880413D-03 -0.166307D-01 -0.102235D-01  0.142715D-01
     22  0.000000D+00  0.000000D+00  0.000000D+00  0.000000D+00  0.000000D+00
     23  0.000000D+00  0.000000D+00  0.000000D+00  0.000000D+00  0.000000D+00
     24  0.000000D+00  0.000000D+00  0.000000D+00  0.000000D+00  0.000000D+00
     25  0.000000D+00  0.000000D+00 -0.353836D-04  0.000000D+00  0.000000D+00
     26  0.000000D+00 -0.112169D-05 -0.539873D-04  0.000000D+00  0.000000D+00
     27 -0.938265D-05 -0.529146D-04 -0.254680D-02  0.000000D+00  0.000000D+00
               21            22            23            24            25 
     21  0.490038D-01
     22  0.000000D+00  0.119995D+00
     23  0.000000D+00  0.988812D-01  0.280939D+00
     24  0.000000D+00  0.337933D-02  0.569592D-02  0.304268D-01
     25  0.000000D+00 -0.224801D-05 -0.211452D-05  0.129764D-03  0.314433D+00
     26  0.000000D+00 -0.324135D-05 -0.304888D-05  0.187104D-03 -0.155883D+00
     27  0.000000D+00  0.142549D-03  0.134085D-03 -0.822854D-02 -0.390843D-04
               26            27 
     26  0.188787D+00
     27 -0.295884D-03  0.355923D-01
 Leave Link  716 at Tue Dec 15 17:05:44 2015, MaxMem=    33554432 cpu:         0.0
 (Enter /home/Applications/g09/g09/l103.exe)

 GradGradGradGradGradGradGradGradGradGradGradGradGradGradGradGradGradGrad
 Berny optimization.
 Search for a local minimum.
 Step number   1 out of a maximum of    2
 All quantities printed in internal units (Hartrees-Bohrs-Radians)
 Second derivative matrix not updated -- first step.
 ITU=  0
     Eigenvalues ---    0.01470   0.02749   0.06940   0.07403   0.07928
     Eigenvalues ---    0.08903   0.12247   0.12739   0.14972   0.24183
     Eigenvalues ---    0.27331   0.28240   0.40751   0.44115   0.60186
     Eigenvalues ---    0.86540   1.02356   1.24496   1.29343   1.42861
     Eigenvalues ---    1.98353
 Quadratic step=4.695D-01 exceeds max=3.000D-01 adjusted using Lamda=-3.050D-01.
 Angle between NR and scaled steps=  21.66 degrees.
 Angle between quadratic step and forces=  18.25 degrees.
 Linear search not attempted -- first point.
 TrRot= -0.001635 -0.004636 -0.000247  1.357175 -0.000529 -1.355469
 Variable       Old X    -DE/DX   Delta X   Delta X   Delta X     New X
                                 (Linear)    (Quad)   (Total)
    X1        1.86445  -0.11090   0.00000  -0.09219  -0.09153   1.77292
    Y1       -1.42807   0.09692   0.00000   0.07501   0.07337  -1.35470
    Z1        0.06299  -0.00537   0.00000  -0.00684  -0.00759   0.05541
    X2       -0.72817  -0.06414   0.00000  -0.03586  -0.03417  -0.76234
    Y2       -2.05322   0.13479   0.00000   0.10745   0.10150  -1.95171
    Z2        0.00789   0.00218   0.00000   0.00380   0.00246   0.01036
    X3       -2.27052   0.20959   0.00000   0.16087   0.15920  -2.11132
    Y3        0.07356  -0.04772   0.00000  -0.04991  -0.05814   0.01542
    Z3       -0.00567  -0.00794   0.00000  -0.01131  -0.01178  -0.01745
    X4       -0.57332  -0.22615   0.00000  -0.12203  -0.12706  -0.70038
    Y4        2.05937  -0.05988   0.00000  -0.06495  -0.07075   1.98862
    Z4       -0.07312   0.01363   0.00000   0.02042   0.02113  -0.05200
    X5        1.74699   0.06030   0.00000   0.00205  -0.00187   1.74512
    Y5        1.41905  -0.13256   0.00000  -0.08082  -0.08247   1.33657
    Z5        0.00427   0.00067   0.00000  -0.00278  -0.00214   0.00213
    X6        3.33947   0.06094   0.00000   0.07572   0.06973   3.40921
    Y6        2.52971   0.04133   0.00000   0.02239   0.02358   2.55330
    Z6       -0.02467   0.00061   0.00000  -0.00123   0.00022  -0.02445
    X7       -1.67033   0.01860   0.00000   0.01361   0.00531  -1.66501
    Y7        3.89515   0.00645   0.00000   0.00577  -0.00174   3.89342
    Z7        0.07507  -0.00510   0.00000  -0.00765  -0.00607   0.06900
    X8       -1.62717   0.00671   0.00000   0.01376   0.01879  -1.60838
    Y8       -3.94369  -0.00547   0.00000   0.03803   0.03066  -3.91303
    Z8       -0.03849   0.00084   0.00000   0.00607   0.00363  -0.03486
    X9        3.48610   0.04507   0.00000  -0.00110   0.00158   3.48768
    Y9       -2.52291  -0.03386   0.00000  -0.01730  -0.01602  -2.53894
    Z9        0.06367   0.00048   0.00000   0.00130   0.00013   0.06380
         Item               Value     Threshold  Converged?
 Maximum Force            0.226153     0.000450     NO 
 RMS     Force            0.080620     0.000300     NO 
 Maximum Displacement     0.159203     0.001800     NO 
 RMS     Displacement     0.057612     0.001200     NO 
 Predicted change in Energy=-7.343936D-02
 GradGradGradGradGradGradGradGradGradGradGradGradGradGradGradGradGradGrad

 Leave Link  103 at Tue Dec 15 17:05:44 2015, MaxMem=    33554432 cpu:         0.0
 (Enter /home/Applications/g09/g09/l9999.exe)
 1\1\GINC-DUSTIN-DESKTOP\Force\RAM1-FC\STO-3G\C4H4O1\DUSTIN\15-Dec-2015
 \0\\#P AM1(Input,print) CIS(Singlets,NStates=15) pop(full) force\\AM1-
 Reparam Input\\0,1\C,0.986622,-0.7557,0.033335\C,-0.385329,-1.086516,0
 .004177\O,-1.20151,0.038924,-0.002999\C,-0.303388,1.08977,-0.038696\C,
 0.924467,0.750927,0.002261\H,1.767174,1.338667,-0.013055\H,-0.883899,2
 .061226,0.039726\H,-0.861062,-2.086912,-0.020366\H,1.844764,-1.335068,
 0.033694\\Version=ES64L-G09RevD.01\State=1-A\HF=1.1486079\RMSD=6.341e-
 09\RMSF=8.062e-02\Dipole=-3.3776284,0.1768539,0.0648781\PG=C01 [X(C4H4
 O1)]\\@


 A ROPE OVER THE TOP OF A FENCE HAS THE SAME LENGTH ON EACH SIDE.
 WEIGHS 1/3 POUND PER FOOT.  ON ONE END HANGS A MONKEY HOLDING A
 BANANA, AND ON THE OTHER END A WEIGHT EQUAL TO THE WEIGHT
 OF THE MONKEY.  THE BANANA WEIGHS TWO OUNCES PER INCH.
 THE ROPE IS AS LONG AS THE AGE OF THE MONKEY, 
 AND THE WEIGHT OF THE MONKEY (IN OUNCES) IS AS MUCH
 AS THE AGE OF THE MONKEY'S MOTHER.  THE COMBINED AGES OF MONKEY
 AND MOTHER ARE THIRTY YEARS.  HALF THE WEIGHT OF THE MONKEY,
  PLUS THE WEIGHT OF THE BANANA, IS ONE FOURTH AS MUCH AS THE WEIGHT
 OF THE WEIGHT AND THE ROPE.
 THE MONKEY'S MOTHER IS HALF AS OLD AS THE MONKEY WILL BE
 WHEN IT IS 3 TIMES AS OLD AS ITS MOTHER WAS WHEN
 SHE WAS HALF AS OLD AS THE MONKEY WILL BE WHEN IT IS
 AS OLD AS ITS MOTHER WILL BE WHEN SHE IS 4 TIMES AS
 OLD AS THE MONKEY WAS WHEN IT WAS TWICE AS OLD AS 
 ITS MOTHER WAS WHEN SHE WAS ONE THIRD AS OLD AS THE
 MONKEY WAS WHEN IT WAS AS OLD AS ITS MOTHER WAS WHEN 
 SHE WAS 3 TIMES AS OLD AS THE MONKEY WAS WHEN IT WAS AS OLD AS ITS
 MOTHER WAS WHEN SHE WAS 3 TIMES AS OLD AS THE MONKEY 
 WAS WHEN IT WAS ONE FOURTH WAS OLD AS IT IS NOW.

 HOW LONG IS THE BANANA?
 Job cpu time:       0 days  0 hours  0 minutes  0.7 seconds.
 File lengths (MBytes):  RWF=      7 Int=      0 D2E=      0 Chk=      2 Scr=      1
 Normal termination of Gaussian 09 at Tue Dec 15 17:05:44 2015.
