 Entering Gaussian System, Link 0=g09
 Input=FuranAM1_45P10.com
 Output=FuranAM1_45P10.log
 Initial command:
 /home/Applications/g09/g09/l1.exe "/home/Applications/g09/scratch/Gau-9455.inp" -scrdir="/home/Applications/g09/scratch/"
 Entering Link 1 = /home/Applications/g09/g09/l1.exe PID=      9458.
  
 Copyright (c) 1988,1990,1992,1993,1995,1998,2003,2009,2013,
            Gaussian, Inc.  All Rights Reserved.
  
 This is part of the Gaussian(R) 09 program.  It is based on
 the Gaussian(R) 03 system (copyright 2003, Gaussian, Inc.),
 the Gaussian(R) 98 system (copyright 1998, Gaussian, Inc.),
 the Gaussian(R) 94 system (copyright 1995, Gaussian, Inc.),
 the Gaussian 92(TM) system (copyright 1992, Gaussian, Inc.),
 the Gaussian 90(TM) system (copyright 1990, Gaussian, Inc.),
 the Gaussian 88(TM) system (copyright 1988, Gaussian, Inc.),
 the Gaussian 86(TM) system (copyright 1986, Carnegie Mellon
 University), and the Gaussian 82(TM) system (copyright 1983,
 Carnegie Mellon University). Gaussian is a federally registered
 trademark of Gaussian, Inc.
  
 This software contains proprietary and confidential information,
 including trade secrets, belonging to Gaussian, Inc.
  
 This software is provided under written license and may be
 used, copied, transmitted, or stored only in accord with that
 written license.
  
 The following legend is applicable only to US Government
 contracts under FAR:
  
                    RESTRICTED RIGHTS LEGEND
  
 Use, reproduction and disclosure by the US Government is
 subject to restrictions as set forth in subparagraphs (a)
 and (c) of the Commercial Computer Software - Restricted
 Rights clause in FAR 52.227-19.
  
 Gaussian, Inc.
 340 Quinnipiac St., Bldg. 40, Wallingford CT 06492
  
  
 ---------------------------------------------------------------
 Warning -- This program may not be used in any manner that
 competes with the business of Gaussian, Inc. or will provide
 assistance to any competitor of Gaussian, Inc.  The licensee
 of this program is prohibited from giving any competitor of
 Gaussian, Inc. access to this program.  By using this program,
 the user acknowledges that Gaussian, Inc. is engaged in the
 business of creating and licensing software in the field of
 computational chemistry and represents and warrants to the
 licensee that it is not a competitor of Gaussian, Inc. and that
 it will not use this program in any manner prohibited above.
 ---------------------------------------------------------------
  

 Cite this work as:
 Gaussian 09, Revision D.01,
 M. J. Frisch, G. W. Trucks, H. B. Schlegel, G. E. Scuseria, 
 M. A. Robb, J. R. Cheeseman, G. Scalmani, V. Barone, B. Mennucci, 
 G. A. Petersson, H. Nakatsuji, M. Caricato, X. Li, H. P. Hratchian, 
 A. F. Izmaylov, J. Bloino, G. Zheng, J. L. Sonnenberg, M. Hada, 
 M. Ehara, K. Toyota, R. Fukuda, J. Hasegawa, M. Ishida, T. Nakajima, 
 Y. Honda, O. Kitao, H. Nakai, T. Vreven, J. A. Montgomery, Jr., 
 J. E. Peralta, F. Ogliaro, M. Bearpark, J. J. Heyd, E. Brothers, 
 K. N. Kudin, V. N. Staroverov, T. Keith, R. Kobayashi, J. Normand, 
 K. Raghavachari, A. Rendell, J. C. Burant, S. S. Iyengar, J. Tomasi, 
 M. Cossi, N. Rega, J. M. Millam, M. Klene, J. E. Knox, J. B. Cross, 
 V. Bakken, C. Adamo, J. Jaramillo, R. Gomperts, R. E. Stratmann, 
 O. Yazyev, A. J. Austin, R. Cammi, C. Pomelli, J. W. Ochterski, 
 R. L. Martin, K. Morokuma, V. G. Zakrzewski, G. A. Voth, 
 P. Salvador, J. J. Dannenberg, S. Dapprich, A. D. Daniels, 
 O. Farkas, J. B. Foresman, J. V. Ortiz, J. Cioslowski, 
 and D. J. Fox, Gaussian, Inc., Wallingford CT, 2013.
 
 ******************************************
 Gaussian 09:  ES64L-G09RevD.01 24-Apr-2013
                15-Dec-2015 
 ******************************************
 ------------------------------------------------------------
 #P AM1(Input,print) CIS(Singlets,NStates=15) pop(full) force
 ------------------------------------------------------------
 1/10=7,30=1,38=1/1,3;
 2/12=2,17=6,18=5,40=1/2;
 3/5=2,16=1,25=1,41=700000,71=1,135=100,136=1/1,2,8,3;
 4/35=1/1;
 5/5=2,35=1,38=5/2;
 8/6=1,10=1,108=15/1;
 9/15=2,41=15,42=1,48=1,49=10/14;
 10/5=4/2;
 6/7=3,18=1/1;
 7/12=6,13=5,29=1/1,2,3,16;
 1/10=7,30=1/3;
 99//99;
 Leave Link    1 at Tue Dec 15 17:07:39 2015, MaxMem=           0 cpu:         0.0
 (Enter /home/Applications/g09/g09/l101.exe)
 -----------------
 AM1-Reparam Input
 -----------------
 Symbolic Z-matrix:
 Charge =  0 Multiplicity = 1
 6                     0.97402  -0.71803   0.02259 
 6                    -0.31384  -1.13261  -0.0121 
 8                    -1.12666  -0.00105  -0.00997 
 6                    -0.34571   1.12129   0.02652 
 6                     0.99652   0.68496  -0.01752 
 1                     1.84193   1.40163   0.00172 
 1                    -0.84453   1.99865   0.04132 
 1                    -0.82162  -2.04675  -0.03856 
 1                     1.82958  -1.33887  -0.00572 
 
 NAtoms=      9 NQM=        9 NQMF=       0 NMMI=      0 NMMIF=      0
                NMic=       0 NMicF=      0.
                    Isotopes and Nuclear Properties:
 (Nuclear quadrupole moments (NQMom) in fm**2, nuclear magnetic moments (NMagM)
  in nuclear magnetons)

  Atom         1           2           3           4           5           6           7           8           9
 IAtWgt=          12          12          16          12          12           1           1           1           1
 AtmWgt=  12.0000000  12.0000000  15.9949146  12.0000000  12.0000000   1.0078250   1.0078250   1.0078250   1.0078250
 NucSpn=           0           0           0           0           0           1           1           1           1
 AtZEff=   0.0000000   0.0000000   0.0000000   0.0000000   0.0000000   0.0000000   0.0000000   0.0000000   0.0000000
 NQMom=    0.0000000   0.0000000   0.0000000   0.0000000   0.0000000   0.0000000   0.0000000   0.0000000   0.0000000
 NMagM=    0.0000000   0.0000000   0.0000000   0.0000000   0.0000000   2.7928460   2.7928460   2.7928460   2.7928460
 AtZNuc=   6.0000000   6.0000000   8.0000000   6.0000000   6.0000000   1.0000000   1.0000000   1.0000000   1.0000000
 Leave Link  101 at Tue Dec 15 17:07:39 2015, MaxMem=    33554432 cpu:         0.0
 (Enter /home/Applications/g09/g09/l103.exe)

 GradGradGradGradGradGradGradGradGradGradGradGradGradGradGradGradGradGrad
 Berny optimization.
 Initialization pass.
 Trust Radius=3.00D-01 FncErr=1.00D-07 GrdErr=1.00D-07
 Number of steps in this run=      2 maximum allowed number of steps=      2.
 GradGradGradGradGradGradGradGradGradGradGradGradGradGradGradGradGradGrad

 Leave Link  103 at Tue Dec 15 17:07:39 2015, MaxMem=    33554432 cpu:         0.0
 (Enter /home/Applications/g09/g09/l202.exe)
                          Input orientation:                          
 ---------------------------------------------------------------------
 Center     Atomic      Atomic             Coordinates (Angstroms)
 Number     Number       Type             X           Y           Z
 ---------------------------------------------------------------------
      1          6           0        0.974015   -0.718031    0.022592
      2          6           0       -0.313842   -1.132614   -0.012096
      3          8           0       -1.126664   -0.001047   -0.009970
      4          6           0       -0.345711    1.121285    0.026515
      5          6           0        0.996517    0.684964   -0.017518
      6          1           0        1.841925    1.401627    0.001719
      7          1           0       -0.844530    1.998649    0.041317
      8          1           0       -0.821615   -2.046746   -0.038563
      9          1           0        1.829575   -1.338869   -0.005718
 ---------------------------------------------------------------------
                    Distance matrix (angstroms):
                    1          2          3          4          5
     1  C    0.000000
     2  C    1.353388   0.000000
     3  O    2.219905   1.393244   0.000000
     4  C    2.263797   2.254455   1.367789   0.000000
     5  C    1.403749   2.240683   2.231270   1.412052   0.000000
     6  H    2.290557   3.327146   3.283314   2.205665   1.108463
     7  H    3.269221   3.176364   2.020152   1.009360   2.262451
     8  H    2.234616   1.046026   2.068516   3.204238   3.281507
     9  H    1.057461   2.153327   3.244863   3.284093   2.188613
                    6          7          8          9
     6  H    0.000000
     7  H    2.752280   0.000000
     8  H    4.357447   4.046248   0.000000
     9  H    2.740534   4.276924   2.744263   0.000000
 Stoichiometry    C4H4O
 Framework group  C1[X(C4H4O)]
 Deg. of freedom    21
 Full point group                 C1      NOp   1
 Largest Abelian subgroup         C1      NOp   1
 Largest concise Abelian subgroup C1      NOp   1
                         Standard orientation:                         
 ---------------------------------------------------------------------
 Center     Atomic      Atomic             Coordinates (Angstroms)
 Number     Number       Type             X           Y           Z
 ---------------------------------------------------------------------
      1          6           0        0.784739    0.890012    0.024979
      2          6           0        1.094651   -0.427110   -0.003319
      3          8           0       -0.098608   -1.146301   -0.008261
      4          6           0       -1.154740   -0.277523    0.017410
      5          6           0       -0.611548    1.025134   -0.026362
      6          1           0       -1.258019    1.925486   -0.014861
      7          1           0       -2.069470   -0.704131    0.026416
      8          1           0        1.965159   -1.006822   -0.021285
      9          1           0        1.472580    1.692791   -0.000433
 ---------------------------------------------------------------------
 Rotational constants (GHZ):      9.3678346      9.2158335      4.6474812
 Leave Link  202 at Tue Dec 15 17:07:39 2015, MaxMem=    33554432 cpu:         0.0
 (Enter /home/Applications/g09/g09/l301.exe)

 Semi-emprical parameters in input format:
 Method=8 CoreType=1 PeptideFC=0.0106250000 RIJScale=0.5404210000
 ****
 H       
 PQN=1 NValence=1 F0ss=0.4721550000 ZetaOverlap=1.0856700000 U=-0.3858490000
 Beta=-0.2268830000 CoreKO=1.0354420000 KON=0,0,0,1.0458670000 KON=1,0,1,1.0589200000
 KON=0,1,1,1.1438880000 KON=2,1,1,1.0589200000 EISol=-0.4188110042 EHeat=0.0830298228
 Alpha=1.4046640000
 GCore=0.0085280000,1.5127750000,2.2676710000
 GCore=0.0003530000,1.4368830000,3.4779940000
 GCore=-0.0013010000,0.5600570000,3.5861320000
 ****
 C       
 PQN=2,2 NValence=4 F0ss=0.4494440000 F0sp=0.4261420000 F0pp=0.3497590000 F2pp=0.1878900000
 G1sp=0.2701540000
 ZetaOverlap=1.8086650000,1.3781170000
 U=-1.6741410000,-1.4557970000
 Beta=-0.5453250000,-0.2836780000 DDN=0,1,0.7474020000 DDN=1,1,0.7964360000
 CoreKO=1.1124280000 KON=0,0,0,1.1124280000 KON=1,0,1,0.8159680000 KON=0,1,1,1.1124280000
 KON=2,1,1,0.8516400000 EISol=-4.4398989268 EHeat=0.2723305520 Alpha=1.3653470000
 DipHyp=1.4947180026
 GCore=0.0007890000,1.3361580000,2.6678360000
 GCore=0.0031890000,1.4001430000,3.2045450000
 GCore=-0.0015090000,1.3827320000,3.8739390000
 GCore=-0.0001030000,1.2700780000,4.6088130000
 ****
 O       
 PQN=2,2 NValence=6 F0ss=0.6666250000 F0sp=0.5321300000 F0pp=0.4958710000 F2pp=0.2358080000
 G1sp=0.4343770000
 ZetaOverlap=2.7336680000,2.5240390000
 U=-3.5951870000,-1.8323600000
 Beta=-1.1573400000,-1.2481890000 DDN=0,1,0.4953610000 DDN=1,1,0.5211070000
 CoreKO=0.8515990000 KON=0,0,0,0.8822960000 KON=1,0,1,0.5019540000 KON=0,1,1,0.8671530000
 KON=2,1,1,0.5515580000 EISol=-11.6164441184 EHeat=0.0949133088 Alpha=2.4031680000
 DipHyp=0.9906650029
 GCore=0.0204720000,1.2640290000,1.6023330000
 GCore=0.0052790000,1.9602000000,2.5761670000
 ****
 
 Standard basis: VSTO-6G (5D, 7F)
 Ernie: Thresh=  0.10000D-02 Tol=  0.10000D-05 Strict=F.
  NNHCO=     0 NNPyr=     0 NCTC=     0               EPep=         0.000000000
    EC=        68.762611882  ECS=         2.054435845   EG=         0.378866120
   EHC=         0.000000000  EAt=       -31.051283842  AtH=         1.516354808
 EPDDG=         0.000000000  ECC=        71.195913846 EAtT=        32.567638650
 There are    24 symmetry adapted cartesian basis functions of A   symmetry.
 There are    24 symmetry adapted basis functions of A   symmetry.
    24 basis functions,   144 primitive gaussians,    24 cartesian basis functions
    13 alpha electrons       13 beta electrons
       nuclear repulsion energy       103.7635524967 Hartrees.
 IExCor=    0 DFT=F Ex=HF Corr=None ExCW=0 ScaHFX=  1.000000
 ScaDFX=  1.000000  1.000000  1.000000  1.000000 ScalE2=  1.000000  1.000000
 IRadAn=      0 IRanWt=     -1 IRanGd=            0 ICorTp=0 IEmpDi=  4
 Integral buffers will be    131072 words long.
 Regular integral format.
 Two-electron integral symmetry is turned off.
 Leave Link  301 at Tue Dec 15 17:07:39 2015, MaxMem=    33554432 cpu:         0.0
 (Enter /home/Applications/g09/g09/l302.exe)
 Do NDO integrals.
 NPDir=0 NMtPBC=     1 NCelOv=     1 NCel=       1 NClECP=     1 NCelD=      1
         NCelK=      1 NCelE2=     1 NClLst=     1 CellRange=     0.0.
 One-electron integrals computed using PRISM.
 NBasis=    24 RedAO= F EigKep=  0.00D+00  NBF=    24
 NBsUse=    24 1.00D-04 EigRej=  0.00D+00 NBFU=    24
 Leave Link  302 at Tue Dec 15 17:07:39 2015, MaxMem=    33554432 cpu:         0.0
 (Enter /home/Applications/g09/g09/l308.exe)
 Leave Link  308 at Tue Dec 15 17:07:39 2015, MaxMem=    33554432 cpu:         0.0
 (Enter /home/Applications/g09/g09/l303.exe)
 DipDrv:  MaxL=1.
 Leave Link  303 at Tue Dec 15 17:07:39 2015, MaxMem=    33554432 cpu:         0.0
 (Enter /home/Applications/g09/g09/l401.exe)
 Simple Huckel Guess.
 JPrj=0 DoOrth=F DoCkMO=F.
 Leave Link  401 at Tue Dec 15 17:07:39 2015, MaxMem=    33554432 cpu:         0.0
 (Enter /home/Applications/g09/g09/l502.exe)
 Closed shell SCF:
 Using DIIS extrapolation, IDIIS=  1040.
 Overlap will be assumed to be unity.
 Two-electron integral symmetry not used.
 Keep J ints in memory in canonical form, NReq=888082.
 IVT=       79475 IEndB=       79475 NGot=    33554432 MDV=    33473473
 LenX=    33473473 LenY=    33472456
 Requested convergence on RMS density matrix=1.00D-08 within 128 cycles.
 Requested convergence on MAX density matrix=1.00D-06.
 Requested convergence on             energy=1.00D-06.
 No special actions if energy rises.
 FoFCou: FMM=F IPFlag=           0 FMFlag=           0 FMFlg1=           0
         NFxFlg=           0 DoJE=F BraDBF=F KetDBF=F FulRan=T
         wScrn=  0.000000 ICntrl=     600 IOpCl=  2 I1Cent=           0 NGrid=           0
         NMat0=    1 NMatS0=     54 NMatT0=    0 NMatD0=    1 NMtDS0=    0 NMtDT0=    0
 Symmetry not used in FoFCou.

 Cycle   1  Pass 1  IDiag  1:
 E=  5.71696858344110    
 DIIS: error= 1.48D-01 at cycle   1 NSaved=   1.
 NSaved= 1 IEnMin= 1 EnMin=  5.71696858344110     IErMin= 1 ErrMin= 1.48D-01
 ErrMax= 1.48D-01  0.00D+00 EMaxC= 1.00D-01 BMatC= 6.60D-01 BMatP= 6.60D-01
 IDIUse=3 WtCom= 0.00D+00 WtEn= 1.00D+00
 Coeff-Com:  0.100D+01
 Coeff-En:   0.100D+01
 Coeff:      0.100D+01
 GapD=    2.000 DampG=2.000 DampE=0.250 DampFc=0.5000 IDamp=-1.
 Damping current iteration by 5.00D-01
 RMSDP=7.21D-02 MaxDP=7.66D-01              OVMax= 0.00D+00

 Cycle   2  Pass 1  IDiag  1:
 E=  4.31189987050439     Delta-E=       -1.405068712937 Rises=F Damp=T
 DIIS: error= 7.97D-02 at cycle   2 NSaved=   2.
 NSaved= 2 IEnMin= 2 EnMin=  4.31189987050439     IErMin= 2 ErrMin= 7.97D-02
 ErrMax= 7.97D-02  0.00D+00 EMaxC= 1.00D-01 BMatC= 2.12D-01 BMatP= 6.60D-01
 IDIUse=3 WtCom= 2.03D-01 WtEn= 7.97D-01
 Coeff-Com: -0.113D+01 0.213D+01
 Coeff-En:   0.000D+00 0.100D+01
 Coeff:     -0.229D+00 0.123D+01
 RMSDP=3.97D-02 MaxDP=4.04D-01 DE=-1.41D+00 OVMax= 0.00D+00

 Cycle   3  Pass 1  IDiag  1:
 E=  2.63807224075620     Delta-E=       -1.673827629748 Rises=F Damp=F
 DIIS: error= 1.39D-02 at cycle   3 NSaved=   3.
 NSaved= 3 IEnMin= 3 EnMin=  2.63807224075620     IErMin= 3 ErrMin= 1.39D-02
 ErrMax= 1.39D-02  0.00D+00 EMaxC= 1.00D-01 BMatC= 1.19D-02 BMatP= 2.12D-01
 IDIUse=3 WtCom= 8.61D-01 WtEn= 1.39D-01
 Coeff-Com:  0.264D+00-0.619D+00 0.135D+01
 Coeff-En:   0.000D+00 0.000D+00 0.100D+01
 Coeff:      0.227D+00-0.532D+00 0.131D+01
 RMSDP=9.75D-03 MaxDP=4.65D-02 DE=-1.67D+00 OVMax= 0.00D+00

 Cycle   4  Pass 1  IDiag  3:
 E=  2.59567526814189     Delta-E=       -0.042396972614 Rises=F Damp=F
 DIIS: error= 3.69D-03 at cycle   4 NSaved=   4.
 NSaved= 4 IEnMin= 4 EnMin=  2.59567526814189     IErMin= 4 ErrMin= 3.69D-03
 ErrMax= 3.69D-03  0.00D+00 EMaxC= 1.00D-01 BMatC= 7.55D-04 BMatP= 1.19D-02
 IDIUse=3 WtCom= 9.63D-01 WtEn= 3.69D-02
 Coeff-Com: -0.123D-01 0.183D-01-0.274D+00 0.127D+01
 Coeff-En:   0.000D+00 0.000D+00 0.000D+00 0.100D+01
 Coeff:     -0.119D-01 0.176D-01-0.264D+00 0.126D+01
 Gap=     0.395 Goal=   None    Shift=    0.000
 RMSDP=3.12D-03 MaxDP=1.64D-02 DE=-4.24D-02 OVMax= 3.65D-02

 Cycle   5  Pass 1  IDiag  3:
 E=  2.59248790927543     Delta-E=       -0.003187358866 Rises=F Damp=F
 DIIS: error= 9.51D-04 at cycle   5 NSaved=   5.
 NSaved= 5 IEnMin= 5 EnMin=  2.59248790927543     IErMin= 5 ErrMin= 9.51D-04
 ErrMax= 9.51D-04  0.00D+00 EMaxC= 1.00D-01 BMatC= 2.90D-05 BMatP= 7.55D-04
 IDIUse=3 WtCom= 9.90D-01 WtEn= 9.51D-03
 Coeff-Com:  0.102D-01-0.176D-01 0.110D+00-0.569D+00 0.147D+01
 Coeff-En:   0.000D+00 0.000D+00 0.000D+00 0.000D+00 0.100D+01
 Coeff:      0.101D-01-0.174D-01 0.109D+00-0.564D+00 0.146D+01
 Gap=     0.395 Goal=   None    Shift=    0.000
 RMSDP=7.03D-04 MaxDP=3.62D-03 DE=-3.19D-03 OVMax= 7.74D-03

 Cycle   6  Pass 1  IDiag  3:
 E=  2.59235205978752     Delta-E=       -0.000135849488 Rises=F Damp=F
 DIIS: error= 1.54D-04 at cycle   6 NSaved=   6.
 NSaved= 6 IEnMin= 6 EnMin=  2.59235205978752     IErMin= 6 ErrMin= 1.54D-04
 ErrMax= 1.54D-04  0.00D+00 EMaxC= 1.00D-01 BMatC= 6.56D-07 BMatP= 2.90D-05
 IDIUse=3 WtCom= 9.98D-01 WtEn= 1.54D-03
 Coeff-Com: -0.135D-02 0.287D-02-0.250D-01 0.131D+00-0.428D+00 0.132D+01
 Coeff-En:   0.000D+00 0.000D+00 0.000D+00 0.000D+00 0.000D+00 0.100D+01
 Coeff:     -0.135D-02 0.287D-02-0.249D-01 0.131D+00-0.427D+00 0.132D+01
 Gap=     0.395 Goal=   None    Shift=    0.000
 RMSDP=9.85D-05 MaxDP=5.56D-04 DE=-1.36D-04 OVMax= 8.45D-04

 Cycle   7  Pass 1  IDiag  3:
 E=  2.59234919978246     Delta-E=       -0.000002860005 Rises=F Damp=F
 DIIS: error= 2.39D-05 at cycle   7 NSaved=   7.
 NSaved= 7 IEnMin= 7 EnMin=  2.59234919978246     IErMin= 7 ErrMin= 2.39D-05
 ErrMax= 2.39D-05  0.00D+00 EMaxC= 1.00D-01 BMatC= 2.50D-08 BMatP= 6.56D-07
 IDIUse=1 WtCom= 1.00D+00 WtEn= 0.00D+00
 Coeff-Com:  0.166D-03-0.426D-03 0.597D-02-0.339D-01 0.126D+00-0.518D+00
 Coeff-Com:  0.142D+01
 Coeff:      0.166D-03-0.426D-03 0.597D-02-0.339D-01 0.126D+00-0.518D+00
 Coeff:      0.142D+01
 Gap=     0.395 Goal=   None    Shift=    0.000
 RMSDP=1.89D-05 MaxDP=1.35D-04 DE=-2.86D-06 OVMax= 1.16D-04

 Cycle   8  Pass 1  IDiag  3:
 E=  2.59234908999062     Delta-E=       -0.000000109792 Rises=F Damp=F
 DIIS: error= 4.28D-06 at cycle   8 NSaved=   8.
 NSaved= 8 IEnMin= 8 EnMin=  2.59234908999062     IErMin= 8 ErrMin= 4.28D-06
 ErrMax= 4.28D-06  0.00D+00 EMaxC= 1.00D-01 BMatC= 7.72D-10 BMatP= 2.50D-08
 IDIUse=1 WtCom= 1.00D+00 WtEn= 0.00D+00
 Coeff-Com: -0.113D-04 0.282D-04-0.689D-03 0.497D-02-0.243D-01 0.125D+00
 Coeff-Com: -0.472D+00 0.137D+01
 Coeff:     -0.113D-04 0.282D-04-0.689D-03 0.497D-02-0.243D-01 0.125D+00
 Coeff:     -0.472D+00 0.137D+01
 Gap=     0.395 Goal=   None    Shift=    0.000
 RMSDP=3.46D-06 MaxDP=2.62D-05 DE=-1.10D-07 OVMax= 2.53D-05

 Cycle   9  Pass 1  IDiag  3:
 E=  2.59234908658657     Delta-E=       -0.000000003404 Rises=F Damp=F
 DIIS: error= 5.51D-07 at cycle   9 NSaved=   9.
 NSaved= 9 IEnMin= 9 EnMin=  2.59234908658657     IErMin= 9 ErrMin= 5.51D-07
 ErrMax= 5.51D-07  0.00D+00 EMaxC= 1.00D-01 BMatC= 1.70D-11 BMatP= 7.72D-10
 IDIUse=1 WtCom= 1.00D+00 WtEn= 0.00D+00
 Coeff-Com:  0.282D-05-0.536D-05 0.740D-04-0.791D-03 0.525D-02-0.317D-01
 Coeff-Com:  0.129D+00-0.460D+00 0.136D+01
 Coeff:      0.282D-05-0.536D-05 0.740D-04-0.791D-03 0.525D-02-0.317D-01
 Coeff:      0.129D+00-0.460D+00 0.136D+01
 Gap=     0.395 Goal=   None    Shift=    0.000
 RMSDP=5.46D-07 MaxDP=2.71D-06 DE=-3.40D-09 OVMax= 5.30D-06

 Cycle  10  Pass 1  IDiag  3:
 E=  2.59234908650365     Delta-E=       -0.000000000083 Rises=F Damp=F
 DIIS: error= 1.28D-07 at cycle  10 NSaved=  10.
 NSaved=10 IEnMin=10 EnMin=  2.59234908650365     IErMin=10 ErrMin= 1.28D-07
 ErrMax= 1.28D-07  0.00D+00 EMaxC= 1.00D-01 BMatC= 6.27D-13 BMatP= 1.70D-11
 IDIUse=1 WtCom= 1.00D+00 WtEn= 0.00D+00
 Coeff-Com: -0.132D-06 0.211D-06-0.223D-04 0.290D-03-0.208D-02 0.129D-01
 Coeff-Com: -0.529D-01 0.189D+00-0.638D+00 0.149D+01
 Coeff:     -0.132D-06 0.211D-06-0.223D-04 0.290D-03-0.208D-02 0.129D-01
 Coeff:     -0.529D-01 0.189D+00-0.638D+00 0.149D+01
 Gap=     0.395 Goal=   None    Shift=    0.000
 RMSDP=1.28D-07 MaxDP=7.51D-07 DE=-8.29D-11 OVMax= 1.68D-06

 Cycle  11  Pass 1  IDiag  3:
 E=  2.59234908649972     Delta-E=       -0.000000000004 Rises=F Damp=F
 DIIS: error= 2.54D-08 at cycle  11 NSaved=  11.
 NSaved=11 IEnMin=11 EnMin=  2.59234908649972     IErMin=11 ErrMin= 2.54D-08
 ErrMax= 2.54D-08  0.00D+00 EMaxC= 1.00D-01 BMatC= 2.62D-14 BMatP= 6.27D-13
 IDIUse=1 WtCom= 1.00D+00 WtEn= 0.00D+00
 Coeff-Com:  0.160D-07-0.986D-08 0.835D-05-0.115D-03 0.839D-03-0.527D-02
 Coeff-Com:  0.216D-01-0.776D-01 0.270D+00-0.750D+00 0.154D+01
 Coeff:      0.160D-07-0.986D-08 0.835D-05-0.115D-03 0.839D-03-0.527D-02
 Coeff:      0.216D-01-0.776D-01 0.270D+00-0.750D+00 0.154D+01
 Gap=     0.395 Goal=   None    Shift=    0.000
 RMSDP=2.94D-08 MaxDP=1.74D-07 DE=-3.92D-12 OVMax= 4.16D-07

 Cycle  12  Pass 1  IDiag  3:
 E=  2.59234908649935     Delta-E=        0.000000000000 Rises=F Damp=F
 DIIS: error= 3.77D-09 at cycle  12 NSaved=  12.
 NSaved=12 IEnMin=12 EnMin=  2.59234908649935     IErMin=12 ErrMin= 3.77D-09
 ErrMax= 3.77D-09  0.00D+00 EMaxC= 1.00D-01 BMatC= 8.01D-16 BMatP= 2.62D-14
 IDIUse=1 WtCom= 1.00D+00 WtEn= 0.00D+00
 Coeff-Com:  0.649D-08-0.187D-07-0.225D-05 0.330D-04-0.247D-03 0.157D-02
 Coeff-Com: -0.645D-02 0.232D-01-0.814D-01 0.234D+00-0.583D+00 0.141D+01
 Coeff:      0.649D-08-0.187D-07-0.225D-05 0.330D-04-0.247D-03 0.157D-02
 Coeff:     -0.645D-02 0.232D-01-0.814D-01 0.234D+00-0.583D+00 0.141D+01
 Gap=     0.395 Goal=   None    Shift=    0.000
 RMSDP=4.41D-09 MaxDP=2.15D-08 DE=-3.69D-13 OVMax= 5.65D-08

 Cycle  13  Pass 2  IDiag  1:
 SCF Done:  E(RAM1) =   2.59234908650     A.U. after   13 cycles
            NFock= 12  Conv=0.44D-08     -V/T= 1.1805
 KE=-1.435852163296D+01 PE=-1.690257131084D+02 EE= 8.221303133121D+01
 Leave Link  502 at Tue Dec 15 17:07:39 2015, MaxMem=    33554432 cpu:         0.0
 (Enter /home/Applications/g09/g09/l801.exe)
 Range of M.O.s used for correlation:     1    24
 NBasis=    24 NAE=    13 NBE=    13 NFC=     0 NFV=     0
 NROrb=     24 NOA=    13 NOB=    13 NVA=    11 NVB=    11
 Leave Link  801 at Tue Dec 15 17:07:39 2015, MaxMem=    33554432 cpu:         0.0
 (Enter /home/Applications/g09/g09/l914.exe)
 RHF ground state
 MDV=    33554432 DFT=F DoStab=F Mixed=F DoRPA=F DoScal=F NonHer=F
 Making orbital integer symmetry assigments:
 Orbital symmetries:
       Occupied  (A) (A) (A) (A) (A) (A) (A) (A) (A) (A) (A) (A)
                 (A)
       Virtual   (A) (A) (A) (A) (A) (A) (A) (A) (A) (A) (A)
    60 initial guesses have been made.
 Convergence on wavefunction:    0.000001000000000
 Davidson Disk Diagonalization:  ConvIn= 1.00D-06 SkipCon=T Conv= 1.00D-06.
 Max sub-space:   240 roots to seek:    60 dimension of matrix:          286
 Iteration     1 Dimension    60 NMult     0 NNew     60
 CISAX will form    60 AO SS matrices at one time.
 NMat=    60 NSing=    60 JSym2X= 0.
 FoFJK:  IHMeth= 8 ICntrl=       0 DoSepK=F KAlg= 0 I1Cent=   0 FoldK=F
 IRaf=         1 NMat= 120 IRICut=       1 DoRegI=T DoRafI=F ISym2E= 0.
 FoFCou: FMM=F IPFlag=           0 FMFlag=      100000 FMFlg1=           0
         NFxFlg=           0 DoJE=F BraDBF=F KetDBF=F FulRan=T
         wScrn=  0.000000 ICntrl=       0 IOpCl=  0 I1Cent=           0 NGrid=           0
         NMat0=  120 NMatS0=     60 NMatT0=    0 NMatD0=  120 NMtDS0=    0 NMtDT0=    0
 Symmetry not used in FoFCou.
 New state      6 was old state      7
 New state      7 was old state      6
 New state      9 was old state     13
 New state     10 was old state      9
 New state     11 was old state     10
 New state     12 was old state     11
 New state     13 was old state     14
 New state     14 was old state     15
 New state     15 was old state     16
 Excitation Energies [eV] at current iteration:
 Root      1 :     5.302491022914052
 Root      2 :     6.590100478712525
 Root      3 :     6.755262578012205
 Root      4 :     6.793123178779152
 Root      5 :     7.292385834806399
 Root      6 :     8.066089586652422
 Root      7 :     8.461745465922331
 Root      8 :     9.454381381486025
 Root      9 :     9.744701383802919
 Root     10 :     9.749896565237636
 Root     11 :     9.978723397187236
 Root     12 :    10.039026632081070
 Root     13 :    10.452606511679930
 Root     14 :    10.594351457179690
 Root     15 :    10.703542928460790
 Root     16 :    10.792794175507420
 Root     17 :    11.092806334304490
 Root     18 :    11.253491533016790
 Root     19 :    11.381091829075930
 Root     20 :    11.706791603837310
 Root     21 :    12.141217780152890
 Root     22 :    12.466685155298380
 Root     23 :    12.555284549956140
 Root     24 :    12.829883669540580
 Root     25 :    12.928621953535680
 Root     26 :    13.062740721809680
 Root     27 :    13.157062972013790
 Root     28 :    13.709264271736070
 Root     29 :    13.734013472015440
 Root     30 :    13.865536477781600
 Root     31 :    14.003271291773400
 Root     32 :    14.058707326059220
 Root     33 :    14.167525775635840
 Root     34 :    14.232643085631240
 Root     35 :    14.372352236658090
 Root     36 :    14.682479248810050
 Root     37 :    15.119254696408780
 Root     38 :    15.230149251692510
 Root     39 :    15.400639349121290
 Root     40 :    15.510940355431750
 Root     41 :    15.762388769827660
 Root     42 :    15.951601279940930
 Root     43 :    15.964621543924910
 Root     44 :    16.261625049518230
 Root     45 :    16.549258584482490
 Root     46 :    16.598929876049460
 Root     47 :    16.669009567518640
 Root     48 :    16.678577834777710
 Root     49 :    16.706875993289810
 Root     50 :    16.858892064346190
 Root     51 :    17.143074873819260
 Root     52 :    17.506181050625960
 Root     53 :    17.605612658652540
 Root     54 :    17.733927145800050
 Root     55 :    17.765154974427400
 Root     56 :    18.074280236438920
 Root     57 :    18.184173119899960
 Root     58 :    18.370519243220130
 Root     59 :    19.005572536717510
 Root     60 :    19.318291034565710
 Iteration     2 Dimension   120 NMult    60 NNew     60
 CISAX will form    60 AO SS matrices at one time.
 NMat=    60 NSing=    60 JSym2X= 0.
 Root      1 not converged, maximum delta is    0.021559356193285
 Root      2 not converged, maximum delta is    0.056113640309800
 Root      3 not converged, maximum delta is    0.068746844987211
 Root      4 not converged, maximum delta is    0.064712576276328
 Root      5 not converged, maximum delta is    0.016116068894939
 Root      6 not converged, maximum delta is    0.007304058392133
 Root      7 not converged, maximum delta is    0.009866277844601
 Root      8 not converged, maximum delta is    0.192945292799580
 Root      9 not converged, maximum delta is    0.332141778573238
 Root     10 not converged, maximum delta is    0.159960082105371
 Root     11 not converged, maximum delta is    0.171325432114111
 Root     12 not converged, maximum delta is    0.140922358582715
 Root     13 not converged, maximum delta is    0.048859947796575
 Root     14 not converged, maximum delta is    0.107113131010104
 New state     15 was old state     16
 Root     15 not converged, maximum delta is    0.424638784748133
 Excitation Energies [eV] at current iteration:
 Root      1 :     5.220878825116701   Change is   -0.081612197797351
 Root      2 :     6.554081544564132   Change is   -0.036018934148393
 Root      3 :     6.737888572708530   Change is   -0.017374005303675
 Root      4 :     6.778096704894184   Change is   -0.015026473884967
 Root      5 :     7.282197043446097   Change is   -0.010188791360301
 Root      6 :     8.063604819833936   Change is   -0.002484766818486
 Root      7 :     8.446229256983555   Change is   -0.015516208938777
 Root      8 :     9.435738291209780   Change is   -0.018643090276244
 Root      9 :     9.477274936602656   Change is   -0.267426447200263
 Root     10 :     9.739003944700102   Change is   -0.010892620537535
 Root     11 :     9.874819060238767   Change is   -0.103904336948469
 Root     12 :     9.955787088390567   Change is   -0.083239543690501
 Root     13 :    10.410840889230610   Change is   -0.041765622449320
 Root     14 :    10.556871349936350   Change is   -0.037480107243336
 Root     15 :    10.591383372006820   Change is   -0.201410803500592
 Root     16 :    10.711822026793660   Change is    0.008279098332874
 Root     17 :    10.897207904699420   Change is   -0.195598429605069
 Root     18 :    10.983919233235640   Change is   -0.269572299781146
 Root     19 :    11.322149195267310   Change is   -0.058942633808614
 Root     20 :    11.690534732484450   Change is   -0.016256871352853
 Root     21 :    12.085743631749320   Change is   -0.055474148403561
 Root     22 :    12.181085352131860   Change is   -0.285599803166519
 Root     23 :    12.331435573426140   Change is   -0.223848976530006
 Root     24 :    12.532412792152730   Change is   -0.396209161382942
 Root     25 :    12.804503859572600   Change is   -0.352559112441190
 Root     26 :    12.842820713856850   Change is    0.012937044316269
 Root     27 :    13.003977541951640   Change is   -0.058763179858040
 Root     28 :    13.541874304835200   Change is   -0.167389966900870
 Root     29 :    13.561150464937270   Change is   -0.172863007078169
 Root     30 :    13.717038609682770   Change is   -0.148497868098828
 Root     31 :    13.815104956740300   Change is   -0.188166335033100
 Root     32 :    13.885110282162500   Change is   -0.173597043896720
 Root     33 :    13.972758892944600   Change is   -0.194766882691243
 Root     34 :    14.122054447908990   Change is   -0.250297788749101
 Root     35 :    14.225090305451490   Change is   -0.007552780179748
 Root     36 :    14.587178959312880   Change is   -0.095300289497169
 Root     37 :    14.783645300435860   Change is   -0.446503951256654
 Root     38 :    15.045185538051030   Change is   -0.074069158357752
 Root     39 :    15.099169491181350   Change is   -0.411770864250397
 Root     40 :    15.204821223314270   Change is   -0.195818125807015
 Root     41 :    15.454595572300450   Change is   -0.510025971624466
 Root     42 :    15.650620830805680   Change is   -0.111767939021982
 Root     43 :    15.858514880457810   Change is   -0.093086399483115
 Root     44 :    15.930702223887560   Change is   -0.330922825630668
 Root     45 :    16.104482278534930   Change is   -0.494447597514528
 Root     46 :    16.335004466414450   Change is   -0.334005101104190
 Root     47 :    16.443474365260250   Change is   -0.105784219222246
 Root     48 :    16.549366766493170   Change is   -0.129211068284540
 Root     49 :    16.571723236821360   Change is   -0.287168827524833
 Root     50 :    16.679736439521110   Change is   -0.027139553768694
 Root     51 :    16.761126376316930   Change is   -0.381948497502328
 Root     52 :    17.150962190032270   Change is   -0.454650468620264
 Root     53 :    17.322179147948760   Change is   -0.411747997851287
 Root     54 :    17.405844531113500   Change is   -0.100336519512461
 Root     55 :    17.551807670902880   Change is   -0.213347303524521
 Root     56 :    17.691527192048740   Change is   -0.492645927851216
 Root     57 :    17.911713621679590   Change is   -0.162566614759328
 Root     58 :    17.922324635992830   Change is   -1.395966398572881
 Root     59 :    18.047770267621090   Change is   -0.322748975599038
 Root     60 :    18.574835475684950
 Iteration     3 Dimension   135 NMult   120 NNew     15
 CISAX will form    15 AO SS matrices at one time.
 NMat=    15 NSing=    15 JSym2X= 0.
 Root      1 not converged, maximum delta is    0.000786409271377
 Root      2 not converged, maximum delta is    0.000016747993771
 Root      3 not converged, maximum delta is    0.000029080176388
 Root      4 not converged, maximum delta is    0.000025819223315
 Root      5 not converged, maximum delta is    0.000040277017217
 Root      6 not converged, maximum delta is    0.000034819198457
 Root      7 not converged, maximum delta is    0.000374360619843
 Root      8 not converged, maximum delta is    0.002382373212174
 Root      9 not converged, maximum delta is    0.002838221728540
 Root     10 not converged, maximum delta is    0.000125506543928
 Root     11 not converged, maximum delta is    0.001183466303029
 Root     12 not converged, maximum delta is    0.001051212849894
 Root     13 not converged, maximum delta is    0.000702720644253
 Root     14 not converged, maximum delta is    0.003505952503387
 Root     15 not converged, maximum delta is    0.004222821357170
 Excitation Energies [eV] at current iteration:
 Root      1 :     5.220674756946093   Change is   -0.000204068170608
 Root      2 :     6.554081375961433   Change is   -0.000000168602699
 Root      3 :     6.737888389386366   Change is   -0.000000183322164
 Root      4 :     6.778096516304856   Change is   -0.000000188589328
 Root      5 :     7.282196456306921   Change is   -0.000000587139177
 Root      6 :     8.063604550808613   Change is   -0.000000269025324
 Root      7 :     8.446197085647537   Change is   -0.000032171336017
 Root      8 :     9.435527878352902   Change is   -0.000210412856878
 Root      9 :     9.476890755394633   Change is   -0.000384181208022
 Root     10 :     9.738996945969067   Change is   -0.000006998731035
 Root     11 :     9.874490804275979   Change is   -0.000328255962788
 Root     12 :     9.955410044280928   Change is   -0.000377044109639
 Root     13 :    10.410762849394920   Change is   -0.000078039835685
 Root     14 :    10.556725022961290   Change is   -0.000146326975062
 Root     15 :    10.590437917143730   Change is   -0.000945454863090
 Iteration     4 Dimension   143 NMult   135 NNew      8
 CISAX will form     8 AO SS matrices at one time.
 NMat=     8 NSing=     8 JSym2X= 0.
 Root      1 not converged, maximum delta is    0.000041812588558
 Root      2 has converged.
 Root      3 has converged.
 Root      4 not converged, maximum delta is    0.000001330014304
 Root      5 not converged, maximum delta is    0.000004473361784
 Root      6 has converged.
 Root      7 not converged, maximum delta is    0.000012852828243
 Root      8 not converged, maximum delta is    0.000057993966865
 Root      9 not converged, maximum delta is    0.000061393082242
 Root     10 not converged, maximum delta is    0.000011790533161
 Root     11 not converged, maximum delta is    0.000046654921317
 Root     12 not converged, maximum delta is    0.000059308399412
 Root     13 not converged, maximum delta is    0.000011316016320
 Root     14 not converged, maximum delta is    0.000022160546688
 Root     15 not converged, maximum delta is    0.000041609400537
 Excitation Energies [eV] at current iteration:
 Root      1 :     5.220674422387805   Change is   -0.000000334558288
 Root      2 :     6.554081375768791   Change is   -0.000000000192642
 Root      3 :     6.737888389236823   Change is   -0.000000000149543
 Root      4 :     6.778096515978544   Change is   -0.000000000326312
 Root      5 :     7.282196454063909   Change is   -0.000000002243012
 Root      6 :     8.063604550621742   Change is   -0.000000000186871
 Root      7 :     8.446197053101249   Change is   -0.000000032546288
 Root      8 :     9.435527502200655   Change is   -0.000000376152248
 Root      9 :     9.476890301529263   Change is   -0.000000453865371
 Root     10 :     9.738996926983011   Change is   -0.000000018986056
 Root     11 :     9.874490321667480   Change is   -0.000000482608500
 Root     12 :     9.955409327327716   Change is   -0.000000716953210
 Root     13 :    10.410762825071770   Change is   -0.000000024323152
 Root     14 :    10.556724904424520   Change is   -0.000000118536770
 Root     15 :    10.590437505753020   Change is   -0.000000411390709
 Convergence achieved on expansion vectors.
 ***********************************************************************
 Excited states from <AA,BB:AA,BB> singles matrix:
 ***********************************************************************
 
 1PDM for each excited state written to RWF  633
 Ground to excited state transition densities written to RWF  633
 Ground to excited state transition electric dipole moments (Au):
       state          X           Y           Z        Dip. S.      Osc.
         1        -1.6476      0.2225     -0.0738      2.7695      0.3542
         2         0.0016     -0.0104      0.0626      0.0040      0.0006
         3         0.0100     -0.0191      0.1709      0.0297      0.0049
         4         0.0069      0.0318      0.0737      0.0065      0.0011
         5         0.0611      0.0042      0.1367      0.0224      0.0040
         6         0.0060      0.0088     -0.0179      0.0004      0.0001
         7         0.0828      0.7456      0.0031      0.5628      0.1165
         8        -0.1648     -0.1023     -0.1045      0.0485      0.0112
         9         0.3770      0.1064     -0.1190      0.1676      0.0389
        10         0.0059     -0.0115      0.0579      0.0035      0.0008
        11        -1.1223      0.1163     -0.0075      1.2730      0.3080
        12         0.3273     -0.1933      0.0043      0.1445      0.0352
        13         0.0403     -0.0470      0.0316      0.0048      0.0012
        14        -0.0644     -0.0499     -0.0611      0.0104      0.0027
        15        -0.0155     -0.2295      0.0109      0.0530      0.0138
 Ground to excited state transition velocity dipole moments (Au):
       state          X           Y           Z        Dip. S.      Osc.
         1         0.2094     -0.0329      0.0088      0.0450      0.1564
         2        -0.0024     -0.0091     -0.0522      0.0028      0.0078
         3        -0.0027      0.0083     -0.1636      0.0268      0.0723
         4        -0.0048     -0.0087     -0.1086      0.0119      0.0318
         5        -0.0064     -0.0013      0.0093      0.0001      0.0003
         6        -0.0007      0.0028     -0.0034      0.0000      0.0000
         7        -0.0294     -0.2445     -0.0014      0.0606      0.1302
         8        -0.0124      0.0319     -0.0698      0.0060      0.0116
         9        -0.0201     -0.0352     -0.0431      0.0035      0.0067
        10        -0.0005      0.0041     -0.0080      0.0001      0.0002
        11         0.1867     -0.0198      0.0090      0.0353      0.0649
        12        -0.0598      0.0009     -0.0043      0.0036      0.0066
        13        -0.0044      0.0097      0.0776      0.0061      0.0107
        14         0.0160      0.0073     -0.1175      0.0141      0.0243
        15         0.0116      0.0184      0.0204      0.0009      0.0015
 Ground to excited state transition magnetic dipole moments (Au):
       state          X           Y           Z
         1         0.0103      0.0055     -0.6248
         2        -0.1524     -0.2968      0.0007
         3        -0.3168      0.5999      0.0118
         4        -0.1403     -0.6274      0.0090
         5        -0.8282     -0.0771      0.0187
         6         0.0850      0.6757     -0.0002
         7         0.0148      0.0688     -0.0202
         8         0.4717     -0.1597     -0.0052
         9         0.3735     -0.1101      0.0767
        10        -0.1895     -0.4926     -0.0034
        11         0.0538     -0.0444     -0.2863
        12        -0.0302     -0.0618      0.0199
        13         0.0052     -0.0260      0.0158
        14         0.0183     -0.0927      0.0089
        15         0.0204      0.1770     -0.0113
 Ground to excited state transition velocity quadrupole moments (Au):
       state          XX          YY          ZZ          XY          XZ          YZ
         1         0.0684     -0.0755      0.0019      0.2925      0.0002      0.0304
         2         0.0264     -0.0159     -0.0138      0.0012      0.1901     -0.0575
         3        -0.0005      0.0131      0.0086      0.0176      0.0654     -0.0806
         4        -0.0053     -0.0224     -0.0062      0.0021     -0.2580     -0.0440
         5         0.0015     -0.0016     -0.0020     -0.0053     -0.0137      0.1404
         6         0.0157      0.0069     -0.0125     -0.0050     -0.5533      0.0617
         7         0.2570     -0.2618      0.0076     -0.0760     -0.0037     -0.0061
         8        -0.0208      0.0663     -0.0139      0.0399      0.1060      0.2689
         9         0.0477     -0.0540      0.0053     -0.0775      0.0759      0.2175
        10         0.0858      0.0612      0.0052     -0.0027      0.2496     -0.0997
        11        -0.0426     -0.0914     -0.0399      0.2893      0.0168      0.0225
        12        -0.5616     -0.0979     -0.1424     -0.0693      0.0183     -0.0103
        13        -0.0653     -0.0130      0.0242      0.0064     -0.2054     -0.0556
        14        -0.1039     -0.0567      0.0114      0.0589     -0.1167      0.1614
        15        -0.2527     -0.0304      0.0398      0.0889      0.1383     -0.0426
 <0|del|b> * <b|rxdel|0> + <0|del|b> * <b|delr+rdel|0>
 Rotatory Strengths (R) in cgs (10**-40 erg-esu-cm/Gauss)
       state          XX          YY          ZZ    R(velocity)    E-M Angle
         1        -5.6937      0.8855     -8.1000     -4.3027       91.51
         2         6.3696      0.7742      1.7630      2.9689       80.12
         3        -0.5449      2.8816      8.7937      3.7101       87.99
         4         2.8571      0.1941     11.5947      4.8819       85.78
         5         0.2774      6.1257      8.3721      4.9251       53.85
         6         4.1922     -0.1490      0.3949      1.4794       52.64
         7       -20.0652     -0.3765    -18.8253    -13.0890      162.89
         8       -11.1069     -6.1351     -4.3087     -7.1836      105.83
         9         6.6753    -18.8227     -1.9640     -4.7038      107.21
        10        -2.9774      0.1491     -0.9459     -1.2581      113.61
        11         1.2094      8.8665      6.2342      5.4367       81.31
        12         0.1345      1.9687      1.1158      1.0730       67.21
        13         3.2072      0.8824     -2.3264      0.5877       66.76
        14        -7.1074      7.9697     -3.4773     -0.8717       97.31
        15         2.0889     -2.0925      5.9367      1.9777       52.21
 1/2[<0|r|b>*<b|rxdel|0> + (<0|rxdel|b>*<b|r|0>)*]
 Rotatory Strengths (R) in cgs (10**-40 erg-esu-cm/Gauss)
       state          XX          YY          ZZ     R(length)
         1        12.0284     -0.8641    -32.6098     -7.1485
         2         0.1701     -2.1788     -0.0331     -0.6806
         3         2.2486      8.0833     -1.4286      2.9678
         4         0.6885     14.0907     -0.4668      4.7708
         5        35.7909      0.2289     -1.8074     11.4041
         6        -0.3601     -4.2054     -0.0020     -1.5225
         7        -0.8653    -36.2970      0.0438    -12.3729
         8        54.9714    -11.5583     -0.3876     14.3418
         9       -99.5846      8.2831      6.4536    -28.2827
        10         0.7872     -4.0179      0.1400     -1.0303
        11        42.7362      3.6534     -1.5273     14.9541
        12         6.9937     -8.4555     -0.0599     -0.5073
        13        -0.1476     -0.8639     -0.3543     -0.4553
        14         0.8338     -3.2724      0.3859     -0.6842
        15         0.2238     28.7233      0.0870      9.6780
  1/2[<0|del|b>*<b|r|0> + (<0|r|b>*<b|del|0>)*] (Au)
       state          X           Y           Z        Dip. S.   Osc.(frdel)
         1        -0.3450     -0.0073     -0.0006      0.3530      0.2353
         2         0.0000      0.0001     -0.0033      0.0032      0.0021
         3         0.0000     -0.0002     -0.0280      0.0281      0.0188
         4         0.0000     -0.0003     -0.0080      0.0083      0.0055
         5        -0.0004      0.0000      0.0013     -0.0009     -0.0006
         6         0.0000      0.0000      0.0001     -0.0001     -0.0001
         7        -0.0024     -0.1823      0.0000      0.1847      0.1231
         8         0.0020     -0.0033      0.0073     -0.0061     -0.0040
         9        -0.0076     -0.0037      0.0051      0.0062      0.0041
        10         0.0000      0.0000     -0.0005      0.0005      0.0003
        11        -0.2096     -0.0023     -0.0001      0.2119      0.1413
        12        -0.0196     -0.0002      0.0000      0.0198      0.0132
        13        -0.0002     -0.0005      0.0025     -0.0018     -0.0012
        14        -0.0010     -0.0004      0.0072     -0.0058     -0.0039
        15        -0.0002     -0.0042      0.0002      0.0042      0.0028

 Excitation energies and oscillator strengths:
 
 Excited State   1:      Singlet-A      5.2207 eV  237.49 nm  f=0.3542  <S**2>=0.000
      13 -> 14         0.69782
 This state for optimization and/or second-order correction.
 Total Energy, E(CIS) =   2.78420534964    
 Copying the excited state density for this state as the 1-particle RhoCI density.
 
 Excited State   2:      Singlet-A      6.5541 eV  189.17 nm  f=0.0006  <S**2>=0.000
      13 -> 15         0.66607
      13 -> 17         0.11562
      13 -> 19        -0.13075
 
 Excited State   3:      Singlet-A      6.7379 eV  184.01 nm  f=0.0049  <S**2>=0.000
      11 -> 14         0.11398
      12 -> 14        -0.40579
      13 -> 16         0.53695
 
 Excited State   4:      Singlet-A      6.7781 eV  182.92 nm  f=0.0011  <S**2>=0.000
      12 -> 14         0.55807
      13 -> 16         0.40155
 
 Excited State   5:      Singlet-A      7.2822 eV  170.26 nm  f=0.0040  <S**2>=0.000
      11 -> 14         0.68626
      13 -> 16        -0.12075
 
 Excited State   6:      Singlet-A      8.0636 eV  153.76 nm  f=0.0001  <S**2>=0.000
      13 -> 15        -0.10595
      13 -> 17         0.67255
      13 -> 21        -0.12371
 
 Excited State   7:      Singlet-A      8.4462 eV  146.79 nm  f=0.1165  <S**2>=0.000
      10 -> 14         0.68651
 
 Excited State   8:      Singlet-A      9.4355 eV  131.40 nm  f=0.0112  <S**2>=0.000
      10 -> 15        -0.29956
      11 -> 16         0.22231
      11 -> 18        -0.13022
      12 -> 15        -0.26963
      12 -> 17        -0.20648
      13 -> 18         0.42098
 
 Excited State   9:      Singlet-A      9.4769 eV  130.83 nm  f=0.0389  <S**2>=0.000
       9 -> 15         0.10781
      10 -> 15        -0.24272
      11 -> 15        -0.18840
      11 -> 16        -0.29179
      11 -> 18         0.16757
      12 -> 15         0.14685
      12 -> 17         0.28570
      13 -> 18         0.35475
 
 Excited State  10:      Singlet-A      9.7390 eV  127.31 nm  f=0.0008  <S**2>=0.000
       7 -> 15        -0.12230
      10 -> 16        -0.36382
      12 -> 16        -0.14038
      13 -> 19         0.53001
 
 Excited State  11:      Singlet-A      9.8745 eV  125.56 nm  f=0.3080  <S**2>=0.000
      10 -> 15        -0.13512
      11 -> 15         0.30988
      11 -> 16         0.22018
      12 -> 15         0.51168
      12 -> 16        -0.15177
      12 -> 19        -0.10976
 
 Excited State  12:      Singlet-A      9.9554 eV  124.54 nm  f=0.0352  <S**2>=0.000
      11 -> 15         0.36848
      11 -> 16        -0.19599
      11 -> 19        -0.14843
      12 -> 16         0.49832
      12 -> 18        -0.11048
 
 Excited State  13:      Singlet-A     10.4108 eV  119.09 nm  f=0.0012  <S**2>=0.000
       9 -> 14         0.14140
      10 -> 15         0.39959
      10 -> 16         0.21823
      12 -> 16         0.11564
      13 -> 15         0.15888
      13 -> 18         0.27930
      13 -> 19         0.31389
 
 Excited State  14:      Singlet-A     10.5567 eV  117.45 nm  f=0.0027  <S**2>=0.000
       9 -> 14         0.17323
      10 -> 15        -0.32823
      10 -> 16         0.33171
      11 -> 15        -0.13145
      11 -> 16         0.11065
      11 -> 17         0.11986
      12 -> 16         0.16801
      13 -> 16        -0.13644
      13 -> 18        -0.27291
      13 -> 19         0.17334
 
 Excited State  15:      Singlet-A     10.5904 eV  117.07 nm  f=0.0138  <S**2>=0.000
       8 -> 15         0.18281
       9 -> 14        -0.25728
       9 -> 16         0.14733
      10 -> 16        -0.23998
      11 -> 15        -0.16349
      11 -> 17         0.29908
      11 -> 19         0.12763
      12 -> 15         0.17963
      12 -> 16         0.22791
      12 -> 17        -0.13777
      12 -> 18         0.11421
 SavETr:  write IOETrn=   770 NScale= 10 NData=  16 NLR=1 NState=   15 LETran=     280.
 The selected state is a singlet
 CISAX will form     1 AO SS matrices at one time.
 NMat=     1 NSing=     1 JSym2X= 0.
 Leave Link  914 at Tue Dec 15 17:07:39 2015, MaxMem=    33554432 cpu:         0.1
 (Enter /home/Applications/g09/g09/l1002.exe)
 Minotr:  Closed shell wavefunction.
          Computing CIS/TD-HF/TD-KS derivatives.
          Using Z-Vector for PSCF gradient.
          Skipping F1 and S1 gradient terms here.
          IDoAtm=111111111
          Direct CPHF calculation.
          Differentiating once with respect to electric field.
                with respect to dipole field.
          Differentiating once with respect to nuclear coordinates.
          Electric field/nuclear overlap derivatives assumed to be zero.
          Requested convergence is 1.0D-10 RMS, and 1.0D-09 maximum.
          NewPWx=T KeepS1=F KeepF1=F KeepIn=T MapXYZ=F SortEE=F KeepMc=T.
          MDV=      33495423 using IRadAn=       0.
 Keep J ints in memory in canonical form, NReq=871704.
 FoFCou: FMM=F IPFlag=           0 FMFlag=           0 FMFlg1=           0
         NFxFlg=           0 DoJE=F BraDBF=F KetDBF=F FulRan=T
         wScrn=  0.000000 ICntrl=     600 IOpCl=  2 I1Cent=           0 NGrid=           0
         NMat0=    1 NMatS0=     54 NMatT0=    0 NMatD0=    1 NMtDS0=    0 NMtDT0=    0
 Symmetry not used in FoFCou.
          Solving linear equations separately, MaxMat=       0.
          There are     1 degrees of freedom in the 1st order CPHF.  IDoFFX=0 NUNeed=     1.
 LinEq1:  Iter=  0 NonCon=     1 RMS=7.65D-03 Max=6.09D-02 NDo=     1
 AX will form     1 AO Fock derivatives at one time.
 LinEq1:  Iter=  1 NonCon=     1 RMS=6.46D-04 Max=2.92D-03 NDo=     1
 LinEq1:  Iter=  2 NonCon=     1 RMS=7.72D-05 Max=6.19D-04 NDo=     1
 LinEq1:  Iter=  3 NonCon=     1 RMS=8.42D-06 Max=2.87D-05 NDo=     1
 LinEq1:  Iter=  4 NonCon=     1 RMS=1.63D-06 Max=1.03D-05 NDo=     1
 LinEq1:  Iter=  5 NonCon=     1 RMS=1.86D-07 Max=7.00D-07 NDo=     1
 LinEq1:  Iter=  6 NonCon=     1 RMS=2.34D-08 Max=1.01D-07 NDo=     1
 LinEq1:  Iter=  7 NonCon=     1 RMS=2.88D-09 Max=1.17D-08 NDo=     1
 LinEq1:  Iter=  8 NonCon=     1 RMS=3.17D-10 Max=1.05D-09 NDo=     1
 LinEq1:  Iter=  9 NonCon=     0 RMS=3.27D-11 Max=1.59D-10 NDo=     1
 Linear equations converged to 1.000D-10 1.000D-09 after     9 iterations.
 End of Minotr F.D. properties file   721 does not exist.
 End of Minotr F.D. properties file   722 does not exist.
 End of Minotr F.D. properties file   788 does not exist.
 Leave Link 1002 at Tue Dec 15 17:07:39 2015, MaxMem=    33554432 cpu:         0.0
 (Enter /home/Applications/g09/g09/l601.exe)
 Copying SCF densities to generalized density rwf, IOpCl= 0 IROHF=0.

 **********************************************************************

            Population analysis using the SCF density.

 **********************************************************************

 Orbital symmetries:
       Occupied  (A) (A) (A) (A) (A) (A) (A) (A) (A) (A) (A) (A)
                 (A)
       Virtual   (A) (A) (A) (A) (A) (A) (A) (A) (A) (A) (A)
 The electronic state is 1-A.
 Alpha  occ. eigenvalues --   -1.84367  -1.12225  -0.88364  -0.79469  -0.75904
 Alpha  occ. eigenvalues --   -0.66974  -0.62889  -0.57219  -0.55875  -0.45129
 Alpha  occ. eigenvalues --   -0.44687  -0.43637  -0.31170
 Alpha virt. eigenvalues --    0.08331   0.17247   0.17579   0.24808   0.27600
 Alpha virt. eigenvalues --    0.29537   0.34821   0.39319   0.47020   0.54276
 Alpha virt. eigenvalues --    0.58970
     Molecular Orbital Coefficients:
                           1         2         3         4         5
                           O         O         O         O         O
     Eigenvalues --    -1.84367  -1.12225  -0.88364  -0.79469  -0.75904
   1 1   C  1S          0.07770   0.48050  -0.20923  -0.25269   0.16198
   2        1PX        -0.05889  -0.18433  -0.21412  -0.25409  -0.14972
   3        1PY        -0.09717  -0.11895   0.15503  -0.01702   0.39375
   4        1PZ        -0.00219  -0.01071   0.00510   0.00260  -0.00654
   5 2   C  1S          0.21138   0.25158  -0.48622   0.09559  -0.37870
   6        1PX        -0.23332  -0.14422  -0.03326  -0.23608  -0.06460
   7        1PY        -0.09915   0.30355   0.07922  -0.48842   0.14160
   8        1PZ        -0.00050   0.00253   0.00079  -0.00858  -0.00448
   9 3   O  1S          0.85372  -0.27417  -0.02463  -0.00705   0.25986
  10        1PX         0.00047   0.01656  -0.22712   0.24207  -0.00766
  11        1PY         0.04328   0.15382   0.02960  -0.00456  -0.12684
  12        1PZ         0.00061   0.00099   0.00079  -0.00395  -0.00312
  13 4   C  1S          0.22029   0.21066   0.51411  -0.10630  -0.36714
  14        1PX         0.22252   0.18388  -0.02362  -0.10071   0.08450
  15        1PY        -0.14019   0.26370  -0.06600   0.53288   0.13480
  16        1PZ        -0.00552  -0.00447  -0.01141  -0.00219   0.00384
  17 5   C  1S          0.07568   0.44834   0.23626   0.24674   0.17488
  18        1PX         0.04069   0.18383  -0.21442  -0.22891   0.20360
  19        1PY        -0.10440  -0.14565  -0.12361   0.01021   0.33435
  20        1PZ         0.00161   0.01058   0.00503   0.00387   0.00227
  21 6   H  1S          0.00436   0.12751   0.12887   0.18670   0.15667
  22 7   H  1S          0.05395   0.01779   0.30034  -0.08543  -0.26953
  23 8   H  1S          0.04911   0.03078  -0.28597   0.05271  -0.26942
  24 9   H  1S          0.00548   0.15534  -0.12005  -0.21298   0.17659
                           6         7         8         9        10
                           O         O         O         O         O
     Eigenvalues --    -0.66974  -0.62889  -0.57219  -0.55875  -0.45129
   1 1   C  1S         -0.18419   0.01783  -0.11676  -0.05711   0.00269
   2        1PX        -0.16791  -0.00196  -0.01875   0.27029  -0.07278
   3        1PY        -0.19139  -0.00144   0.07501  -0.31066   0.01301
   4        1PZ         0.01577   0.41169   0.02225   0.01298  -0.21541
   5 2   C  1S         -0.12493   0.00482  -0.06733  -0.11306  -0.04017
   6        1PX        -0.40279  -0.00809   0.59591   0.13277   0.07580
   7        1PY         0.04586  -0.00172  -0.12786   0.51250  -0.00132
   8        1PZ         0.02124   0.56625   0.02549   0.02328  -0.63819
   9 3   O  1S         -0.18022   0.00767   0.00245   0.25339   0.03475
  10        1PX        -0.00598   0.00705  -0.13906  -0.00923   0.00050
  11        1PY         0.16711  -0.00836   0.01223  -0.08623  -0.02871
  12        1PZ         0.00883   0.19177   0.00823  -0.00512   0.01220
  13 4   C  1S         -0.11348   0.00444   0.08251  -0.10527  -0.00110
  14        1PX         0.46464  -0.02896   0.59949  -0.08311  -0.04467
  15        1PY        -0.08191   0.00331   0.06784   0.48987   0.06624
  16        1PZ         0.01311   0.55836   0.00237  -0.02277   0.67754
  17 5   C  1S         -0.20738  -0.00374   0.13488  -0.06420  -0.01021
  18        1PX         0.15636  -0.00577  -0.09625  -0.32167   0.09588
  19        1PY        -0.21296   0.01930  -0.05518  -0.23816  -0.11061
  20        1PZ         0.00909   0.39847   0.01705  -0.00551   0.17929
  21 6   H  1S         -0.26500   0.01015   0.07910  -0.04411  -0.10265
  22 7   H  1S         -0.30639   0.02266  -0.29006  -0.10878   0.02274
  23 8   H  1S         -0.28866  -0.00455   0.30025  -0.14040   0.02413
  24 9   H  1S         -0.25321   0.00571  -0.03949  -0.07300  -0.02315
                          11        12        13        14        15
                           O         O         O         V         V
     Eigenvalues --    -0.44687  -0.43637  -0.31170   0.08331   0.17247
   1 1   C  1S         -0.08569  -0.01443   0.01119   0.01095  -0.03563
   2        1PX        -0.13913   0.52026  -0.00994  -0.00809   0.24038
   3        1PY        -0.42153   0.19770  -0.00359   0.00469  -0.12878
   4        1PZ        -0.04274  -0.03193   0.55320   0.68825   0.00596
   5 2   C  1S          0.11830   0.09363   0.00722  -0.00237   0.02031
   6        1PX         0.00109  -0.33971  -0.00520  -0.00169   0.14406
   7        1PY         0.26318  -0.06265   0.01203   0.00562  -0.13695
   8        1PZ        -0.08735  -0.12525  -0.41479  -0.21546  -0.00504
   9 3   O  1S         -0.01889  -0.12606  -0.00169   0.00074   0.00593
  10        1PX        -0.05037   0.02414  -0.00219   0.00062   0.03961
  11        1PY         0.01671   0.13458   0.00230  -0.00109   0.03931
  12        1PZ         0.00523   0.00580  -0.14994  -0.00425  -0.00317
  13 4   C  1S         -0.09701   0.12053  -0.00542  -0.00352   0.00519
  14        1PX         0.03935   0.28346  -0.00568   0.00170   0.33582
  15        1PY        -0.30133  -0.02502  -0.01125   0.00035   0.34204
  16        1PZ         0.09983   0.12986  -0.36708   0.18803  -0.01089
  17 5   C  1S          0.10393  -0.05679  -0.01448   0.01424  -0.07412
  18        1PX        -0.16650  -0.44182  -0.00635   0.00744   0.30822
  19        1PY         0.52084   0.13894   0.01585  -0.00983   0.35881
  20        1PZ         0.00506   0.02607   0.60285  -0.66616  -0.00181
  21 6   H  1S          0.41306   0.21629   0.00437  -0.00099  -0.08606
  22 7   H  1S         -0.03869  -0.09262  -0.00400   0.00608   0.56940
  23 8   H  1S          0.00808  -0.12395   0.00445   0.00927  -0.28168
  24 9   H  1S         -0.32551   0.33033  -0.00664  -0.00314  -0.10543
                          16        17        18        19        20
                           V         V         V         V         V
     Eigenvalues --     0.17579   0.24808   0.27600   0.29537   0.34821
   1 1   C  1S         -0.14300  -0.07890  -0.08389   0.09434   0.32397
   2        1PX        -0.09024   0.46585  -0.14217  -0.18163   0.28618
   3        1PY         0.37862   0.18463  -0.24471   0.41989  -0.10225
   4        1PZ        -0.00696   0.00380  -0.00220  -0.00592  -0.00560
   5 2   C  1S         -0.02201  -0.04678  -0.29484   0.41356  -0.26844
   6        1PX        -0.28062  -0.09711  -0.11042   0.17262  -0.12185
   7        1PY         0.39532   0.03639  -0.01959   0.12145  -0.16553
   8        1PZ         0.01334   0.00279   0.00130   0.00333  -0.00373
   9 3   O  1S          0.01252  -0.00061  -0.01391   0.00038  -0.03201
  10        1PX        -0.00975  -0.00010   0.01142   0.06210  -0.01030
  11        1PY         0.09051   0.00226   0.01078  -0.01090  -0.17507
  12        1PZ         0.00161  -0.00244  -0.00214   0.00048   0.00185
  13 4   C  1S          0.01035   0.01407  -0.39124  -0.34143  -0.29012
  14        1PX         0.11666  -0.07826   0.17809   0.14149   0.08609
  15        1PY         0.17360  -0.02180  -0.05340  -0.13184  -0.20897
  16        1PZ        -0.00490   0.00143  -0.00254   0.00075   0.00142
  17 5   C  1S         -0.12733   0.06634  -0.13548  -0.05586   0.48565
  18        1PX        -0.06482   0.44620   0.00597  -0.27274  -0.22858
  19        1PY         0.22059  -0.28228  -0.30023  -0.28452  -0.04488
  20        1PZ        -0.00262   0.01103   0.00542   0.00014   0.01224
  21 6   H  1S         -0.21945   0.48224   0.38196   0.10731  -0.34275
  22 7   H  1S          0.20318  -0.07239   0.39188   0.27787   0.14930
  23 8   H  1S          0.58622   0.11332   0.26874  -0.31448   0.13766
  24 9   H  1S         -0.19447  -0.43469   0.38082  -0.24928  -0.26891
                          21        22        23        24
                           V         V         V         V
     Eigenvalues --     0.39319   0.47020   0.54276   0.58970
   1 1   C  1S          0.64499   0.00037   0.07367  -0.00097
   2        1PX        -0.11128  -0.00060   0.04623  -0.00893
   3        1PY        -0.01918   0.00002   0.01384   0.00798
   4        1PZ        -0.01327   0.01001  -0.00005   0.00008
   5 2   C  1S         -0.23408  -0.00052  -0.15633  -0.18260
   6        1PX        -0.01781  -0.00094   0.16734   0.11593
   7        1PY        -0.19459   0.00333  -0.04028   0.14240
   8        1PZ        -0.00268  -0.16817  -0.00216   0.00197
   9 3   O  1S         -0.00422   0.00020   0.11023  -0.00468
  10        1PX        -0.03443   0.00833   0.08821   0.92307
  11        1PY        -0.02447  -0.01814   0.92389  -0.08693
  12        1PZ        -0.00353   0.96948   0.01710  -0.00961
  13 4   C  1S          0.16364   0.00058  -0.15201   0.19467
  14        1PX         0.02823  -0.00171  -0.17215   0.09891
  15        1PY         0.14023   0.00431  -0.02641  -0.15875
  16        1PZ        -0.00101  -0.17657   0.00129  -0.00363
  17 5   C  1S         -0.52707  -0.00448   0.06954  -0.00129
  18        1PX        -0.16788   0.00283  -0.04520  -0.00872
  19        1PY         0.03838  -0.00167   0.01897  -0.00609
  20        1PZ        -0.01492   0.00875   0.00132   0.00030
  21 6   H  1S          0.19104   0.00318  -0.04101   0.00507
  22 7   H  1S         -0.04203   0.00033  -0.00620   0.00191
  23 8   H  1S          0.06504   0.00010  -0.00606  -0.00067
  24 9   H  1S         -0.28081  -0.00014  -0.04407  -0.00455
     Density Matrix:
                           1         2         3         4         5
   1 1   C  1S          0.85922
   2        1PX         0.02672   1.13459
   3        1PY         0.09682   0.09436   1.11736
   4        1PZ         0.00546   0.00096   0.00119   1.05174
   5 2   C  1S          0.35889   0.20894  -0.50904  -0.00252   1.10862
   6        1PX        -0.05888   0.05423   0.05438  -0.00282  -0.21429
   7        1PY         0.44719   0.19963  -0.50217  -0.00663  -0.22617
   8        1PZ         0.01453   0.00189  -0.01340   0.30010  -0.00534
   9 3   O  1S          0.01142   0.00327  -0.02455  -0.00143   0.00534
  10        1PX         0.03008   0.01168  -0.04955  -0.00200   0.29637
  11        1PY         0.04166   0.00218  -0.10573   0.00004   0.16962
  12        1PZ        -0.00040   0.00116  -0.00267  -0.01356   0.00047
  13 4   C  1S          0.00407  -0.02905   0.03164   0.00010  -0.00234
  14        1PX        -0.01854   0.00928   0.01725   0.00004   0.01390
  15        1PY         0.04458  -0.02544   0.01518  -0.00245  -0.04350
  16        1PZ        -0.00633   0.00417  -0.00298  -0.25524  -0.00168
  17 5   C  1S          0.31126  -0.50947   0.11049  -0.03071   0.00525
  18        1PX         0.49744  -0.57536   0.14381  -0.02849   0.03689
  19        1PY         0.02441  -0.02620   0.11357   0.01032   0.02454
  20        1PZ         0.02744  -0.02949   0.00812   0.91646   0.00103
  21 6   H  1S          0.03275  -0.05739   0.00106  -0.00021   0.06989
  22 7   H  1S          0.05884  -0.05136   0.00697  -0.00621   0.03956
  23 8   H  1S          0.09748   0.03420  -0.13194  -0.00138   0.56870
  24 9   H  1S          0.52224   0.53367   0.61190  -0.00557   0.09450
                           6         7         8         9        10
   6        1PX         1.58494
   7        1PY         0.15535   1.44260
   8        1PZ         0.00684  -0.01236   1.85009
   9 3   O  1S         -0.04176  -0.01090   0.00038   1.97280
  10        1PX        -0.28308  -0.26872  -0.00023  -0.01171   0.26629
  11        1PY        -0.28658  -0.02606  -0.00566  -0.21832  -0.00773
  12        1PZ        -0.00065  -0.00523   0.32429  -0.00421  -0.00136
  13 4   C  1S         -0.02062  -0.04019  -0.00105   0.00723  -0.27616
  14        1PX         0.00068  -0.02452  -0.00087   0.04247  -0.19448
  15        1PY         0.02810   0.01639   0.00126  -0.01767   0.29689
  16        1PZ         0.00087   0.00079   0.02168  -0.00026   0.00988
  17 5   C  1S          0.02878   0.04531   0.00873   0.01170  -0.02268
  18        1PX         0.01246   0.02742   0.00554  -0.00730   0.01590
  19        1PY        -0.01702   0.00522  -0.00284  -0.02503   0.02766
  20        1PZ         0.00205   0.00664  -0.28413   0.00160  -0.00093
  21 6   H  1S         -0.02157   0.05987  -0.00049   0.00640  -0.01549
  22 7   H  1S         -0.03693  -0.01961   0.00144   0.00934  -0.08689
  23 8   H  1S          0.63817  -0.39148  -0.01234   0.00720   0.07629
  24 9   H  1S         -0.05278   0.03146   0.00214   0.00647   0.01804
                          11        12        13        14        15
  11        1PY         0.19464
  12        1PZ         0.00241   0.11933
  13 4   C  1S          0.21982   0.00874   1.11612
  14        1PX         0.31884   0.01300   0.18215   1.53624
  15        1PY        -0.10489  -0.00733  -0.25171  -0.16693   1.48583
  16        1PZ        -0.00675   0.34377   0.00319   0.00910   0.01032
  17 5   C  1S          0.04568   0.00062   0.33343   0.12421   0.42269
  18        1PX        -0.02672   0.00025  -0.28397  -0.01201  -0.29380
  19        1PY        -0.11662   0.00201  -0.46009  -0.13587  -0.47186
  20        1PZ         0.00050  -0.02275   0.01167   0.00301   0.01310
  21 6   H  1S          0.00453   0.00199   0.08817   0.05119   0.02777
  22 7   H  1S         -0.02158   0.00282   0.58610  -0.68525  -0.27363
  23 8   H  1S         -0.03464  -0.00163   0.04022   0.03405  -0.02137
  24 9   H  1S          0.00453   0.00038   0.06933   0.03094   0.05823
                          16        17        18        19        20
  16        1PZ         1.86660
  17 5   C  1S         -0.01323   0.86740
  18        1PX         0.00381  -0.00774   1.08933
  19        1PY         0.01291   0.11534  -0.09815   1.13568
  20        1PZ         0.25347  -0.00966   0.00152   0.00116   1.11124
  21 6   H  1S         -0.00063   0.52292  -0.44796   0.67743  -0.00345
  22 7   H  1S          0.01352   0.09436  -0.05963  -0.12868   0.00359
  23 8   H  1S         -0.00257   0.06560   0.05783  -0.00232   0.00767
  24 9   H  1S          0.00076   0.03925   0.06593   0.00184  -0.00172
                          21        22        23        24
  21 6   H  1S          0.79755
  22 7   H  1S          0.01588   0.74868
  23 8   H  1S          0.03076   0.02728   0.73949
  24 9   H  1S         -0.00229   0.03242   0.01575   0.80362
    Full Mulliken population analysis:
                           1         2         3         4         5
   1 1   C  1S          0.85922
   2        1PX         0.00000   1.13459
   3        1PY         0.00000   0.00000   1.11736
   4        1PZ         0.00000   0.00000   0.00000   1.05174
   5 2   C  1S          0.00000   0.00000   0.00000   0.00000   1.10862
   6        1PX         0.00000   0.00000   0.00000   0.00000   0.00000
   7        1PY         0.00000   0.00000   0.00000   0.00000   0.00000
   8        1PZ         0.00000   0.00000   0.00000   0.00000   0.00000
   9 3   O  1S          0.00000   0.00000   0.00000   0.00000   0.00000
  10        1PX         0.00000   0.00000   0.00000   0.00000   0.00000
  11        1PY         0.00000   0.00000   0.00000   0.00000   0.00000
  12        1PZ         0.00000   0.00000   0.00000   0.00000   0.00000
  13 4   C  1S          0.00000   0.00000   0.00000   0.00000   0.00000
  14        1PX         0.00000   0.00000   0.00000   0.00000   0.00000
  15        1PY         0.00000   0.00000   0.00000   0.00000   0.00000
  16        1PZ         0.00000   0.00000   0.00000   0.00000   0.00000
  17 5   C  1S          0.00000   0.00000   0.00000   0.00000   0.00000
  18        1PX         0.00000   0.00000   0.00000   0.00000   0.00000
  19        1PY         0.00000   0.00000   0.00000   0.00000   0.00000
  20        1PZ         0.00000   0.00000   0.00000   0.00000   0.00000
  21 6   H  1S          0.00000   0.00000   0.00000   0.00000   0.00000
  22 7   H  1S          0.00000   0.00000   0.00000   0.00000   0.00000
  23 8   H  1S          0.00000   0.00000   0.00000   0.00000   0.00000
  24 9   H  1S          0.00000   0.00000   0.00000   0.00000   0.00000
                           6         7         8         9        10
   6        1PX         1.58494
   7        1PY         0.00000   1.44260
   8        1PZ         0.00000   0.00000   1.85009
   9 3   O  1S          0.00000   0.00000   0.00000   1.97280
  10        1PX         0.00000   0.00000   0.00000   0.00000   0.26629
  11        1PY         0.00000   0.00000   0.00000   0.00000   0.00000
  12        1PZ         0.00000   0.00000   0.00000   0.00000   0.00000
  13 4   C  1S          0.00000   0.00000   0.00000   0.00000   0.00000
  14        1PX         0.00000   0.00000   0.00000   0.00000   0.00000
  15        1PY         0.00000   0.00000   0.00000   0.00000   0.00000
  16        1PZ         0.00000   0.00000   0.00000   0.00000   0.00000
  17 5   C  1S          0.00000   0.00000   0.00000   0.00000   0.00000
  18        1PX         0.00000   0.00000   0.00000   0.00000   0.00000
  19        1PY         0.00000   0.00000   0.00000   0.00000   0.00000
  20        1PZ         0.00000   0.00000   0.00000   0.00000   0.00000
  21 6   H  1S          0.00000   0.00000   0.00000   0.00000   0.00000
  22 7   H  1S          0.00000   0.00000   0.00000   0.00000   0.00000
  23 8   H  1S          0.00000   0.00000   0.00000   0.00000   0.00000
  24 9   H  1S          0.00000   0.00000   0.00000   0.00000   0.00000
                          11        12        13        14        15
  11        1PY         0.19464
  12        1PZ         0.00000   0.11933
  13 4   C  1S          0.00000   0.00000   1.11612
  14        1PX         0.00000   0.00000   0.00000   1.53624
  15        1PY         0.00000   0.00000   0.00000   0.00000   1.48583
  16        1PZ         0.00000   0.00000   0.00000   0.00000   0.00000
  17 5   C  1S          0.00000   0.00000   0.00000   0.00000   0.00000
  18        1PX         0.00000   0.00000   0.00000   0.00000   0.00000
  19        1PY         0.00000   0.00000   0.00000   0.00000   0.00000
  20        1PZ         0.00000   0.00000   0.00000   0.00000   0.00000
  21 6   H  1S          0.00000   0.00000   0.00000   0.00000   0.00000
  22 7   H  1S          0.00000   0.00000   0.00000   0.00000   0.00000
  23 8   H  1S          0.00000   0.00000   0.00000   0.00000   0.00000
  24 9   H  1S          0.00000   0.00000   0.00000   0.00000   0.00000
                          16        17        18        19        20
  16        1PZ         1.86660
  17 5   C  1S          0.00000   0.86740
  18        1PX         0.00000   0.00000   1.08933
  19        1PY         0.00000   0.00000   0.00000   1.13568
  20        1PZ         0.00000   0.00000   0.00000   0.00000   1.11124
  21 6   H  1S          0.00000   0.00000   0.00000   0.00000   0.00000
  22 7   H  1S          0.00000   0.00000   0.00000   0.00000   0.00000
  23 8   H  1S          0.00000   0.00000   0.00000   0.00000   0.00000
  24 9   H  1S          0.00000   0.00000   0.00000   0.00000   0.00000
                          21        22        23        24
  21 6   H  1S          0.79755
  22 7   H  1S          0.00000   0.74868
  23 8   H  1S          0.00000   0.00000   0.73949
  24 9   H  1S          0.00000   0.00000   0.00000   0.80362
     Gross orbital populations:
                           1
   1 1   C  1S          0.85922
   2        1PX         1.13459
   3        1PY         1.11736
   4        1PZ         1.05174
   5 2   C  1S          1.10862
   6        1PX         1.58494
   7        1PY         1.44260
   8        1PZ         1.85009
   9 3   O  1S          1.97280
  10        1PX         0.26629
  11        1PY         0.19464
  12        1PZ         0.11933
  13 4   C  1S          1.11612
  14        1PX         1.53624
  15        1PY         1.48583
  16        1PZ         1.86660
  17 5   C  1S          0.86740
  18        1PX         1.08933
  19        1PY         1.13568
  20        1PZ         1.11124
  21 6   H  1S          0.79755
  22 7   H  1S          0.74868
  23 8   H  1S          0.73949
  24 9   H  1S          0.80362
          Condensed to atoms (all electrons):
               1          2          3          4          5          6
     1  C    4.162918   0.000000   0.000000   0.000000   0.000000   0.000000
     2  C    0.000000   5.986244   0.000000   0.000000   0.000000   0.000000
     3  O    0.000000   0.000000   2.553063   0.000000   0.000000   0.000000
     4  C    0.000000   0.000000   0.000000   6.004797   0.000000   0.000000
     5  C    0.000000   0.000000   0.000000   0.000000   4.203647   0.000000
     6  H    0.000000   0.000000   0.000000   0.000000   0.000000   0.797549
     7  H    0.000000   0.000000   0.000000   0.000000   0.000000   0.000000
     8  H    0.000000   0.000000   0.000000   0.000000   0.000000   0.000000
     9  H    0.000000   0.000000   0.000000   0.000000   0.000000   0.000000
               7          8          9
     1  C    0.000000   0.000000   0.000000
     2  C    0.000000   0.000000   0.000000
     3  O    0.000000   0.000000   0.000000
     4  C    0.000000   0.000000   0.000000
     5  C    0.000000   0.000000   0.000000
     6  H    0.000000   0.000000   0.000000
     7  H    0.748677   0.000000   0.000000
     8  H    0.000000   0.739488   0.000000
     9  H    0.000000   0.000000   0.803616
 Mulliken charges:
               1
     1  C   -0.162918
     2  C   -1.986244
     3  O    3.446937
     4  C   -2.004797
     5  C   -0.203647
     6  H    0.202451
     7  H    0.251323
     8  H    0.260512
     9  H    0.196384
 Sum of Mulliken charges =   0.00000
 Mulliken charges with hydrogens summed into heavy atoms:
               1
     1  C    0.033466
     2  C   -1.725733
     3  O    3.446937
     4  C   -1.753475
     5  C   -0.001196
 Charge=              0.0000 electrons
 Dipole moment (field-independent basis, Debye):
    X=             -0.7663    Y=            -11.0121    Z=             -0.2414  Tot=             11.0413
 N-N= 1.037635524967D+02 E-N=-1.690257131386D+02  KE=-1.435852163296D+01
 Orbital energies and kinetic energies (alpha):
                                 1                 2
   1         O                -1.843668         -1.232461
   2         O                -1.122253         -0.958568
   3         O                -0.883642         -0.778487
   4         O                -0.794686         -0.557256
   5         O                -0.759044         -0.631087
   6         O                -0.669737         -0.556668
   7         O                -0.628894         -0.491571
   8         O                -0.572187         -0.370446
   9         O                -0.558746         -0.309794
  10         O                -0.451293         -0.314810
  11         O                -0.446866         -0.401782
  12         O                -0.436370         -0.314398
  13         O                -0.311701         -0.261932
  14         V                 0.083305         -0.174053
  15         V                 0.172474         -0.153894
  16         V                 0.175793         -0.157938
  17         V                 0.248082         -0.147823
  18         V                 0.275999         -0.145778
  19         V                 0.295368         -0.082511
  20         V                 0.348209         -0.056624
  21         V                 0.393185         -0.042252
  22         V                 0.470204          0.688326
  23         V                 0.542762          0.702112
  24         V                 0.589700          0.763329
 Total kinetic energy from orbitals=-1.435852163296D+01
 Leave Link  601 at Tue Dec 15 17:07:39 2015, MaxMem=    33554432 cpu:         0.0
 (Enter /home/Applications/g09/g09/l701.exe)
 Compute integral first derivatives.
 ... and contract with generalized density number  6.
 Leave Link  701 at Tue Dec 15 17:07:39 2015, MaxMem=    33554432 cpu:         0.0
 (Enter /home/Applications/g09/g09/l702.exe)
 L702 exits ... SP integral derivatives will be done elsewhere.
 Leave Link  702 at Tue Dec 15 17:07:39 2015, MaxMem=    33554432 cpu:         0.0
 (Enter /home/Applications/g09/g09/l703.exe)
 Compute integral first derivatives, UseDBF=F ICtDFT=           0.
 Integral derivatives from FoFJK, PRISM(SPDF).
 Calling FoFJK, ICntrl=  10005127 FMM=F ISym2X=0 I1Cent= 0 IOpClX= 0 NMat=1 NMatS=1 NMatT=0.
 FoFJK:  IHMeth= 8 ICntrl=10005127 DoSepK=F KAlg= 0 I1Cent=   0 FoldK=F
 IRaf=         0 NMat=   1 IRICut=       1 DoRegI=T DoRafI=F ISym2E= 0.
 FoFCou: FMM=F IPFlag=           0 FMFlag=      100000 FMFlg1=         800
         NFxFlg=           0 DoJE=F BraDBF=F KetDBF=F FulRan=T
         wScrn=  0.000000 ICntrl=10005127 IOpCl=  0 I1Cent=           0 NGrid=           0
         NMat0=    1 NMatS0=      1 NMatT0=    0 NMatD0=    1 NMtDS0=    0 NMtDT0=    0
 Symmetry not used in FoFCou.
 Leave Link  703 at Tue Dec 15 17:07:39 2015, MaxMem=    33554432 cpu:         0.0
 (Enter /home/Applications/g09/g09/l716.exe)
 Dipole        =-3.41647149D-01-4.78352702D+00-9.64546064D-02
 ***** Axes restored to original set *****
 -------------------------------------------------------------------
 Center     Atomic                   Forces (Hartrees/Bohr)
 Number     Number              X              Y              Z
 -------------------------------------------------------------------
      1        6           0.030564686    0.020864876   -0.003576814
      2        6          -0.155706528    0.022125694   -0.001840049
      3        8           0.155665008   -0.012783362    0.004073671
      4        6          -0.074593086   -0.061363336   -0.006417658
      5        6          -0.004750953    0.028959092    0.007121024
      6        1           0.028932518    0.018414972   -0.002796445
      7        1          -0.029337528    0.114701238    0.003428589
      8        1          -0.015165553   -0.082498724   -0.001657780
      9        1           0.064391437   -0.048420451    0.001665463
 -------------------------------------------------------------------
 Cartesian Forces:  Max     0.155706528 RMS     0.057593490
 Z-matrix is all fixed cartesians, so copy forces.
 Force constants in Cartesian coordinates: 
                1             2             3             4             5 
      1  0.948403D+00
      2 -0.208542D-01  0.848795D+00
      3  0.414094D-02 -0.298174D-02  0.221443D+00
      4 -0.508375D+00 -0.116231D+00 -0.106408D-01  0.925470D+00
      5 -0.928781D-01 -0.224309D+00 -0.345773D-02  0.766576D-01  0.886508D+00
      6 -0.138407D-01 -0.400416D-02 -0.112173D+00  0.169358D-01  0.125169D-01
      7 -0.923686D-02  0.286780D-01  0.216516D-04 -0.258981D+00  0.142320D+00
      8 -0.662612D-02  0.206021D-01  0.174587D-03  0.184470D+00 -0.340486D+00
      9 -0.870703D-03  0.136280D-02  0.718291D-02 -0.135655D-02 -0.226421D-02
     10  0.108333D-01 -0.187483D-03 -0.375423D-03  0.244809D-01  0.175756D-01
     11  0.335220D-01 -0.583425D-03 -0.151689D-02 -0.170349D-01 -0.122402D-01
     12 -0.184922D-02  0.143151D-03 -0.875133D-03  0.338771D-03  0.603289D-04
     13 -0.174667D+00  0.578911D-02  0.640739D-03  0.112219D-01 -0.350258D-01
     14 -0.164898D-01 -0.449482D+00  0.133017D-01 -0.173267D-03  0.526075D-03
     15  0.300868D-03  0.133639D-01 -0.872862D-01  0.420394D-03 -0.109899D-02
     16  0.185273D-01 -0.291688D-03  0.191099D-03  0.920962D-05 -0.739586D-05
     17 -0.219110D-01  0.329002D-03 -0.784212D-03 -0.567471D-05  0.455712D-05
     18  0.206290D-02  0.562052D-03  0.208171D-01 -0.193327D-03  0.155253D-03
     19  0.829065D-05  0.552640D-05  0.197957D-03  0.132723D-05  0.106850D-05
     20  0.000000D+00  0.000000D+00  0.129010D-04  0.256510D-05  0.206505D-05
     21  0.247364D-03  0.164889D-03  0.590636D-02 -0.107315D-03 -0.863950D-04
     22  0.848921D-02 -0.262892D-01 -0.975673D-03 -0.188171D+00 -0.126130D+00
     23 -0.470925D-02  0.146636D-01 -0.416492D-03 -0.119938D+00 -0.334069D+00
     24 -0.215867D-03 -0.209919D-02  0.331034D-01 -0.437041D-02 -0.660122D-02
     25 -0.293982D+00  0.129381D+00  0.679949D-02 -0.565577D-02  0.174869D-01
     26  0.129946D+00 -0.210016D+00 -0.433209D-02 -0.774725D-02  0.240628D-01
     27  0.100244D-01 -0.651171D-02 -0.881178D-01 -0.102662D-02  0.776065D-03
                6             7             8             9            10 
      6  0.207140D+00
      7 -0.218036D-02  0.505008D+00
      8 -0.114304D-02  0.186228D-01  0.694645D+00
      9 -0.441864D-01  0.893778D-02  0.124793D-01  0.506598D-01
     10  0.797652D-03 -0.272541D+00 -0.202412D+00 -0.830350D-02  0.863581D+00
     11 -0.762192D-03 -0.162402D+00 -0.376542D+00 -0.115676D-01 -0.541610D-01
     12 -0.269589D-02 -0.657218D-02 -0.111125D-01 -0.416580D-01 -0.720906D-02
     13  0.198588D-02 -0.922613D-02  0.638904D-02  0.948920D-03 -0.410044D+00
     14  0.143452D-03 -0.282521D-01  0.196212D-01  0.115107D-02  0.902190D-01
     15 -0.243117D-02 -0.106500D-02  0.504048D-03  0.723958D-02  0.119778D-01
     16 -0.253531D-03  0.137656D-05 -0.342528D-05  0.759016D-04 -0.573446D-02
     17  0.156219D-03 -0.374674D-05  0.932297D-05 -0.206590D-03  0.673533D-02
     18  0.532209D-02  0.790869D-04 -0.196791D-03  0.436075D-02  0.109156D-02
     19 -0.612774D-04  0.231563D-01 -0.161128D-01  0.000000D+00 -0.210589D+00
     20 -0.118429D-03  0.131523D-01 -0.914920D-02 -0.799797D-04  0.142223D+00
     21  0.495469D-02  0.770697D-03 -0.689672D-03  0.471874D-02  0.190570D-02
     22 -0.436563D-02  0.218184D-01  0.156713D-01  0.625451D-03  0.188071D-05
     23 -0.682706D-02 -0.121238D-01 -0.870781D-02 -0.492475D-03  0.151719D-05
     24 -0.847697D-01  0.151024D-03  0.990702D-04  0.501000D-02 -0.884833D-04
     25  0.982082D-03  0.121137D-05  0.000000D+00 -0.566460D-04  0.108432D-04
     26  0.382966D-04  0.817612D-05  0.659136D-05 -0.382332D-03  0.565134D-05
     27  0.288398D-01 -0.142693D-03 -0.115035D-03  0.667264D-02  0.203760D-03
               11            12            13            14            15 
     11  0.944218D+00
     12  0.200604D-01  0.181266D+00
     13  0.673241D-01  0.129655D-01  0.790508D+00
     14 -0.200279D+00 -0.446594D-02  0.368135D-01  0.815623D+00
     15 -0.431776D-02 -0.897052D-01 -0.821525D-02 -0.417548D-02  0.191505D+00
     16 -0.175789D-01 -0.610876D-03 -0.233855D+00 -0.107773D+00 -0.341737D-02
     17  0.207015D-01  0.178108D-03 -0.110460D+00 -0.200368D+00 -0.279695D-02
     18  0.131823D-02  0.202109D-01 -0.612623D-02 -0.488854D-02 -0.732512D-01
     19  0.150322D+00  0.276501D-02  0.844269D-02  0.259457D-01  0.258235D-03
     20 -0.375279D+00 -0.492847D-02  0.479653D-02  0.147837D-01 -0.281104D-03
     21 -0.327878D-02 -0.754931D-01  0.207481D-03 -0.192148D-02  0.253644D-01
     22  0.151409D-05 -0.868317D-04  0.620357D-05 -0.498182D-05 -0.170777D-03
     23  0.122143D-05 -0.700480D-04  0.492778D-05 -0.395729D-05 -0.135656D-03
     24 -0.712343D-04  0.408523D-02 -0.289215D-03  0.232256D-03  0.796177D-02
     25  0.722789D-05  0.258905D-03  0.176131D-01 -0.285030D-03 -0.888988D-04
     26  0.376709D-05  0.134938D-03  0.243687D-01 -0.421201D-03 -0.106200D-02
     27  0.135823D-03  0.486521D-02 -0.211781D-02  0.622985D-03  0.206031D-01
               16            17            18            19            20 
     16  0.221036D+00
     17  0.125644D+00  0.179329D+00
     18  0.378624D-02  0.328633D-02  0.388086D-01
     19 -0.490100D-05  0.133396D-04 -0.281576D-03  0.178985D+00
     20  0.000000D+00  0.000000D+00 -0.183505D-04 -0.160175D+00  0.369641D+00
     21 -0.146229D-03  0.398009D-03 -0.840125D-02 -0.287770D-02  0.541343D-02
     22  0.000000D+00  0.000000D+00  0.000000D+00  0.000000D+00  0.000000D+00
     23  0.000000D+00  0.000000D+00  0.000000D+00  0.000000D+00  0.000000D+00
     24  0.000000D+00  0.000000D+00  0.000000D+00  0.000000D+00  0.000000D+00
     25  0.199432D-04 -0.122884D-04 -0.418644D-03  0.000000D+00  0.000000D+00
     26  0.103941D-04 -0.640458D-05 -0.218192D-03  0.000000D+00  0.000000D+00
     27  0.374762D-03 -0.230918D-03 -0.786695D-02  0.000000D+00  0.000000D+00
               21            22            23            24            25 
     21  0.429502D-01
     22  0.000000D+00  0.157858D+00
     23  0.000000D+00  0.136767D+00  0.328128D+00
     24  0.000000D+00  0.470782D-02  0.773072D-02  0.469935D-01
     25  0.000000D+00 -0.225509D-05 -0.179133D-05  0.105134D-03  0.281995D+00
     26  0.000000D+00 -0.152208D-04 -0.120906D-04  0.709602D-03 -0.146576D+00
     27  0.000000D+00  0.265639D-03  0.211010D-03 -0.123843D-01 -0.758142D-02
               26            27 
     26  0.186383D+00
     27  0.511178D-02  0.473884D-01
 Leave Link  716 at Tue Dec 15 17:07:39 2015, MaxMem=    33554432 cpu:         0.0
 (Enter /home/Applications/g09/g09/l103.exe)

 GradGradGradGradGradGradGradGradGradGradGradGradGradGradGradGradGradGrad
 Berny optimization.
 Search for a local minimum.
 Step number   1 out of a maximum of    2
 All quantities printed in internal units (Hartrees-Bohrs-Radians)
 Second derivative matrix not updated -- first step.
 ITU=  0
     Eigenvalues ---    0.01867   0.03127   0.07109   0.07872   0.07962
     Eigenvalues ---    0.08233   0.13079   0.15141   0.17149   0.24327
     Eigenvalues ---    0.25747   0.30028   0.40313   0.46931   0.65688
     Eigenvalues ---    0.85401   1.09357   1.33730   1.45398   1.48802
     Eigenvalues ---    1.62124
 Quadratic step=9.231D-01 exceeds max=3.000D-01 adjusted using Lamda=-4.254D-01.
 Angle between NR and scaled steps=  21.50 degrees.
 Angle between quadratic step and forces=  26.84 degrees.
 Linear search not attempted -- first point.
 TrRot=  0.001028  0.000043  0.000004  0.493713 -0.000141 -0.493349
 MatCor failed.
 Variable       Old X    -DE/DX   Delta X   Delta X   Delta X     New X
                                 (Linear)    (Quad)   (Total)
    X1        1.84062   0.03056   0.00000   0.00349   0.00501   1.84563
    Y1       -1.35688   0.02086   0.00000  -0.00567  -0.00495  -1.36183
    Z1        0.04269  -0.00358   0.00000  -0.00760  -0.00746   0.03523
    X2       -0.59308  -0.15571   0.00000  -0.10356  -0.10174  -0.69481
    Y2       -2.14033   0.02213   0.00000  -0.03088  -0.03109  -2.17142
    Z2       -0.02286  -0.00184   0.00000  -0.00162  -0.00185  -0.02471
    X3       -2.12909   0.15567   0.00000   0.12707   0.12810  -2.00099
    Y3       -0.00198  -0.01278   0.00000  -0.01131  -0.01200  -0.01397
    Z3       -0.01884   0.00407   0.00000   0.00436   0.00412  -0.01472
    X4       -0.65330  -0.07459   0.00000  -0.06041  -0.06017  -0.71347
    Y4        2.11892  -0.06136   0.00000   0.01577   0.01555   2.13447
    Z4        0.05011  -0.00642   0.00000  -0.00684  -0.00678   0.04333
    X5        1.88314  -0.00475   0.00000  -0.01443  -0.01389   1.86925
    Y5        1.29439   0.02896   0.00000   0.03906   0.03979   1.33418
    Z5       -0.03310   0.00712   0.00000   0.01028   0.01061  -0.02250
    X6        3.48073   0.02893   0.00000   0.03976   0.03981   3.52055
    Y6        2.64869   0.01841   0.00000   0.03207   0.03340   2.68209
    Z6        0.00325  -0.00280   0.00000  -0.00445  -0.00383  -0.00058
    X7       -1.59593  -0.02934   0.00000  -0.03955  -0.03997  -1.63590
    Y7        3.77690   0.11470   0.00000   0.15185   0.15129   3.92819
    Z7        0.07808   0.00343   0.00000   0.00325   0.00331   0.08139
    X8       -1.55263  -0.01517   0.00000  -0.04171  -0.03921  -1.59184
    Y8       -3.86779  -0.08250   0.00000  -0.12983  -0.13036  -3.99815
    Z8       -0.07287  -0.00166   0.00000  -0.00158  -0.00204  -0.07491
    X9        3.45740   0.06439   0.00000   0.08007   0.08204   3.53944
    Y9       -2.53010  -0.04842   0.00000  -0.06295  -0.06162  -2.59172
    Z9       -0.01081   0.00167   0.00000   0.00366   0.00393  -0.00688
         Item               Value     Threshold  Converged?
 Maximum Force            0.155707     0.000450     NO 
 RMS     Force            0.057593     0.000300     NO 
 Maximum Displacement     0.151286     0.001800     NO 
 RMS     Displacement     0.057762     0.001200     NO 
 Predicted change in Energy=-5.924358D-02
 GradGradGradGradGradGradGradGradGradGradGradGradGradGradGradGradGradGrad

 Leave Link  103 at Tue Dec 15 17:07:40 2015, MaxMem=    33554432 cpu:         0.0
 (Enter /home/Applications/g09/g09/l9999.exe)
 1\1\GINC-DUSTIN-DESKTOP\Force\RAM1-FC\STO-3G\C4H4O1\DUSTIN\15-Dec-2015
 \0\\#P AM1(Input,print) CIS(Singlets,NStates=15) pop(full) force\\AM1-
 Reparam Input\\0,1\C,0.974015,-0.718031,0.022592\C,-0.313842,-1.132614
 ,-0.012096\O,-1.126664,-0.001047,-0.00997\C,-0.345711,1.121285,0.02651
 5\C,0.996517,0.684964,-0.017518\H,1.841925,1.401627,0.001719\H,-0.8445
 3,1.998649,0.041317\H,-0.821615,-2.046746,-0.038563\H,1.829575,-1.3388
 69,-0.005718\\Version=ES64L-G09RevD.01\State=1-A\HF=2.5923491\RMSD=4.4
 14e-09\RMSF=5.759e-02\Dipole=-4.7952634,-0.0433435,-0.1082931\PG=C01 [
 X(C4H4O1)]\\@


 SEEN ON A WALL AT THE UNIVERSITY OF ILLINOIS AT CHICAGO CIRCLE:

 TO DO IS TO BE  -- SOCRATES
 TO BE IS TO DO  -- SARTRE
 OO BE DO BE DO  -- SINATRA
 Job cpu time:       0 days  0 hours  0 minutes  0.7 seconds.
 File lengths (MBytes):  RWF=      7 Int=      0 D2E=      0 Chk=      2 Scr=      1
 Normal termination of Gaussian 09 at Tue Dec 15 17:07:40 2015.
