 Entering Gaussian System, Link 0=g09
 Input=FuranDFT_0.com
 Output=FuranDFT_0.log
 Initial command:
 /home/Applications/g09/g09/l1.exe "/home/Applications/g09/scratch/Gau-5420.inp" -scrdir="/home/Applications/g09/scratch/"
 Entering Link 1 = /home/Applications/g09/g09/l1.exe PID=      5422.
  
 Copyright (c) 1988,1990,1992,1993,1995,1998,2003,2009,2013,
            Gaussian, Inc.  All Rights Reserved.
  
 This is part of the Gaussian(R) 09 program.  It is based on
 the Gaussian(R) 03 system (copyright 2003, Gaussian, Inc.),
 the Gaussian(R) 98 system (copyright 1998, Gaussian, Inc.),
 the Gaussian(R) 94 system (copyright 1995, Gaussian, Inc.),
 the Gaussian 92(TM) system (copyright 1992, Gaussian, Inc.),
 the Gaussian 90(TM) system (copyright 1990, Gaussian, Inc.),
 the Gaussian 88(TM) system (copyright 1988, Gaussian, Inc.),
 the Gaussian 86(TM) system (copyright 1986, Carnegie Mellon
 University), and the Gaussian 82(TM) system (copyright 1983,
 Carnegie Mellon University). Gaussian is a federally registered
 trademark of Gaussian, Inc.
  
 This software contains proprietary and confidential information,
 including trade secrets, belonging to Gaussian, Inc.
  
 This software is provided under written license and may be
 used, copied, transmitted, or stored only in accord with that
 written license.
  
 The following legend is applicable only to US Government
 contracts under FAR:
  
                    RESTRICTED RIGHTS LEGEND
  
 Use, reproduction and disclosure by the US Government is
 subject to restrictions as set forth in subparagraphs (a)
 and (c) of the Commercial Computer Software - Restricted
 Rights clause in FAR 52.227-19.
  
 Gaussian, Inc.
 340 Quinnipiac St., Bldg. 40, Wallingford CT 06492
  
  
 ---------------------------------------------------------------
 Warning -- This program may not be used in any manner that
 competes with the business of Gaussian, Inc. or will provide
 assistance to any competitor of Gaussian, Inc.  The licensee
 of this program is prohibited from giving any competitor of
 Gaussian, Inc. access to this program.  By using this program,
 the user acknowledges that Gaussian, Inc. is engaged in the
 business of creating and licensing software in the field of
 computational chemistry and represents and warrants to the
 licensee that it is not a competitor of Gaussian, Inc. and that
 it will not use this program in any manner prohibited above.
 ---------------------------------------------------------------
  

 Cite this work as:
 Gaussian 09, Revision D.01,
 M. J. Frisch, G. W. Trucks, H. B. Schlegel, G. E. Scuseria, 
 M. A. Robb, J. R. Cheeseman, G. Scalmani, V. Barone, B. Mennucci, 
 G. A. Petersson, H. Nakatsuji, M. Caricato, X. Li, H. P. Hratchian, 
 A. F. Izmaylov, J. Bloino, G. Zheng, J. L. Sonnenberg, M. Hada, 
 M. Ehara, K. Toyota, R. Fukuda, J. Hasegawa, M. Ishida, T. Nakajima, 
 Y. Honda, O. Kitao, H. Nakai, T. Vreven, J. A. Montgomery, Jr., 
 J. E. Peralta, F. Ogliaro, M. Bearpark, J. J. Heyd, E. Brothers, 
 K. N. Kudin, V. N. Staroverov, T. Keith, R. Kobayashi, J. Normand, 
 K. Raghavachari, A. Rendell, J. C. Burant, S. S. Iyengar, J. Tomasi, 
 M. Cossi, N. Rega, J. M. Millam, M. Klene, J. E. Knox, J. B. Cross, 
 V. Bakken, C. Adamo, J. Jaramillo, R. Gomperts, R. E. Stratmann, 
 O. Yazyev, A. J. Austin, R. Cammi, C. Pomelli, J. W. Ochterski, 
 R. L. Martin, K. Morokuma, V. G. Zakrzewski, G. A. Voth, 
 P. Salvador, J. J. Dannenberg, S. Dapprich, A. D. Daniels, 
 O. Farkas, J. B. Foresman, J. V. Ortiz, J. Cioslowski, 
 and D. J. Fox, Gaussian, Inc., Wallingford CT, 2013.
 
 ******************************************
 Gaussian 09:  ES64L-G09RevD.01 24-Apr-2013
                15-Dec-2015 
 ******************************************
 -------------------------------------------------------
 #P B3LYP/3-21G CIS(Singlets,NStates=15) pop(full) force
 -------------------------------------------------------
 1/10=7,30=1,38=1/1,3;
 2/12=2,17=6,18=5,40=1/2;
 3/5=5,11=9,16=1,25=1,30=1,71=1,74=-5/1,2,8,3;
 4//1;
 5/5=2,38=5/2;
 8/6=1,10=1,108=15/1;
 9/15=2,41=15,42=1,48=1/14;
 10/5=4/2;
 6/7=3,18=1/1;
 7/12=6,13=5,29=1/1,2,3,16;
 1/10=7,30=1/3;
 99//99;
 Leave Link    1 at Tue Dec 15 16:10:33 2015, MaxMem=           0 cpu:         0.0
 (Enter /home/Applications/g09/g09/l101.exe)
 --------
 FuranDFT
 --------
 Symbolic Z-matrix:
 Charge =  0 Multiplicity = 1
 6                     0.98844  -0.71971   0.03816 
 6                    -0.37909  -1.05562   0.03286 
 8                    -1.14688   0.01717   0.03845 
 6                    -0.3812    1.11959  -0.02616 
 6                     0.95823   0.72893  -0.04979 
 1                     1.77292   1.40814  -0.02785 
 1                    -0.86378   2.06575   0.04064 
 1                    -0.8185   -2.05218  -0.00348 
 1                     1.84573  -1.32296   0.01785 
 
 NAtoms=      9 NQM=        9 NQMF=       0 NMMI=      0 NMMIF=      0
                NMic=       0 NMicF=      0.
                    Isotopes and Nuclear Properties:
 (Nuclear quadrupole moments (NQMom) in fm**2, nuclear magnetic moments (NMagM)
  in nuclear magnetons)

  Atom         1           2           3           4           5           6           7           8           9
 IAtWgt=          12          12          16          12          12           1           1           1           1
 AtmWgt=  12.0000000  12.0000000  15.9949146  12.0000000  12.0000000   1.0078250   1.0078250   1.0078250   1.0078250
 NucSpn=           0           0           0           0           0           1           1           1           1
 AtZEff=   0.0000000   0.0000000   0.0000000   0.0000000   0.0000000   0.0000000   0.0000000   0.0000000   0.0000000
 NQMom=    0.0000000   0.0000000   0.0000000   0.0000000   0.0000000   0.0000000   0.0000000   0.0000000   0.0000000
 NMagM=    0.0000000   0.0000000   0.0000000   0.0000000   0.0000000   2.7928460   2.7928460   2.7928460   2.7928460
 AtZNuc=   6.0000000   6.0000000   8.0000000   6.0000000   6.0000000   1.0000000   1.0000000   1.0000000   1.0000000
 Leave Link  101 at Tue Dec 15 16:10:33 2015, MaxMem=    33554432 cpu:         0.1
 (Enter /home/Applications/g09/g09/l103.exe)

 GradGradGradGradGradGradGradGradGradGradGradGradGradGradGradGradGradGrad
 Berny optimization.
 Initialization pass.
 Trust Radius=3.00D-01 FncErr=1.00D-07 GrdErr=1.00D-07
 Number of steps in this run=      2 maximum allowed number of steps=      2.
 GradGradGradGradGradGradGradGradGradGradGradGradGradGradGradGradGradGrad

 Leave Link  103 at Tue Dec 15 16:10:33 2015, MaxMem=    33554432 cpu:         0.0
 (Enter /home/Applications/g09/g09/l202.exe)
                          Input orientation:                          
 ---------------------------------------------------------------------
 Center     Atomic      Atomic             Coordinates (Angstroms)
 Number     Number       Type             X           Y           Z
 ---------------------------------------------------------------------
      1          6           0        0.988436   -0.719709    0.038159
      2          6           0       -0.379087   -1.055616    0.032855
      3          8           0       -1.146877    0.017168    0.038453
      4          6           0       -0.381199    1.119586   -0.026155
      5          6           0        0.958226    0.728928   -0.049790
      6          1           0        1.772915    1.408143   -0.027850
      7          1           0       -0.863781    2.065747    0.040639
      8          1           0       -0.818496   -2.052182   -0.003475
      9          1           0        1.845733   -1.322956    0.017853
 ---------------------------------------------------------------------
                    Distance matrix (angstroms):
                    1          2          3          4          5
     1  C    0.000000
     2  C    1.408184   0.000000
     3  O    2.258882   1.319242   0.000000
     4  C    2.294132   2.176003   1.343787   0.000000
     5  C    1.451619   2.231554   2.223926   1.395432   0.000000
     6  H    2.268814   3.271835   3.234871   2.173356   1.060911
     7  H    3.345068   3.158781   2.068048   1.064222   2.261630
     8  H    2.245489   1.089745   2.095663   3.201852   3.300524
     9  H    1.048464   2.240875   3.279035   3.305628   2.236621
                    6          7          8          9
     6  H    0.000000
     7  H    2.718327   0.000000
     8  H    4.323176   4.118414   0.000000
     9  H    2.732452   4.338812   2.762307   0.000000
 Stoichiometry    C4H4O
 Framework group  C1[X(C4H4O)]
 Deg. of freedom    21
 Full point group                 C1      NOp   1
 Largest Abelian subgroup         C1      NOp   1
 Largest concise Abelian subgroup C1      NOp   1
                         Standard orientation:                         
 ---------------------------------------------------------------------
 Center     Atomic      Atomic             Coordinates (Angstroms)
 Number     Number       Type             X           Y           Z
 ---------------------------------------------------------------------
      1          6           0       -1.019134    0.700298   -0.028078
      2          6           0       -0.896149   -0.702093    0.005899
      3          8           0        0.366618   -1.083516   -0.012352
      4          6           0        1.164285   -0.002440    0.015332
      5          6           0        0.363164    1.140054    0.027278
      6          1           0        0.743042    2.129363   -0.022659
      7          1           0        2.214252   -0.156025   -0.065589
      8          1           0       -1.697125   -1.438065    0.071687
      9          1           0       -1.866105    1.317940   -0.007204
 ---------------------------------------------------------------------
 Rotational constants (GHZ):      9.5188922      9.1004147      4.6552497
 Leave Link  202 at Tue Dec 15 16:10:33 2015, MaxMem=    33554432 cpu:         0.0
 (Enter /home/Applications/g09/g09/l301.exe)
 Standard basis: 3-21G (6D, 7F)
 Ernie: Thresh=  0.10000D-02 Tol=  0.10000D-05 Strict=F.
 There are    53 symmetry adapted cartesian basis functions of A   symmetry.
 There are    53 symmetry adapted basis functions of A   symmetry.
    53 basis functions,    87 primitive gaussians,    53 cartesian basis functions
    18 alpha electrons       18 beta electrons
       nuclear repulsion energy       160.6129222582 Hartrees.
 IExCor=  402 DFT=T Ex+Corr=B3LYP ExCW=0 ScaHFX=  0.200000
 ScaDFX=  0.800000  0.720000  1.000000  0.810000 ScalE2=  1.000000  1.000000
 IRadAn=      0 IRanWt=     -1 IRanGd=            0 ICorTp=0 IEmpDi=  4
 NAtoms=    9 NActive=    9 NUniq=    9 SFac= 1.00D+00 NAtFMM=   60 NAOKFM=F Big=F
 Integral buffers will be    131072 words long.
 Regular integral format.
 Two-electron integral symmetry is turned on.
 Leave Link  301 at Tue Dec 15 16:10:33 2015, MaxMem=    33554432 cpu:         0.0
 (Enter /home/Applications/g09/g09/l302.exe)
 NPDir=0 NMtPBC=     1 NCelOv=     1 NCel=       1 NClECP=     1 NCelD=      1
         NCelK=      1 NCelE2=     1 NClLst=     1 CellRange=     0.0.
 One-electron integrals computed using PRISM.
 NBasis=    53 RedAO= T EigKep=  3.87D-03  NBF=    53
 NBsUse=    53 1.00D-06 EigRej= -1.00D+00 NBFU=    53
 Precomputing XC quadrature grid using
 IXCGrd= 4 IRadAn=           0 IRanWt=          -1 IRanGd=           0 AccXCQ= 0.00D+00.
 Generated NRdTot=       0 NPtTot=           0 NUsed=           0 NTot=          32
 NSgBfM=    53    53    53    53    53 MxSgAt=     9 MxSgA2=     9.
 Leave Link  302 at Tue Dec 15 16:10:33 2015, MaxMem=    33554432 cpu:         0.1
 (Enter /home/Applications/g09/g09/l308.exe)
 Leave Link  308 at Tue Dec 15 16:10:33 2015, MaxMem=    33554432 cpu:         0.0
 (Enter /home/Applications/g09/g09/l303.exe)
 DipDrv:  MaxL=1.
 Leave Link  303 at Tue Dec 15 16:10:33 2015, MaxMem=    33554432 cpu:         0.0
 (Enter /home/Applications/g09/g09/l401.exe)
 ExpMin= 1.83D-01 ExpMax= 3.22D+02 ExpMxC= 3.22D+02 IAcc=1 IRadAn=         1 AccDes= 0.00D+00
 Harris functional with IExCor=  402 and IRadAn=       1 diagonalized for initial guess.
 HarFok:  IExCor=  402 AccDes= 0.00D+00 IRadAn=         1 IDoV= 1 UseB2=F ITyADJ=14
 ICtDFT=  3500011 ScaDFX=  1.000000  1.000000  1.000000  1.000000
 FoFCou: FMM=F IPFlag=           0 FMFlag=      100000 FMFlg1=           0
         NFxFlg=           0 DoJE=T BraDBF=F KetDBF=T FulRan=T
         wScrn=  0.000000 ICntrl=     500 IOpCl=  0 I1Cent=   200000004 NGrid=           0
         NMat0=    1 NMatS0=      1 NMatT0=    0 NMatD0=    1 NMtDS0=    0 NMtDT0=    0
 Petite list used in FoFCou.
 Harris En= -228.726866927543    
 JPrj=0 DoOrth=F DoCkMO=F.
 Leave Link  401 at Tue Dec 15 16:10:33 2015, MaxMem=    33554432 cpu:         0.2
 (Enter /home/Applications/g09/g09/l502.exe)
 Closed shell SCF:
 Using DIIS extrapolation, IDIIS=  1040.
 Integral symmetry usage will be decided dynamically.
 Keep R1 ints in memory in canonical form, NReq=1925595.
 IVT=       27707 IEndB=       27707 NGot=    33554432 MDV=    32502130
 LenX=    32502130 LenY=    32498880
 Requested convergence on RMS density matrix=1.00D-08 within 128 cycles.
 Requested convergence on MAX density matrix=1.00D-06.
 Requested convergence on             energy=1.00D-06.
 No special actions if energy rises.
 FoFCou: FMM=F IPFlag=           0 FMFlag=           0 FMFlg1=           0
         NFxFlg=           0 DoJE=F BraDBF=F KetDBF=F FulRan=T
         wScrn=  0.000000 ICntrl=     600 IOpCl=  0 I1Cent=           0 NGrid=           0
         NMat0=    1 NMatS0=   1431 NMatT0=    0 NMatD0=    1 NMtDS0=    0 NMtDT0=    0
 Symmetry not used in FoFCou.
 Integral accuracy reduced to 1.0D-05 until final iterations.

 Cycle   1  Pass 0  IDiag  1:
 E= -228.665196116287    
 DIIS: error= 3.12D-02 at cycle   1 NSaved=   1.
 NSaved= 1 IEnMin= 1 EnMin= -228.665196116287     IErMin= 1 ErrMin= 3.12D-02
 ErrMax= 3.12D-02  0.00D+00 EMaxC= 1.00D-01 BMatC= 7.16D-02 BMatP= 7.16D-02
 IDIUse=3 WtCom= 6.88D-01 WtEn= 3.12D-01
 Coeff-Com:  0.100D+01
 Coeff-En:   0.100D+01
 Coeff:      0.100D+01
 Gap=     0.222 Goal=   None    Shift=    0.000
 GapD=    0.222 DampG=1.000 DampE=0.500 DampFc=0.5000 IDamp=-1.
 Damping current iteration by 5.00D-01
 RMSDP=1.20D-02 MaxDP=1.05D-01              OVMax= 2.09D-01

 Cycle   2  Pass 0  IDiag  1:
 E= -228.692245883402     Delta-E=       -0.027049767115 Rises=F Damp=T
 DIIS: error= 1.46D-02 at cycle   2 NSaved=   2.
 NSaved= 2 IEnMin= 2 EnMin= -228.692245883402     IErMin= 2 ErrMin= 1.46D-02
 ErrMax= 1.46D-02  0.00D+00 EMaxC= 1.00D-01 BMatC= 9.83D-03 BMatP= 7.16D-02
 IDIUse=3 WtCom= 8.54D-01 WtEn= 1.46D-01
 Coeff-Com:  0.139D+00 0.861D+00
 Coeff-En:   0.244D+00 0.756D+00
 Coeff:      0.154D+00 0.846D+00
 Gap=     0.238 Goal=   None    Shift=    0.000
 RMSDP=4.19D-03 MaxDP=3.38D-02 DE=-2.70D-02 OVMax= 1.78D-01

 Cycle   3  Pass 0  IDiag  1:
 E= -228.731315611155     Delta-E=       -0.039069727753 Rises=F Damp=F
 DIIS: error= 1.80D-02 at cycle   3 NSaved=   3.
 NSaved= 3 IEnMin= 3 EnMin= -228.731315611155     IErMin= 2 ErrMin= 1.46D-02
 ErrMax= 1.80D-02  0.00D+00 EMaxC= 1.00D-01 BMatC= 1.06D-02 BMatP= 9.83D-03
 IDIUse=3 WtCom= 8.20D-01 WtEn= 1.80D-01
 Coeff-Com: -0.595D-02 0.513D+00 0.493D+00
 Coeff-En:   0.000D+00 0.000D+00 0.100D+01
 Coeff:     -0.488D-02 0.421D+00 0.584D+00
 Gap=     0.243 Goal=   None    Shift=    0.000
 RMSDP=2.75D-03 MaxDP=2.16D-02 DE=-3.91D-02 OVMax= 5.52D-02

 Cycle   4  Pass 0  IDiag  1:
 E= -228.739390175957     Delta-E=       -0.008074564802 Rises=F Damp=F
 DIIS: error= 8.98D-03 at cycle   4 NSaved=   4.
 NSaved= 4 IEnMin= 4 EnMin= -228.739390175957     IErMin= 4 ErrMin= 8.98D-03
 ErrMax= 8.98D-03  0.00D+00 EMaxC= 1.00D-01 BMatC= 2.17D-03 BMatP= 9.83D-03
 IDIUse=3 WtCom= 9.10D-01 WtEn= 8.98D-02
 Coeff-Com:  0.693D-02 0.550D-01 0.317D+00 0.621D+00
 Coeff-En:   0.000D+00 0.000D+00 0.192D+00 0.808D+00
 Coeff:      0.631D-02 0.501D-01 0.306D+00 0.638D+00
 Gap=     0.248 Goal=   None    Shift=    0.000
 RMSDP=8.83D-04 MaxDP=8.47D-03 DE=-8.07D-03 OVMax= 1.90D-02

 Cycle   5  Pass 0  IDiag  1:
 E= -228.741220380217     Delta-E=       -0.001830204260 Rises=F Damp=F
 DIIS: error= 1.51D-03 at cycle   5 NSaved=   5.
 NSaved= 5 IEnMin= 5 EnMin= -228.741220380217     IErMin= 5 ErrMin= 1.51D-03
 ErrMax= 1.51D-03  0.00D+00 EMaxC= 1.00D-01 BMatC= 8.99D-05 BMatP= 2.17D-03
 IDIUse=3 WtCom= 9.85D-01 WtEn= 1.51D-02
 Coeff-Com:  0.536D-02 0.399D-02 0.151D+00 0.378D+00 0.461D+00
 Coeff-En:   0.000D+00 0.000D+00 0.000D+00 0.000D+00 0.100D+01
 Coeff:      0.528D-02 0.393D-02 0.149D+00 0.373D+00 0.469D+00
 Gap=     0.247 Goal=   None    Shift=    0.000
 RMSDP=1.29D-04 MaxDP=1.35D-03 DE=-1.83D-03 OVMax= 2.10D-03

 Cycle   6  Pass 0  IDiag  1:
 E= -228.741285616846     Delta-E=       -0.000065236629 Rises=F Damp=F
 DIIS: error= 9.06D-05 at cycle   6 NSaved=   6.
 NSaved= 6 IEnMin= 6 EnMin= -228.741285616846     IErMin= 6 ErrMin= 9.06D-05
 ErrMax= 9.06D-05  0.00D+00 EMaxC= 1.00D-01 BMatC= 7.08D-07 BMatP= 8.99D-05
 IDIUse=1 WtCom= 1.00D+00 WtEn= 0.00D+00
 Coeff-Com:  0.145D-02-0.454D-02 0.867D-02 0.397D-01 0.113D+00 0.842D+00
 Coeff:      0.145D-02-0.454D-02 0.867D-02 0.397D-01 0.113D+00 0.842D+00
 Gap=     0.247 Goal=   None    Shift=    0.000
 RMSDP=2.30D-05 MaxDP=2.18D-04 DE=-6.52D-05 OVMax= 4.06D-04

 Cycle   7  Pass 0  IDiag  1:
 E= -228.741286358589     Delta-E=       -0.000000741743 Rises=F Damp=F
 DIIS: error= 2.31D-05 at cycle   7 NSaved=   7.
 NSaved= 7 IEnMin= 7 EnMin= -228.741286358589     IErMin= 7 ErrMin= 2.31D-05
 ErrMax= 2.31D-05  0.00D+00 EMaxC= 1.00D-01 BMatC= 2.71D-08 BMatP= 7.08D-07
 IDIUse=1 WtCom= 1.00D+00 WtEn= 0.00D+00
 Coeff-Com:  0.609D-03-0.194D-02 0.273D-02 0.136D-01 0.421D-01 0.350D+00
 Coeff-Com:  0.593D+00
 Coeff:      0.609D-03-0.194D-02 0.273D-02 0.136D-01 0.421D-01 0.350D+00
 Coeff:      0.593D+00
 Gap=     0.247 Goal=   None    Shift=    0.000
 RMSDP=4.08D-06 MaxDP=4.08D-05 DE=-7.42D-07 OVMax= 1.20D-04

 Initial convergence to 1.0D-05 achieved.  Increase integral accuracy.
 Cycle   8  Pass 1  IDiag  1:
 E= -228.741279515438     Delta-E=        0.000006843152 Rises=F Damp=F
 DIIS: error= 1.59D-05 at cycle   1 NSaved=   1.
 NSaved= 1 IEnMin= 1 EnMin= -228.741279515438     IErMin= 1 ErrMin= 1.59D-05
 ErrMax= 1.59D-05  0.00D+00 EMaxC= 1.00D-01 BMatC= 1.84D-08 BMatP= 1.84D-08
 IDIUse=1 WtCom= 1.00D+00 WtEn= 0.00D+00
 Coeff-Com:  0.100D+01
 Coeff:      0.100D+01
 Gap=     0.247 Goal=   None    Shift=    0.000
 RMSDP=4.08D-06 MaxDP=4.08D-05 DE= 6.84D-06 OVMax= 1.03D-04

 Cycle   9  Pass 1  IDiag  1:
 E= -228.741279515476     Delta-E=       -0.000000000038 Rises=F Damp=F
 DIIS: error= 2.78D-05 at cycle   2 NSaved=   2.
 NSaved= 2 IEnMin= 2 EnMin= -228.741279515476     IErMin= 1 ErrMin= 1.59D-05
 ErrMax= 2.78D-05  0.00D+00 EMaxC= 1.00D-01 BMatC= 2.11D-08 BMatP= 1.84D-08
 IDIUse=1 WtCom= 1.00D+00 WtEn= 0.00D+00
 Coeff-Com:  0.521D+00 0.479D+00
 Coeff:      0.521D+00 0.479D+00
 Gap=     0.247 Goal=   None    Shift=    0.000
 RMSDP=3.39D-06 MaxDP=4.13D-05 DE=-3.81D-11 OVMax= 1.03D-04

 Cycle  10  Pass 1  IDiag  1:
 E= -228.741279534943     Delta-E=       -0.000000019468 Rises=F Damp=F
 DIIS: error= 9.72D-06 at cycle   3 NSaved=   3.
 NSaved= 3 IEnMin= 3 EnMin= -228.741279534943     IErMin= 3 ErrMin= 9.72D-06
 ErrMax= 9.72D-06  0.00D+00 EMaxC= 1.00D-01 BMatC= 2.53D-09 BMatP= 1.84D-08
 IDIUse=1 WtCom= 1.00D+00 WtEn= 0.00D+00
 Coeff-Com: -0.545D-02 0.253D+00 0.753D+00
 Coeff:     -0.545D-02 0.253D+00 0.753D+00
 Gap=     0.247 Goal=   None    Shift=    0.000
 RMSDP=1.07D-06 MaxDP=1.02D-05 DE=-1.95D-08 OVMax= 2.49D-05

 Cycle  11  Pass 1  IDiag  1:
 E= -228.741279537327     Delta-E=       -0.000000002383 Rises=F Damp=F
 DIIS: error= 2.70D-06 at cycle   4 NSaved=   4.
 NSaved= 4 IEnMin= 4 EnMin= -228.741279537327     IErMin= 4 ErrMin= 2.70D-06
 ErrMax= 2.70D-06  0.00D+00 EMaxC= 1.00D-01 BMatC= 2.45D-10 BMatP= 2.53D-09
 IDIUse=1 WtCom= 1.00D+00 WtEn= 0.00D+00
 Coeff-Com: -0.203D-01 0.150D+00 0.484D+00 0.387D+00
 Coeff:     -0.203D-01 0.150D+00 0.484D+00 0.387D+00
 Gap=     0.247 Goal=   None    Shift=    0.000
 RMSDP=2.86D-07 MaxDP=4.03D-06 DE=-2.38D-09 OVMax= 6.33D-06

 Cycle  12  Pass 1  IDiag  1:
 E= -228.741279537541     Delta-E=       -0.000000000214 Rises=F Damp=F
 DIIS: error= 3.69D-07 at cycle   5 NSaved=   5.
 NSaved= 5 IEnMin= 5 EnMin= -228.741279537541     IErMin= 5 ErrMin= 3.69D-07
 ErrMax= 3.69D-07  0.00D+00 EMaxC= 1.00D-01 BMatC= 3.32D-12 BMatP= 2.45D-10
 IDIUse=1 WtCom= 1.00D+00 WtEn= 0.00D+00
 Coeff-Com: -0.936D-02 0.573D-01 0.187D+00 0.181D+00 0.584D+00
 Coeff:     -0.936D-02 0.573D-01 0.187D+00 0.181D+00 0.584D+00
 Gap=     0.247 Goal=   None    Shift=    0.000
 RMSDP=5.38D-08 MaxDP=5.49D-07 DE=-2.14D-10 OVMax= 1.10D-06

 Cycle  13  Pass 1  IDiag  1:
 E= -228.741279537542     Delta-E=       -0.000000000002 Rises=F Damp=F
 DIIS: error= 1.10D-07 at cycle   6 NSaved=   6.
 NSaved= 6 IEnMin= 6 EnMin= -228.741279537542     IErMin= 6 ErrMin= 1.10D-07
 ErrMax= 1.10D-07  0.00D+00 EMaxC= 1.00D-01 BMatC= 7.58D-13 BMatP= 3.32D-12
 IDIUse=1 WtCom= 1.00D+00 WtEn= 0.00D+00
 Coeff-Com: -0.593D-03 0.193D-02 0.511D-02 0.215D-01 0.348D+00 0.624D+00
 Coeff:     -0.593D-03 0.193D-02 0.511D-02 0.215D-01 0.348D+00 0.624D+00
 Gap=     0.247 Goal=   None    Shift=    0.000
 RMSDP=1.93D-08 MaxDP=2.43D-07 DE=-1.88D-12 OVMax= 3.41D-07

 Cycle  14  Pass 1  IDiag  1:
 E= -228.741279537541     Delta-E=        0.000000000001 Rises=F Damp=F
 DIIS: error= 1.32D-08 at cycle   7 NSaved=   7.
 NSaved= 7 IEnMin= 6 EnMin= -228.741279537542     IErMin= 7 ErrMin= 1.32D-08
 ErrMax= 1.32D-08  0.00D+00 EMaxC= 1.00D-01 BMatC= 1.47D-14 BMatP= 7.58D-13
 IDIUse=1 WtCom= 1.00D+00 WtEn= 0.00D+00
 Coeff-Com:  0.562D-04-0.117D-02-0.470D-02-0.777D-03 0.107D+00 0.211D+00
 Coeff-Com:  0.689D+00
 Coeff:      0.562D-04-0.117D-02-0.470D-02-0.777D-03 0.107D+00 0.211D+00
 Coeff:      0.689D+00
 Gap=     0.247 Goal=   None    Shift=    0.000
 RMSDP=3.04D-09 MaxDP=3.76D-08 DE= 9.66D-13 OVMax= 2.99D-08

 SCF Done:  E(RB3LYP) =  -228.741279538     A.U. after   14 cycles
            NFock= 14  Conv=0.30D-08     -V/T= 2.0084
 KE= 2.268282472753D+02 PE=-8.536303030656D+02 EE= 2.374478539945D+02
 Leave Link  502 at Tue Dec 15 16:10:36 2015, MaxMem=    33554432 cpu:         3.1
 (Enter /home/Applications/g09/g09/l801.exe)
 DoSCS=F DFT=T ScalE2(SS,OS)=  1.000000  1.000000
 ExpMin= 1.83D-01 ExpMax= 3.22D+02 ExpMxC= 3.22D+02 IAcc=3 IRadAn=         5 AccDes= 0.00D+00
 HarFok:  IExCor=  205 AccDes= 0.00D+00 IRadAn=         5 IDoV=-2 UseB2=F ITyADJ=14
 ICtDFT= 12500011 ScaDFX=  1.000000  1.000000  1.000000  1.000000
 Largest valence mixing into a core orbital is  2.03D-04
 Largest core mixing into a valence orbital is  4.39D-05
 Range of M.O.s used for correlation:     6    53
 NBasis=    53 NAE=    18 NBE=    18 NFC=     5 NFV=     0
 NROrb=     48 NOA=    13 NOB=    13 NVA=    35 NVB=    35
 Leave Link  801 at Tue Dec 15 16:10:36 2015, MaxMem=    33554432 cpu:         0.2
 (Enter /home/Applications/g09/g09/l914.exe)
 RHF ground state
 MDV=    33554432 DFT=T DoStab=F Mixed=T DoRPA=F DoScal=F NonHer=F
 Keep R1, R2, and R3 ints in memory in canonical form, NReq=5596273.
 FoFCou: FMM=F IPFlag=           0 FMFlag=           0 FMFlg1=           0
         NFxFlg=           0 DoJE=F BraDBF=F KetDBF=F FulRan=T
         wScrn=  0.000000 ICntrl=     600 IOpCl=  0 I1Cent=           0 NGrid=           0
         NMat0=    1 NMatS0=   1431 NMatT0=    0 NMatD0=    1 NMtDS0=    0 NMtDT0=    0
 Symmetry not used in FoFCou.
 Making orbital integer symmetry assigments:
 Orbital symmetries:
       Occupied  (A) (A) (A) (A) (A) (A) (A) (A) (A) (A) (A) (A)
                 (A) (A) (A) (A) (A) (A)
       Virtual   (A) (A) (A) (A) (A) (A) (A) (A) (A) (A) (A) (A)
                 (A) (A) (A) (A) (A) (A) (A) (A) (A) (A) (A) (A)
                 (A) (A) (A) (A) (A) (A) (A) (A) (A) (A) (A)
    60 initial guesses have been made.
 Convergence on wavefunction:    0.000001000000000
 Davidson Disk Diagonalization:  ConvIn= 1.00D-06 SkipCon=T Conv= 1.00D-06.
 Max sub-space:   240 roots to seek:    60 dimension of matrix:          910
 Iteration     1 Dimension    60 NMult     0 NNew     60
 CISAX will form    60 AO SS matrices at one time.
 NMat=    60 NSing=    60 JSym2X= 0.
 New state      1 was old state      3
 New state      2 was old state      1
 New state      3 was old state      6
 New state      4 was old state      5
 New state      5 was old state      7
 New state      6 was old state      8
 New state      7 was old state     10
 New state      8 was old state      4
 New state      9 was old state     12
 New state     10 was old state      9
 New state     12 was old state     13
 New state     13 was old state     14
 New state     14 was old state      2
 Excitation Energies [eV] at current iteration:
 Root      1 :     7.066105588778447
 Root      2 :     8.066133791609541
 Root      3 :     8.719321443287368
 Root      4 :     8.872495565321740
 Root      5 :     9.174078290353574
 Root      6 :     9.726409764890690
 Root      7 :     9.829948018850946
 Root      8 :     9.956758166879373
 Root      9 :    10.073404374747790
 Root     10 :    10.148168612528270
 Root     11 :    10.421964297763190
 Root     12 :    10.436139776882180
 Root     13 :    10.505500796404860
 Root     14 :    10.657709070176200
 Root     15 :    10.866268890894950
 Root     16 :    11.112258460242510
 Root     17 :    11.191405467048720
 Root     18 :    11.366904250432850
 Root     19 :    11.580789617545500
 Root     20 :    11.650119352505020
 Root     21 :    11.765384664306390
 Root     22 :    12.028490534848290
 Root     23 :    12.521180729143100
 Root     24 :    12.529206689879230
 Root     25 :    12.637665847294300
 Root     26 :    13.263836565248930
 Root     27 :    13.434202437076780
 Root     28 :    13.815933197476400
 Root     29 :    13.828372472721960
 Root     30 :    13.893790466718380
 Root     31 :    13.996619007495430
 Root     32 :    14.100126980060590
 Root     33 :    14.177419404549200
 Root     34 :    14.321881217932540
 Root     35 :    14.483949768736540
 Root     36 :    14.725936300195330
 Root     37 :    14.869039048992200
 Root     38 :    14.999392329825780
 Root     39 :    15.080829372977060
 Root     40 :    15.193773637243990
 Root     41 :    15.208599872823140
 Root     42 :    15.286234663699200
 Root     43 :    15.342691678591090
 Root     44 :    15.474989814481700
 Root     45 :    15.517124432059130
 Root     46 :    15.573535993553540
 Root     47 :    15.601911924285440
 Root     48 :    15.766837172925730
 Root     49 :    15.832567567264980
 Root     50 :    15.876758720583050
 Root     51 :    15.987806236630870
 Root     52 :    16.078589523585680
 Root     53 :    16.234520422718820
 Root     54 :    16.286045711829700
 Root     55 :    16.361321744166740
 Root     56 :    16.842065473472180
 Root     57 :    16.975265577185560
 Root     58 :    17.385330389410600
 Root     59 :    17.699750516348100
 Root     60 :    17.815994019650970
 Iteration     2 Dimension   120 NMult    60 NNew     60
 CISAX will form    60 AO SS matrices at one time.
 NMat=    60 NSing=    60 JSym2X= 0.
 Root      1 not converged, maximum delta is    0.027137877395851
 Root      2 not converged, maximum delta is    0.085850896519886
 Root      3 not converged, maximum delta is    0.082541806427904
 Root      4 not converged, maximum delta is    0.012317320608861
 Root      5 not converged, maximum delta is    0.019101979750330
 New state      6 was old state      8
 Root      6 not converged, maximum delta is    0.289379373811794
 New state      7 was old state     14
 Root      7 not converged, maximum delta is    0.304669550079292
 New state      8 was old state      6
 Root      8 not converged, maximum delta is    0.063851082127222
 New state      9 was old state      7
 Root      9 not converged, maximum delta is    0.430627827240584
 New state     10 was old state      9
 Root     10 not converged, maximum delta is    0.062481854930649
 New state     11 was old state     10
 Root     11 not converged, maximum delta is    0.057763282631442
 New state     12 was old state     11
 Root     12 not converged, maximum delta is    0.117809664111119
 New state     13 was old state     12
 Root     13 not converged, maximum delta is    0.168203227720556
 New state     14 was old state     13
 Root     14 not converged, maximum delta is    0.135752123547865
 Root     15 not converged, maximum delta is    0.124440206405929
 Excitation Energies [eV] at current iteration:
 Root      1 :     6.944294905558377   Change is   -0.121810683220070
 Root      2 :     7.199251474753987   Change is   -0.866882316855554
 Root      3 :     8.672303104251153   Change is   -0.047018339036216
 Root      4 :     8.863293039775270   Change is   -0.009202525546470
 Root      5 :     9.152494317134794   Change is   -0.021583973218780
 Root      6 :     9.299167118634916   Change is   -0.657591048244457
 Root      7 :     9.399101910934164   Change is   -1.258607159242038
 Root      8 :     9.716381586267257   Change is   -0.010028178623433
 Root      9 :     9.884327643936649   Change is    0.054379625085703
 Root     10 :    10.070445494450960   Change is   -0.002958880296828
 Root     11 :    10.129391356838700   Change is   -0.018777255689568
 Root     12 :    10.402346062591290   Change is   -0.019618235171906
 Root     13 :    10.426332661518110   Change is   -0.009807115364068
 Root     14 :    10.502103280268600   Change is   -0.003397516136259
 Root     15 :    10.817990042795210   Change is   -0.048278848099741
 Root     16 :    11.091355133116810   Change is   -0.020903327125695
 Root     17 :    11.152279378339600   Change is   -0.039126088709116
 Root     18 :    11.326790717553830   Change is   -0.040113532879030
 Root     19 :    11.554102096407020   Change is   -0.026687521138486
 Root     20 :    11.613958566783740   Change is   -0.036160785721273
 Root     21 :    11.721631269869540   Change is   -0.043753394436850
 Root     22 :    11.994574306697900   Change is   -0.033916228150396
 Root     23 :    12.346025331642410   Change is   -0.183181358236825
 Root     24 :    12.494967856294500   Change is   -0.026212872848605
 Root     25 :    12.559470200965810   Change is   -0.078195646328495
 Root     26 :    13.130689078429130   Change is   -0.763101388289249
 Root     27 :    13.192443656333450   Change is   -0.071392908915478
 Root     28 :    13.407763407575420   Change is   -0.026439029501365
 Root     29 :    13.469322092435120   Change is   -0.359050380286841
 Root     30 :    13.782361849565500   Change is   -0.033571347910905
 Root     31 :    13.924927290229890   Change is   -0.071691717265535
 Root     32 :    14.040817391451490   Change is   -0.059309588609102
 Root     33 :    14.116837736489110   Change is   -0.609098563706216
 Root     34 :    14.144018196024840   Change is   -0.033401208524360
 Root     35 :    14.259935878741080   Change is   -0.061945339191462
 Root     36 :    14.426599271625490   Change is   -0.057350497111046
 Root     37 :    14.618871095637000   Change is   -0.380521234188779
 Root     38 :    14.735246312392690   Change is   -0.133792736599507
 Root     39 :    14.995504079163070   Change is   -0.213095793660068
 Root     40 :    15.034206809446910   Change is   -0.046622563530150
 Root     41 :    15.135592251580730   Change is   -0.058181385663267
 Root     42 :    15.236366120199370   Change is   -0.049868543499839
 Root     43 :    15.265013359475960   Change is   -0.209976455005733
 Root     44 :    15.310024370947380   Change is   -0.032667307643713
 Root     45 :    15.392019814747820   Change is   -0.209892109537625
 Root     46 :    15.457015505059260   Change is   -0.060108926999865
 Root     47 :    15.547112431294180   Change is   -0.026423562259361
 Root     48 :    15.618202888752080   Change is   -0.148634284173653
 Root     49 :    15.673675382809210   Change is   -0.158892184455771
 Root     50 :    15.715610967068310   Change is   -0.161147753514735
 Root     51 :    15.786237541494550   Change is   -0.201568695136322
 Root     52 :    15.827346428985980   Change is   -0.407173993732844
 Root     53 :    16.058973512471310   Change is   -0.019616011114370
 Root     54 :    16.114865954485980   Change is   -0.246455789680766
 Root     55 :    16.206606718365840   Change is   -0.079438993463861
 Root     56 :    16.424321251886950   Change is   -0.961009137523649
 Root     57 :    16.663957047452630   Change is   -0.311308529732921
 Root     58 :    16.772590712929670   Change is   -0.069474760542510
 Root     59 :    16.828769770963240   Change is   -0.987224248687727
 Root     60 :    17.020307160747610   Change is   -0.679443355600492
 Iteration     3 Dimension   135 NMult   120 NNew     15
 CISAX will form    15 AO SS matrices at one time.
 NMat=    15 NSing=    15 JSym2X= 0.
 Root      1 not converged, maximum delta is    0.001119670033768
 Root      2 not converged, maximum delta is    0.002568375621148
 Root      3 not converged, maximum delta is    0.000395185988251
 Root      4 not converged, maximum delta is    0.000149816158859
 Root      5 not converged, maximum delta is    0.000184424142451
 Root      6 not converged, maximum delta is    0.003643669219810
 Root      7 not converged, maximum delta is    0.003422277103767
 Root      8 not converged, maximum delta is    0.000714893267324
 Root      9 not converged, maximum delta is    0.000961127337280
 Root     10 not converged, maximum delta is    0.000287412559068
 Root     11 not converged, maximum delta is    0.000451974868546
 Root     12 not converged, maximum delta is    0.000237019286535
 Root     13 not converged, maximum delta is    0.000200451768380
 Root     14 not converged, maximum delta is    0.000343686085797
 Root     15 not converged, maximum delta is    0.000397493104422
 Excitation Energies [eV] at current iteration:
 Root      1 :     6.943567613825742   Change is   -0.000727291732635
 Root      2 :     7.197127877670883   Change is   -0.002123597083104
 Root      3 :     8.672232294475974   Change is   -0.000070809775179
 Root      4 :     8.863280403875748   Change is   -0.000012635899520
 Root      5 :     9.152476326172847   Change is   -0.000017990961947
 Root      6 :     9.297112234471220   Change is   -0.002054884163696
 Root      7 :     9.394097841740491   Change is   -0.005004069193674
 Root      8 :     9.716313404372137   Change is   -0.000068181895120
 Root      9 :     9.884105210918280   Change is   -0.000222433018369
 Root     10 :    10.070414293404680   Change is   -0.000031201046278
 Root     11 :    10.129317301930020   Change is   -0.000074054908677
 Root     12 :    10.402314066224690   Change is   -0.000031996366593
 Root     13 :    10.426311596852250   Change is   -0.000021064665861
 Root     14 :    10.502060197691130   Change is   -0.000043082577464
 Root     15 :    10.817938473888840   Change is   -0.000051568906369
 Iteration     4 Dimension   150 NMult   135 NNew     15
 CISAX will form    15 AO SS matrices at one time.
 NMat=    15 NSing=    15 JSym2X= 0.
 Root      1 not converged, maximum delta is    0.000033132079134
 Root      2 not converged, maximum delta is    0.000085406047670
 Root      3 not converged, maximum delta is    0.000010732488829
 Root      4 not converged, maximum delta is    0.000004251286586
 Root      5 not converged, maximum delta is    0.000003880393867
 Root      6 not converged, maximum delta is    0.000065067489196
 Root      7 not converged, maximum delta is    0.000114213460102
 Root      8 not converged, maximum delta is    0.000010759504769
 Root      9 not converged, maximum delta is    0.000020009585727
 Root     10 not converged, maximum delta is    0.000013563538597
 Root     11 not converged, maximum delta is    0.000009861316651
 Root     12 not converged, maximum delta is    0.000006019054790
 Root     13 not converged, maximum delta is    0.000008267101709
 Root     14 not converged, maximum delta is    0.000015482254655
 Root     15 not converged, maximum delta is    0.000016111263701
 Excitation Energies [eV] at current iteration:
 Root      1 :     6.943566779541170   Change is   -0.000000834284571
 Root      2 :     7.197125343863834   Change is   -0.000002533807048
 Root      3 :     8.672232224554344   Change is   -0.000000069921630
 Root      4 :     8.863280392011955   Change is   -0.000000011863794
 Root      5 :     9.152476314908261   Change is   -0.000000011264585
 Root      6 :     9.297109138808624   Change is   -0.000003095662596
 Root      7 :     9.394089936796700   Change is   -0.000007904943790
 Root      8 :     9.716313301178371   Change is   -0.000000103193767
 Root      9 :     9.884104858980404   Change is   -0.000000351937877
 Root     10 :    10.070414243623340   Change is   -0.000000049781338
 Root     11 :    10.129317232229980   Change is   -0.000000069700037
 Root     12 :    10.402314045044090   Change is   -0.000000021180604
 Root     13 :    10.426311571460240   Change is   -0.000000025392011
 Root     14 :    10.502060133468150   Change is   -0.000000064222980
 Root     15 :    10.817938400057930   Change is   -0.000000073830908
 Iteration     5 Dimension   165 NMult   150 NNew     15
 CISAX will form    15 AO SS matrices at one time.
 NMat=    15 NSing=    15 JSym2X= 0.
 Root      1 not converged, maximum delta is    0.000001044283069
 Root      2 not converged, maximum delta is    0.000003230371785
 Root      3 has converged.
 Root      4 has converged.
 Root      5 has converged.
 Root      6 not converged, maximum delta is    0.000002404861446
 Root      7 not converged, maximum delta is    0.000003465235599
 Root      8 has converged.
 Root      9 has converged.
 Root     10 has converged.
 Root     11 has converged.
 Root     12 not converged, maximum delta is    0.000001014213128
 Root     13 has converged.
 Root     14 has converged.
 Root     15 has converged.
 Excitation Energies [eV] at current iteration:
 Root      1 :     6.943566778985812   Change is   -0.000000000555359
 Root      2 :     7.197125341519037   Change is   -0.000000002344798
 Root      3 :     8.672232224492671   Change is   -0.000000000061674
 Root      4 :     8.863280391999503   Change is   -0.000000000012453
 Root      5 :     9.152476314898433   Change is   -0.000000000009829
 Root      6 :     9.297109135953171   Change is   -0.000000002855452
 Root      7 :     9.394089928540808   Change is   -0.000000008255892
 Root      8 :     9.716313301057779   Change is   -0.000000000120592
 Root      9 :     9.884104858553401   Change is   -0.000000000427001
 Root     10 :    10.070414243552070   Change is   -0.000000000071267
 Root     11 :    10.129317232148770   Change is   -0.000000000081218
 Root     12 :    10.402314045015320   Change is   -0.000000000028770
 Root     13 :    10.426311571425790   Change is   -0.000000000034443
 Root     14 :    10.502060133404640   Change is   -0.000000000063515
 Root     15 :    10.817938399948200   Change is   -0.000000000109731
 Iteration     6 Dimension   169 NMult   165 NNew      4
 CISAX will form     4 AO SS matrices at one time.
 NMat=     4 NSing=     4 JSym2X= 0.
 Root      1 has converged.
 Root      2 has converged.
 Root      3 has converged.
 Root      4 has converged.
 Root      5 has converged.
 Root      6 has converged.
 Root      7 has converged.
 Root      8 has converged.
 Root      9 has converged.
 Root     10 has converged.
 Root     11 has converged.
 Root     12 has converged.
 Root     13 has converged.
 Root     14 has converged.
 Root     15 has converged.
 Excitation Energies [eV] at current iteration:
 Root      1 :     6.943566778985715   Change is   -0.000000000000097
 Root      2 :     7.197125341517982   Change is   -0.000000000001054
 Root      3 :     8.672232224492664   Change is   -0.000000000000008
 Root      4 :     8.863280391999494   Change is   -0.000000000000009
 Root      5 :     9.152476314898415   Change is   -0.000000000000018
 Root      6 :     9.297109135950748   Change is   -0.000000000002423
 Root      7 :     9.394089928533921   Change is   -0.000000000006887
 Root      8 :     9.716313301057699   Change is   -0.000000000000080
 Root      9 :     9.884104858553085   Change is   -0.000000000000317
 Root     10 :    10.070414243552030   Change is   -0.000000000000044
 Root     11 :    10.129317232148730   Change is   -0.000000000000038
 Root     12 :    10.402314045015310   Change is   -0.000000000000009
 Root     13 :    10.426311571425810   Change is    0.000000000000015
 Root     14 :    10.502060133404590   Change is   -0.000000000000050
 Root     15 :    10.817938399948180   Change is   -0.000000000000027
 Convergence achieved on expansion vectors.
 ***********************************************************************
 Excited states from <AA,BB:AA,BB> singles matrix:
 ***********************************************************************
 
 1PDM for each excited state written to RWF  633
 Ground to excited state transition densities written to RWF  633
 Ground to excited state transition electric dipole moments (Au):
       state          X           Y           Z        Dip. S.      Osc.
         1        -0.0256     -0.0492      0.0106      0.0032      0.0005
         2        -1.0860     -0.4074     -0.0110      1.3454      0.2372
         3         0.0437      0.1066     -0.1477      0.0351      0.0075
         4         0.0390     -0.0188     -0.0143      0.0021      0.0005
         5        -0.0387      0.0145      0.0021      0.0017      0.0004
         6         0.8797      0.1232      0.0612      0.7928      0.1806
         7         0.4590     -1.4532     -0.0071      2.3226      0.5345
         8        -0.0899      0.1139     -0.0199      0.0214      0.0051
         9        -0.0071     -0.2995      0.0329      0.0909      0.0220
        10        -0.0499      0.0927      0.0222      0.0116      0.0029
        11        -0.0710      0.0761     -0.0321      0.0119      0.0029
        12        -0.0395      0.0139      0.0371      0.0031      0.0008
        13        -0.0932      0.0037     -0.0404      0.0103      0.0026
        14         0.0472      0.0863      0.0017      0.0097      0.0025
        15        -0.0730      0.0697     -0.1144      0.0233      0.0062
 Ground to excited state transition velocity dipole moments (Au):
       state          X           Y           Z        Dip. S.      Osc.
         1        -0.0153      0.0391      0.0017      0.0018      0.0046
         2         0.0033     -0.0053      0.0037      0.0001      0.0001
         3        -0.0076     -0.0021      0.0790      0.0063      0.0132
         4        -0.0027     -0.0074      0.0054      0.0001      0.0002
         5         0.0044      0.0015      0.0094      0.0001      0.0002
         6        -0.0741     -0.0227      0.0008      0.0060      0.0117
         7         0.0016      0.0384      0.0087      0.0016      0.0030
         8        -0.0013     -0.0038      0.0454      0.0021      0.0039
         9         0.0117      0.0189      0.0016      0.0005      0.0009
        10         0.0058     -0.0065      0.0254      0.0007      0.0013
        11         0.0109     -0.0043     -0.0153      0.0004      0.0007
        12         0.0121     -0.0015      0.0085      0.0002      0.0004
        13         0.0151      0.0015     -0.0327      0.0013      0.0023
        14        -0.0110     -0.0111      0.0147      0.0005      0.0008
        15         0.0053     -0.0097     -0.0003      0.0001      0.0002
 Ground to excited state transition magnetic dipole moments (Au):
       state          X           Y           Z
         1        -0.0341      0.0132      0.0116
         2        -0.1232     -0.0392     -0.3395
         3        -1.5704     -0.3906      0.0503
         4         0.0581     -0.4563      0.0041
         5         0.2184     -0.2589     -0.0002
         6        -0.1257     -0.0615     -0.2436
         7        -0.1109      0.1825      0.0326
         8         0.1401      0.0830     -0.0617
         9         0.1069     -0.6553     -0.0166
        10        -0.1001      0.4768     -0.0757
        11        -0.3513      0.2250     -0.0576
        12        -0.2096     -0.0605     -0.0625
        13         0.0990      0.0605     -0.0425
        14        -0.0908      0.0619      0.0403
        15         0.0569     -0.2189     -0.0273
 Ground to excited state transition velocity quadrupole moments (Au):
       state          XX          YY          ZZ          XY          XZ          YZ
         1         0.0131      0.0108     -0.0172     -0.0143      0.0001     -0.0018
         2         0.1098     -0.1388      0.0058     -0.1819      0.0002     -0.0058
         3        -0.0144      0.0254     -0.0051      0.0463      0.0242     -0.1794
         4        -0.0321      0.0040     -0.0064      0.0082      0.1280      0.0232
         5        -0.0191     -0.0187      0.0067     -0.0125     -0.1348     -0.0627
         6         0.1586     -0.1728      0.0049     -0.2854      0.0121     -0.0340
         7        -0.2582      0.2069      0.0385     -0.1251     -0.0056     -0.0092
         8         0.0321     -0.0340     -0.0065     -0.0197      0.0597     -0.0367
         9        -0.0834      0.0739      0.0072     -0.0032      0.0493     -0.0382
        10         0.0475     -0.0199     -0.0066      0.0045     -0.0352      0.0306
        11         0.0028     -0.0013     -0.0016      0.0304      0.0246     -0.1159
        12         0.0027     -0.0094      0.0020      0.0117      0.0508     -0.1225
        13        -0.0204      0.0235     -0.0009      0.0360     -0.0217     -0.0104
        14         0.0263     -0.0162      0.0008     -0.0081     -0.0315     -0.0030
        15         0.0465     -0.0130     -0.0095     -0.0068     -0.0134     -0.0573
 <0|del|b> * <b|rxdel|0> + <0|del|b> * <b|delr+rdel|0>
 Rotatory Strengths (R) in cgs (10**-40 erg-esu-cm/Gauss)
       state          XX          YY          ZZ    R(velocity)    E-M Angle
         1         0.7013      0.8236      1.4065      0.9772       49.07
         2        -2.2955     -1.3554     -0.2480     -1.2996      123.43
         3         9.4534     15.1600     12.6472     12.4202       82.49
         4         4.7788     -0.2651      2.5412      2.3516       42.45
         5        -0.3148      0.8472      0.7097      0.4140       80.42
         6         1.2808     12.2780      8.1959      7.2516       61.14
         7         6.5822      1.2096      6.7949      4.8623       33.35
         8        -3.7462     -2.0278     -0.7712     -2.1817      114.62
         9       -12.9700      0.7578     -9.4840     -7.2321      139.00
        10        -4.9259     -2.3353     -3.4870     -3.5827      115.10
        11        -0.4155     -3.5759     -3.4577     -2.4830      118.83
        12        -0.2448     -4.3086     -0.9640     -1.8391      152.07
        13         0.3098      3.6047      1.5764      1.8303       48.14
        14        -0.5194      1.5989      0.5759      0.5518       68.95
        15         1.7915      0.0043      2.5505      1.4488       14.80
 1/2[<0|r|b>*<b|rxdel|0> + (<0|rxdel|b>*<b|r|0>)*]
 Rotatory Strengths (R) in cgs (10**-40 erg-esu-cm/Gauss)
       state          XX          YY          ZZ     R(length)
         1        -0.6171      0.4579     -0.0872     -0.0821
         2       -94.5971    -11.2898     -2.6423    -36.1764
         3        48.5219     29.4412      5.2500     27.7377
         4        -1.6054     -6.0603      0.0415     -2.5414
         5         5.9707      2.6640      0.0003      2.8783
         6        78.1967      5.3595     10.5367     31.3643
         7        35.9849    187.5743      0.1643     74.5745
         8         8.9071     -6.6826     -0.8673      0.4524
         9         0.5357   -138.8097      0.3862    -45.9626
        10        -3.5326    -31.2543      1.1856    -11.2004
        11       -17.6343    -12.1114     -1.3082    -10.3513
        12        -5.8559      0.5951      1.6417     -1.2063
        13         6.5241     -0.1574     -1.2119      1.7183
        14         3.0286     -3.7788     -0.0491     -0.2664
        15         2.9392     10.7918     -2.2115      3.8399
  1/2[<0|del|b>*<b|r|0> + (<0|r|b>*<b|del|0>)*] (Au)
       state          X           Y           Z        Dip. S.   Osc.(frdel)
         1         0.0004     -0.0019      0.0000      0.0015      0.0010
         2        -0.0036      0.0022      0.0000      0.0015      0.0010
         3        -0.0003     -0.0002     -0.0117      0.0122      0.0082
         4        -0.0001      0.0001     -0.0001      0.0000      0.0000
         5        -0.0002      0.0000      0.0000      0.0001      0.0001
         6        -0.0652     -0.0028      0.0000      0.0679      0.0453
         7         0.0008     -0.0559     -0.0001      0.0552      0.0368
         8         0.0001     -0.0004     -0.0009      0.0012      0.0008
         9        -0.0001     -0.0057      0.0001      0.0057      0.0038
        10        -0.0003     -0.0006      0.0006      0.0003      0.0002
        11        -0.0008     -0.0003      0.0005      0.0006      0.0004
        12        -0.0005      0.0000      0.0003      0.0002      0.0001
        13        -0.0014      0.0000      0.0013      0.0001      0.0001
        14        -0.0005     -0.0010      0.0000      0.0015      0.0010
        15        -0.0004     -0.0007      0.0000      0.0010      0.0007

 Excitation energies and oscillator strengths:
 
 Excited State   1:      Singlet-A      6.9436 eV  178.56 nm  f=0.0005  <S**2>=0.000
      17 -> 19        -0.49291
      18 -> 20         0.49924
 This state for optimization and/or second-order correction.
 Total Energy, E(CIS) =  -228.486108143    
 Copying the excited state density for this state as the 1-particle RhoCI density.
 
 Excited State   2:      Singlet-A      7.1971 eV  172.27 nm  f=0.2372  <S**2>=0.000
      18 -> 19         0.68218
 
 Excited State   3:      Singlet-A      8.6722 eV  142.97 nm  f=0.0075  <S**2>=0.000
      16 -> 19         0.69465
 
 Excited State   4:      Singlet-A      8.8633 eV  139.89 nm  f=0.0005  <S**2>=0.000
      18 -> 21         0.65259
      18 -> 22         0.25223
 
 Excited State   5:      Singlet-A      9.1525 eV  135.47 nm  f=0.0004  <S**2>=0.000
      18 -> 21        -0.24564
      18 -> 22         0.64870
 
 Excited State   6:      Singlet-A      9.2971 eV  133.36 nm  f=0.1806  <S**2>=0.000
      17 -> 20         0.67086
 
 Excited State   7:      Singlet-A      9.3941 eV  131.98 nm  f=0.5345  <S**2>=0.000
      16 -> 20         0.11062
      17 -> 19         0.45412
      18 -> 20         0.45245
 
 Excited State   8:      Singlet-A      9.7163 eV  127.60 nm  f=0.0051  <S**2>=0.000
      15 -> 19        -0.14137
      17 -> 21        -0.17239
      18 -> 23         0.64734
 
 Excited State   9:      Singlet-A      9.8841 eV  125.44 nm  f=0.0220  <S**2>=0.000
      14 -> 19         0.15786
      15 -> 19         0.53291
      16 -> 20        -0.39411
 
 Excited State  10:      Singlet-A     10.0704 eV  123.12 nm  f=0.0029  <S**2>=0.000
      14 -> 19        -0.21998
      15 -> 19         0.33597
      16 -> 20         0.39277
      17 -> 21        -0.37732
      17 -> 22        -0.10715
      18 -> 24        -0.13770
 
 Excited State  11:      Singlet-A     10.1293 eV  122.40 nm  f=0.0029  <S**2>=0.000
      14 -> 19        -0.13508
      15 -> 19         0.25401
      16 -> 20         0.26932
      17 -> 21         0.49763
      17 -> 22         0.18932
      18 -> 23         0.21916
 
 Excited State  12:      Singlet-A     10.4023 eV  119.19 nm  f=0.0008  <S**2>=0.000
      17 -> 21        -0.26396
      17 -> 22         0.43206
      18 -> 24         0.47655
 
 Excited State  13:      Singlet-A     10.4263 eV  118.91 nm  f=0.0026  <S**2>=0.000
      14 -> 19         0.19604
      16 -> 20         0.12497
      17 -> 22        -0.45270
      18 -> 24         0.47021
 
 Excited State  14:      Singlet-A     10.5021 eV  118.06 nm  f=0.0025  <S**2>=0.000
      14 -> 19         0.59046
      16 -> 20         0.26530
      17 -> 22         0.21613
      18 -> 24        -0.11468
 
 Excited State  15:      Singlet-A     10.8179 eV  114.61 nm  f=0.0062  <S**2>=0.000
      18 -> 25         0.68134
 SavETr:  write IOETrn=   770 NScale= 10 NData=  16 NLR=1 NState=   15 LETran=     280.
 The selected state is a singlet
 CISAX will form     1 AO SS matrices at one time.
 NMat=     1 NSing=     1 JSym2X= 0.
 CISAX will form     1 AO SS matrices at one time.
 NMat=     1 NSing=     1 JSym2X= 0.
 Leave Link  914 at Tue Dec 15 16:11:01 2015, MaxMem=    33554432 cpu:        24.6
 (Enter /home/Applications/g09/g09/l1002.exe)
 Minotr:  Closed shell wavefunction.
          Computing CIS/TD-HF/TD-KS derivatives.
          Using Z-Vector for PSCF gradient.
          Skipping F1 and S1 gradient terms here.
          IDoAtm=111111111
          Frozen-core window.
          Direct CPHF calculation.
          Differentiating once with respect to electric field.
                with respect to dipole field.
          Differentiating once with respect to nuclear coordinates.
          Requested convergence is 1.0D-10 RMS, and 1.0D-09 maximum.
          NewPWx=F KeepS1=T KeepF1=T KeepIn=T MapXYZ=F SortEE=F KeepMc=T.
          MDV=      33554290 using IRadAn=       0.
 Using stored XC quadrature information.
 Keep R1 ints in memory in canonical form, NReq=1898913.
 FoFCou: FMM=F IPFlag=           0 FMFlag=           0 FMFlg1=           0
         NFxFlg=           0 DoJE=F BraDBF=F KetDBF=F FulRan=T
         wScrn=  0.000000 ICntrl=     600 IOpCl=  0 I1Cent=           0 NGrid=           0
         NMat0=    1 NMatS0=   1431 NMatT0=    0 NMatD0=    1 NMtDS0=    0 NMtDT0=    0
 Symmetry not used in FoFCou.
          Solving linear equations separately, MaxMat=       0.
          There are     1 degrees of freedom in the 1st order CPHF.  IDoFFX=0 NUNeed=     1.
 LinEq1:  Iter=  0 NonCon=     1 RMS=8.37D-03 Max=1.24D-01 NDo=     1
 AX will form     1 AO Fock derivatives at one time.
 LinEq1:  Iter=  1 NonCon=     1 RMS=5.11D-03 Max=6.81D-02 NDo=     1
 LinEq1:  Iter=  2 NonCon=     1 RMS=3.10D-03 Max=3.84D-02 NDo=     1
 LinEq1:  Iter=  3 NonCon=     1 RMS=1.57D-03 Max=1.77D-02 NDo=     1
 LinEq1:  Iter=  4 NonCon=     1 RMS=9.50D-04 Max=1.08D-02 NDo=     1
 LinEq1:  Iter=  5 NonCon=     1 RMS=4.75D-04 Max=4.35D-03 NDo=     1
 LinEq1:  Iter=  6 NonCon=     1 RMS=1.31D-04 Max=1.35D-03 NDo=     1
 LinEq1:  Iter=  7 NonCon=     1 RMS=2.45D-05 Max=1.76D-04 NDo=     1
 LinEq1:  Iter=  8 NonCon=     1 RMS=1.98D-05 Max=1.99D-04 NDo=     1
 LinEq1:  Iter=  9 NonCon=     1 RMS=3.57D-06 Max=3.34D-05 NDo=     1
 LinEq1:  Iter= 10 NonCon=     1 RMS=3.39D-07 Max=1.87D-06 NDo=     1
 LinEq1:  Iter= 11 NonCon=     1 RMS=3.75D-08 Max=2.68D-07 NDo=     1
 LinEq1:  Iter= 12 NonCon=     1 RMS=3.83D-09 Max=2.10D-08 NDo=     1
 LinEq1:  Iter= 13 NonCon=     1 RMS=4.66D-10 Max=3.64D-09 NDo=     1
 LinEq1:  Iter= 14 NonCon=     0 RMS=5.96D-11 Max=5.73D-10 NDo=     1
 Linear equations converged to 1.000D-10 1.000D-09 after    14 iterations.
 End of Minotr F.D. properties file   721 does not exist.
 End of Minotr F.D. properties file   722 does not exist.
 End of Minotr F.D. properties file   788 does not exist.
 Leave Link 1002 at Tue Dec 15 16:11:13 2015, MaxMem=    33554432 cpu:        12.0
 (Enter /home/Applications/g09/g09/l601.exe)
 Copying SCF densities to generalized density rwf, IOpCl= 0 IROHF=0.

 **********************************************************************

            Population analysis using the SCF density.

 **********************************************************************

 Orbital symmetries:
       Occupied  (A) (A) (A) (A) (A) (A) (A) (A) (A) (A) (A) (A)
                 (A) (A) (A) (A) (A) (A)
       Virtual   (A) (A) (A) (A) (A) (A) (A) (A) (A) (A) (A) (A)
                 (A) (A) (A) (A) (A) (A) (A) (A) (A) (A) (A) (A)
                 (A) (A) (A) (A) (A) (A) (A) (A) (A) (A) (A)
 The electronic state is 1-A.
 Alpha  occ. eigenvalues --  -19.12338 -10.18152 -10.17560 -10.12728 -10.12594
 Alpha  occ. eigenvalues --   -1.14998  -0.79375  -0.75462  -0.60717  -0.56901
 Alpha  occ. eigenvalues --   -0.54563  -0.46398  -0.45632  -0.41708  -0.40014
 Alpha  occ. eigenvalues --   -0.35667  -0.27356  -0.22658
 Alpha virt. eigenvalues --    0.02068   0.06919   0.14142   0.15464   0.17714
 Alpha virt. eigenvalues --    0.19457   0.21856   0.23707   0.34503   0.40017
 Alpha virt. eigenvalues --    0.46490   0.69964   0.70133   0.70221   0.73408
 Alpha virt. eigenvalues --    0.77147   0.78411   0.78904   0.81237   0.83564
 Alpha virt. eigenvalues --    0.93727   0.98148   1.01426   1.03656   1.17838
 Alpha virt. eigenvalues --    1.21750   1.32139   1.37363   1.50044   1.57929
 Alpha virt. eigenvalues --    1.61156   1.72897   1.95283   2.10435   3.22186
     Molecular Orbital Coefficients:
                           1         2         3         4         5
                           O         O         O         O         O
     Eigenvalues --   -19.12338 -10.18152 -10.17560 -10.12728 -10.12594
   1 1   C  1S          0.00017  -0.01036  -0.00123   0.85391   0.49303
   2        2S          0.00072  -0.00451  -0.00023   0.09689   0.05180
   3        2PX         0.00091   0.00031  -0.00031   0.00176  -0.00005
   4        2PY         0.00102   0.00214   0.00059  -0.00097  -0.00025
   5        2PZ        -0.00003  -0.00002  -0.00001   0.00018   0.00009
   6        3S         -0.00469   0.03027  -0.01309  -0.10065  -0.02123
   7        3PX        -0.00834   0.00213  -0.00631  -0.03271   0.00465
   8        3PY         0.00533  -0.01684   0.00846   0.01649   0.00725
   9        3PZ         0.00028   0.00049  -0.00016  -0.00162  -0.00026
  10 2   C  1S         -0.00031   0.98484   0.03405   0.00837   0.00565
  11        2S         -0.00020   0.10636   0.00046  -0.00218  -0.00202
  12        2PX         0.00244   0.00272  -0.00080  -0.00011   0.00015
  13        2PY        -0.00105   0.00040  -0.00095  -0.00074  -0.00167
  14        2PZ         0.00003   0.00004   0.00007   0.00008   0.00003
  15        3S          0.01846  -0.06933   0.01314   0.03504   0.01293
  16        3PX         0.01657  -0.00132   0.01269   0.00694   0.00271
  17        3PY         0.00526  -0.01641   0.01482   0.01872   0.01016
  18        3PZ        -0.00067   0.00015  -0.00065  -0.00067  -0.00016
  19 3   O  1S          0.98285   0.00032   0.00031   0.00003   0.00011
  20        2S          0.10852   0.00184   0.00198   0.00011   0.00046
  21        2PX        -0.00149  -0.00036   0.00014  -0.00001   0.00004
  22        2PY         0.00409   0.00035   0.00071   0.00001  -0.00013
  23        2PZ         0.00012   0.00006   0.00000   0.00002   0.00001
  24        3S         -0.06353  -0.00166  -0.00137  -0.00104  -0.00546
  25        3PX         0.00524   0.00295   0.00058   0.00301   0.00026
  26        3PY        -0.01349  -0.00329  -0.00418   0.00015  -0.00248
  27        3PZ        -0.00037  -0.00036  -0.00004   0.00003  -0.00008
  28 4   C  1S         -0.00036  -0.03516   0.98480  -0.00480   0.01019
  29        2S         -0.00030  -0.00695   0.10628   0.00112  -0.00263
  30        2PX        -0.00144   0.00133  -0.00223  -0.00022   0.00131
  31        2PY        -0.00234  -0.00032  -0.00132  -0.00016  -0.00168
  32        2PZ        -0.00009  -0.00012  -0.00021   0.00009  -0.00006
  33        3S          0.01655   0.01659  -0.07049  -0.02415   0.02671
  34        3PX        -0.01409  -0.01942   0.01241   0.01400  -0.01506
  35        3PY        -0.00479   0.00578  -0.01125  -0.00565   0.01067
  36        3PZ         0.00010   0.00078   0.00031  -0.00040   0.00015
  37 5   C  1S          0.00016  -0.00036  -0.01157  -0.49347   0.85360
  38        2S          0.00067  -0.00013  -0.00492  -0.05805   0.09307
  39        2PX        -0.00137  -0.00007  -0.00178   0.00091  -0.00012
  40        2PY         0.00041   0.00059   0.00162   0.00146  -0.00106
  41        2PZ         0.00005   0.00002   0.00000   0.00009  -0.00015
  42        3S         -0.00431  -0.01507   0.03247   0.07883  -0.06653
  43        3PX         0.00215  -0.00232   0.00862  -0.01866  -0.00137
  44        3PY         0.00772   0.00913  -0.01472  -0.02672   0.01638
  45        3PZ        -0.00039  -0.00009  -0.00034  -0.00098   0.00075
  46 6   H  1S         -0.00091  -0.00021  -0.00118   0.00177  -0.00344
  47        2S         -0.00280  -0.00084   0.00141   0.00120   0.00744
  48 7   H  1S          0.00027   0.00161  -0.00375  -0.00010  -0.00026
  49        2S          0.00380   0.00755   0.00949  -0.00304   0.00454
  50 8   H  1S          0.00054  -0.00313   0.00131  -0.00037  -0.00010
  51        2S          0.00456   0.00948   0.00798   0.00335   0.00325
  52 9   H  1S         -0.00109  -0.00095  -0.00065  -0.00361  -0.00247
  53        2S         -0.00395   0.00140  -0.00217   0.00199   0.00613
                           6         7         8         9        10
                           O         O         O         O         O
     Eigenvalues --    -1.14998  -0.79375  -0.75462  -0.60717  -0.56901
   1 1   C  1S         -0.02216  -0.14501   0.06431  -0.11387   0.04211
   2        2S          0.02100   0.15483  -0.06904   0.11609  -0.04229
   3        2PX         0.01587   0.07618   0.01852  -0.09678  -0.07307
   4        2PY        -0.02339  -0.02713   0.06723  -0.03589  -0.14362
   5        2PZ         0.00080   0.00584  -0.00236   0.00382  -0.00113
   6        3S          0.03546   0.29843  -0.12637   0.37472  -0.13619
   7        3PX         0.04016   0.03283  -0.01825  -0.00718  -0.03497
   8        3PY        -0.02651  -0.02319  -0.01216  -0.03758  -0.04950
   9        3PZ        -0.00079   0.00433  -0.00122   0.00403  -0.00173
  10 2   C  1S         -0.07832  -0.04750   0.14477   0.00485  -0.10956
  11        2S          0.08570   0.05618  -0.15689  -0.00468   0.12076
  12        2PX         0.09813  -0.03717  -0.04420  -0.12414  -0.14893
  13        2PY        -0.00648   0.11869   0.01275   0.16060  -0.04270
  14        2PZ        -0.00124  -0.00028   0.00054  -0.00094   0.00639
  15        3S          0.05368   0.07386  -0.34438  -0.04253   0.34663
  16        3PX        -0.04685   0.00128  -0.00718  -0.04469  -0.08719
  17        3PY        -0.02535   0.03579  -0.03811   0.03797  -0.01767
  18        3PZ         0.00253  -0.00086   0.00024   0.00003   0.00494
  19 3   O  1S         -0.21324   0.08215  -0.00379  -0.00521   0.04896
  20        2S          0.19321  -0.07956   0.00323   0.00469  -0.04924
  21        2PX        -0.04229   0.00143   0.24138   0.23770   0.00288
  22        2PY         0.10805   0.03327   0.07877   0.07074  -0.01974
  23        2PZ         0.00317  -0.00082  -0.00005  -0.00130   0.00007
  24        3S          0.68642  -0.30227   0.01333   0.01953  -0.21560
  25        3PX        -0.05211   0.00549   0.20032   0.20821   0.00297
  26        3PY         0.13843   0.01537   0.06702   0.06312  -0.02240
  27        3PZ         0.00408  -0.00074  -0.00025  -0.00151   0.00029
  28 4   C  1S         -0.07316  -0.05760  -0.14590  -0.00052  -0.10482
  29        2S          0.08047   0.06737   0.15720  -0.00146   0.11546
  30        2PX        -0.06927  -0.04812  -0.02435   0.01538   0.14905
  31        2PY        -0.05730   0.10629  -0.04250  -0.21115   0.04327
  32        2PZ        -0.00189  -0.00013  -0.00578  -0.00470  -0.00711
  33        3S          0.05282   0.09173   0.35268   0.03745   0.33037
  34        3PX         0.04585  -0.02092  -0.03134  -0.00862   0.07761
  35        3PY         0.00187   0.02880   0.02172  -0.06801   0.02841
  36        3PZ        -0.00183   0.00042  -0.00199  -0.00158  -0.00608
  37 5   C  1S         -0.02345  -0.14893  -0.05327   0.11109   0.04600
  38        2S          0.02201   0.15867   0.05754  -0.11335  -0.04589
  39        2PX         0.00231  -0.03840   0.07033  -0.11919   0.13859
  40        2PY        -0.02977  -0.06830  -0.03843  -0.01974  -0.05742
  41        2PZ        -0.00088  -0.00521  -0.00164   0.00337   0.00336
  42        3S          0.04178   0.30613   0.09956  -0.36735  -0.14894
  43        3PX        -0.01167  -0.01207  -0.01932  -0.03685   0.05869
  44        3PY        -0.04362  -0.03992   0.00212   0.02699  -0.01062
  45        3PZ         0.00136  -0.00389  -0.00149   0.00360   0.00321
  46 6   H  1S          0.00697   0.06319   0.02985  -0.11450  -0.04099
  47        2S          0.01538   0.01574   0.00825  -0.06291  -0.02567
  48 7   H  1S          0.01203   0.01889   0.08663   0.01850   0.16547
  49        2S         -0.02493   0.00573   0.03201   0.01553   0.08597
  50 8   H  1S          0.01089   0.01494  -0.07955  -0.00947   0.16203
  51        2S         -0.02793   0.00658  -0.02945  -0.00878   0.08444
  52 9   H  1S          0.00726   0.06316  -0.03313   0.11864  -0.04920
  53        2S          0.01926   0.01515  -0.00879   0.06591  -0.02940
                          11        12        13        14        15
                           O         O         O         O         O
     Eigenvalues --    -0.54563  -0.46398  -0.45632  -0.41708  -0.40014
   1 1   C  1S         -0.04505   0.03117  -0.03151  -0.00885   0.01559
   2        2S          0.04096  -0.03302   0.03458   0.01160  -0.01434
   3        2PX        -0.11481   0.02047  -0.04586   0.25032  -0.22784
   4        2PY         0.17838  -0.02377   0.06385  -0.17408  -0.14342
   5        2PZ        -0.00064   0.06666   0.06398   0.01295  -0.00422
   6        3S          0.20008  -0.10525   0.10131   0.03661  -0.09302
   7        3PX        -0.07261   0.00258  -0.03542   0.17743  -0.12946
   8        3PY         0.08317  -0.01760   0.04810  -0.10449  -0.05019
   9        3PZ         0.00136   0.04663   0.04576   0.00989  -0.00321
  10 2   C  1S          0.01686  -0.02049   0.02591  -0.02473  -0.02701
  11        2S         -0.02106   0.01861  -0.02570   0.02969   0.03364
  12        2PX        -0.08240  -0.17055   0.17873   0.03528   0.08225
  13        2PY        -0.14469  -0.04996   0.02028   0.17102   0.17722
  14        2PZ         0.00317   0.14561   0.12531   0.01589  -0.00291
  15        3S         -0.02805   0.08744  -0.09586   0.08447   0.10101
  16        3PX        -0.05108  -0.09538   0.10122   0.04450   0.03222
  17        3PY        -0.13349  -0.04352   0.02795   0.08772   0.18395
  18        3PZ         0.00257   0.12927   0.11593   0.01775   0.00034
  19 3   O  1S         -0.05606  -0.00488   0.00823  -0.00831   0.01357
  20        2S          0.05552   0.00432  -0.00768   0.01015  -0.01755
  21        2PX         0.04466   0.16679  -0.17906   0.04630  -0.05518
  22        2PY        -0.19923   0.03068  -0.03534  -0.09014   0.21451
  23        2PZ        -0.00417   0.28649   0.27518   0.04216   0.02254
  24        3S          0.21520   0.01981  -0.03295   0.01844  -0.01711
  25        3PX         0.03967   0.15971  -0.17009   0.05388  -0.05465
  26        3PY        -0.18284   0.02955  -0.03363  -0.09056   0.22325
  27        3PZ        -0.00419   0.28600   0.27765   0.04351   0.02434
  28 4   C  1S          0.01127   0.02389  -0.03402   0.03915   0.00994
  29        2S         -0.01589  -0.02398   0.03649  -0.04728  -0.01007
  30        2PX         0.16488  -0.16284   0.14765   0.22329   0.00623
  31        2PY        -0.03449  -0.05552   0.06884  -0.15123  -0.05315
  32        2PZ        -0.00604   0.13551   0.12178   0.00805   0.00860
  33        3S         -0.00492  -0.09008   0.11392  -0.14286  -0.03380
  34        3PX         0.11930  -0.10037   0.08931   0.16711  -0.00598
  35        3PY        -0.06371  -0.03003   0.04151  -0.12614   0.02661
  36        3PZ        -0.00522   0.12283   0.11256   0.01100   0.01036
  37 5   C  1S         -0.04494  -0.03440   0.03517  -0.01263   0.02468
  38        2S          0.04272   0.03610  -0.03734   0.00936  -0.02727
  39        2PX        -0.00466   0.01507  -0.01180  -0.17353   0.22529
  40        2PY         0.20026   0.04189  -0.07536   0.17015   0.25162
  41        2PZ        -0.00509   0.06593   0.06737   0.00152   0.00335
  42        3S          0.18429   0.12352  -0.12336   0.07392  -0.10900
  43        3PX         0.02858   0.00379  -0.01302  -0.06308   0.13980
  44        3PY         0.11830   0.02720  -0.05816   0.08975   0.17850
  45        3PZ        -0.00375   0.04692   0.05043   0.00317   0.00236
  46 6   H  1S          0.13210   0.06287  -0.08744   0.08407   0.19820
  47        2S          0.06630   0.04323  -0.05607   0.07259   0.18497
  48 7   H  1S          0.07304  -0.13206   0.12485   0.11897  -0.00957
  49        2S          0.03048  -0.09607   0.09705   0.10231  -0.00422
  50 8   H  1S          0.06074   0.12690  -0.11792  -0.06463  -0.09747
  51        2S          0.02225   0.09487  -0.09207  -0.06164  -0.08822
  52 9   H  1S          0.14085  -0.05455   0.08561  -0.20310   0.05555
  53        2S          0.07656  -0.03998   0.05648  -0.17548   0.05564
                          16        17        18        19        20
                           O         O         O         V         V
     Eigenvalues --    -0.35667  -0.27356  -0.22658   0.02068   0.06919
   1 1   C  1S          0.02216  -0.00542  -0.00175  -0.00480  -0.00426
   2        2S         -0.01983   0.00653   0.00191   0.00604   0.00085
   3        2PX         0.08386   0.00588   0.00950   0.01029  -0.00676
   4        2PY         0.20856  -0.00194   0.00718   0.00589  -0.00240
   5        2PZ        -0.00089  -0.29183  -0.19402  -0.16708  -0.33986
   6        3S         -0.14867   0.01972   0.00484   0.00518   0.04937
   7        3PX         0.07928  -0.00211   0.00683   0.00094  -0.00849
   8        3PY         0.15928  -0.00584   0.01038   0.04128   0.00446
   9        3PZ        -0.00469  -0.30646  -0.21238  -0.27908  -0.65078
  10 2   C  1S         -0.01885   0.00118  -0.00219   0.00037   0.00450
  11        2S          0.02408  -0.00118   0.00173  -0.00312  -0.00550
  12        2PX         0.05426  -0.00328  -0.00599   0.01561   0.00769
  13        2PY        -0.20842  -0.00341  -0.01954   0.01347   0.00642
  14        2PZ         0.01357  -0.06098  -0.32501   0.32978   0.20915
  15        3S          0.06135  -0.00623   0.01434   0.02324  -0.02593
  16        3PX        -0.02077  -0.00022  -0.00803   0.04372   0.02445
  17        3PY        -0.05125  -0.00856  -0.01298   0.05174   0.02376
  18        3PZ         0.00986  -0.03339  -0.35073   0.49399   0.38445
  19 3   O  1S          0.06359   0.00022   0.00414   0.00012  -0.00350
  20        2S         -0.06292  -0.00006  -0.00397  -0.00052   0.00421
  21        2PX        -0.10197   0.00441  -0.00235  -0.00145   0.00532
  22        2PY         0.34986  -0.01272   0.01072   0.00014   0.00481
  23        2PZ         0.00209   0.27990   0.00771  -0.29861  -0.00161
  24        3S         -0.24067  -0.00300  -0.01991  -0.00067   0.01660
  25        3PX        -0.11069   0.00481  -0.00154   0.00397   0.01041
  26        3PY         0.38274  -0.01398   0.01329   0.00226   0.00268
  27        3PZ         0.00267   0.32043   0.01058  -0.42024  -0.00264
  28 4   C  1S         -0.01547  -0.00041  -0.00564  -0.00418   0.01070
  29        2S          0.02083   0.00082   0.00599   0.00358  -0.01148
  30        2PX         0.04839  -0.00761   0.01091   0.01872  -0.00524
  31        2PY        -0.20110   0.00659  -0.02010  -0.00186   0.00916
  32        2PZ        -0.02322  -0.08259   0.32989   0.31371  -0.21815
  33        3S          0.04429  -0.00078   0.02566   0.01415  -0.06888
  34        3PX         0.02460  -0.00504   0.01377   0.06407  -0.04488
  35        3PY        -0.03249   0.00171  -0.01426  -0.01689   0.02392
  36        3PZ        -0.01730  -0.05319   0.36066   0.47101  -0.40549
  37 5   C  1S          0.01111   0.00411  -0.00219   0.00816  -0.00672
  38        2S         -0.01088  -0.00499   0.00151  -0.00996   0.00492
  39        2PX        -0.18565   0.00871  -0.01417   0.00802   0.00776
  40        2PY         0.11131  -0.01034   0.00742   0.00238   0.00874
  41        2PZ        -0.01518  -0.30002   0.17553  -0.16283   0.34419
  42        3S         -0.08114  -0.00829   0.01464  -0.02751   0.04707
  43        3PX        -0.17517   0.00359  -0.01420   0.01772   0.01367
  44        3PY         0.05455  -0.00932   0.00595  -0.03732   0.04149
  45        3PZ        -0.01037  -0.31379   0.18854  -0.27281   0.65988
  46 6   H  1S          0.01933  -0.00100  -0.00346   0.00601  -0.01348
  47        2S          0.04598  -0.00319  -0.00353   0.03338  -0.05411
  48 7   H  1S          0.08777  -0.00269  -0.00115  -0.01307   0.01313
  49        2S          0.08725  -0.00456  -0.00146  -0.05025   0.06736
  50 8   H  1S          0.11558  -0.00052   0.00317   0.00822   0.00727
  51        2S          0.12060  -0.00060   0.00553   0.03709   0.03476
  52 9   H  1S          0.01468  -0.00129  -0.00557  -0.00208  -0.00888
  53        2S          0.03258  -0.00240  -0.00794  -0.01793  -0.03102
                          21        22        23        24        25
                           V         V         V         V         V
     Eigenvalues --     0.14142   0.15464   0.17714   0.19457   0.21856
   1 1   C  1S          0.02498   0.06013   0.03641   0.10790  -0.02122
   2        2S         -0.00723  -0.04994  -0.03859  -0.08011   0.01544
   3        2PX         0.09216   0.07005  -0.10933   0.10447  -0.21934
   4        2PY        -0.09691  -0.07034   0.01939  -0.10892  -0.12663
   5        2PZ         0.00231  -0.01594  -0.00500  -0.00785   0.00059
   6        3S         -0.44283  -0.58379  -0.14882  -1.22360   0.33534
   7        3PX         0.19322   0.41930  -0.14173   0.62635  -0.99649
   8        3PY        -0.28499  -0.33583  -0.07568  -0.56291  -0.60969
   9        3PZ         0.00782  -0.04872  -0.00375  -0.01021   0.00693
  10 2   C  1S          0.08826  -0.08428  -0.03664  -0.02171   0.08406
  11        2S         -0.05982   0.06463   0.02812   0.03561  -0.05339
  12        2PX         0.10051   0.07238  -0.18952   0.05641   0.11100
  13        2PY         0.13129  -0.11989  -0.11102   0.10937  -0.04395
  14        2PZ        -0.01785   0.01275   0.01563  -0.00043   0.00160
  15        3S         -1.03171   0.71504   0.50334  -0.09137  -1.17381
  16        3PX         0.37471   0.00899  -0.68522  -0.02459   0.42041
  17        3PY         0.34575  -0.54187  -0.36215   0.19923  -0.24697
  18        3PZ        -0.04622   0.04542   0.04625   0.00662   0.00301
  19 3   O  1S         -0.02375   0.10091  -0.01506  -0.00276   0.06485
  20        2S          0.02055  -0.07079   0.01184   0.00259  -0.03063
  21        2PX         0.00124   0.05043  -0.00951   0.02767  -0.19183
  22        2PY        -0.01453  -0.15002   0.03042   0.00764  -0.09560
  23        2PZ         0.00146  -0.00679  -0.01591  -0.00015  -0.00904
  24        3S          0.16691  -0.85480   0.12251   0.01601  -0.66946
  25        3PX         0.01985   0.07630  -0.06290  -0.01227  -0.37323
  26        3PY        -0.04502  -0.26168   0.02495  -0.00746  -0.24865
  27        3PZ         0.00253  -0.01353  -0.03173  -0.00271  -0.01567
  28 4   C  1S          0.08300  -0.05106   0.08368   0.01624  -0.04548
  29        2S         -0.05839   0.03634  -0.06086  -0.03140   0.04459
  30        2PX        -0.11481  -0.09067  -0.23885   0.11063  -0.09937
  31        2PY         0.04115  -0.17025   0.00320  -0.01381  -0.24699
  32        2PZ         0.01988  -0.01591   0.03366   0.00329  -0.00096
  33        3S         -0.95905   0.37371  -1.02701   0.14780   0.27195
  34        3PX        -0.37964  -0.09187  -0.98577   0.04838  -0.15945
  35        3PY         0.09573  -0.48230  -0.01123  -0.11990  -0.85070
  36        3PZ         0.05076  -0.04377   0.10129   0.01566  -0.00450
  37 5   C  1S          0.02544   0.03361  -0.06997  -0.10052  -0.08183
  38        2S         -0.00837  -0.02293   0.06282   0.07310   0.02044
  39        2PX        -0.00973  -0.02319  -0.02478   0.02426  -0.02459
  40        2PY        -0.14052  -0.13052  -0.03066   0.16456   0.04554
  41        2PZ         0.00095   0.01777  -0.02111  -0.01734  -0.00895
  42        3S         -0.42321  -0.43978   0.51930   1.12852   1.48171
  43        3PX        -0.04236  -0.10615  -0.01021   0.17547  -0.29577
  44        3PY        -0.36026  -0.40225   0.19444   0.87211  -0.08354
  45        3PZ        -0.00135   0.06151  -0.06384  -0.04541  -0.05018
  46 6   H  1S          0.05322   0.07392  -0.01732  -0.05250   0.06800
  47        2S          0.71263   0.83465  -0.41976  -1.52801  -0.39105
  48 7   H  1S          0.07160  -0.02780   0.07662   0.01100   0.01933
  49        2S          1.03153  -0.19373   1.65684  -0.18227  -0.10347
  50 8   H  1S          0.08443  -0.06500  -0.04858  -0.00527  -0.03758
  51        2S          1.18616  -0.80248  -1.11519   0.19849   0.64154
  52 9   H  1S          0.05139   0.08259  -0.00524   0.04604  -0.00579
  53        2S          0.69736   0.99881  -0.07168   1.53751  -0.65280
                          26        27        28        29        30
                           V         V         V         V         V
     Eigenvalues --     0.23707   0.34503   0.40017   0.46490   0.69964
   1 1   C  1S         -0.08180   0.06657  -0.02725  -0.12636   0.03028
   2        2S          0.02056  -0.02689  -0.01897   0.03071  -0.01827
   3        2PX         0.01372  -0.11421  -0.10812   0.23485  -0.04773
   4        2PY         0.07374   0.13662  -0.23948  -0.12303   0.07765
   5        2PZ         0.01592   0.00040  -0.00195  -0.00457   0.32823
   6        3S          1.52321  -1.00892   0.87003   2.59947  -0.07940
   7        3PX         0.44134  -0.30991  -0.18621   2.19897  -0.04468
   8        3PY         0.22863   1.36739  -1.60045  -0.91033   0.05769
   9        3PZ         0.07705  -0.00254   0.01490   0.07780  -0.14460
  10 2   C  1S         -0.04594  -0.07548   0.02917   0.09810  -0.01325
  11        2S          0.03961  -0.00347  -0.02502  -0.02848   0.01686
  12        2PX         0.24917   0.07017   0.07806  -0.27779  -0.04281
  13        2PY        -0.07352   0.29251  -0.10727   0.02255   0.13926
  14        2PZ        -0.01272  -0.01486   0.00828   0.01085   0.60065
  15        3S          0.28023   1.33010  -0.91785  -1.69327   0.11408
  16        3PX         0.80824   0.51524   0.73275  -0.99387   0.09687
  17        3PY        -0.39820   1.28026  -1.49432  -1.16232   0.01537
  18        3PZ        -0.03551  -0.05995   0.03602   0.04676  -0.56205
  19 3   O  1S          0.06353   0.06392   0.01472  -0.00506   0.00578
  20        2S         -0.02845  -0.02748  -0.00674   0.00310  -0.02047
  21        2PX         0.21505   0.00671   0.20413  -0.26016  -0.03856
  22        2PY         0.04343  -0.17863   0.05248  -0.06553  -0.06346
  23        2PZ         0.00211   0.00051  -0.00802   0.00199   0.05499
  24        3S         -0.68941  -0.81933  -0.19865   0.06261   0.04364
  25        3PX         0.48017   0.04830   0.56763  -0.56619   0.03628
  26        3PY         0.02724  -0.52858   0.11326  -0.14004  -0.00772
  27        3PZ        -0.00187  -0.00295  -0.01358  -0.00757   0.14423
  28 4   C  1S          0.07785  -0.08046  -0.04896  -0.09034  -0.00989
  29        2S         -0.04908   0.00127   0.00932   0.03867  -0.01875
  30        2PX        -0.02051  -0.22537  -0.07136  -0.22017  -0.02198
  31        2PY        -0.06407   0.12520   0.15382  -0.19062  -0.26876
  32        2PZ         0.00526   0.00564   0.01469   0.00932   0.57462
  33        3S         -1.15111   1.28941   1.27936   1.43970  -0.15544
  34        3PX        -0.04428  -1.23039  -0.76489  -1.48785   0.09525
  35        3PY        -0.43169   0.34635   1.68841   0.25761   0.24905
  36        3PZ         0.01915   0.01754   0.05661   0.00943  -0.53488
[...]
     2  C    0.463348   5.049757   0.291626  -0.153552  -0.133213   0.004838
     3  O   -0.072862   0.291626   8.123993   0.280613  -0.073316   0.002299
     4  C   -0.126255  -0.153552   0.280613   5.069916   0.478931  -0.031667
     5  C    0.432187  -0.133213  -0.073316   0.478931   5.232521   0.382175
     6  H   -0.026021   0.004838   0.002299  -0.031667   0.382175   0.483459
     7  H    0.002214   0.003726  -0.027751   0.387031  -0.035898  -0.000170
     8  H   -0.042259   0.381533  -0.028370   0.004014   0.003153  -0.000030
     9  H    0.388141  -0.023812   0.001800   0.004147  -0.028802  -0.000926
               7          8          9
     1  C    0.002214  -0.042259   0.388141
     2  C    0.003726   0.381533  -0.023812
     3  O   -0.027751  -0.028370   0.001800
     4  C    0.387031   0.004014   0.004147
     5  C   -0.035898   0.003153  -0.028802
     6  H   -0.000170  -0.000030  -0.000926
     7  H    0.451832  -0.000046  -0.000025
     8  H   -0.000046   0.466227  -0.000254
     9  H   -0.000025  -0.000254   0.470905
 Mulliken charges:
               1
     1  C   -0.256790
     2  C    0.115748
     3  O   -0.498031
     4  C    0.086823
     5  C   -0.257740
     6  H    0.186043
     7  H    0.219088
     8  H    0.216033
     9  H    0.188825
 Sum of Mulliken charges =   0.00000
 Mulliken charges with hydrogens summed into heavy atoms:
               1
     1  C   -0.067965
     2  C    0.331781
     3  O   -0.498031
     4  C    0.305911
     5  C   -0.071696
 Electronic spatial extent (au):  <R**2>=            291.9324
 Charge=              0.0000 electrons
 Dipole moment (field-independent basis, Debye):
    X=             -0.1668    Y=              0.5285    Z=             -0.0230  Tot=              0.5546
 Quadrupole moment (field-independent basis, Debye-Ang):
   XX=            -24.0091   YY=            -27.6840   ZZ=            -31.9087
   XY=              1.1460   XZ=             -0.3784   YZ=             -0.2002
 Traceless Quadrupole moment (field-independent basis, Debye-Ang):
   XX=              3.8581   YY=              0.1833   ZZ=             -4.0414
   XY=              1.1460   XZ=             -0.3784   YZ=             -0.2002
 Octapole moment (field-independent basis, Debye-Ang**2):
  XXX=              3.7051  YYY=              0.2928  ZZZ=             -0.1603  XYY=             -2.8090
  XXY=             -2.4095  XXZ=             -0.2483  XZZ=              1.1380  YZZ=             -3.3708
  YYZ=             -0.0185  XYZ=              0.1638
 Hexadecapole moment (field-independent basis, Debye-Ang**3):
 XXXX=           -153.3079 YYYY=           -156.4449 ZZZZ=            -31.2372 XXXY=             -3.8845
 XXXZ=             -1.7875 YYYX=              5.1979 YYYZ=             -0.7557 ZZZX=             -0.4815
 ZZZY=             -0.1015 XXYY=            -49.2298 XXZZ=            -39.1277 YYZZ=            -35.1254
 XXYZ=             -0.2997 YYXZ=             -0.5305 ZZXY=             -1.0869
 N-N= 1.606129222582D+02 E-N=-8.536303046876D+02  KE= 2.268282472753D+02
 Orbital energies and kinetic energies (alpha):
                                 1                 2
   1         O               -19.123377         28.828269
   2         O               -10.181520         15.801498
   3         O               -10.175598         15.800369
   4         O               -10.127284         15.805402
   5         O               -10.125945         15.809061
   6         O                -1.149983          2.567926
   7         O                -0.793754          1.724012
   8         O                -0.754622          1.853247
   9         O                -0.607166          1.658068
  10         O                -0.569013          1.388833
  11         O                -0.545634          1.335785
  12         O                -0.463975          1.567313
  13         O                -0.456319          1.584350
  14         O                -0.417077          1.394191
  15         O                -0.400142          1.529919
  16         O                -0.356673          2.099513
  17         O                -0.273564          1.450435
  18         O                -0.226579          1.215932
  19         V                 0.020676          1.861487
  20         V                 0.069193          1.491592
  21         V                 0.141422          1.141731
  22         V                 0.154644          1.747483
  23         V                 0.177138          1.227454
  24         V                 0.194575          1.252530
  25         V                 0.218559          1.872564
  26         V                 0.237067          1.870540
  27         V                 0.345034          2.061671
  28         V                 0.400170          1.737438
  29         V                 0.464900          2.918325
  30         V                 0.699641          2.546841
  31         V                 0.701328          2.638276
  32         V                 0.702213          2.704823
  33         V                 0.734077          2.567960
  34         V                 0.771470          2.519654
  35         V                 0.784114          2.632681
  36         V                 0.789037          2.617349
  37         V                 0.812370          2.735449
  38         V                 0.835645          2.582073
  39         V                 0.937274          2.845350
  40         V                 0.981476          3.242690
  41         V                 1.014261          3.062077
  42         V                 1.036563          3.090829
  43         V                 1.178376          2.673383
  44         V                 1.217501          2.863634
  45         V                 1.321387          2.521949
  46         V                 1.373635          2.925917
  47         V                 1.500440          4.928954
  48         V                 1.579289          3.455518
  49         V                 1.611564          3.622798
  50         V                 1.728965          4.428786
  51         V                 1.952834          3.984274
  52         V                 2.104349          4.266167
  53         V                 3.221859          6.839217
 Total kinetic energy from orbitals= 2.268282472753D+02
 No NMR shielding tensors so no spin-rotation constants.
 Leave Link  601 at Tue Dec 15 16:11:13 2015, MaxMem=    33554432 cpu:         0.1
 (Enter /home/Applications/g09/g09/l701.exe)
 Compute integral first derivatives.
 ... and contract with generalized density number  6.
 Leave Link  701 at Tue Dec 15 16:11:13 2015, MaxMem=    33554432 cpu:         0.1
 (Enter /home/Applications/g09/g09/l702.exe)
 L702 exits ... SP integral derivatives will be done elsewhere.
 Leave Link  702 at Tue Dec 15 16:11:13 2015, MaxMem=    33554432 cpu:         0.0
 (Enter /home/Applications/g09/g09/l703.exe)
 Compute integral first derivatives, UseDBF=F ICtDFT=           0.
 Integral derivatives from FoFJK, PRISM(SPDF).
 Calling FoFJK, ICntrl=  10005127 FMM=F ISym2X=0 I1Cent= 0 IOpClX= 0 NMat=1 NMatS=1 NMatT=0.
 FoFJK:  IHMeth= 1 ICntrl=10005127 DoSepK=F KAlg= 0 I1Cent=   0 FoldK=F
 IRaf=         0 NMat=   1 IRICut=       1 DoRegI=T DoRafI=F ISym2E= 0.
 FoFCou: FMM=F IPFlag=           0 FMFlag=      100000 FMFlg1=         800
         NFxFlg=           0 DoJE=F BraDBF=F KetDBF=F FulRan=T
         wScrn=  0.000000 ICntrl=10005127 IOpCl=  0 I1Cent=           0 NGrid=           0
         NMat0=    1 NMatS0=      1 NMatT0=    0 NMatD0=    1 NMtDS0=    0 NMtDT0=    0
 Symmetry not used in FoFCou.
 Leave Link  703 at Tue Dec 15 16:11:15 2015, MaxMem=    33554432 cpu:         1.6
 (Enter /home/Applications/g09/g09/l716.exe)
 Dipole        = 1.46909959D-02 3.24702907D-01-1.62579533D-02
 ***** Axes restored to original set *****
 -------------------------------------------------------------------
 Center     Atomic                   Forces (Hartrees/Bohr)
 Number     Number              X              Y              Z
 -------------------------------------------------------------------
      1        6           0.019158551    0.006591085    0.000333019
      2        6           0.008641440   -0.103728170    0.001349492
      3        8          -0.081647757    0.015571133    0.001944254
      4        6          -0.009932354    0.051652968   -0.002626103
      5        6           0.044911474    0.021348077   -0.001721864
      6        1           0.010997840    0.004448095    0.000089409
      7        1          -0.002769605    0.005621652    0.000507353
      8        1          -0.002081915    0.012977266    0.000438351
      9        1           0.012722325   -0.014482106   -0.000313911
 -------------------------------------------------------------------
 Cartesian Forces:  Max     0.103728170 RMS     0.029897016
 Z-matrix is all fixed cartesians, so copy forces.
 Force constants in Cartesian coordinates: 
                1             2             3             4             5 
      1  0.869586D+00
      2 -0.778916D-01  0.747957D+00
      3 -0.486393D-02 -0.176706D-01  0.181806D+00
      4 -0.427311D+00 -0.738935D-01 -0.558264D-03  0.869133D+00
      5 -0.515609D-01 -0.190403D+00  0.375200D-04 -0.651781D-01  0.935519D+00
      6 -0.469410D-02 -0.914271D-03 -0.864746D-01  0.371271D-02  0.104363D-01
      7 -0.731443D-02  0.297517D-01  0.287413D-03 -0.322750D+00  0.205402D+00
      8 -0.523620D-02  0.212870D-01  0.783961D-04  0.250735D+00 -0.447604D+00
      9 -0.290696D-03  0.281246D-03  0.936730D-02  0.139818D-02 -0.906761D-03
     10  0.960300D-02  0.200714D-03 -0.227023D-03  0.263029D-01  0.188310D-01
     11  0.330940D-01  0.676939D-03 -0.358300D-03 -0.182820D-01 -0.131025D-01
     12 -0.280151D-02  0.150374D-03 -0.174178D-02 -0.248597D-03 -0.341327D-03
     13 -0.161805D+00  0.142734D-01 -0.269361D-03  0.812873D-02 -0.331611D-01
     14 -0.571165D-02 -0.378773D+00  0.218049D-01  0.163936D-03 -0.705465D-03
     15  0.150978D-03  0.212044D-01 -0.736313D-01 -0.162148D-03 -0.271462D-03
     16  0.184315D-01  0.410853D-03  0.436165D-03  0.487960D-05 -0.157442D-04
     17 -0.222017D-01 -0.528175D-03 -0.107359D-02 -0.378493D-05  0.122122D-04
     18  0.290608D-02  0.109513D-02  0.170401D-01 -0.640190D-04  0.206560D-03
     19  0.000000D+00 -0.118499D-05 -0.192828D-04  0.281163D-04  0.168810D-04
     20 -0.143495D-04 -0.247917D-04 -0.403424D-03 -0.416516D-05 -0.250075D-05
     21  0.198310D-03  0.342622D-03  0.557533D-02  0.262139D-03  0.157388D-03
     22  0.637316D-02 -0.259292D-01 -0.106447D-02 -0.149366D+00 -0.912995D-01
     23 -0.281169D-02  0.114519D-01 -0.323992D-03 -0.876151D-01 -0.307817D+00
     24  0.443845D-04 -0.524322D-03  0.217622D-01 -0.419635D-02 -0.956703D-02
     25 -0.307562D+00  0.133079D+00  0.627876D-02 -0.417070D-02  0.169659D-01
     26  0.132334D+00 -0.211645D+00 -0.209091D-02 -0.592231D-02  0.241025D-01
     27  0.935048D-02 -0.396455D-02 -0.737029D-01 -0.143650D-03  0.248772D-03
                6             7             8             9            10 
      6  0.170524D+00
      7  0.349635D-02  0.584975D+00
      8 -0.310179D-02 -0.276369D-01  0.833254D+00
      9 -0.499466D-01 -0.210072D-01 -0.168444D-01  0.627375D-01
     10 -0.231442D-02 -0.292179D+00 -0.224541D+00  0.208909D-01  0.872282D+00
     11  0.148601D-02 -0.179576D+00 -0.411895D+00  0.193003D-01  0.332478D-02
     12 -0.106597D-02  0.170277D-01  0.190941D-01 -0.501313D-01 -0.342567D-01
     13  0.258183D-02 -0.853362D-02  0.595624D-02  0.567380D-03 -0.439766D+00
     14  0.115808D-03 -0.293811D-01  0.204661D-01  0.797559D-03  0.899866D-01
     15 -0.531022D-03  0.204504D-02 -0.666317D-03  0.922416D-02  0.287067D-02
     16 -0.261005D-03  0.000000D+00  0.125710D-05  0.326160D-04 -0.544367D-02
     17  0.202452D-03 -0.612513D-05 -0.817246D-05 -0.212038D-03  0.652018D-02
     18  0.342430D-02  0.154635D-03  0.206322D-03  0.535312D-02  0.286809D-03
     19  0.621253D-03  0.226167D-01 -0.158652D-01 -0.267651D-02 -0.170800D+00
     20 -0.920326D-04  0.116599D-01 -0.819466D-02 -0.164340D-02  0.105677D+00
     21  0.579219D-02 -0.176297D-02  0.145547D-02  0.394183D-02  0.123325D-01
     22 -0.400357D-02  0.231837D-01  0.165869D-01  0.106676D-02 -0.793941D-05
     23 -0.863967D-02 -0.102139D-01 -0.730690D-02 -0.606356D-03 -0.721624D-05
     24 -0.630042D-01 -0.228273D-03 -0.182841D-03  0.373053D-02  0.293975D-03
     25  0.860952D-03  0.000000D+00  0.000000D+00  0.186233D-04  0.831499D-05
     26  0.507152D-03  0.000000D+00  0.112991D-05 -0.166192D-03  0.766376D-05
     27  0.212821D-01 -0.126404D-04 -0.389128D-04  0.572344D-02  0.123376D-03
               11            12            13            14            15 
     11  0.924892D+00
     12 -0.147661D-02  0.181128D+00
     13  0.687785D-01  0.102070D-01  0.849658D+00
     14 -0.201363D+00 -0.162430D-02  0.504670D-01  0.772780D+00
     15  0.857107D-03 -0.887512D-01 -0.830267D-03 -0.167422D-01  0.179659D+00
     16 -0.186099D-01 -0.899482D-03 -0.271995D+00 -0.131606D+00 -0.614754D-02
     17  0.223316D-01  0.392223D-03 -0.134075D+00 -0.226014D+00 -0.273872D-02
     18 -0.302737D-03  0.212577D-01 -0.940993D-02 -0.490606D-02 -0.709694D-01
     19  0.111261D+00  0.109133D-01  0.755089D-02  0.257478D-01  0.233737D-02
     20 -0.321549D+00 -0.162504D-01  0.383503D-02  0.131791D-01 -0.498229D-03
     21 -0.198955D-01 -0.706599D-01  0.230081D-03 -0.659817D-03  0.239449D-01
     22 -0.476680D-05 -0.175428D-03  0.000000D+00  0.155204D-05  0.257294D-04
     23 -0.433262D-05 -0.159449D-03  0.329259D-05 -0.106237D-04 -0.176117D-03
     24  0.176502D-03  0.649562D-02 -0.845008D-04  0.272645D-03  0.451985D-02
     25  0.143659D-04  0.233770D-03  0.167625D-01  0.331970D-03 -0.289830D-03
     26  0.132408D-04  0.215461D-03  0.239225D-01  0.440085D-03 -0.968459D-03
     27  0.213159D-03  0.346863D-02 -0.299225D-02  0.941436D-03  0.165345D-01
               16            17            18            19            20 
     16  0.258973D+00
     17  0.149790D+00  0.204252D+00
     18  0.646993D-02  0.340966D-02  0.382276D-01
     19  0.000000D+00 -0.120361D-05  0.303865D-04  0.140605D+00
     20  0.387342D-05 -0.251813D-04  0.635728D-03 -0.121158D+00  0.316617D+00
     21 -0.535308D-04  0.348006D-03 -0.878577D-02 -0.112065D-01  0.182518D-01
     22  0.000000D+00  0.000000D+00  0.000000D+00  0.000000D+00  0.000000D+00
     23  0.000000D+00  0.000000D+00  0.000000D+00  0.000000D+00  0.000000D+00
     24  0.000000D+00  0.000000D+00  0.000000D+00  0.000000D+00  0.000000D+00
     25  0.284981D-04 -0.221050D-04 -0.373887D-03  0.000000D+00  0.000000D+00
     26  0.262662D-04 -0.203737D-04 -0.344605D-03  0.000000D+00  0.000000D+00
     27  0.422850D-03 -0.327989D-03 -0.554767D-02  0.000000D+00  0.000000D+00
               21            22            23            24            25 
     21  0.401914D-01
     22  0.000000D+00  0.119818D+00
     23  0.000000D+00  0.100644D+00  0.303696D+00
     24  0.000000D+00  0.419716D-02  0.958950D-02  0.346081D-01
     25  0.000000D+00  0.000000D+00  0.102850D-05 -0.263954D-04  0.294933D+00
     26  0.000000D+00  0.134087D-05 -0.917820D-05  0.235549D-03 -0.150370D+00
     27  0.000000D+00 -0.461780D-04  0.316086D-03 -0.811203D-02 -0.670199D-02
               26            27 
     26  0.187117D+00
     27  0.261200D-02  0.403539D-01
 Leave Link  716 at Tue Dec 15 16:11:15 2015, MaxMem=    33554432 cpu:         0.0
 (Enter /home/Applications/g09/g09/l103.exe)

 GradGradGradGradGradGradGradGradGradGradGradGradGradGradGradGradGradGrad
 Berny optimization.
 Search for a local minimum.
 Step number   1 out of a maximum of    2
 All quantities printed in internal units (Hartrees-Bohrs-Radians)
 Second derivative matrix not updated -- first step.
 ITU=  0
     Eigenvalues ---    0.01552   0.03056   0.07207   0.07322   0.07729
     Eigenvalues ---    0.07954   0.12113   0.12874   0.16306   0.23420
     Eigenvalues ---    0.25877   0.27416   0.34331   0.42324   0.62911
     Eigenvalues ---    0.86116   1.14153   1.34344   1.39926   1.43920
     Eigenvalues ---    1.68107
 Quadratic step=3.180D-01 exceeds max=3.000D-01 adjusted using Lamda=-1.020D-02.
 Angle between NR and scaled steps=   4.39 degrees.
 Angle between quadratic step and forces=  45.04 degrees.
 Linear search not attempted -- first point.
 TrRot= -0.007170 -0.001558 -0.001747  0.184973 -0.000905 -0.182809
 Variable       Old X    -DE/DX   Delta X   Delta X   Delta X     New X
                                 (Linear)    (Quad)   (Total)
    X1        1.86787   0.01916   0.00000   0.04398   0.03971   1.90759
    Y1       -1.36005   0.00659   0.00000  -0.01012  -0.00755  -1.36760
    Z1        0.07211   0.00033   0.00000  -0.01129  -0.01157   0.06054
    X2       -0.71637   0.00864   0.00000  -0.02529  -0.02795  -0.74432
    Y2       -1.99483  -0.10373   0.00000  -0.11963  -0.12280  -2.11763
    Z2        0.06209   0.00135   0.00000   0.01343   0.01067   0.07276
    X3       -2.16728  -0.08165   0.00000  -0.09511  -0.10237  -2.26965
    Y3        0.03244   0.01557   0.00000  -0.01458  -0.02105   0.01140
    Z3        0.07267   0.00194   0.00000  -0.00940  -0.01315   0.05951
    X4       -0.72036  -0.00993   0.00000  -0.02676  -0.03861  -0.75897
    Y4        2.11571   0.05165   0.00000   0.07008   0.06691   2.18262
    Z4       -0.04943  -0.00263   0.00000  -0.00419  -0.00624  -0.05567
    X5        1.81078   0.04491   0.00000   0.08290   0.07266   1.88345
    Y5        1.37747   0.02135   0.00000   0.07405   0.07660   1.45407
    Z5       -0.09409  -0.00172   0.00000   0.00544   0.00561  -0.08848
    X6        3.35032   0.01100   0.00000   0.13052   0.11750   3.46782
    Y6        2.66100   0.00445   0.00000   0.05706   0.06303   2.72403
    Z6       -0.05263   0.00009   0.00000   0.01334   0.01514  -0.03749
    X7       -1.63231  -0.00277   0.00000  -0.04064  -0.05649  -1.68880
    Y7        3.90370   0.00562   0.00000   0.07867   0.07347   3.97717
    Z7        0.07680   0.00051   0.00000  -0.00086  -0.00344   0.07336
    X8       -1.54673  -0.00208   0.00000  -0.06437  -0.06302  -1.60976
    Y8       -3.87806   0.01298   0.00000  -0.06534  -0.07037  -3.94844
    Z8       -0.00657   0.00044   0.00000   0.02369   0.01986   0.01329
    X9        3.48793   0.01272   0.00000   0.06022   0.05857   3.54650
    Y9       -2.50002  -0.01448   0.00000  -0.06436  -0.05824  -2.55826
    Z9        0.03374  -0.00031   0.00000  -0.01788  -0.01689   0.01685
         Item               Value     Threshold  Converged?
 Maximum Force            0.103728     0.000450     NO 
 RMS     Force            0.029897     0.000300     NO 
 Maximum Displacement     0.122803     0.001800     NO 
 RMS     Displacement     0.057433     0.001200     NO 
 Predicted change in Energy=-1.692774D-02
 GradGradGradGradGradGradGradGradGradGradGradGradGradGradGradGradGradGrad

 Leave Link  103 at Tue Dec 15 16:11:15 2015, MaxMem=    33554432 cpu:         0.0
 (Enter /home/Applications/g09/g09/l9999.exe)
 1\1\GINC-DUSTIN-DESKTOP\Force\RB3LYP-FC\3-21G\C4H4O1\DUSTIN\15-Dec-201
 5\0\\#P B3LYP/3-21G CIS(Singlets,NStates=15) pop(full) force\\FuranDFT
 \\0,1\C,0.988436,-0.719709,0.038159\C,-0.379087,-1.055616,0.032855\O,-
 1.146877,0.017168,0.038453\C,-0.381199,1.119586,-0.026155\C,0.958226,0
 .728928,-0.04979\H,1.772915,1.408143,-0.02785\H,-0.863781,2.065747,0.0
 40639\H,-0.818496,-2.052182,-0.003475\H,1.845733,-1.322956,0.017853\\V
 ersion=ES64L-G09RevD.01\State=1-A\HF=-228.7412795\RMSD=3.037e-09\RMSF=
 2.990e-02\Dipole=0.3028439,0.1188213,0.008898\PG=C01 [X(C4H4O1)]\\@


 MY DESCRIPTION OF EXPERIENCE IS NOT WHAT HAPPENS
 TO A MAN.  EXPERIENCE IS WHAT A MAN DOES WITH WHAT
 HAPPENS TO HIM.
                         - CHUCK KNOX, SEATTLE SEAHAWKS, 1985
 Job cpu time:       0 days  0 hours  0 minutes 42.3 seconds.
 File lengths (MBytes):  RWF=     14 Int=      0 D2E=      0 Chk=      3 Scr=      1
 Normal termination of Gaussian 09 at Tue Dec 15 16:11:15 2015.
