 Entering Gaussian System, Link 0=g09
 Input=FuranDFT_51.com
 Output=FuranDFT_51.log
 Initial command:
 /home/Applications/g09/g09/l1.exe "/home/Applications/g09/scratch/Gau-5967.inp" -scrdir="/home/Applications/g09/scratch/"
 Entering Link 1 = /home/Applications/g09/g09/l1.exe PID=      5969.
  
 Copyright (c) 1988,1990,1992,1993,1995,1998,2003,2009,2013,
            Gaussian, Inc.  All Rights Reserved.
  
 This is part of the Gaussian(R) 09 program.  It is based on
 the Gaussian(R) 03 system (copyright 2003, Gaussian, Inc.),
 the Gaussian(R) 98 system (copyright 1998, Gaussian, Inc.),
 the Gaussian(R) 94 system (copyright 1995, Gaussian, Inc.),
 the Gaussian 92(TM) system (copyright 1992, Gaussian, Inc.),
 the Gaussian 90(TM) system (copyright 1990, Gaussian, Inc.),
 the Gaussian 88(TM) system (copyright 1988, Gaussian, Inc.),
 the Gaussian 86(TM) system (copyright 1986, Carnegie Mellon
 University), and the Gaussian 82(TM) system (copyright 1983,
 Carnegie Mellon University). Gaussian is a federally registered
 trademark of Gaussian, Inc.
  
 This software contains proprietary and confidential information,
 including trade secrets, belonging to Gaussian, Inc.
  
 This software is provided under written license and may be
 used, copied, transmitted, or stored only in accord with that
 written license.
  
 The following legend is applicable only to US Government
 contracts under FAR:
  
                    RESTRICTED RIGHTS LEGEND
  
 Use, reproduction and disclosure by the US Government is
 subject to restrictions as set forth in subparagraphs (a)
 and (c) of the Commercial Computer Software - Restricted
 Rights clause in FAR 52.227-19.
  
 Gaussian, Inc.
 340 Quinnipiac St., Bldg. 40, Wallingford CT 06492
  
  
 ---------------------------------------------------------------
 Warning -- This program may not be used in any manner that
 competes with the business of Gaussian, Inc. or will provide
 assistance to any competitor of Gaussian, Inc.  The licensee
 of this program is prohibited from giving any competitor of
 Gaussian, Inc. access to this program.  By using this program,
 the user acknowledges that Gaussian, Inc. is engaged in the
 business of creating and licensing software in the field of
 computational chemistry and represents and warrants to the
 licensee that it is not a competitor of Gaussian, Inc. and that
 it will not use this program in any manner prohibited above.
 ---------------------------------------------------------------
  

 Cite this work as:
 Gaussian 09, Revision D.01,
 M. J. Frisch, G. W. Trucks, H. B. Schlegel, G. E. Scuseria, 
 M. A. Robb, J. R. Cheeseman, G. Scalmani, V. Barone, B. Mennucci, 
 G. A. Petersson, H. Nakatsuji, M. Caricato, X. Li, H. P. Hratchian, 
 A. F. Izmaylov, J. Bloino, G. Zheng, J. L. Sonnenberg, M. Hada, 
 M. Ehara, K. Toyota, R. Fukuda, J. Hasegawa, M. Ishida, T. Nakajima, 
 Y. Honda, O. Kitao, H. Nakai, T. Vreven, J. A. Montgomery, Jr., 
 J. E. Peralta, F. Ogliaro, M. Bearpark, J. J. Heyd, E. Brothers, 
 K. N. Kudin, V. N. Staroverov, T. Keith, R. Kobayashi, J. Normand, 
 K. Raghavachari, A. Rendell, J. C. Burant, S. S. Iyengar, J. Tomasi, 
 M. Cossi, N. Rega, J. M. Millam, M. Klene, J. E. Knox, J. B. Cross, 
 V. Bakken, C. Adamo, J. Jaramillo, R. Gomperts, R. E. Stratmann, 
 O. Yazyev, A. J. Austin, R. Cammi, C. Pomelli, J. W. Ochterski, 
 R. L. Martin, K. Morokuma, V. G. Zakrzewski, G. A. Voth, 
 P. Salvador, J. J. Dannenberg, S. Dapprich, A. D. Daniels, 
 O. Farkas, J. B. Foresman, J. V. Ortiz, J. Cioslowski, 
 and D. J. Fox, Gaussian, Inc., Wallingford CT, 2013.
 
 ******************************************
 Gaussian 09:  ES64L-G09RevD.01 24-Apr-2013
                15-Dec-2015 
 ******************************************
 -------------------------------------------------------
 #P B3LYP/3-21G CIS(Singlets,NStates=15) pop(full) force
 -------------------------------------------------------
 1/10=7,30=1,38=1/1,3;
 2/12=2,17=6,18=5,40=1/2;
 3/5=5,11=9,16=1,25=1,30=1,71=1,74=-5/1,2,8,3;
 4//1;
 5/5=2,38=5/2;
 8/6=1,10=1,108=15/1;
 9/15=2,41=15,42=1,48=1/14;
 10/5=4/2;
 6/7=3,18=1/1;
 7/12=6,13=5,29=1/1,2,3,16;
 1/10=7,30=1/3;
 99//99;
 Leave Link    1 at Tue Dec 15 16:20:35 2015, MaxMem=           0 cpu:         0.0
 (Enter /home/Applications/g09/g09/l101.exe)
 --------
 FuranDFT
 --------
 Symbolic Z-matrix:
 Charge =  0 Multiplicity = 1
 6                     0.94624  -0.68961  -0.01773 
 6                    -0.35223  -1.12109  -0.01978 
 8                    -1.15973  -0.02387  -0.00077 
 6                    -0.35883   1.11171   0.02198 
 6                     0.93537   0.67422   0.0421 
 1                     1.7877    1.39691  -0.04143 
 1                    -0.8563    2.04772  -0.03388 
 1                    -0.82573  -2.01944   0.00876 
 1                     1.80488  -1.32415  -0.01149 
 
 NAtoms=      9 NQM=        9 NQMF=       0 NMMI=      0 NMMIF=      0
                NMic=       0 NMicF=      0.
                    Isotopes and Nuclear Properties:
 (Nuclear quadrupole moments (NQMom) in fm**2, nuclear magnetic moments (NMagM)
  in nuclear magnetons)

  Atom         1           2           3           4           5           6           7           8           9
 IAtWgt=          12          12          16          12          12           1           1           1           1
 AtmWgt=  12.0000000  12.0000000  15.9949146  12.0000000  12.0000000   1.0078250   1.0078250   1.0078250   1.0078250
 NucSpn=           0           0           0           0           0           1           1           1           1
 AtZEff=   0.0000000   0.0000000   0.0000000   0.0000000   0.0000000   0.0000000   0.0000000   0.0000000   0.0000000
 NQMom=    0.0000000   0.0000000   0.0000000   0.0000000   0.0000000   0.0000000   0.0000000   0.0000000   0.0000000
 NMagM=    0.0000000   0.0000000   0.0000000   0.0000000   0.0000000   2.7928460   2.7928460   2.7928460   2.7928460
 AtZNuc=   6.0000000   6.0000000   8.0000000   6.0000000   6.0000000   1.0000000   1.0000000   1.0000000   1.0000000
 Leave Link  101 at Tue Dec 15 16:20:35 2015, MaxMem=    33554432 cpu:         0.0
 (Enter /home/Applications/g09/g09/l103.exe)

 GradGradGradGradGradGradGradGradGradGradGradGradGradGradGradGradGradGrad
 Berny optimization.
 Initialization pass.
 Trust Radius=3.00D-01 FncErr=1.00D-07 GrdErr=1.00D-07
 Number of steps in this run=      2 maximum allowed number of steps=      2.
 GradGradGradGradGradGradGradGradGradGradGradGradGradGradGradGradGradGrad

 Leave Link  103 at Tue Dec 15 16:20:35 2015, MaxMem=    33554432 cpu:         0.0
 (Enter /home/Applications/g09/g09/l202.exe)
                          Input orientation:                          
 ---------------------------------------------------------------------
 Center     Atomic      Atomic             Coordinates (Angstroms)
 Number     Number       Type             X           Y           Z
 ---------------------------------------------------------------------
      1          6           0        0.946236   -0.689605   -0.017728
      2          6           0       -0.352226   -1.121095   -0.019783
      3          8           0       -1.159732   -0.023870   -0.000766
      4          6           0       -0.358829    1.111714    0.021980
      5          6           0        0.935368    0.674223    0.042098
      6          1           0        1.787698    1.396909   -0.041427
      7          1           0       -0.856297    2.047721   -0.033876
      8          1           0       -0.825732   -2.019437    0.008761
      9          1           0        1.804881   -1.324153   -0.011485
 ---------------------------------------------------------------------
                    Distance matrix (angstroms):
                    1          2          3          4          5
     1  C    0.000000
     2  C    1.368280   0.000000
     3  O    2.208753   1.362472   0.000000
     4  C    2.224752   2.233209   1.389789   0.000000
     5  C    1.365183   2.210180   2.208759   1.366290   0.000000
     6  H    2.249925   3.304556   3.272248   2.166318   1.120588
     7  H    3.277551   3.208688   2.093958   1.061463   2.258834
     8  H    2.215632   1.015894   2.023347   3.165798   3.218445
     9  H    1.067690   2.166659   3.237249   3.258252   2.180007
                    6          7          8          9
     6  H    0.000000
     7  H    2.722925   0.000000
     8  H    4.301622   4.067496   0.000000
     9  H    2.721281   4.295568   2.721021   0.000000
 Stoichiometry    C4H4O
 Framework group  C1[X(C4H4O)]
 Deg. of freedom    21
 Full point group                 C1      NOp   1
 Largest Abelian subgroup         C1      NOp   1
 Largest concise Abelian subgroup C1      NOp   1
                         Standard orientation:                         
 ---------------------------------------------------------------------
 Center     Atomic      Atomic             Coordinates (Angstroms)
 Number     Number       Type             X           Y           Z
 ---------------------------------------------------------------------
      1          6           0       -0.635852    0.987878    0.013521
      2          6           0       -1.130008   -0.288040    0.007647
      3          8           0       -0.073227   -1.147976    0.000258
      4          6           0        1.100177   -0.403273   -0.007055
      5          6           0        0.726460    0.910716   -0.029787
      6          1           0        1.488692    1.726728    0.064265
      7          1           0        2.010116   -0.945801    0.059112
      8          1           0       -2.049912   -0.717208   -0.032770
      9          1           0       -1.227742    1.876404    0.001369
 ---------------------------------------------------------------------
 Rotational constants (GHZ):      9.5087289      9.4144481      4.7325556
 Leave Link  202 at Tue Dec 15 16:20:35 2015, MaxMem=    33554432 cpu:         0.0
 (Enter /home/Applications/g09/g09/l301.exe)
 Standard basis: 3-21G (6D, 7F)
 Ernie: Thresh=  0.10000D-02 Tol=  0.10000D-05 Strict=F.
 There are    53 symmetry adapted cartesian basis functions of A   symmetry.
 There are    53 symmetry adapted basis functions of A   symmetry.
    53 basis functions,    87 primitive gaussians,    53 cartesian basis functions
    18 alpha electrons       18 beta electrons
       nuclear repulsion energy       161.5717025327 Hartrees.
 IExCor=  402 DFT=T Ex+Corr=B3LYP ExCW=0 ScaHFX=  0.200000
 ScaDFX=  0.800000  0.720000  1.000000  0.810000 ScalE2=  1.000000  1.000000
 IRadAn=      0 IRanWt=     -1 IRanGd=            0 ICorTp=0 IEmpDi=  4
 NAtoms=    9 NActive=    9 NUniq=    9 SFac= 1.00D+00 NAtFMM=   60 NAOKFM=F Big=F
 Integral buffers will be    131072 words long.
 Regular integral format.
 Two-electron integral symmetry is turned on.
 Leave Link  301 at Tue Dec 15 16:20:35 2015, MaxMem=    33554432 cpu:         0.0
 (Enter /home/Applications/g09/g09/l302.exe)
 NPDir=0 NMtPBC=     1 NCelOv=     1 NCel=       1 NClECP=     1 NCelD=      1
         NCelK=      1 NCelE2=     1 NClLst=     1 CellRange=     0.0.
 One-electron integrals computed using PRISM.
 NBasis=    53 RedAO= T EigKep=  2.98D-03  NBF=    53
 NBsUse=    53 1.00D-06 EigRej= -1.00D+00 NBFU=    53
 Precomputing XC quadrature grid using
 IXCGrd= 4 IRadAn=           0 IRanWt=          -1 IRanGd=           0 AccXCQ= 0.00D+00.
 Generated NRdTot=       0 NPtTot=           0 NUsed=           0 NTot=          32
 NSgBfM=    53    53    53    53    53 MxSgAt=     9 MxSgA2=     9.
 Leave Link  302 at Tue Dec 15 16:20:35 2015, MaxMem=    33554432 cpu:         0.1
 (Enter /home/Applications/g09/g09/l308.exe)
 Leave Link  308 at Tue Dec 15 16:20:35 2015, MaxMem=    33554432 cpu:         0.0
 (Enter /home/Applications/g09/g09/l303.exe)
 DipDrv:  MaxL=1.
 Leave Link  303 at Tue Dec 15 16:20:35 2015, MaxMem=    33554432 cpu:         0.0
 (Enter /home/Applications/g09/g09/l401.exe)
 ExpMin= 1.83D-01 ExpMax= 3.22D+02 ExpMxC= 3.22D+02 IAcc=1 IRadAn=         1 AccDes= 0.00D+00
 Harris functional with IExCor=  402 and IRadAn=       1 diagonalized for initial guess.
 HarFok:  IExCor=  402 AccDes= 0.00D+00 IRadAn=         1 IDoV= 1 UseB2=F ITyADJ=14
 ICtDFT=  3500011 ScaDFX=  1.000000  1.000000  1.000000  1.000000
 FoFCou: FMM=F IPFlag=           0 FMFlag=      100000 FMFlg1=           0
         NFxFlg=           0 DoJE=T BraDBF=F KetDBF=T FulRan=T
         wScrn=  0.000000 ICntrl=     500 IOpCl=  0 I1Cent=   200000004 NGrid=           0
         NMat0=    1 NMatS0=      1 NMatT0=    0 NMatD0=    1 NMtDS0=    0 NMtDT0=    0
 Petite list used in FoFCou.
 Harris En= -228.736303038896    
 JPrj=0 DoOrth=F DoCkMO=F.
 Leave Link  401 at Tue Dec 15 16:20:35 2015, MaxMem=    33554432 cpu:         0.2
 (Enter /home/Applications/g09/g09/l502.exe)
 Closed shell SCF:
 Using DIIS extrapolation, IDIIS=  1040.
 Integral symmetry usage will be decided dynamically.
 Keep R1 ints in memory in canonical form, NReq=1925595.
 IVT=       27707 IEndB=       27707 NGot=    33554432 MDV=    32502130
 LenX=    32502130 LenY=    32498880
 Requested convergence on RMS density matrix=1.00D-08 within 128 cycles.
 Requested convergence on MAX density matrix=1.00D-06.
 Requested convergence on             energy=1.00D-06.
 No special actions if energy rises.
 FoFCou: FMM=F IPFlag=           0 FMFlag=           0 FMFlg1=           0
         NFxFlg=           0 DoJE=F BraDBF=F KetDBF=F FulRan=T
         wScrn=  0.000000 ICntrl=     600 IOpCl=  0 I1Cent=           0 NGrid=           0
         NMat0=    1 NMatS0=   1431 NMatT0=    0 NMatD0=    1 NMtDS0=    0 NMtDT0=    0
 Symmetry not used in FoFCou.
 Integral accuracy reduced to 1.0D-05 until final iterations.

 Cycle   1  Pass 0  IDiag  1:
 E= -228.656546985834    
 DIIS: error= 3.45D-02 at cycle   1 NSaved=   1.
 NSaved= 1 IEnMin= 1 EnMin= -228.656546985834     IErMin= 1 ErrMin= 3.45D-02
 ErrMax= 3.45D-02  0.00D+00 EMaxC= 1.00D-01 BMatC= 8.18D-02 BMatP= 8.18D-02
 IDIUse=3 WtCom= 6.55D-01 WtEn= 3.45D-01
 Coeff-Com:  0.100D+01
 Coeff-En:   0.100D+01
 Coeff:      0.100D+01
 Gap=     0.219 Goal=   None    Shift=    0.000
 GapD=    0.219 DampG=1.000 DampE=0.500 DampFc=0.5000 IDamp=-1.
 Damping current iteration by 5.00D-01
 RMSDP=1.24D-02 MaxDP=1.19D-01              OVMax= 2.13D-01

 Cycle   2  Pass 0  IDiag  1:
 E= -228.688335388655     Delta-E=       -0.031788402821 Rises=F Damp=T
 DIIS: error= 1.47D-02 at cycle   2 NSaved=   2.
 NSaved= 2 IEnMin= 2 EnMin= -228.688335388655     IErMin= 2 ErrMin= 1.47D-02
 ErrMax= 1.47D-02  0.00D+00 EMaxC= 1.00D-01 BMatC= 9.86D-03 BMatP= 8.18D-02
 IDIUse=3 WtCom= 8.53D-01 WtEn= 1.47D-01
 Coeff-Com:  0.128D+00 0.872D+00
 Coeff-En:   0.224D+00 0.776D+00
 Coeff:      0.142D+00 0.858D+00
 Gap=     0.236 Goal=   None    Shift=    0.000
 RMSDP=4.45D-03 MaxDP=3.77D-02 DE=-3.18D-02 OVMax= 1.79D-01

 Cycle   3  Pass 0  IDiag  1:
 E= -228.731943220761     Delta-E=       -0.043607832106 Rises=F Damp=F
 DIIS: error= 1.94D-02 at cycle   3 NSaved=   3.
 NSaved= 3 IEnMin= 3 EnMin= -228.731943220761     IErMin= 2 ErrMin= 1.47D-02
 ErrMax= 1.94D-02  0.00D+00 EMaxC= 1.00D-01 BMatC= 1.13D-02 BMatP= 9.86D-03
 IDIUse=2 WtCom= 0.00D+00 WtEn= 1.00D+00
 Coeff-En:   0.000D+00 0.000D+00 0.100D+01
 Coeff:      0.000D+00 0.000D+00 0.100D+01
 Gap=     0.229 Goal=   None    Shift=    0.000
 RMSDP=5.69D-03 MaxDP=4.62D-02 DE=-4.36D-02 OVMax= 1.22D-01

 Cycle   4  Pass 0  IDiag  1:
 E= -228.704511825101     Delta-E=        0.027431395660 Rises=F Damp=F
 DIIS: error= 3.95D-02 at cycle   4 NSaved=   4.
 NSaved= 4 IEnMin= 3 EnMin= -228.731943220761     IErMin= 2 ErrMin= 1.47D-02
 ErrMax= 3.95D-02  0.00D+00 EMaxC= 1.00D-01 BMatC= 4.24D-02 BMatP= 9.86D-03
 IDIUse=2 WtCom= 0.00D+00 WtEn= 1.00D+00
 Coeff-En:   0.000D+00 0.000D+00 0.742D+00 0.258D+00
 Coeff:      0.000D+00 0.000D+00 0.742D+00 0.258D+00
 Gap=     0.239 Goal=   None    Shift=    0.000
 RMSDP=2.86D-03 MaxDP=2.36D-02 DE= 2.74D-02 OVMax= 6.80D-02

 Cycle   5  Pass 0  IDiag  1:
 E= -228.740176093832     Delta-E=       -0.035664268732 Rises=F Damp=F
 DIIS: error= 8.59D-03 at cycle   5 NSaved=   5.
 NSaved= 5 IEnMin= 5 EnMin= -228.740176093832     IErMin= 5 ErrMin= 8.59D-03
 ErrMax= 8.59D-03  0.00D+00 EMaxC= 1.00D-01 BMatC= 2.14D-03 BMatP= 9.86D-03
 IDIUse=3 WtCom= 9.14D-01 WtEn= 8.59D-02
 Coeff-Com: -0.521D-02 0.210D-01 0.252D+00-0.584D-01 0.791D+00
 Coeff-En:   0.000D+00 0.000D+00 0.193D+00 0.000D+00 0.807D+00
 Coeff:     -0.476D-02 0.192D-01 0.247D+00-0.533D-01 0.792D+00
 Gap=     0.243 Goal=   None    Shift=    0.000
 RMSDP=9.35D-04 MaxDP=7.24D-03 DE=-3.57D-02 OVMax= 2.02D-02

 Cycle   6  Pass 0  IDiag  1:
 E= -228.742100476708     Delta-E=       -0.001924382875 Rises=F Damp=F
 DIIS: error= 4.90D-04 at cycle   6 NSaved=   6.
 NSaved= 6 IEnMin= 6 EnMin= -228.742100476708     IErMin= 6 ErrMin= 4.90D-04
 ErrMax= 4.90D-04  0.00D+00 EMaxC= 1.00D-01 BMatC= 1.02D-05 BMatP= 2.14D-03
 IDIUse=3 WtCom= 9.95D-01 WtEn= 4.90D-03
 Coeff-Com: -0.517D-02 0.106D-01 0.377D-01-0.349D-01 0.262D+00 0.730D+00
 Coeff-En:   0.000D+00 0.000D+00 0.000D+00 0.000D+00 0.000D+00 0.100D+01
 Coeff:     -0.514D-02 0.106D-01 0.375D-01-0.348D-01 0.260D+00 0.731D+00
 Gap=     0.244 Goal=   None    Shift=    0.000
 RMSDP=7.06D-05 MaxDP=6.28D-04 DE=-1.92D-03 OVMax= 1.42D-03

 Cycle   7  Pass 0  IDiag  1:
 E= -228.742110850834     Delta-E=       -0.000010374126 Rises=F Damp=F
 DIIS: error= 1.02D-04 at cycle   7 NSaved=   7.
 NSaved= 7 IEnMin= 7 EnMin= -228.742110850834     IErMin= 7 ErrMin= 1.02D-04
 ErrMax= 1.02D-04  0.00D+00 EMaxC= 1.00D-01 BMatC= 2.47D-07 BMatP= 1.02D-05
 IDIUse=3 WtCom= 9.99D-01 WtEn= 1.02D-03
 Coeff-Com: -0.280D-02 0.535D-02 0.163D-01-0.185D-01 0.135D+00 0.453D+00
 Coeff-Com:  0.412D+00
 Coeff-En:   0.000D+00 0.000D+00 0.000D+00 0.000D+00 0.000D+00 0.000D+00
 Coeff-En:   0.100D+01
 Coeff:     -0.279D-02 0.535D-02 0.163D-01-0.184D-01 0.135D+00 0.453D+00
 Coeff:      0.413D+00
 Gap=     0.244 Goal=   None    Shift=    0.000
 RMSDP=9.97D-06 MaxDP=1.12D-04 DE=-1.04D-05 OVMax= 3.28D-04

 Initial convergence to 1.0D-05 achieved.  Increase integral accuracy.
 Cycle   8  Pass 1  IDiag  1:
 E= -228.742162418711     Delta-E=       -0.000051567877 Rises=F Damp=F
 DIIS: error= 1.47D-05 at cycle   1 NSaved=   1.
 NSaved= 1 IEnMin= 1 EnMin= -228.742162418711     IErMin= 1 ErrMin= 1.47D-05
 ErrMax= 1.47D-05  0.00D+00 EMaxC= 1.00D-01 BMatC= 1.82D-08 BMatP= 1.82D-08
 IDIUse=1 WtCom= 1.00D+00 WtEn= 0.00D+00
 Coeff-Com:  0.100D+01
 Coeff:      0.100D+01
 Gap=     0.244 Goal=   None    Shift=    0.000
 RMSDP=9.97D-06 MaxDP=1.12D-04 DE=-5.16D-05 OVMax= 9.48D-05

 Cycle   9  Pass 1  IDiag  1:
 E= -228.742162427881     Delta-E=       -0.000000009170 Rises=F Damp=F
 DIIS: error= 1.74D-05 at cycle   2 NSaved=   2.
 NSaved= 2 IEnMin= 2 EnMin= -228.742162427881     IErMin= 1 ErrMin= 1.47D-05
 ErrMax= 1.74D-05  0.00D+00 EMaxC= 1.00D-01 BMatC= 1.69D-08 BMatP= 1.82D-08
 IDIUse=1 WtCom= 1.00D+00 WtEn= 0.00D+00
 Coeff-Com:  0.487D+00 0.513D+00
 Coeff:      0.487D+00 0.513D+00
 Gap=     0.244 Goal=   None    Shift=    0.000
 RMSDP=2.81D-06 MaxDP=3.69D-05 DE=-9.17D-09 OVMax= 7.60D-05

 Cycle  10  Pass 1  IDiag  1:
 E= -228.742162441430     Delta-E=       -0.000000013549 Rises=F Damp=F
 DIIS: error= 7.34D-06 at cycle   3 NSaved=   3.
 NSaved= 3 IEnMin= 3 EnMin= -228.742162441430     IErMin= 3 ErrMin= 7.34D-06
 ErrMax= 7.34D-06  0.00D+00 EMaxC= 1.00D-01 BMatC= 2.19D-09 BMatP= 1.69D-08
 IDIUse=1 WtCom= 1.00D+00 WtEn= 0.00D+00
 Coeff-Com: -0.890D-02 0.261D+00 0.748D+00
 Coeff:     -0.890D-02 0.261D+00 0.748D+00
 Gap=     0.244 Goal=   None    Shift=    0.000
 RMSDP=8.54D-07 MaxDP=9.43D-06 DE=-1.35D-08 OVMax= 2.43D-05

 Cycle  11  Pass 1  IDiag  1:
 E= -228.742162443318     Delta-E=       -0.000000001888 Rises=F Damp=F
 DIIS: error= 1.76D-06 at cycle   4 NSaved=   4.
 NSaved= 4 IEnMin= 4 EnMin= -228.742162443318     IErMin= 4 ErrMin= 1.76D-06
 ErrMax= 1.76D-06  0.00D+00 EMaxC= 1.00D-01 BMatC= 1.22D-10 BMatP= 2.19D-09
 IDIUse=1 WtCom= 1.00D+00 WtEn= 0.00D+00
 Coeff-Com: -0.180D-01 0.143D+00 0.435D+00 0.439D+00
 Coeff:     -0.180D-01 0.143D+00 0.435D+00 0.439D+00
 Gap=     0.244 Goal=   None    Shift=    0.000
 RMSDP=2.49D-07 MaxDP=3.10D-06 DE=-1.89D-09 OVMax= 6.46D-06

 Cycle  12  Pass 1  IDiag  1:
 E= -228.742162443444     Delta-E=       -0.000000000126 Rises=F Damp=F
 DIIS: error= 3.86D-07 at cycle   5 NSaved=   5.
 NSaved= 5 IEnMin= 5 EnMin= -228.742162443444     IErMin= 5 ErrMin= 3.86D-07
 ErrMax= 3.86D-07  0.00D+00 EMaxC= 1.00D-01 BMatC= 4.68D-12 BMatP= 1.22D-10
 IDIUse=1 WtCom= 1.00D+00 WtEn= 0.00D+00
 Coeff-Com: -0.558D-02 0.330D-01 0.931D-01 0.189D+00 0.690D+00
 Coeff:     -0.558D-02 0.330D-01 0.931D-01 0.189D+00 0.690D+00
 Gap=     0.244 Goal=   None    Shift=    0.000
 RMSDP=5.71D-08 MaxDP=6.42D-07 DE=-1.26D-10 OVMax= 1.42D-06

 Cycle  13  Pass 1  IDiag  1:
 E= -228.742162443448     Delta-E=       -0.000000000004 Rises=F Damp=F
 DIIS: error= 1.41D-07 at cycle   6 NSaved=   6.
 NSaved= 6 IEnMin= 6 EnMin= -228.742162443448     IErMin= 6 ErrMin= 1.41D-07
 ErrMax= 1.41D-07  0.00D+00 EMaxC= 1.00D-01 BMatC= 6.08D-13 BMatP= 4.68D-12
 IDIUse=1 WtCom= 1.00D+00 WtEn= 0.00D+00
 Coeff-Com: -0.104D-02 0.541D-02 0.109D-01 0.581D-01 0.354D+00 0.572D+00
 Coeff:     -0.104D-02 0.541D-02 0.109D-01 0.581D-01 0.354D+00 0.572D+00
 Gap=     0.244 Goal=   None    Shift=    0.000
 RMSDP=2.20D-08 MaxDP=3.08D-07 DE=-4.09D-12 OVMax= 4.81D-07

 Cycle  14  Pass 1  IDiag  1:
 E= -228.742162443448     Delta-E=        0.000000000000 Rises=F Damp=F
 DIIS: error= 7.48D-08 at cycle   7 NSaved=   7.
 NSaved= 7 IEnMin= 7 EnMin= -228.742162443448     IErMin= 7 ErrMin= 7.48D-08
 ErrMax= 7.48D-08  0.00D+00 EMaxC= 1.00D-01 BMatC= 1.72D-13 BMatP= 6.08D-13
 IDIUse=1 WtCom= 1.00D+00 WtEn= 0.00D+00
 Coeff-Com: -0.812D-04-0.119D-02-0.653D-02 0.109D-01 0.149D+00 0.382D+00
 Coeff-Com:  0.467D+00
 Coeff:     -0.812D-04-0.119D-02-0.653D-02 0.109D-01 0.149D+00 0.382D+00
 Coeff:      0.467D+00
 Gap=     0.244 Goal=   None    Shift=    0.000
 RMSDP=7.61D-09 MaxDP=5.96D-08 DE=-5.68D-14 OVMax= 1.59D-07

 SCF Done:  E(RB3LYP) =  -228.742162443     A.U. after   14 cycles
            NFock= 14  Conv=0.76D-08     -V/T= 2.0076
 KE= 2.270253429015D+02 PE=-8.558587235013D+02 EE= 2.385195156236D+02
 Leave Link  502 at Tue Dec 15 16:20:39 2015, MaxMem=    33554432 cpu:         3.6
 (Enter /home/Applications/g09/g09/l801.exe)
 DoSCS=F DFT=T ScalE2(SS,OS)=  1.000000  1.000000
 ExpMin= 1.83D-01 ExpMax= 3.22D+02 ExpMxC= 3.22D+02 IAcc=3 IRadAn=         5 AccDes= 0.00D+00
 HarFok:  IExCor=  205 AccDes= 0.00D+00 IRadAn=         5 IDoV=-2 UseB2=F ITyADJ=14
 ICtDFT= 12500011 ScaDFX=  1.000000  1.000000  1.000000  1.000000
 Largest valence mixing into a core orbital is  1.80D-04
 Largest core mixing into a valence orbital is  4.74D-05
 Range of M.O.s used for correlation:     6    53
 NBasis=    53 NAE=    18 NBE=    18 NFC=     5 NFV=     0
 NROrb=     48 NOA=    13 NOB=    13 NVA=    35 NVB=    35
 Leave Link  801 at Tue Dec 15 16:20:39 2015, MaxMem=    33554432 cpu:         0.2
 (Enter /home/Applications/g09/g09/l914.exe)
 RHF ground state
 MDV=    33554432 DFT=T DoStab=F Mixed=T DoRPA=F DoScal=F NonHer=F
 Keep R1, R2, and R3 ints in memory in canonical form, NReq=5596273.
 FoFCou: FMM=F IPFlag=           0 FMFlag=           0 FMFlg1=           0
         NFxFlg=           0 DoJE=F BraDBF=F KetDBF=F FulRan=T
         wScrn=  0.000000 ICntrl=     600 IOpCl=  0 I1Cent=           0 NGrid=           0
         NMat0=    1 NMatS0=   1431 NMatT0=    0 NMatD0=    1 NMtDS0=    0 NMtDT0=    0
 Symmetry not used in FoFCou.
 Making orbital integer symmetry assigments:
 Orbital symmetries:
       Occupied  (A) (A) (A) (A) (A) (A) (A) (A) (A) (A) (A) (A)
                 (A) (A) (A) (A) (A) (A)
       Virtual   (A) (A) (A) (A) (A) (A) (A) (A) (A) (A) (A) (A)
                 (A) (A) (A) (A) (A) (A) (A) (A) (A) (A) (A) (A)
                 (A) (A) (A) (A) (A) (A) (A) (A) (A) (A) (A)
    60 initial guesses have been made.
 Convergence on wavefunction:    0.000001000000000
 Davidson Disk Diagonalization:  ConvIn= 1.00D-06 SkipCon=T Conv= 1.00D-06.
 Max sub-space:   240 roots to seek:    60 dimension of matrix:          910
 Iteration     1 Dimension    60 NMult     0 NNew     60
 CISAX will form    60 AO SS matrices at one time.
 NMat=    60 NSing=    60 JSym2X= 0.
 New state      1 was old state      2
 New state      2 was old state      1
 New state      3 was old state      4
 New state      4 was old state      5
 New state      5 was old state      7
 New state      6 was old state      8
 New state      7 was old state     10
 New state      8 was old state      9
 New state      9 was old state     11
 New state     10 was old state     12
 New state     11 was old state      6
 New state     12 was old state     14
 New state     14 was old state     15
 New state     15 was old state      3
 Excitation Energies [eV] at current iteration:
 Root      1 :     7.441089524411447
 Root      2 :     7.965684216808787
 Root      3 :     8.425392813811838
 Root      4 :     8.473168715336374
 Root      5 :     9.335210958235143
 Root      6 :     9.810328898400813
 Root      7 :     9.935593042372345
 Root      8 :     9.971019167359341
 Root      9 :    10.285692023595780
 Root     10 :    10.367710411448160
 Root     11 :    10.618418692205370
 Root     12 :    10.726440472070050
 Root     13 :    10.737913559765960
 Root     14 :    10.813683668384670
 Root     15 :    11.025592590075180
 Root     16 :    11.328968552498170
 Root     17 :    11.337596628012760
 Root     18 :    11.528829843112670
 Root     19 :    11.711115063993810
 Root     20 :    11.807663133481570
 Root     21 :    11.915608013087350
 Root     22 :    12.122689017541160
 Root     23 :    12.368551447580760
 Root     24 :    12.551171760633530
 Root     25 :    12.602631053171080
 Root     26 :    13.453552328207860
 Root     27 :    13.523799806647410
 Root     28 :    13.746123497828330
 Root     29 :    13.817739752109540
 Root     30 :    13.861846830962030
 Root     31 :    13.938761574308180
 Root     32 :    14.071045768357190
 Root     33 :    14.144024797716050
 Root     34 :    14.178676654699120
 Root     35 :    14.387932787285470
 Root     36 :    14.420459290436130
 Root     37 :    14.500401878329510
 Root     38 :    14.742956522781920
 Root     39 :    14.802857888042900
 Root     40 :    14.939221929750400
 Root     41 :    15.034543650339440
 Root     42 :    15.079877423683350
 Root     43 :    15.177623626462060
 Root     44 :    15.360722075218050
 Root     45 :    15.623673813360580
 Root     46 :    15.680699471452590
 Root     47 :    15.720295887316980
 Root     48 :    15.788432062185840
 Root     49 :    15.830842707728420
 Root     50 :    15.835385645329130
 Root     51 :    15.886938685266130
 Root     52 :    16.024413236713990
 Root     53 :    16.244658925298990
 Root     54 :    16.393231951576980
 Root     55 :    16.624445153408800
 Root     56 :    16.735224285237570
 Root     57 :    17.055429709013060
 Root     58 :    17.520311313412480
 Root     59 :    17.748140435630700
 Root     60 :    18.337226196052940
 Iteration     2 Dimension   120 NMult    60 NNew     60
 CISAX will form    60 AO SS matrices at one time.
 NMat=    60 NSing=    60 JSym2X= 0.
 New state      1 was old state      2
 Root      1 not converged, maximum delta is    0.140298505758817
 New state      2 was old state      1
 Root      2 not converged, maximum delta is    0.182062137739723
 Root      3 not converged, maximum delta is    0.020400913144326
 Root      4 not converged, maximum delta is    0.079300097714032
 Root      5 not converged, maximum delta is    0.022976663831782
 New state      6 was old state     15
 Root      6 not converged, maximum delta is    0.409899081199895
 New state      7 was old state      6
 Root      7 not converged, maximum delta is    0.167058291560263
 New state      8 was old state      7
 Root      8 not converged, maximum delta is    0.208928541636090
 New state      9 was old state      8
 Root      9 not converged, maximum delta is    0.206863132428531
 New state     10 was old state     11
 Root     10 not converged, maximum delta is    0.298036780511591
 New state     11 was old state      9
 Root     11 not converged, maximum delta is    0.140712845754502
 New state     12 was old state     10
 Root     12 not converged, maximum delta is    0.252869979942791
 Root     13 not converged, maximum delta is    0.256943163317706
 New state     14 was old state     12
 Root     14 not converged, maximum delta is    0.414279608544733
 New state     15 was old state     14
 Root     15 not converged, maximum delta is    0.260035851689154
 Excitation Energies [eV] at current iteration:
 Root      1 :     7.145142623946726   Change is   -0.820541592862062
 Root      2 :     7.296702366161997   Change is   -0.144387158249450
 Root      3 :     8.414567565825257   Change is   -0.010825247986581
 Root      4 :     8.437294266144706   Change is   -0.035874449191668
 Root      5 :     9.304355658511920   Change is   -0.030855299723223
 Root      6 :     9.675488630797805   Change is   -1.350103959277372
 Root      7 :     9.774626146024447   Change is   -0.035702752376367
 Root      8 :     9.923305708130153   Change is   -0.012287334242193
 Root      9 :     9.954860345400865   Change is   -0.016158821958475
 Root     10 :    10.077365997704480   Change is   -0.541052694500891
 Root     11 :    10.296557390196270   Change is    0.010865366600485
 Root     12 :    10.367566994166730   Change is   -0.000143417281425
 Root     13 :    10.717919874377300   Change is   -0.019993685388661
 Root     14 :    10.728371128369490   Change is    0.001930656299447
 Root     15 :    10.849531828289900   Change is    0.035848159905239
 Root     16 :    11.278558241214320   Change is   -0.050410311283852
 Root     17 :    11.299309924145050   Change is   -0.038286703867711
 Root     18 :    11.516105527765070   Change is   -0.012724315347605
 Root     19 :    11.661787535570970   Change is   -0.145875597910607
 Root     20 :    11.694217176355950   Change is   -0.016897887637862
 Root     21 :    11.863141492160540   Change is   -0.052466520926813
 Root     22 :    12.059941553366040   Change is   -0.062747464175116
 Root     23 :    12.338017465228390   Change is   -0.030533982352370
 Root     24 :    12.500635873375180   Change is   -0.101995179795894
 Root     25 :    12.517802745649020   Change is   -0.033369014984515
 Root     26 :    12.774993548668730   Change is   -1.296052219688460
 Root     27 :    13.404201969626780   Change is   -0.049350358581076
 Root     28 :    13.485997518640160   Change is   -0.037802288007257
 Root     29 :    13.601641031368030   Change is   -0.144482466460301
 Root     30 :    13.712278420272530   Change is   -0.149568410689505
 Root     31 :    13.847379752940760   Change is    0.029640000831221
 Root     32 :    13.870007805936290   Change is   -0.068753768371885
 Root     33 :    13.936097995941460   Change is   -0.207926801774591
 Root     34 :    14.114583035513840   Change is   -0.064093619185278
 Root     35 :    14.340947205900480   Change is   -0.046985581384984
 Root     36 :    14.368620867250680   Change is   -0.051838423185448
 Root     37 :    14.412501098415460   Change is   -0.087900779914050
 Root     38 :    14.610341499967880   Change is   -0.132615022814038
 Root     39 :    14.664319616980520   Change is   -0.138538271062374
 Root     40 :    14.915403284385040   Change is   -0.023818645365360
 Root     41 :    14.943086303258520   Change is   -0.234537323203539
 Root     42 :    14.988597700457970   Change is   -0.045945949881474
 Root     43 :    15.024327310925140   Change is   -0.055550112758216
 Root     44 :    15.280053141078080   Change is   -0.080668934139979
 Root     45 :    15.392839025962350   Change is   -0.230834787398231
 Root     46 :    15.545194250265940   Change is   -0.175101637051033
 Root     47 :    15.558324488494230   Change is   -0.328614196771897
 Root     48 :    15.660086017077050   Change is   -0.020613454375545
 Root     49 :    15.691377719212620   Change is   -0.144007926116507
 Root     50 :    15.722317151600190   Change is   -0.066114910585652
 Root     51 :    15.807908727482440   Change is   -0.022933980245984
 Root     52 :    15.887226988485620   Change is   -0.137186248228369
 Root     53 :    16.183857730920450   Change is   -0.060801194378534
 Root     54 :    16.271846415894890   Change is   -0.783583293118171
 Root     55 :    16.336780160449560   Change is   -0.056451791127419
 Root     56 :    16.480708056230170   Change is   -1.039603257182312
 Root     57 :    16.606060643785610   Change is   -0.129163641451957
 Root     58 :    16.695171881555800   Change is    0.070726728146996
 Root     59 :    16.785755035603610   Change is   -0.962385400027085
 Root     60 :    16.985038852618550   Change is   -1.352187343434389
 Iteration     3 Dimension   135 NMult   120 NNew     15
 CISAX will form    15 AO SS matrices at one time.
 NMat=    15 NSing=    15 JSym2X= 0.
 Root      1 not converged, maximum delta is    0.002805703848258
 Root      2 not converged, maximum delta is    0.001492060544236
 Root      3 not converged, maximum delta is    0.000211347008873
 Root      4 not converged, maximum delta is    0.000236404336543
 Root      5 not converged, maximum delta is    0.000377337310040
 Root      6 not converged, maximum delta is    0.005852625476625
 Root      7 not converged, maximum delta is    0.004446402018618
 Root      8 not converged, maximum delta is    0.001196434259756
 Root      9 not converged, maximum delta is    0.002355301053144
 Root     10 not converged, maximum delta is    0.003095665051221
 Root     11 not converged, maximum delta is    0.000447593119103
 Root     12 not converged, maximum delta is    0.000774516846312
 Root     13 not converged, maximum delta is    0.000337946741481
 Root     14 not converged, maximum delta is    0.000344657245835
 Root     15 not converged, maximum delta is    0.000328371786599
 Excitation Energies [eV] at current iteration:
 Root      1 :     7.143182960110997   Change is   -0.001959663835729
 Root      2 :     7.295564656085251   Change is   -0.001137710076746
 Root      3 :     8.414537633501231   Change is   -0.000029932324024
 Root      4 :     8.437262781201978   Change is   -0.000031484942728
 Root      5 :     9.304305930472120   Change is   -0.000049728039799
 Root      6 :     9.670514082240862   Change is   -0.004974548556941
 Root      7 :     9.774109423435128   Change is   -0.000516722589318
 Root      8 :     9.923179558309860   Change is   -0.000126149820293
 Root      9 :     9.954406430929170   Change is   -0.000453914471695
 Root     10 :    10.075911865875050   Change is   -0.001454131829429
 Root     11 :    10.296480391535300   Change is   -0.000076998660963
 Root     12 :    10.367401261726740   Change is   -0.000165732439998
 Root     13 :    10.717902598473230   Change is   -0.000017275904072
 Root     14 :    10.728302554039290   Change is   -0.000068574330206
 Root     15 :    10.849463853435190   Change is   -0.000067974854712
 Iteration     4 Dimension   150 NMult   135 NNew     15
 CISAX will form    15 AO SS matrices at one time.
 NMat=    15 NSing=    15 JSym2X= 0.
 Root      1 not converged, maximum delta is    0.000082230690399
 Root      2 not converged, maximum delta is    0.000066831724565
 Root      3 not converged, maximum delta is    0.000008142874615
 Root      4 not converged, maximum delta is    0.000008121662180
 Root      5 not converged, maximum delta is    0.000007143162705
 Root      6 not converged, maximum delta is    0.000101312938811
 Root      7 not converged, maximum delta is    0.000027325436781
 Root      8 not converged, maximum delta is    0.000014230908981
 Root      9 not converged, maximum delta is    0.000028109787020
 Root     10 not converged, maximum delta is    0.000061406852382
 Root     11 not converged, maximum delta is    0.000011835619444
 Root     12 not converged, maximum delta is    0.000022468548017
 Root     13 not converged, maximum delta is    0.000004320064353
 Root     14 not converged, maximum delta is    0.000014557656012
 Root     15 not converged, maximum delta is    0.000012844506431
 Excitation Energies [eV] at current iteration:
 Root      1 :     7.143180549565229   Change is   -0.000002410545768
 Root      2 :     7.295562861474799   Change is   -0.000001794610451
 Root      3 :     8.414537577885405   Change is   -0.000000055615828
 Root      4 :     8.437262754802004   Change is   -0.000000026399975
 Root      5 :     9.304305885719252   Change is   -0.000000044752868
 Root      6 :     9.670505817076130   Change is   -0.000008265164732
 Root      7 :     9.774108625707393   Change is   -0.000000797727735
 Root      8 :     9.923179341946662   Change is   -0.000000216363197
 Root      9 :     9.954405688421256   Change is   -0.000000742507915
 Root     10 :    10.075909709143390   Change is   -0.000002156731659
 Root     11 :    10.296480273704630   Change is   -0.000000117830676
 Root     12 :    10.367401036340820   Change is   -0.000000225385919
 Root     13 :    10.717902582997010   Change is   -0.000000015476222
 Root     14 :    10.728302418365170   Change is   -0.000000135674117
 Root     15 :    10.849463753195020   Change is   -0.000000100240167
 Iteration     5 Dimension   165 NMult   150 NNew     15
 CISAX will form    15 AO SS matrices at one time.
 NMat=    15 NSing=    15 JSym2X= 0.
 Root      1 not converged, maximum delta is    0.000002277374746
 Root      2 not converged, maximum delta is    0.000001709143931
 Root      3 has converged.
 Root      4 has converged.
 Root      5 has converged.
 Root      6 not converged, maximum delta is    0.000003981753906
 Root      7 not converged, maximum delta is    0.000001330631719
 Root      8 has converged.
 Root      9 not converged, maximum delta is    0.000001227980146
 Root     10 not converged, maximum delta is    0.000003705717081
 Root     11 has converged.
 Root     12 has converged.
 Root     13 has converged.
 Root     14 has converged.
 Root     15 has converged.
 Excitation Energies [eV] at current iteration:
 Root      1 :     7.143180546985373   Change is   -0.000000002579857
 Root      2 :     7.295562859263045   Change is   -0.000000002211754
 Root      3 :     8.414537577806897   Change is   -0.000000000078507
 Root      4 :     8.437262754777420   Change is   -0.000000000024584
 Root      5 :     9.304305885680076   Change is   -0.000000000039176
 Root      6 :     9.670505808726125   Change is   -0.000000008350006
 Root      7 :     9.774108624930912   Change is   -0.000000000776480
 Root      8 :     9.923179341624667   Change is   -0.000000000321995
 Root      9 :     9.954405687644789   Change is   -0.000000000776466
 Root     10 :    10.075909706640940   Change is   -0.000000002502449
 Root     11 :    10.296480273553760   Change is   -0.000000000150863
 Root     12 :    10.367401036094290   Change is   -0.000000000246530
 Root     13 :    10.717902582978420   Change is   -0.000000000018584
 Root     14 :    10.728302418195640   Change is   -0.000000000169526
 Root     15 :    10.849463753088120   Change is   -0.000000000106905
 Iteration     6 Dimension   171 NMult   165 NNew      6
 CISAX will form     6 AO SS matrices at one time.
 NMat=     6 NSing=     6 JSym2X= 0.
 Root      1 has converged.
 Root      2 has converged.
 Root      3 has converged.
 Root      4 has converged.
 Root      5 has converged.
 Root      6 has converged.
 Root      7 has converged.
 Root      8 has converged.
 Root      9 has converged.
 Root     10 has converged.
 Root     11 has converged.
 Root     12 has converged.
 Root     13 has converged.
 Root     14 has converged.
 Root     15 has converged.
 Excitation Energies [eV] at current iteration:
 Root      1 :     7.143180546984125   Change is   -0.000000000001248
 Root      2 :     7.295562859261900   Change is   -0.000000000001145
 Root      3 :     8.414537577806843   Change is   -0.000000000000053
 Root      4 :     8.437262754777421   Change is    0.000000000000002
 Root      5 :     9.304305885680055   Change is   -0.000000000000023
 Root      6 :     9.670505808718815   Change is   -0.000000000007309
 Root      7 :     9.774108624930356   Change is   -0.000000000000557
 Root      8 :     9.923179341624362   Change is   -0.000000000000307
 Root      9 :     9.954405687644202   Change is   -0.000000000000586
 Root     10 :    10.075909706639190   Change is   -0.000000000001746
 Root     11 :    10.296480273553580   Change is   -0.000000000000180
 Root     12 :    10.367401036094170   Change is   -0.000000000000121
 Root     13 :    10.717902582978410   Change is   -0.000000000000009
 Root     14 :    10.728302418195520   Change is   -0.000000000000122
 Root     15 :    10.849463753088030   Change is   -0.000000000000089
 Convergence achieved on expansion vectors.
 ***********************************************************************
 Excited states from <AA,BB:AA,BB> singles matrix:
 ***********************************************************************
 
 1PDM for each excited state written to RWF  633
 Ground to excited state transition densities written to RWF  633
 Ground to excited state transition electric dipole moments (Au):
       state          X           Y           Z        Dip. S.      Osc.
         1        -1.1533      0.0309      0.0128      1.3312      0.2330
         2         0.2305     -0.0985     -0.0029      0.0628      0.0112
         3        -0.0295     -0.1021      0.0170      0.0116      0.0024
         4        -0.0817     -0.0282     -0.1239      0.0228      0.0047
         5         0.0086      0.0894      0.0230      0.0086      0.0020
         6         0.0908      1.4280     -0.0410      2.0490      0.4854
         7         0.3253     -0.3042     -0.0085      0.1984      0.0475
         8        -0.1631     -0.1136      0.0281      0.0403      0.0098
         9        -0.2914      0.2956      0.1006      0.1824      0.0445
        10        -0.7497     -0.0919      0.0369      0.5719      0.1412
        11         0.0538     -0.1582     -0.0567      0.0311      0.0079
        12         0.2424     -0.1080      0.0617      0.0742      0.0189
        13         0.0202     -0.0176     -0.0541      0.0037      0.0010
        14         0.0929      0.1498     -0.0180      0.0314      0.0083
        15         0.0080     -0.1347     -0.0316      0.0192      0.0051
 Ground to excited state transition velocity dipole moments (Au):
       state          X           Y           Z        Dip. S.      Osc.
         1        -0.0158     -0.0148     -0.0028      0.0005      0.0012
         2         0.0004     -0.0543      0.0015      0.0030      0.0073
         3         0.0015     -0.0004     -0.0051      0.0000      0.0001
         4         0.0033      0.0001      0.0719      0.0052      0.0111
         5         0.0012     -0.0010      0.0107      0.0001      0.0002
         6        -0.0081     -0.0470      0.0044      0.0023      0.0043
         7        -0.0396      0.0120     -0.0253      0.0024      0.0044
         8         0.0172      0.0030     -0.0187      0.0007      0.0012
         9         0.0302     -0.0129     -0.0462      0.0032      0.0058
        10         0.0923      0.0021     -0.0069      0.0086      0.0154
        11        -0.0074      0.0095      0.0067      0.0002      0.0003
        12        -0.0407      0.0110     -0.0425      0.0036      0.0063
        13        -0.0035      0.0080     -0.0435      0.0020      0.0033
        14        -0.0130     -0.0214     -0.0349      0.0018      0.0031
        15        -0.0009      0.0122      0.0037      0.0002      0.0003
 Ground to excited state transition magnetic dipole moments (Au):
       state          X           Y           Z
         1         0.0916      0.0152     -0.4318
         2        -0.0359      0.0361      0.0754
         3         0.2662     -0.5430     -0.0082
         4        -1.5221      0.0453     -0.0342
         5        -0.0142      0.1310      0.0113
         6        -0.1062     -0.0509      0.0313
         7        -0.2419      0.0620     -0.0828
         8        -0.0240      0.0103      0.0111
         9         0.0627      0.0578     -0.0013
        10        -0.2211      0.0064      0.0818
        11        -0.3310     -0.1336     -0.0393
        12         0.1618     -0.0844      0.0876
        13         0.1215      0.1352      0.0004
        14         0.0205     -0.1197     -0.0621
        15        -0.0095     -0.4928      0.0180
 Ground to excited state transition velocity quadrupole moments (Au):
       state          XX          YY          ZZ          XY          XZ          YZ
         1        -0.0273      0.0223      0.0083     -0.2196      0.0045      0.0046
         2        -0.0215     -0.0135      0.0273      0.0574     -0.0056     -0.0029
         3         0.0080      0.0201      0.0075     -0.0013      0.0399      0.0291
         4        -0.0038      0.0127      0.0017     -0.0300     -0.0116     -0.1799
         5         0.0126     -0.0154      0.0034      0.0063      0.2148     -0.0172
         6         0.2615     -0.2681     -0.0544     -0.0781     -0.0038     -0.0385
         7        -0.0767      0.0681      0.0074     -0.1381      0.0091     -0.0389
         8        -0.0201      0.0267      0.0062      0.0695      0.0818      0.0763
         9         0.0719     -0.0634     -0.0122      0.0880     -0.0011      0.0909
        10         0.0243     -0.0020      0.0030      0.3247     -0.0146     -0.1179
        11        -0.0335      0.0403      0.0062     -0.0371      0.0137     -0.0289
        12        -0.0351      0.0336      0.0001     -0.0915     -0.0038     -0.0767
        13        -0.0060      0.0062     -0.0055     -0.0210     -0.0225      0.0622
        14         0.0141     -0.0310      0.0035     -0.0481      0.0077      0.0206
        15        -0.0316      0.0182      0.0100      0.0169      0.0149      0.0161
 <0|del|b> * <b|rxdel|0> + <0|del|b> * <b|delr+rdel|0>
 Rotatory Strengths (R) in cgs (10**-40 erg-esu-cm/Gauss)
       state          XX          YY          ZZ    R(velocity)    E-M Angle
         1         2.2486     -1.2391     -2.2394     -0.4100       92.71
         2        -2.7195      0.0172     -2.2051     -1.6358      112.11
         3         0.3439      0.5624      0.6688      0.5250       77.64
         4        -5.2523     -6.6712     -4.9855     -5.6364       93.88
         5         0.2841      0.0154     -0.3679     -0.0228       90.00
         6         1.9982      1.6368      3.0966      2.2439       54.52
         7         6.1312      9.5679      8.7557      8.1516       13.31
         8        -1.6675      1.9291     -1.4011     -0.3798      144.16
         9        -4.6009      8.4628     -1.5347      0.7758       75.57
        10        -2.6478    -28.2620     -9.1083    -13.3394      163.75
        11        -1.7879      2.4656      1.0161      0.5646       79.44
        12        -0.6696    -10.2823     -9.9006     -6.9508      157.98
        13         1.9400     -1.4193      0.6237      0.3815       85.47
        14         5.8923     -0.0434      2.1516      2.6668       40.37
        15        -5.3867     -0.0019     -5.1590     -3.5159      160.26
 1/2[<0|r|b>*<b|rxdel|0> + (<0|rxdel|b>*<b|r|0>)*]
 Rotatory Strengths (R) in cgs (10**-40 erg-esu-cm/Gauss)
       state          XX          YY          ZZ     R(length)
         1        74.7156     -0.3319      3.9146     26.0994
         2         5.8509      2.5167      0.1523      2.8400
         3         5.5623    -39.2080      0.0988    -11.1823
         4       -87.8899      0.9038     -2.9945    -29.9936
         5         0.0865     -8.2787     -0.1829     -2.7917
         6         6.8163     51.4017      0.9090     19.7090
         7        55.6379     13.3286     -0.4996     22.8223
         8        -2.7675      0.8297     -0.2201     -0.7193
         9        12.9140    -12.0864      0.0959      0.3078
        10      -117.2435      0.4162     -2.1312    -39.6529
        11        12.5905    -14.9474     -1.5786     -1.3119
        12       -27.7456     -6.4488     -3.8214    -12.6720
        13        -1.7363      1.6854      0.0152     -0.0119
        14        -1.3471     12.6818     -0.7911      3.5145
        15         0.0540    -46.9365      0.4008    -15.4939
  1/2[<0|del|b>*<b|r|0> + (<0|r|b>*<b|del|0>)*] (Au)
       state          X           Y           Z        Dip. S.   Osc.(frdel)
         1         0.0182     -0.0005      0.0000     -0.0177     -0.0118
         2         0.0001      0.0054      0.0000     -0.0054     -0.0036
         3         0.0000      0.0000     -0.0001      0.0001      0.0001
         4        -0.0003      0.0000     -0.0089      0.0092      0.0061
         5         0.0000     -0.0001      0.0002     -0.0002     -0.0001
         6        -0.0007     -0.0670     -0.0002      0.0680      0.0453
         7        -0.0129     -0.0037      0.0002      0.0163      0.0109
         8        -0.0028     -0.0003     -0.0005      0.0037      0.0024
         9        -0.0088     -0.0038     -0.0046      0.0173      0.0115
        10        -0.0692     -0.0002     -0.0003      0.0696      0.0464
        11        -0.0004     -0.0015     -0.0004      0.0023      0.0015
        12        -0.0099     -0.0012     -0.0026      0.0137      0.0091
        13        -0.0001     -0.0001      0.0024     -0.0021     -0.0014
        14        -0.0012     -0.0032      0.0006      0.0038      0.0025
        15         0.0000     -0.0016     -0.0001      0.0018      0.0012

 Excitation energies and oscillator strengths:
 
 Excited State   1:      Singlet-A      7.1432 eV  173.57 nm  f=0.2330  <S**2>=0.000
      18 -> 19         0.66836
 This state for optimization and/or second-order correction.
 Total Energy, E(CIS) =  -228.479655377    
 Copying the excited state density for this state as the 1-particle RhoCI density.
 
 Excited State   2:      Singlet-A      7.2956 eV  169.94 nm  f=0.0112  <S**2>=0.000
      17 -> 19         0.51660
      18 -> 19        -0.12875
      18 -> 20         0.45243
 
 Excited State   3:      Singlet-A      8.4145 eV  147.35 nm  f=0.0024  <S**2>=0.000
      16 -> 19        -0.11820
      18 -> 21         0.68112
 
 Excited State   4:      Singlet-A      8.4373 eV  146.95 nm  f=0.0047  <S**2>=0.000
      16 -> 19         0.69333
      18 -> 21         0.11420
 
 Excited State   5:      Singlet-A      9.3043 eV  133.25 nm  f=0.0020  <S**2>=0.000
      18 -> 21         0.10223
      18 -> 22         0.68333
 
 Excited State   6:      Singlet-A      9.6705 eV  128.21 nm  f=0.4854  <S**2>=0.000
      17 -> 19        -0.40459
      17 -> 21         0.13389
      18 -> 20         0.47591
 
 Excited State   7:      Singlet-A      9.7741 eV  126.85 nm  f=0.0475  <S**2>=0.000
      17 -> 20        -0.32361
      17 -> 21         0.53274
      18 -> 23         0.25428
      18 -> 24         0.11076
 
 Excited State   8:      Singlet-A      9.9232 eV  124.94 nm  f=0.0098  <S**2>=0.000
      14 -> 19        -0.11329
      15 -> 19         0.52649
      16 -> 20        -0.13607
      17 -> 20         0.12485
      18 -> 23         0.37392
      18 -> 24         0.10923
 
 Excited State   9:      Singlet-A      9.9544 eV  124.55 nm  f=0.0445  <S**2>=0.000
      15 -> 19        -0.39877
      16 -> 20         0.11231
      17 -> 20         0.23855
      17 -> 21        -0.11455
      18 -> 23         0.44260
      18 -> 24         0.15011
 
 Excited State  10:      Singlet-A     10.0759 eV  123.05 nm  f=0.1412  <S**2>=0.000
      17 -> 20         0.51923
      17 -> 21         0.39301
      18 -> 23        -0.18433
      18 -> 24         0.10154
 
 Excited State  11:      Singlet-A     10.2965 eV  120.41 nm  f=0.0079  <S**2>=0.000
      14 -> 19         0.52285
      18 -> 24         0.45377
 
 Excited State  12:      Singlet-A     10.3674 eV  119.59 nm  f=0.0189  <S**2>=0.000
      14 -> 19        -0.44579
      17 -> 20        -0.10676
      18 -> 23        -0.21801
      18 -> 24         0.47127
 
 Excited State  13:      Singlet-A     10.7179 eV  115.68 nm  f=0.0010  <S**2>=0.000
      16 -> 20        -0.35817
      17 -> 22         0.59127
 
 Excited State  14:      Singlet-A     10.7283 eV  115.57 nm  f=0.0083  <S**2>=0.000
      15 -> 19         0.15348
      16 -> 20         0.57135
      17 -> 22         0.36208
 
 Excited State  15:      Singlet-A     10.8495 eV  114.28 nm  f=0.0051  <S**2>=0.000
      18 -> 25         0.68179
 SavETr:  write IOETrn=   770 NScale= 10 NData=  16 NLR=1 NState=   15 LETran=     280.
 The selected state is a singlet
 CISAX will form     1 AO SS matrices at one time.
 NMat=     1 NSing=     1 JSym2X= 0.
 CISAX will form     1 AO SS matrices at one time.
 NMat=     1 NSing=     1 JSym2X= 0.
 Leave Link  914 at Tue Dec 15 16:21:12 2015, MaxMem=    33554432 cpu:        33.6
 (Enter /home/Applications/g09/g09/l1002.exe)
 Minotr:  Closed shell wavefunction.
          Computing CIS/TD-HF/TD-KS derivatives.
          Using Z-Vector for PSCF gradient.
          Skipping F1 and S1 gradient terms here.
          IDoAtm=111111111
          Frozen-core window.
          Direct CPHF calculation.
          Differentiating once with respect to electric field.
                with respect to dipole field.
          Differentiating once with respect to nuclear coordinates.
          Requested convergence is 1.0D-10 RMS, and 1.0D-09 maximum.
          NewPWx=F KeepS1=T KeepF1=T KeepIn=T MapXYZ=F SortEE=F KeepMc=T.
          MDV=      33554290 using IRadAn=       0.
 Using stored XC quadrature information.
 Keep R1 ints in memory in canonical form, NReq=1898913.
 FoFCou: FMM=F IPFlag=           0 FMFlag=           0 FMFlg1=           0
         NFxFlg=           0 DoJE=F BraDBF=F KetDBF=F FulRan=T
         wScrn=  0.000000 ICntrl=     600 IOpCl=  0 I1Cent=           0 NGrid=           0
         NMat0=    1 NMatS0=   1431 NMatT0=    0 NMatD0=    1 NMtDS0=    0 NMtDT0=    0
 Symmetry not used in FoFCou.
          Solving linear equations separately, MaxMat=       0.
          There are     1 degrees of freedom in the 1st order CPHF.  IDoFFX=0 NUNeed=     1.
 LinEq1:  Iter=  0 NonCon=     1 RMS=2.94D-02 Max=4.02D-01 NDo=     1
 AX will form     1 AO Fock derivatives at one time.
 LinEq1:  Iter=  1 NonCon=     1 RMS=2.46D-02 Max=4.68D-01 NDo=     1
 LinEq1:  Iter=  2 NonCon=     1 RMS=1.31D-02 Max=2.00D-01 NDo=     1
 LinEq1:  Iter=  3 NonCon=     1 RMS=4.29D-03 Max=4.56D-02 NDo=     1
 LinEq1:  Iter=  4 NonCon=     1 RMS=3.11D-03 Max=3.85D-02 NDo=     1
 LinEq1:  Iter=  5 NonCon=     1 RMS=1.25D-03 Max=1.73D-02 NDo=     1
 LinEq1:  Iter=  6 NonCon=     1 RMS=7.31D-04 Max=5.26D-03 NDo=     1
 LinEq1:  Iter=  7 NonCon=     1 RMS=2.90D-04 Max=2.33D-03 NDo=     1
 LinEq1:  Iter=  8 NonCon=     1 RMS=8.86D-05 Max=6.92D-04 NDo=     1
 LinEq1:  Iter=  9 NonCon=     1 RMS=1.53D-05 Max=1.13D-04 NDo=     1
 LinEq1:  Iter= 10 NonCon=     1 RMS=1.41D-06 Max=8.65D-06 NDo=     1
 LinEq1:  Iter= 11 NonCon=     1 RMS=1.52D-07 Max=9.11D-07 NDo=     1
 LinEq1:  Iter= 12 NonCon=     1 RMS=1.44D-08 Max=9.39D-08 NDo=     1
 LinEq1:  Iter= 13 NonCon=     1 RMS=2.04D-09 Max=1.72D-08 NDo=     1
 LinEq1:  Iter= 14 NonCon=     1 RMS=2.56D-10 Max=1.36D-09 NDo=     1
 LinEq1:  Iter= 15 NonCon=     0 RMS=2.95D-11 Max=2.50D-10 NDo=     1
 Linear equations converged to 1.000D-10 1.000D-09 after    15 iterations.
 End of Minotr F.D. properties file   721 does not exist.
 End of Minotr F.D. properties file   722 does not exist.
 End of Minotr F.D. properties file   788 does not exist.
 Leave Link 1002 at Tue Dec 15 16:21:23 2015, MaxMem=    33554432 cpu:        10.3
 (Enter /home/Applications/g09/g09/l601.exe)
 Copying SCF densities to generalized density rwf, IOpCl= 0 IROHF=0.

 **********************************************************************

            Population analysis using the SCF density.

 **********************************************************************

 Orbital symmetries:
       Occupied  (A) (A) (A) (A) (A) (A) (A) (A) (A) (A) (A) (A)
                 (A) (A) (A) (A) (A) (A)
       Virtual   (A) (A) (A) (A) (A) (A) (A) (A) (A) (A) (A) (A)
                 (A) (A) (A) (A) (A) (A) (A) (A) (A) (A) (A) (A)
                 (A) (A) (A) (A) (A) (A) (A) (A) (A) (A) (A)
 The electronic state is 1-A.
 Alpha  occ. eigenvalues --  -19.10860 -10.17295 -10.17006 -10.12446 -10.11924
 Alpha  occ. eigenvalues --   -1.11740  -0.81041  -0.74933  -0.59569  -0.58306
 Alpha  occ. eigenvalues --   -0.54139  -0.45738  -0.44272  -0.41778  -0.40376
 Alpha  occ. eigenvalues --   -0.35504  -0.28236  -0.22861
 Alpha virt. eigenvalues --    0.01491   0.08881   0.12905   0.15508   0.18353
 Alpha virt. eigenvalues --    0.19093   0.21714   0.23267   0.34958   0.42359
 Alpha virt. eigenvalues --    0.49241   0.67335   0.69986   0.72524   0.74992
 Alpha virt. eigenvalues --    0.77165   0.78727   0.80723   0.81414   0.84012
 Alpha virt. eigenvalues --    0.92751   0.98766   1.02775   1.03451   1.17874
 Alpha virt. eigenvalues --    1.24514   1.33336   1.35971   1.50179   1.57452
 Alpha virt. eigenvalues --    1.61156   1.73571   1.97849   2.13612   3.16513
     Molecular Orbital Coefficients:
                           1         2         3         4         5
                           O         O         O         O         O
     Eigenvalues --   -19.10860 -10.17295 -10.17006 -10.12446 -10.11924
   1 1   C  1S          0.00019   0.00024  -0.01083  -0.11640   0.97911
   2        2S          0.00076   0.00021  -0.00514  -0.01778   0.10935
   3        2PX         0.00116  -0.00026   0.00138  -0.00209   0.00095
   4        2PY         0.00079   0.00041   0.00241   0.00077  -0.00161
   5        2PZ         0.00002   0.00001  -0.00001   0.00006  -0.00012
   6        3S         -0.00681  -0.01917   0.03238   0.05448  -0.10443
   7        3PX        -0.00491  -0.00042  -0.00548   0.02466  -0.01681
   8        3PY         0.00788   0.01234  -0.01725  -0.01476   0.02747
   9        3PZ        -0.00025   0.00000  -0.00017  -0.00066   0.00103
  10 2   C  1S         -0.00046  -0.08253   0.98191  -0.00043   0.01053
  11        2S         -0.00083  -0.01211   0.10594  -0.00024  -0.00326
  12        2PX         0.00177  -0.00147   0.00194  -0.00003  -0.00114
  13        2PY        -0.00180  -0.00048  -0.00067  -0.00081  -0.00195
  14        2PZ        -0.00004  -0.00005  -0.00013   0.00004  -0.00006
  15        3S          0.01810   0.02070  -0.07166  -0.01221   0.03803
  16        3PX         0.01661   0.01824  -0.00820  -0.00602   0.01868
  17        3PY        -0.00053   0.01194  -0.01398  -0.00274   0.01847
  18        3PZ         0.00015   0.00040   0.00018  -0.00018   0.00017
  19 3   O  1S          0.98277   0.00018   0.00026   0.00006   0.00008
  20        2S          0.10763   0.00142   0.00177   0.00020   0.00031
  21        2PX         0.00012   0.00078  -0.00047   0.00004  -0.00003
  22        2PY         0.00421   0.00068   0.00072  -0.00010  -0.00011
  23        2PZ        -0.00001   0.00002  -0.00002   0.00001  -0.00001
  24        3S         -0.06022   0.00054   0.00043  -0.00299  -0.00418
  25        3PX        -0.00018  -0.00068   0.00081  -0.00263   0.00202
  26        3PY        -0.01367  -0.00290  -0.00354  -0.00110  -0.00192
  27        3PZ         0.00002  -0.00012   0.00011   0.00002  -0.00002
  28 4   C  1S         -0.00050   0.98204   0.08150   0.01113   0.00197
  29        2S         -0.00098   0.10623   0.00562  -0.00312  -0.00090
  30        2PX        -0.00186  -0.00239   0.00108   0.00093   0.00015
  31        2PY        -0.00158  -0.00009  -0.00069  -0.00184  -0.00131
  32        2PZ         0.00006   0.00009   0.00008   0.00010  -0.00002
  33        3S          0.01619  -0.07466   0.00818   0.03903  -0.00393
  34        3PX        -0.01502   0.01050  -0.01430  -0.01670   0.00294
  35        3PY         0.00112  -0.01732   0.01047   0.01985   0.00075
  36        3PZ        -0.00034   0.00010  -0.00061  -0.00055   0.00025
  37 5   C  1S          0.00017  -0.01149  -0.00184   0.97917   0.11590
  38        2S          0.00064  -0.00535  -0.00082   0.11013   0.00820
  39        2PX        -0.00105  -0.00130   0.00013  -0.00162   0.00184
  40        2PY         0.00101   0.00244   0.00083  -0.00170   0.00017
  41        2PZ        -0.00005   0.00000  -0.00002   0.00021   0.00004
  42        3S         -0.00536   0.03702  -0.01238  -0.11245   0.03131
  43        3PX         0.00413   0.00339   0.00113   0.02354  -0.02213
  44        3PY         0.00553  -0.01996   0.00779   0.02602  -0.00670
  45        3PZ         0.00034   0.00037   0.00000  -0.00146   0.00016
  46 6   H  1S         -0.00074  -0.00111  -0.00033  -0.00281  -0.00042
  47        2S         -0.00183   0.00183  -0.00035   0.00391   0.00550
  48 7   H  1S          0.00029  -0.00404   0.00104  -0.00004  -0.00021
  49        2S          0.00406   0.00823   0.00835   0.00602   0.00025
  50 8   H  1S          0.00022   0.00183  -0.00447  -0.00005  -0.00013
  51        2S          0.00469   0.00780   0.01087  -0.00071   0.00684
  52 9   H  1S         -0.00093  -0.00031  -0.00108   0.00015  -0.00380
  53        2S         -0.00301  -0.00141   0.00176   0.00442   0.00477
                           6         7         8         9        10
                           O         O         O         O         O
     Eigenvalues --    -1.11740  -0.81041  -0.74933  -0.59569  -0.58306
   1 1   C  1S         -0.03053   0.15039  -0.07075  -0.11340   0.01223
   2        2S          0.02957  -0.16197   0.07594   0.11462  -0.01297
   3        2PX         0.00968  -0.07448  -0.06235  -0.07574  -0.17272
   4        2PY        -0.03572   0.05435  -0.06132   0.02107  -0.07760
   5        2PZ        -0.00066   0.00375  -0.00119  -0.00230   0.00221
   6        3S          0.05761  -0.30064   0.14786   0.39767  -0.02730
   7        3PX         0.02507  -0.02101   0.02071  -0.01097  -0.06605
   8        3PY        -0.04251   0.03419   0.00610  -0.02965  -0.02558
   9        3PZ         0.00060   0.00311  -0.00125  -0.00208   0.00147
  10 2   C  1S         -0.07757   0.04472  -0.14817   0.04419  -0.10165
  11        2S          0.08701  -0.05324   0.15985  -0.04562   0.11363
  12        2PX         0.08330  -0.01665   0.01731   0.02325  -0.16514
  13        2PY        -0.03639  -0.11995  -0.00731   0.20221   0.06195
  14        2PZ        -0.00081   0.00030  -0.00255   0.00346  -0.00334
  15        3S          0.06284  -0.05662   0.35990  -0.17378   0.30034
  16        3PX        -0.04513  -0.01340   0.02521  -0.00550  -0.09028
  17        3PY        -0.01248  -0.03024   0.03454   0.05470   0.02769
  18        3PZ        -0.00116  -0.00044  -0.00103   0.00156  -0.00298
  19 3   O  1S         -0.20972  -0.09090   0.00540  -0.01814   0.04822
  20        2S          0.19077   0.08730  -0.00476   0.01733  -0.04819
  21        2PX         0.00023  -0.00938  -0.20887   0.23553   0.07533
  22        2PY         0.10979  -0.02062   0.01170  -0.01364  -0.02069
  23        2PZ        -0.00012   0.00018   0.00052   0.00022   0.00058
  24        3S          0.66804   0.32744  -0.02084   0.07689  -0.20780
  25        3PX         0.00220  -0.00638  -0.17312   0.20798   0.06600
  26        3PY         0.14078  -0.00202   0.00726  -0.00908  -0.02375
  27        3PZ        -0.00024   0.00007   0.00026   0.00048   0.00050
  28 4   C  1S         -0.07135   0.05278   0.14486   0.01648  -0.11146
  29        2S          0.08070  -0.06205  -0.15512  -0.02305   0.12188
  30        2PX        -0.08109   0.00916   0.02897  -0.07172   0.12520
  31        2PY        -0.02180  -0.11562   0.00330  -0.20341  -0.06588
  32        2PZ         0.00040   0.00038  -0.00220   0.00214   0.00637
  33        3S          0.06269  -0.07531  -0.35708  -0.00028   0.35567
  34        3PX         0.03687   0.01104   0.02519  -0.05070   0.06590
  35        3PY        -0.01643  -0.03187  -0.03523  -0.06146  -0.01445
  36        3PZ         0.00182   0.00096  -0.00058   0.00005   0.00493
  37 5   C  1S         -0.03029   0.15108   0.06379   0.09283   0.06495
  38        2S          0.02962  -0.16301  -0.06842  -0.09387  -0.06588
  39        2PX        -0.01355   0.07941  -0.06001  -0.14259   0.10594
  40        2PY        -0.03440   0.05190   0.07172   0.05339  -0.08465
  41        2PZ         0.00118  -0.00659  -0.00288  -0.00568  -0.00409
  42        3S          0.05283  -0.29902  -0.13308  -0.33494  -0.21590
  43        3PX        -0.02241   0.02257   0.02032  -0.03537   0.04664
  44        3PY        -0.03169   0.02898  -0.00564   0.04846  -0.01105
  45        3PZ        -0.00091  -0.00512  -0.00212  -0.00552  -0.00401
  46 6   H  1S          0.00671  -0.05184  -0.03253  -0.09336  -0.04420
  47        2S          0.00973  -0.00968  -0.01065  -0.05550  -0.02789
  48 7   H  1S          0.01298  -0.01483  -0.08611   0.00251   0.16673
  49        2S         -0.02340  -0.00513  -0.03341   0.01353   0.08407
  50 8   H  1S          0.01674  -0.01182   0.09865  -0.08970   0.15825
  51        2S         -0.02727  -0.00426   0.03591  -0.05327   0.06949
  52 9   H  1S          0.00813  -0.05860   0.03796   0.11656   0.00471
  53        2S          0.01534  -0.01154   0.00967   0.06691   0.00203
                          11        12        13        14        15
                           O         O         O         O         O
     Eigenvalues --    -0.54139  -0.45738  -0.44272  -0.41778  -0.40376
   1 1   C  1S         -0.04376  -0.03233   0.01029  -0.00928  -0.01505
   2        2S          0.04087   0.03639  -0.01204   0.01484   0.01246
   3        2PX        -0.00706  -0.03191   0.00844   0.33966   0.02285
   4        2PY         0.23546  -0.01891  -0.01792  -0.07171   0.25663
   5        2PZ         0.00013   0.03286   0.12064  -0.01016   0.00513
   6        3S          0.19909   0.09992  -0.02674   0.03030   0.05671
   7        3PX        -0.03339  -0.00806   0.01220   0.20244  -0.02523
   8        3PY         0.12389   0.01053  -0.02510  -0.07092   0.15648
   9        3PZ        -0.00102   0.02294   0.08768  -0.00530   0.00598
  10 2   C  1S          0.02301   0.01370  -0.00882  -0.00644   0.04176
  11        2S         -0.02871  -0.01240   0.00980   0.00658  -0.04850
  12        2PX        -0.14177   0.27373  -0.07027  -0.07015  -0.07501
  13        2PY        -0.11218   0.01747   0.01145  -0.08688  -0.21411
  14        2PZ        -0.00125   0.05611   0.18594  -0.00550   0.01682
  15        3S         -0.04429  -0.04216   0.02058   0.00838  -0.15180
  16        3PX        -0.10051   0.17310  -0.04567  -0.04959  -0.05874
  17        3PY        -0.10833   0.02506   0.00455  -0.08370  -0.13567
  18        3PZ        -0.00096   0.05031   0.17483  -0.00367   0.01872
  19 3   O  1S         -0.05599   0.00322  -0.00049   0.01159   0.00918
  20        2S          0.05556  -0.00283   0.00033  -0.00781  -0.00824
  21        2PX        -0.01784  -0.24689   0.08138   0.00252  -0.09812
  22        2PY        -0.17859   0.02858  -0.00287  -0.09660   0.02117
  23        2PZ         0.00240   0.09937   0.35566   0.00521   0.04283
  24        3S          0.21710  -0.01174   0.00199  -0.07283  -0.04120
  25        3PX        -0.01685  -0.23231   0.07591   0.00405  -0.10444
  26        3PY        -0.16395   0.02625  -0.00216  -0.09713   0.02254
  27        3PZ         0.00231   0.09850   0.35936   0.00525   0.04426
  28 4   C  1S          0.01582  -0.02136   0.01106   0.00449  -0.04840
  29        2S         -0.02070   0.02162  -0.01241  -0.00702   0.05684
  30        2PX         0.12162   0.26744  -0.07760   0.09471  -0.04604
  31        2PY        -0.09326  -0.04269   0.00160  -0.16369   0.16833
  32        2PZ         0.00645   0.05796   0.17482   0.01158   0.01080
  33        3S         -0.02452   0.06914  -0.02953  -0.02957   0.16701
  34        3PX         0.08008   0.17520  -0.05359   0.07043  -0.03678
  35        3PY        -0.09884  -0.03261   0.00373  -0.13413   0.11691
  36        3PZ         0.00430   0.05193   0.16547   0.00923   0.01481
  37 5   C  1S         -0.04866   0.03643  -0.00945  -0.01475   0.01870
  38        2S          0.04674  -0.04114   0.01086   0.01909  -0.01311
  39        2PX         0.03538   0.00823   0.00982  -0.32762  -0.11397
  40        2PY         0.20342   0.02397   0.01456   0.05603  -0.25599
  41        2PZ         0.00774   0.03114   0.12026   0.00016  -0.00350
  42        3S          0.20344  -0.11541   0.02617   0.05646  -0.08907
  43        3PX         0.05370   0.00925   0.01709  -0.19054  -0.12071
  44        3PY         0.10665  -0.00508   0.02312  -0.00128  -0.16112
  45        3PZ         0.00711   0.02104   0.08949  -0.00158  -0.00327
  46 6   H  1S          0.12332  -0.02131   0.02652  -0.10141  -0.20910
  47        2S          0.06853  -0.00793   0.01246  -0.09033  -0.19223
  48 7   H  1S          0.06158   0.19122  -0.05302   0.11548  -0.02001
  49        2S          0.02469   0.14219  -0.04234   0.09573  -0.02224
  50 8   H  1S          0.06787  -0.18881   0.04800   0.08700   0.05486
  51        2S          0.02412  -0.13506   0.03757   0.06796   0.05112
  52 9   H  1S          0.13854   0.03693  -0.02531  -0.15942   0.16432
  53        2S          0.07381   0.01933  -0.01259  -0.13951   0.14367
                          16        17        18        19        20
                           O         O         O         V         V
     Eigenvalues --    -0.35504  -0.28236  -0.22861   0.01491   0.08881
   1 1   C  1S          0.02620   0.00387   0.00074   0.00450  -0.00249
   2        2S         -0.02595  -0.00523  -0.00039  -0.00650  -0.00188
   3        2PX         0.04461  -0.01048  -0.00852  -0.00988  -0.01102
   4        2PY         0.15139  -0.00352  -0.00272   0.00133   0.01219
   5        2PZ        -0.00191  -0.28551  -0.19242  -0.16049   0.34228
   6        3S         -0.17364  -0.00596  -0.00725  -0.00158   0.05831
   7        3PX         0.08111   0.00201  -0.01195  -0.00870   0.00472
   8        3PY         0.11082  -0.00339  -0.00288  -0.02685   0.03256
   9        3PZ         0.00061  -0.28994  -0.21189  -0.26665   0.70826
  10 2   C  1S         -0.02005  -0.00181   0.00376  -0.00154   0.00250
  11        2S          0.02625   0.00216  -0.00399   0.00203  -0.00320
  12        2PX         0.02641   0.00397   0.00182  -0.01154  -0.00524
  13        2PY        -0.17218   0.00462   0.00918   0.00004   0.01515
  14        2PZ        -0.01136  -0.04366  -0.32676   0.32416  -0.21094
  15        3S          0.07797   0.00763  -0.01830  -0.00234  -0.00420
  16        3PX         0.01334   0.00115   0.00466  -0.04033   0.00059
  17        3PY         0.01627   0.00701   0.00533  -0.01442   0.04606
  18        3PZ        -0.00971  -0.00281  -0.34949   0.48614  -0.41785
  19 3   O  1S          0.06540   0.00008  -0.00280  -0.00156  -0.00811
  20        2S         -0.06646  -0.00026   0.00280   0.00124   0.00721
  21        2PX         0.03841   0.00427  -0.00080   0.00135   0.00730
  22        2PY         0.43448   0.00771  -0.00874   0.00246   0.01647
  23        2PZ        -0.00891   0.31525   0.01434  -0.29096   0.00733
  24        3S         -0.23954   0.00139   0.01282   0.01097   0.05476
  25        3PX         0.04159   0.00449  -0.00110  -0.00284   0.00705
  26        3PY         0.47071   0.00866  -0.01035   0.00344   0.02144
  27        3PZ        -0.00946   0.35452   0.01824  -0.40403   0.01233
  28 4   C  1S         -0.01441   0.00160   0.00239   0.00352   0.00873
  29        2S          0.01892  -0.00222  -0.00186  -0.00488  -0.01134
  30        2PX        -0.05108   0.00252  -0.00804  -0.01116   0.01067
  31        2PY        -0.18639  -0.00782   0.01882   0.00946   0.01042
  32        2PZ         0.01023  -0.06899   0.33063   0.32323   0.20199
  33        3S          0.06450  -0.00157  -0.01585  -0.00063  -0.02356
  34        3PX        -0.01689   0.00128  -0.00768  -0.04395  -0.02294
  35        3PY        -0.00182  -0.00306   0.01260   0.04101   0.04980
  36        3PZ         0.00541  -0.02774   0.35900   0.48258   0.40317
  37 5   C  1S          0.02153  -0.00614   0.00296  -0.00696  -0.01622
  38        2S         -0.02266   0.00732  -0.00301   0.00813   0.01241
  39        2PX        -0.01995   0.00696   0.00286  -0.00032   0.02656
  40        2PY         0.17837   0.01482  -0.01241   0.00665   0.03125
  41        2PZ         0.00750  -0.29611   0.17248  -0.17030  -0.33643
  42        3S         -0.14334   0.01335  -0.00986   0.01554   0.11942
  43        3PX        -0.06215   0.01453  -0.00058   0.00824   0.08572
  44        3PY         0.13426   0.01486  -0.01492   0.04577   0.10743
  45        3PZ         0.00279  -0.29812   0.18908  -0.28151  -0.69427
  46 6   H  1S          0.06927   0.00396   0.00317  -0.00843  -0.03394
  47        2S          0.09777   0.00564   0.00455  -0.03453  -0.19343
  48 7   H  1S          0.06050  -0.00078  -0.00009   0.00917   0.00751
  49        2S          0.06417  -0.00008  -0.00174   0.03783   0.03598
  50 8   H  1S          0.06851  -0.00178   0.00033  -0.00734   0.00481
  51        2S          0.06890  -0.00340   0.00112  -0.02959   0.01083
  52 9   H  1S          0.04936  -0.00176   0.00461   0.00004  -0.01469
  53        2S          0.07593  -0.00045   0.00528   0.01043  -0.07532
                          21        22        23        24        25
                           V         V         V         V         V
     Eigenvalues --     0.12905   0.15508   0.18353   0.19093   0.21714
   1 1   C  1S          0.03253  -0.00116  -0.05960   0.09172  -0.05874
   2        2S         -0.01838   0.01226   0.06502  -0.06935   0.03110
   3        2PX         0.04995   0.01903   0.06775   0.08868  -0.21106
   4        2PY        -0.15034   0.00173  -0.03349  -0.18338   0.02713
   5        2PZ         0.03914  -0.01241  -0.00348  -0.00562  -0.00924
   6        3S         -0.44589  -0.12363   0.27745  -0.98708   0.91172
   7        3PX         0.14145   0.00576   0.05546   0.54023  -0.87255
   8        3PY        -0.44089   0.07092   0.26430  -0.84382   0.12760
   9        3PZ         0.10213  -0.04185  -0.00242  -0.03786  -0.04659
  10 2   C  1S          0.02085   0.08387   0.07378  -0.01326   0.06777
  11        2S         -0.01254  -0.06288  -0.05777   0.02716  -0.04194
  12        2PX         0.11507  -0.05119   0.18467   0.16450   0.17498
  13        2PY        -0.06803   0.15159   0.06750   0.04060  -0.07202
  14        2PZ        -0.01434   0.01420   0.01265   0.00495   0.00911
  15        3S         -0.40022  -0.81656  -0.91136  -0.26532  -1.10838
  16        3PX         0.23815   0.08648   0.90909   0.24079   0.68708
  17        3PY        -0.21809   0.54046   0.33985   0.13288  -0.37733
  18        3PZ        -0.03585   0.04032   0.04216   0.01737   0.03282
  19 3   O  1S          0.05059  -0.09832  -0.02715   0.00950   0.06772
  20        2S         -0.03401   0.06879   0.01657  -0.00568  -0.02884
  21        2PX        -0.01911   0.04084   0.04303   0.06662  -0.09906
  22        2PY        -0.11971   0.13366   0.03036  -0.02284  -0.02904
  23        2PZ        -0.00102   0.00457  -0.01045  -0.00171  -0.00005
  24        3S         -0.42105   0.81359   0.24359  -0.08746  -0.71611
  25        3PX        -0.02651   0.05817   0.12713   0.05732  -0.19321
  26        3PY        -0.21715   0.21609   0.05445  -0.04717  -0.15505
  27        3PZ        -0.00259   0.00863  -0.02245  -0.00040  -0.00005
  28 4   C  1S          0.01931   0.12409  -0.04021   0.02173   0.00346
  29        2S         -0.00883  -0.09231   0.03026  -0.03076   0.01174
  30        2PX        -0.17196   0.00404   0.24312   0.09864  -0.20516
  31        2PY        -0.04297   0.20443  -0.00001  -0.05709  -0.14253
  32        2PZ         0.02117  -0.02926   0.01898  -0.00549  -0.00688
  33        3S         -0.40965  -1.23368   0.57452   0.04951  -0.38914
  34        3PX        -0.33859  -0.27878   0.93159   0.04726  -0.58051
  35        3PY        -0.11804   0.68065  -0.06257  -0.19087  -0.59471
  36        3PZ         0.05327  -0.08378   0.06543  -0.02987  -0.02686
  37 5   C  1S          0.05429  -0.01853   0.07297  -0.07995  -0.06398
  38        2S         -0.03349   0.03430  -0.06198   0.05945   0.01446
  39        2PX        -0.09673  -0.01954  -0.00045   0.11410   0.14811
  40        2PY        -0.19802  -0.02568   0.01090   0.12618   0.03755
  41        2PZ        -0.05847   0.02067  -0.01988   0.03025   0.01672
  42        3S         -0.62915  -0.07134  -0.57781   0.78247   1.28670
  43        3PX        -0.32312   0.05595  -0.10961   0.59366   0.32883
  44        3PY        -0.50885   0.06104  -0.25963   0.62633  -0.00432
  45        3PZ        -0.14683   0.05823  -0.05842   0.08353   0.07968
  46 6   H  1S          0.11197  -0.02837   0.00339  -0.04596   0.04844
  47        2S          1.16291  -0.11464   0.47053  -1.27212  -0.68625
  48 7   H  1S          0.03204   0.09269  -0.05206   0.00256   0.00861
  49        2S          0.53046   1.38800  -1.23098  -0.21142   0.38864
  50 8   H  1S          0.02493   0.06195   0.07056   0.00477  -0.00939
  51        2S          0.40189   0.84569   1.61798   0.50053   1.05520
  52 9   H  1S          0.09031  -0.02065  -0.01117   0.05920   0.01930
  53        2S          0.89928  -0.05240  -0.28902   1.61403  -0.98456
                          26        27        28        29        30
                           V         V         V         V         V
     Eigenvalues --     0.23267   0.34958   0.42359   0.49241   0.67335
   1 1   C  1S         -0.06679  -0.07080   0.01982  -0.13001  -0.02308
   2        2S          0.01187   0.03216   0.01550   0.02313   0.05749
   3        2PX         0.07234   0.05512   0.21340   0.11954  -0.39519
   4        2PY         0.06244  -0.11384   0.19469  -0.18929  -0.31545
   5        2PZ        -0.00788   0.00210  -0.00700   0.00425   0.00318
   6        3S          1.41742   1.32460  -0.72314   3.54767   0.03862
   7        3PX         0.79239  -0.40854   1.37811   2.04537   0.41889
   8        3PY         0.18745  -1.30067   1.71659  -1.78199   0.13478
   9        3PZ        -0.04826   0.01295  -0.03012  -0.07893  -0.00675
  10 2   C  1S         -0.08445   0.07833  -0.04743   0.08811   0.04919
  11        2S          0.06692  -0.00131   0.01753  -0.00796   0.03144
  12        2PX         0.14487  -0.16509   0.01267  -0.25159  -0.29934
  13        2PY        -0.18615  -0.21726   0.13578   0.17043   0.23667
  14        2PZ         0.00180  -0.00533   0.00861  -0.00941   0.01465
  15        3S          0.88481  -1.40220   1.39892  -1.58965  -0.12955
  16        3PX         0.35251  -1.05018   0.26361  -1.43274   0.15684
  17        3PY        -0.59132  -1.01569   1.86251  -0.89776  -0.35546
  18        3PZ         0.00551  -0.01883   0.03060   0.00069  -0.00390
  19 3   O  1S          0.03074  -0.05366  -0.00417  -0.00657  -0.02977
  20        2S         -0.01388   0.02266   0.00164   0.00292   0.09413
  21        2PX         0.33372   0.01889  -0.17188  -0.24138   0.00889
  22        2PY        -0.04068   0.15694   0.00931   0.02227   0.16913
  23        2PZ        -0.00548  -0.00102  -0.00575  -0.00321   0.00101
  24        3S         -0.32744   0.67273   0.05798   0.08481  -0.18975
  25        3PX         0.68052   0.04581  -0.46417  -0.44620  -0.03578
  26        3PY        -0.11335   0.47610   0.02988   0.06646   0.06427
  27        3PZ        -0.00757  -0.00301  -0.00831   0.00476   0.00148
  28 4   C  1S          0.08639   0.08281   0.04955  -0.07967   0.04419
  29        2S         -0.06344  -0.00689  -0.01204   0.01790   0.02668
  30        2PX         0.05541   0.15873   0.00534  -0.26620   0.33703
  31        2PY         0.09160  -0.21997  -0.12567  -0.15395   0.23630
[...]
     1  C    5.245338   0.463251  -0.077302  -0.139374   0.445519  -0.025401
     2  C    0.463251   5.066238   0.291179  -0.151717  -0.137469   0.005105
     3  O   -0.077302   0.291179   8.110642   0.293235  -0.083180   0.002069
     4  C   -0.139374  -0.151717   0.293235   5.102067   0.463649  -0.032322
     5  C    0.445519  -0.137469  -0.083180   0.463649   5.235224   0.374449
     6  H   -0.025401   0.005105   0.002069  -0.032322   0.374449   0.494167
     7  H    0.002584   0.003350  -0.024936   0.387084  -0.035149  -0.000355
     8  H   -0.038605   0.394254  -0.029873   0.003785   0.003012  -0.000027
     9  H    0.382754  -0.029120   0.002258   0.005627  -0.030311  -0.001565
               7          8          9
     1  C    0.002584  -0.038605   0.382754
     2  C    0.003350   0.394254  -0.029120
     3  O   -0.024936  -0.029873   0.002258
     4  C    0.387084   0.003785   0.005627
     5  C   -0.035149   0.003012  -0.030311
     6  H   -0.000355  -0.000027  -0.001565
     7  H    0.446240  -0.000053  -0.000030
     8  H   -0.000053   0.444860  -0.000498
     9  H   -0.000030  -0.000498   0.483470
 Mulliken charges:
               1
     1  C   -0.258763
     2  C    0.094929
     3  O   -0.484093
     4  C    0.067967
     5  C   -0.235745
     6  H    0.183878
     7  H    0.221264
     8  H    0.223145
     9  H    0.187416
 Sum of Mulliken charges =   0.00000
 Mulliken charges with hydrogens summed into heavy atoms:
               1
     1  C   -0.071347
     2  C    0.318074
     3  O   -0.484093
     4  C    0.289232
     5  C   -0.051866
 Electronic spatial extent (au):  <R**2>=            287.9615
 Charge=              0.0000 electrons
 Dipole moment (field-independent basis, Debye):
    X=              0.0609    Y=              0.6525    Z=              0.0909  Tot=              0.6616
 Quadrupole moment (field-independent basis, Debye-Ang):
   XX=            -23.3460   YY=            -28.2370   ZZ=            -31.6889
   XY=             -0.2724   XZ=              0.3845   YZ=              0.0925
 Traceless Quadrupole moment (field-independent basis, Debye-Ang):
   XX=              4.4113   YY=             -0.4797   ZZ=             -3.9316
   XY=             -0.2724   XZ=              0.3845   YZ=              0.0925
 Octapole moment (field-independent basis, Debye-Ang**2):
  XXX=             -0.4072  YYY=              1.2804  ZZZ=              0.1126  XYY=              0.5165
  XXY=             -4.5299  XXZ=              0.3429  XZZ=             -0.3957  YZZ=             -3.3879
  YYZ=              0.3024  XYZ=              0.0160
 Hexadecapole moment (field-independent basis, Debye-Ang**3):
 XXXX=           -153.8209 YYYY=           -157.5297 ZZZZ=            -30.7756 XXXY=              0.6081
 XXXZ=              1.6233 YYYX=             -1.5140 YYYZ=              0.4117 ZZZX=              0.4399
 ZZZY=              0.0857 XXYY=            -45.3277 XXZZ=            -38.7714 YYZZ=            -34.0892
 XXYZ=              0.1958 YYXZ=              0.7199 ZZXY=              0.2039
 N-N= 1.615717025327D+02 E-N=-8.558587261116D+02  KE= 2.270253429015D+02
 Orbital energies and kinetic energies (alpha):
                                 1                 2
   1         O               -19.108598         28.829385
   2         O               -10.172949         15.801857
   3         O               -10.170059         15.797702
   4         O               -10.124457         15.804468
   5         O               -10.119241         15.805369
   6         O                -1.117403          2.491688
   7         O                -0.810408          1.839767
   8         O                -0.749331          1.776559
   9         O                -0.595694          1.623932
  10         O                -0.583058          1.458341
  11         O                -0.541392          1.319646
  12         O                -0.457384          1.529110
  13         O                -0.442723          1.558106
  14         O                -0.417779          1.382919
  15         O                -0.403761          1.375897
  16         O                -0.355036          2.330361
  17         O                -0.282365          1.573255
  18         O                -0.228613          1.214307
  19         V                 0.014914          1.838679
  20         V                 0.088807          1.490917
  21         V                 0.129048          1.247210
  22         V                 0.155076          1.810931
  23         V                 0.183532          1.255004
  24         V                 0.190926          1.233541
  25         V                 0.217143          1.547409
  26         V                 0.232670          2.190869
  27         V                 0.349577          1.966067
  28         V                 0.423592          1.666407
  29         V                 0.492405          2.731122
  30         V                 0.673352          2.505380
  31         V                 0.699859          2.497973
  32         V                 0.725235          2.837840
  33         V                 0.749923          2.708589
  34         V                 0.771651          2.517129
  35         V                 0.787274          2.575643
  36         V                 0.807225          2.655682
  37         V                 0.814141          2.508084
  38         V                 0.840117          2.614482
  39         V                 0.927514          2.740148
  40         V                 0.987657          3.335000
  41         V                 1.027748          3.216046
  42         V                 1.034506          3.167256
  43         V                 1.178741          2.731881
  44         V                 1.245140          2.902945
  45         V                 1.333356          2.563065
  46         V                 1.359713          2.847704
  47         V                 1.501792          4.948376
  48         V                 1.574518          3.423437
  49         V                 1.611556          3.578385
  50         V                 1.735715          4.477392
  51         V                 1.978488          4.147067
  52         V                 2.136124          4.222409
  53         V                 3.165126          6.822174
 Total kinetic energy from orbitals= 2.270253429015D+02
 No NMR shielding tensors so no spin-rotation constants.
 Leave Link  601 at Tue Dec 15 16:21:23 2015, MaxMem=    33554432 cpu:         0.1
 (Enter /home/Applications/g09/g09/l701.exe)
 Compute integral first derivatives.
 ... and contract with generalized density number  6.
 Leave Link  701 at Tue Dec 15 16:21:23 2015, MaxMem=    33554432 cpu:         0.1
 (Enter /home/Applications/g09/g09/l702.exe)
 L702 exits ... SP integral derivatives will be done elsewhere.
 Leave Link  702 at Tue Dec 15 16:21:23 2015, MaxMem=    33554432 cpu:         0.0
 (Enter /home/Applications/g09/g09/l703.exe)
 Compute integral first derivatives, UseDBF=F ICtDFT=           0.
 Integral derivatives from FoFJK, PRISM(SPDF).
 Calling FoFJK, ICntrl=  10005127 FMM=F ISym2X=0 I1Cent= 0 IOpClX= 0 NMat=1 NMatS=1 NMatT=0.
 FoFJK:  IHMeth= 1 ICntrl=10005127 DoSepK=F KAlg= 0 I1Cent=   0 FoldK=F
 IRaf=         0 NMat=   1 IRICut=       1 DoRegI=T DoRafI=F ISym2E= 0.
 FoFCou: FMM=F IPFlag=           0 FMFlag=      100000 FMFlg1=         800
         NFxFlg=           0 DoJE=F BraDBF=F KetDBF=F FulRan=T
         wScrn=  0.000000 ICntrl=10005127 IOpCl=  0 I1Cent=           0 NGrid=           0
         NMat0=    1 NMatS0=      1 NMatT0=    0 NMatD0=    1 NMtDS0=    0 NMtDT0=    0
 Symmetry not used in FoFCou.
 Leave Link  703 at Tue Dec 15 16:21:25 2015, MaxMem=    33554432 cpu:         1.6
 (Enter /home/Applications/g09/g09/l716.exe)
 Dipole        =-2.34912725D-01 2.82201060D-01 5.92862887D-02
 ***** Axes restored to original set *****
 -------------------------------------------------------------------
 Center     Atomic                   Forces (Hartrees/Bohr)
 Number     Number              X              Y              Z
 -------------------------------------------------------------------
      1        6           0.066228409   -0.014791577    0.001558242
      2        6          -0.005456814    0.001689725   -0.003008299
      3        8          -0.113163901   -0.012414630    0.000088702
      4        6          -0.010445428    0.035839982    0.000844079
      5        6           0.095668412    0.054959526   -0.001361720
      6        1          -0.015215814   -0.022970219    0.003503817
      7        1          -0.003017345    0.008502807   -0.001351619
      8        1          -0.020634214   -0.047142530    0.001705225
      9        1           0.006036696   -0.003673085   -0.001978425
 -------------------------------------------------------------------
 Cartesian Forces:  Max     0.113163901 RMS     0.035869143
 Z-matrix is all fixed cartesians, so copy forces.
 Force constants in Cartesian coordinates: 
                1             2             3             4             5 
      1  0.915993D+00
      2 -0.291525D-01  0.909572D+00
      3  0.938407D-03  0.203079D-01  0.231755D+00
      4 -0.479753D+00 -0.110827D+00 -0.195403D-02  0.933662D+00
      5 -0.868991D-01 -0.219919D+00 -0.183244D-02  0.584216D-01  0.960151D+00
      6  0.224899D-02 -0.620254D-03 -0.107945D+00 -0.942817D-02 -0.247812D-02
      7 -0.953993D-02  0.286952D-01  0.644801D-03 -0.286621D+00  0.168385D+00
      8 -0.702090D-02  0.211225D-01  0.249265D-03  0.210047D+00 -0.374682D+00
      9  0.166346D-03  0.386273D-05  0.746288D-02  0.582580D-02 -0.594246D-02
     10  0.119649D-01  0.914947D-04  0.921899D-04  0.243379D-01  0.178931D-01
     11  0.355145D-01  0.267676D-03  0.393586D-03 -0.171508D-01 -0.126239D-01
     12  0.258696D-02  0.333097D-05 -0.196446D-02 -0.580783D-03 -0.208516D-03
     13 -0.183322D+00  0.137429D-01  0.778111D-03  0.117917D-01 -0.354702D-01
     14 -0.104542D-01 -0.518057D+00 -0.229959D-01  0.893428D-04 -0.268933D-03
     15  0.105051D-02 -0.198248D-01 -0.100566D+00  0.110105D-03 -0.265504D-03
     16  0.185473D-01  0.140631D-03  0.163386D-03  0.109034D-04 -0.368180D-04
     17 -0.221693D-01 -0.288677D-03  0.255356D-02 -0.347495D-05  0.117340D-04
     18 -0.255079D-02 -0.106266D-02  0.237615D-01  0.811977D-04 -0.274183D-03
     19 -0.129248D-05 -0.187192D-05  0.424385D-04  0.000000D+00  0.502120D-05
     20 -0.143592D-04 -0.207966D-04  0.471484D-03  0.000000D+00 -0.198074D-05
     21 -0.229113D-03 -0.331828D-03  0.752292D-02 -0.779646D-05 -0.779125D-04
     22  0.898774D-02 -0.270514D-01  0.104700D-02 -0.197681D+00 -0.139598D+00
     23 -0.474085D-02  0.142644D-01  0.424973D-03 -0.132796D+00 -0.376082D+00
     24 -0.110642D-03  0.186534D-03  0.307432D-01  0.618645D-02  0.105037D-01
     25 -0.282877D+00  0.124363D+00 -0.175231D-02 -0.574812D-02  0.172992D-01
     26  0.124937D+00 -0.206941D+00  0.427566D-03 -0.778042D-02  0.234143D-01
     27 -0.410067D-02  0.133789D-02 -0.907699D-01 -0.232783D-03  0.575393D-03
                6             7             8             9            10 
      6  0.205778D+00
      7  0.382289D-02  0.518551D+00
      8 -0.485189D-02 -0.241325D-01  0.697837D+00
      9 -0.442922D-01  0.110061D-02  0.100539D-01  0.518370D-01
     10  0.796418D-03 -0.257601D+00 -0.187240D+00 -0.710681D-02  0.885525D+00
     11 -0.291805D-03 -0.143903D+00 -0.347225D+00 -0.547407D-02 -0.621850D-01
     12 -0.384005D-02 -0.501988D-02 -0.458555D-02 -0.436291D-01  0.199854D-01
     13 -0.316330D-02 -0.963157D-02  0.680604D-02 -0.674314D-03 -0.481454D+00
     14 -0.745699D-04 -0.285210D-01  0.201393D-01 -0.113261D-02  0.115072D+00
     15 -0.140139D-02 -0.660857D-03  0.291649D-03  0.714106D-02 -0.355990D-02
     16  0.841305D-03 -0.167015D-05  0.000000D+00  0.926849D-04 -0.608001D-02
     17 -0.268126D-03 -0.950704D-05 -0.386268D-05  0.527592D-03  0.713148D-02
     18  0.626518D-02 -0.993011D-04 -0.403457D-04  0.551070D-02 -0.339425D-03
     19 -0.268373D-03  0.218199D-01 -0.154232D-01  0.170558D-02 -0.176700D+00
     20  0.105867D-03  0.116375D-01 -0.823183D-02  0.120617D-02  0.109229D+00
     21  0.416426D-02  0.681712D-03 -0.581392D-03  0.502215D-02 -0.966190D-02
     22  0.550255D-02  0.230250D-01  0.169642D-01 -0.108912D-02  0.000000D+00
     23  0.869717D-02 -0.121518D-01 -0.895573D-02  0.724670D-03  0.000000D+00
     24 -0.849974D-01 -0.490800D-03 -0.443358D-03  0.473998D-02 -0.950683D-05
     25 -0.352303D-03  0.000000D+00  0.000000D+00 -0.207767D-04  0.784370D-05
     26 -0.218271D-03  0.000000D+00  0.000000D+00  0.329585D-04  0.868083D-05
     27  0.262695D-01  0.208331D-04 -0.922559D-04  0.620752D-02 -0.196468D-03
               11            12            13            14            15 
     11  0.878053D+00
     12 -0.115521D-01  0.195354D+00
     13  0.904607D-01 -0.107897D-01  0.860333D+00
     14 -0.218363D+00  0.348759D-02 -0.246880D-03  0.895772D+00
     15  0.183877D-02 -0.101218D+00 -0.832421D-02  0.602520D-02  0.221187D+00
     16 -0.178660D-01  0.260919D-02 -0.224610D+00 -0.101899D+00  0.134304D-01
     17  0.210770D-01 -0.425191D-03 -0.104543D+00 -0.193226D+00  0.107977D-01
     18  0.510994D-04  0.229466D-01  0.182707D-01  0.141659D-01 -0.845657D-01
     19  0.115122D+00 -0.873106D-02  0.875341D-02  0.258081D-01 -0.188021D-02
     20 -0.321198D+00  0.135082D-01  0.466406D-02  0.138282D-01  0.671850D-03
     21  0.154141D-01 -0.791774D-01  0.197891D-03  0.187318D-02  0.280042D-01
     22 -0.369370D-05  0.197421D-03 -0.146283D-05  0.493957D-05 -0.112871D-03
     23 -0.107178D-05  0.572844D-04  0.392871D-05 -0.132662D-04  0.303138D-03
     24 -0.950047D-04  0.507781D-02  0.993789D-04 -0.335576D-03  0.766803D-02
     25  0.113601D-04 -0.257547D-03  0.181409D-01  0.146885D-03 -0.530004D-04
     26  0.125726D-04 -0.285034D-03  0.245830D-01  0.188791D-03  0.161960D-03
     27 -0.284548D-03  0.645102D-02  0.360548D-02 -0.101315D-02  0.237514D-01
               16            17            18            19            20 
     16  0.212083D+00
     17  0.119616D+00  0.172508D+00
     18 -0.156866D-01 -0.126311D-01  0.456805D-01
     19  0.000000D+00 -0.543165D-05 -0.567337D-04  0.146128D+00
     20 -0.106011D-04 -0.603447D-04 -0.630301D-03 -0.125505D+00  0.315684D+00
     21 -0.169149D-03 -0.962850D-03 -0.100570D-01  0.918836D-02 -0.153333D-01
     22  0.000000D+00  0.000000D+00  0.000000D+00  0.000000D+00  0.000000D+00
     23  0.000000D+00  0.000000D+00  0.000000D+00  0.000000D+00  0.000000D+00
     24  0.000000D+00  0.000000D+00  0.000000D+00  0.000000D+00  0.000000D+00
     25  0.511538D-04 -0.163028D-04  0.380941D-03  0.000000D+00  0.000000D+00
     26  0.566132D-04 -0.180427D-04  0.421597D-03  0.000000D+00  0.000000D+00
     27 -0.128129D-02  0.408351D-03 -0.954177D-02  0.000000D+00  0.000000D+00
               21            22            23            24            25 
     21  0.445209D-01
     22  0.000000D+00  0.165671D+00
     23  0.000000D+00  0.149683D+00  0.370790D+00
     24  0.000000D+00 -0.571311D-02 -0.975569D-02  0.481905D-01
     25  0.000000D+00  0.000000D+00  0.151133D-05  0.382300D-04  0.270426D+00
     26  0.000000D+00  0.000000D+00 -0.239746D-05 -0.606451D-04 -0.141806D+00
     27  0.000000D+00  0.168130D-03 -0.451546D-03 -0.114221D-01  0.201677D-02
               26            27 
     26  0.183346D+00
     27 -0.480131D-03  0.490543D-01
 Leave Link  716 at Tue Dec 15 16:21:25 2015, MaxMem=    33554432 cpu:         0.0
 (Enter /home/Applications/g09/g09/l103.exe)

 GradGradGradGradGradGradGradGradGradGradGradGradGradGradGradGradGradGrad
 Berny optimization.
 Search for a local minimum.
 Step number   1 out of a maximum of    2
 All quantities printed in internal units (Hartrees-Bohrs-Radians)
 Second derivative matrix not updated -- first step.
 ITU=  0
     Eigenvalues ---    0.02177   0.03117   0.06968   0.07567   0.07980
     Eigenvalues ---    0.08127   0.13348   0.14800   0.17288   0.22941
     Eigenvalues ---    0.25422   0.31069   0.42531   0.44700   0.64040
     Eigenvalues ---    0.85064   1.11424   1.39103   1.45455   1.58126
     Eigenvalues ---    1.63670
 Quadratic step=4.057D-01 exceeds max=3.000D-01 adjusted using Lamda=-9.811D-02.
 Angle between NR and scaled steps=  12.58 degrees.
 Angle between quadratic step and forces=  27.05 degrees.
 Linear search not attempted -- first point.
 TrRot= -0.010650  0.007720  0.000815  0.757636  0.000313 -0.757044
 Variable       Old X    -DE/DX   Delta X   Delta X   Delta X     New X
                                 (Linear)    (Quad)   (Total)
    X1        1.78813   0.06623   0.00000   0.09507   0.08519   1.87331
    Y1       -1.30316  -0.01479   0.00000   0.00236   0.01119  -1.29197
    Z1       -0.03350   0.00156   0.00000   0.00436   0.00503  -0.02847
    X2       -0.66561  -0.00546   0.00000  -0.02936  -0.03876  -0.70438
    Y2       -2.11856   0.00169   0.00000  -0.00145   0.00585  -2.11271
    Z2       -0.03738  -0.00301   0.00000  -0.00243  -0.00100  -0.03839
    X3       -2.19158  -0.11316   0.00000  -0.19301  -0.20362  -2.39520
    Y3       -0.04511  -0.01241   0.00000  -0.01551  -0.00920  -0.05431
    Z3       -0.00145   0.00009   0.00000   0.00277   0.00414   0.00269
    X4       -0.67809  -0.01045   0.00000  -0.01162  -0.02351  -0.70160
    Y4        2.10083   0.03584   0.00000   0.01096   0.01828   2.11912
    Z4        0.04154   0.00084   0.00000  -0.00090  -0.00039   0.04115
    X5        1.76759   0.09567   0.00000   0.12321   0.11179   1.87938
    Y5        1.27410   0.05496   0.00000   0.05713   0.06598   1.34008
    Z5        0.07955  -0.00136   0.00000  -0.00005   0.00005   0.07960
    X6        3.37826  -0.01522   0.00000   0.06380   0.05158   3.42984
    Y6        2.63978  -0.02297   0.00000  -0.01934  -0.00960   2.63018
    Z6       -0.07829   0.00350   0.00000   0.00841   0.00788  -0.07041
    X7       -1.61817  -0.00302   0.00000   0.00030  -0.01268  -1.63084
    Y7        3.86963   0.00850   0.00000   0.03299   0.03974   3.90937
    Z7       -0.06402  -0.00135   0.00000  -0.00809  -0.00774  -0.07176
    X8       -1.56041  -0.02063   0.00000  -0.02375  -0.03208  -1.59248
    Y8       -3.81618  -0.04714   0.00000  -0.10750  -0.10072  -3.91690
    Z8        0.01656   0.00171   0.00000   0.00023   0.00225   0.01881
    X9        3.41073   0.00604   0.00000   0.07125   0.06209   3.47282
    Y9       -2.50229  -0.00367   0.00000  -0.03131  -0.02154  -2.52382
    Z9       -0.02170  -0.00198   0.00000  -0.01079  -0.01022  -0.03192
         Item               Value     Threshold  Converged?
 Maximum Force            0.113164     0.000450     NO 
 RMS     Force            0.035869     0.000300     NO 
 Maximum Displacement     0.203622     0.001800     NO 
 RMS     Displacement     0.057240     0.001200     NO 
 Predicted change in Energy=-2.933333D-02
 GradGradGradGradGradGradGradGradGradGradGradGradGradGradGradGradGradGrad

 Leave Link  103 at Tue Dec 15 16:21:25 2015, MaxMem=    33554432 cpu:         0.0
 (Enter /home/Applications/g09/g09/l9999.exe)
 1\1\GINC-DUSTIN-DESKTOP\Force\RB3LYP-FC\3-21G\C4H4O1\DUSTIN\15-Dec-201
 5\0\\#P B3LYP/3-21G CIS(Singlets,NStates=15) pop(full) force\\FuranDFT
 \\0,1\C,0.946236,-0.689605,-0.017728\C,-0.352226,-1.121095,-0.019783\O
 ,-1.159732,-0.02387,-0.000766\C,-0.358829,1.111714,0.02198\C,0.935368,
 0.674223,0.042098\H,1.787698,1.396909,-0.041427\H,-0.856297,2.047721,-
 0.033876\H,-0.825732,-2.019437,0.008761\H,1.804881,-1.324153,-0.011485
 \\Version=ES64L-G09RevD.01\State=1-A\HF=-228.7421624\RMSD=7.613e-09\RM
 SF=3.587e-02\Dipole=0.2705582,-0.2476365,-0.0617314\PG=C01 [X(C4H4O1)]
 \\@


 I HAVE NOT FAILED, I HAVE ONLY DISCOVERED 10,000
 WAYS THAT DIDN'T WORK.  -- THOMAS A. EDISON
 Job cpu time:       0 days  0 hours  0 minutes 50.0 seconds.
 File lengths (MBytes):  RWF=     14 Int=      0 D2E=      0 Chk=      3 Scr=      1
 Normal termination of Gaussian 09 at Tue Dec 15 16:21:25 2015.
