 Entering Gaussian System, Link 0=g09
 Input=FuranDFT_13.com
 Output=FuranDFT_13.log
 Initial command:
 /home/Applications/g09/g09/l1.exe "/home/Applications/g09/scratch/Gau-5552.inp" -scrdir="/home/Applications/g09/scratch/"
 Entering Link 1 = /home/Applications/g09/g09/l1.exe PID=      5554.
  
 Copyright (c) 1988,1990,1992,1993,1995,1998,2003,2009,2013,
            Gaussian, Inc.  All Rights Reserved.
  
 This is part of the Gaussian(R) 09 program.  It is based on
 the Gaussian(R) 03 system (copyright 2003, Gaussian, Inc.),
 the Gaussian(R) 98 system (copyright 1998, Gaussian, Inc.),
 the Gaussian(R) 94 system (copyright 1995, Gaussian, Inc.),
 the Gaussian 92(TM) system (copyright 1992, Gaussian, Inc.),
 the Gaussian 90(TM) system (copyright 1990, Gaussian, Inc.),
 the Gaussian 88(TM) system (copyright 1988, Gaussian, Inc.),
 the Gaussian 86(TM) system (copyright 1986, Carnegie Mellon
 University), and the Gaussian 82(TM) system (copyright 1983,
 Carnegie Mellon University). Gaussian is a federally registered
 trademark of Gaussian, Inc.
  
 This software contains proprietary and confidential information,
 including trade secrets, belonging to Gaussian, Inc.
  
 This software is provided under written license and may be
 used, copied, transmitted, or stored only in accord with that
 written license.
  
 The following legend is applicable only to US Government
 contracts under FAR:
  
                    RESTRICTED RIGHTS LEGEND
  
 Use, reproduction and disclosure by the US Government is
 subject to restrictions as set forth in subparagraphs (a)
 and (c) of the Commercial Computer Software - Restricted
 Rights clause in FAR 52.227-19.
  
 Gaussian, Inc.
 340 Quinnipiac St., Bldg. 40, Wallingford CT 06492
  
  
 ---------------------------------------------------------------
 Warning -- This program may not be used in any manner that
 competes with the business of Gaussian, Inc. or will provide
 assistance to any competitor of Gaussian, Inc.  The licensee
 of this program is prohibited from giving any competitor of
 Gaussian, Inc. access to this program.  By using this program,
 the user acknowledges that Gaussian, Inc. is engaged in the
 business of creating and licensing software in the field of
 computational chemistry and represents and warrants to the
 licensee that it is not a competitor of Gaussian, Inc. and that
 it will not use this program in any manner prohibited above.
 ---------------------------------------------------------------
  

 Cite this work as:
 Gaussian 09, Revision D.01,
 M. J. Frisch, G. W. Trucks, H. B. Schlegel, G. E. Scuseria, 
 M. A. Robb, J. R. Cheeseman, G. Scalmani, V. Barone, B. Mennucci, 
 G. A. Petersson, H. Nakatsuji, M. Caricato, X. Li, H. P. Hratchian, 
 A. F. Izmaylov, J. Bloino, G. Zheng, J. L. Sonnenberg, M. Hada, 
 M. Ehara, K. Toyota, R. Fukuda, J. Hasegawa, M. Ishida, T. Nakajima, 
 Y. Honda, O. Kitao, H. Nakai, T. Vreven, J. A. Montgomery, Jr., 
 J. E. Peralta, F. Ogliaro, M. Bearpark, J. J. Heyd, E. Brothers, 
 K. N. Kudin, V. N. Staroverov, T. Keith, R. Kobayashi, J. Normand, 
 K. Raghavachari, A. Rendell, J. C. Burant, S. S. Iyengar, J. Tomasi, 
 M. Cossi, N. Rega, J. M. Millam, M. Klene, J. E. Knox, J. B. Cross, 
 V. Bakken, C. Adamo, J. Jaramillo, R. Gomperts, R. E. Stratmann, 
 O. Yazyev, A. J. Austin, R. Cammi, C. Pomelli, J. W. Ochterski, 
 R. L. Martin, K. Morokuma, V. G. Zakrzewski, G. A. Voth, 
 P. Salvador, J. J. Dannenberg, S. Dapprich, A. D. Daniels, 
 O. Farkas, J. B. Foresman, J. V. Ortiz, J. Cioslowski, 
 and D. J. Fox, Gaussian, Inc., Wallingford CT, 2013.
 
 ******************************************
 Gaussian 09:  ES64L-G09RevD.01 24-Apr-2013
                15-Dec-2015 
 ******************************************
 -------------------------------------------------------
 #P B3LYP/3-21G CIS(Singlets,NStates=15) pop(full) force
 -------------------------------------------------------
 1/10=7,30=1,38=1/1,3;
 2/12=2,17=6,18=5,40=1/2;
 3/5=5,11=9,16=1,25=1,30=1,71=1,74=-5/1,2,8,3;
 4//1;
 5/5=2,38=5/2;
 8/6=1,10=1,108=15/1;
 9/15=2,41=15,42=1,48=1/14;
 10/5=4/2;
 6/7=3,18=1/1;
 7/12=6,13=5,29=1/1,2,3,16;
 1/10=7,30=1/3;
 99//99;
 Leave Link    1 at Tue Dec 15 16:12:59 2015, MaxMem=           0 cpu:         0.0
 (Enter /home/Applications/g09/g09/l101.exe)
 --------
 FuranDFT
 --------
 Symbolic Z-matrix:
 Charge =  0 Multiplicity = 1
 6                     0.93706  -0.73788   0.02458 
 6                    -0.36034  -1.11926  -0.03744 
 8                    -1.14877   0.02555  -0.02422 
 6                    -0.31182   1.06988   0.03066 
 6                     0.91897   0.7077   -0.04879 
 1                     1.81556   1.38464  -0.03265 
 1                    -0.86812   2.03923   0.0119 
 1                    -0.88387  -2.00143  -0.0289 
 1                     1.78542  -1.33007  -0.02214 
 
 NAtoms=      9 NQM=        9 NQMF=       0 NMMI=      0 NMMIF=      0
                NMic=       0 NMicF=      0.
                    Isotopes and Nuclear Properties:
 (Nuclear quadrupole moments (NQMom) in fm**2, nuclear magnetic moments (NMagM)
  in nuclear magnetons)

  Atom         1           2           3           4           5           6           7           8           9
 IAtWgt=          12          12          16          12          12           1           1           1           1
 AtmWgt=  12.0000000  12.0000000  15.9949146  12.0000000  12.0000000   1.0078250   1.0078250   1.0078250   1.0078250
 NucSpn=           0           0           0           0           0           1           1           1           1
 AtZEff=   0.0000000   0.0000000   0.0000000   0.0000000   0.0000000   0.0000000   0.0000000   0.0000000   0.0000000
 NQMom=    0.0000000   0.0000000   0.0000000   0.0000000   0.0000000   0.0000000   0.0000000   0.0000000   0.0000000
 NMagM=    0.0000000   0.0000000   0.0000000   0.0000000   0.0000000   2.7928460   2.7928460   2.7928460   2.7928460
 AtZNuc=   6.0000000   6.0000000   8.0000000   6.0000000   6.0000000   1.0000000   1.0000000   1.0000000   1.0000000
 Leave Link  101 at Tue Dec 15 16:12:59 2015, MaxMem=    33554432 cpu:         0.0
 (Enter /home/Applications/g09/g09/l103.exe)

 GradGradGradGradGradGradGradGradGradGradGradGradGradGradGradGradGradGrad
 Berny optimization.
 Initialization pass.
 Trust Radius=3.00D-01 FncErr=1.00D-07 GrdErr=1.00D-07
 Number of steps in this run=      2 maximum allowed number of steps=      2.
 GradGradGradGradGradGradGradGradGradGradGradGradGradGradGradGradGradGrad

 Leave Link  103 at Tue Dec 15 16:12:59 2015, MaxMem=    33554432 cpu:         0.0
 (Enter /home/Applications/g09/g09/l202.exe)
                          Input orientation:                          
 ---------------------------------------------------------------------
 Center     Atomic      Atomic             Coordinates (Angstroms)
 Number     Number       Type             X           Y           Z
 ---------------------------------------------------------------------
      1          6           0        0.937058   -0.737880    0.024579
      2          6           0       -0.360335   -1.119256   -0.037436
      3          8           0       -1.148769    0.025554   -0.024217
      4          6           0       -0.311820    1.069883    0.030656
      5          6           0        0.918974    0.707698   -0.048792
      6          1           0        1.815561    1.384643   -0.032651
      7          1           0       -0.868115    2.039231    0.011903
      8          1           0       -0.883868   -2.001426   -0.028899
      9          1           0        1.785418   -1.330067   -0.022144
 ---------------------------------------------------------------------
                    Distance matrix (angstroms):
                    1          2          3          4          5
     1  C    0.000000
     2  C    1.353707   0.000000
     3  O    2.221686   1.390105   0.000000
     4  C    2.197212   2.190735   1.339447   0.000000
     5  C    1.447552   2.230364   2.177495   1.285435   0.000000
     6  H    2.297857   3.317236   3.261050   2.151472   1.123558
     7  H    3.312274   3.199424   2.033462   1.117789   2.229428
     8  H    2.217020   1.025857   2.044222   3.124696   3.254226
     9  H    1.035656   2.156138   3.232208   3.187625   2.214480
                    6          7          8          9
     6  H    0.000000
     7  H    2.762714   0.000000
     8  H    4.330403   4.040894   0.000000
     9  H    2.714898   4.288889   2.752427   0.000000
 Stoichiometry    C4H4O
 Framework group  C1[X(C4H4O)]
 Deg. of freedom    21
 Full point group                 C1      NOp   1
 Largest Abelian subgroup         C1      NOp   1
 Largest concise Abelian subgroup C1      NOp   1
                         Standard orientation:                         
 ---------------------------------------------------------------------
 Center     Atomic      Atomic             Coordinates (Angstroms)
 Number     Number       Type             X           Y           Z
 ---------------------------------------------------------------------
      1          6           0        0.701226    0.967271    0.040553
      2          6           0        1.125392   -0.316932   -0.018002
      3          8           0        0.007052   -1.142557   -0.010788
      4          6           0       -1.064523   -0.340344    0.037152
      5          6           0       -0.742517    0.901630   -0.041313
      6          1           0       -1.448645    1.775495   -0.029997
      7          1           0       -2.014939   -0.928212    0.013211
      8          1           0        2.024224   -0.811181   -0.003780
      9          1           0        1.265480    1.834602   -0.003475
 ---------------------------------------------------------------------
 Rotational constants (GHZ):      9.6132137      9.4767496      4.7779804
 Leave Link  202 at Tue Dec 15 16:12:59 2015, MaxMem=    33554432 cpu:         0.0
 (Enter /home/Applications/g09/g09/l301.exe)
 Standard basis: 3-21G (6D, 7F)
 Ernie: Thresh=  0.10000D-02 Tol=  0.10000D-05 Strict=F.
 There are    53 symmetry adapted cartesian basis functions of A   symmetry.
 There are    53 symmetry adapted basis functions of A   symmetry.
    53 basis functions,    87 primitive gaussians,    53 cartesian basis functions
    18 alpha electrons       18 beta electrons
       nuclear repulsion energy       162.3539100905 Hartrees.
 IExCor=  402 DFT=T Ex+Corr=B3LYP ExCW=0 ScaHFX=  0.200000
 ScaDFX=  0.800000  0.720000  1.000000  0.810000 ScalE2=  1.000000  1.000000
 IRadAn=      0 IRanWt=     -1 IRanGd=            0 ICorTp=0 IEmpDi=  4
 NAtoms=    9 NActive=    9 NUniq=    9 SFac= 1.00D+00 NAtFMM=   60 NAOKFM=F Big=F
 Integral buffers will be    131072 words long.
 Regular integral format.
 Two-electron integral symmetry is turned on.
 Leave Link  301 at Tue Dec 15 16:13:00 2015, MaxMem=    33554432 cpu:         0.0
 (Enter /home/Applications/g09/g09/l302.exe)
 NPDir=0 NMtPBC=     1 NCelOv=     1 NCel=       1 NClECP=     1 NCelD=      1
         NCelK=      1 NCelE2=     1 NClLst=     1 CellRange=     0.0.
 One-electron integrals computed using PRISM.
 NBasis=    53 RedAO= T EigKep=  3.16D-03  NBF=    53
 NBsUse=    53 1.00D-06 EigRej= -1.00D+00 NBFU=    53
 Precomputing XC quadrature grid using
 IXCGrd= 4 IRadAn=           0 IRanWt=          -1 IRanGd=           0 AccXCQ= 0.00D+00.
 Generated NRdTot=       0 NPtTot=           0 NUsed=           0 NTot=          32
 NSgBfM=    53    53    53    53    53 MxSgAt=     9 MxSgA2=     9.
 Leave Link  302 at Tue Dec 15 16:13:00 2015, MaxMem=    33554432 cpu:         0.1
 (Enter /home/Applications/g09/g09/l308.exe)
 Leave Link  308 at Tue Dec 15 16:13:00 2015, MaxMem=    33554432 cpu:         0.0
 (Enter /home/Applications/g09/g09/l303.exe)
 DipDrv:  MaxL=1.
 Leave Link  303 at Tue Dec 15 16:13:00 2015, MaxMem=    33554432 cpu:         0.0
 (Enter /home/Applications/g09/g09/l401.exe)
 ExpMin= 1.83D-01 ExpMax= 3.22D+02 ExpMxC= 3.22D+02 IAcc=1 IRadAn=         1 AccDes= 0.00D+00
 Harris functional with IExCor=  402 and IRadAn=       1 diagonalized for initial guess.
 HarFok:  IExCor=  402 AccDes= 0.00D+00 IRadAn=         1 IDoV= 1 UseB2=F ITyADJ=14
 ICtDFT=  3500011 ScaDFX=  1.000000  1.000000  1.000000  1.000000
 FoFCou: FMM=F IPFlag=           0 FMFlag=      100000 FMFlg1=           0
         NFxFlg=           0 DoJE=T BraDBF=F KetDBF=T FulRan=T
         wScrn=  0.000000 ICntrl=     500 IOpCl=  0 I1Cent=   200000004 NGrid=           0
         NMat0=    1 NMatS0=      1 NMatT0=    0 NMatD0=    1 NMtDS0=    0 NMtDT0=    0
 Petite list used in FoFCou.
 Harris En= -228.730232670992    
 JPrj=0 DoOrth=F DoCkMO=F.
 Leave Link  401 at Tue Dec 15 16:13:00 2015, MaxMem=    33554432 cpu:         0.2
 (Enter /home/Applications/g09/g09/l502.exe)
 Closed shell SCF:
 Using DIIS extrapolation, IDIIS=  1040.
 Integral symmetry usage will be decided dynamically.
 Keep R1 ints in memory in canonical form, NReq=1925595.
 IVT=       27707 IEndB=       27707 NGot=    33554432 MDV=    32502130
 LenX=    32502130 LenY=    32498880
 Requested convergence on RMS density matrix=1.00D-08 within 128 cycles.
 Requested convergence on MAX density matrix=1.00D-06.
 Requested convergence on             energy=1.00D-06.
 No special actions if energy rises.
 FoFCou: FMM=F IPFlag=           0 FMFlag=           0 FMFlg1=           0
         NFxFlg=           0 DoJE=F BraDBF=F KetDBF=F FulRan=T
         wScrn=  0.000000 ICntrl=     600 IOpCl=  0 I1Cent=           0 NGrid=           0
         NMat0=    1 NMatS0=   1431 NMatT0=    0 NMatD0=    1 NMtDS0=    0 NMtDT0=    0
 Symmetry not used in FoFCou.
 Integral accuracy reduced to 1.0D-05 until final iterations.

 Cycle   1  Pass 0  IDiag  1:
 E= -228.651256862779    
 DIIS: error= 3.47D-02 at cycle   1 NSaved=   1.
 NSaved= 1 IEnMin= 1 EnMin= -228.651256862779     IErMin= 1 ErrMin= 3.47D-02
 ErrMax= 3.47D-02  0.00D+00 EMaxC= 1.00D-01 BMatC= 8.03D-02 BMatP= 8.03D-02
 IDIUse=3 WtCom= 6.53D-01 WtEn= 3.47D-01
 Coeff-Com:  0.100D+01
 Coeff-En:   0.100D+01
 Coeff:      0.100D+01
 Gap=     0.246 Goal=   None    Shift=    0.000
 GapD=    0.246 DampG=1.000 DampE=0.500 DampFc=0.5000 IDamp=-1.
 Damping current iteration by 5.00D-01
 RMSDP=1.20D-02 MaxDP=1.18D-01              OVMax= 1.87D-01

 Cycle   2  Pass 0  IDiag  1:
 E= -228.685007254981     Delta-E=       -0.033750392201 Rises=F Damp=T
 DIIS: error= 1.31D-02 at cycle   2 NSaved=   2.
 NSaved= 2 IEnMin= 2 EnMin= -228.685007254981     IErMin= 2 ErrMin= 1.31D-02
 ErrMax= 1.31D-02  0.00D+00 EMaxC= 1.00D-01 BMatC= 8.49D-03 BMatP= 8.03D-02
 IDIUse=3 WtCom= 8.69D-01 WtEn= 1.31D-01
 Coeff-Com:  0.946D-01 0.905D+00
 Coeff-En:   0.170D+00 0.830D+00
 Coeff:      0.104D+00 0.896D+00
 Gap=     0.260 Goal=   None    Shift=    0.000
 RMSDP=4.47D-03 MaxDP=3.95D-02 DE=-3.38D-02 OVMax= 1.58D-01

 Cycle   3  Pass 0  IDiag  1:
 E= -228.724427182107     Delta-E=       -0.039419927126 Rises=F Damp=F
 DIIS: error= 2.02D-02 at cycle   3 NSaved=   3.
 NSaved= 3 IEnMin= 3 EnMin= -228.724427182107     IErMin= 2 ErrMin= 1.31D-02
 ErrMax= 2.02D-02  0.00D+00 EMaxC= 1.00D-01 BMatC= 1.18D-02 BMatP= 8.49D-03
 IDIUse=2 WtCom= 0.00D+00 WtEn= 1.00D+00
 Coeff-En:   0.000D+00 0.000D+00 0.100D+01
 Coeff:      0.000D+00 0.000D+00 0.100D+01
 Gap=     0.252 Goal=   None    Shift=    0.000
 RMSDP=6.03D-03 MaxDP=4.60D-02 DE=-3.94D-02 OVMax= 1.27D-01

 Cycle   4  Pass 0  IDiag  1:
 E= -228.693904971944     Delta-E=        0.030522210163 Rises=F Damp=F
 DIIS: error= 4.07D-02 at cycle   4 NSaved=   4.
 NSaved= 4 IEnMin= 3 EnMin= -228.724427182107     IErMin= 2 ErrMin= 1.31D-02
 ErrMax= 4.07D-02  0.00D+00 EMaxC= 1.00D-01 BMatC= 4.58D-02 BMatP= 8.49D-03
 IDIUse=2 WtCom= 0.00D+00 WtEn= 1.00D+00
 Coeff-En:   0.000D+00 0.000D+00 0.746D+00 0.254D+00
 Coeff:      0.000D+00 0.000D+00 0.746D+00 0.254D+00
 Gap=     0.263 Goal=   None    Shift=    0.000
 RMSDP=3.01D-03 MaxDP=2.31D-02 DE= 3.05D-02 OVMax= 6.84D-02

 Cycle   5  Pass 0  IDiag  1:
 E= -228.732843918265     Delta-E=       -0.038938946322 Rises=F Damp=F
 DIIS: error= 9.51D-03 at cycle   5 NSaved=   5.
 NSaved= 5 IEnMin= 5 EnMin= -228.732843918265     IErMin= 5 ErrMin= 9.51D-03
 ErrMax= 9.51D-03  0.00D+00 EMaxC= 1.00D-01 BMatC= 2.54D-03 BMatP= 8.49D-03
 IDIUse=3 WtCom= 9.05D-01 WtEn= 9.51D-02
 Coeff-Com: -0.779D-02 0.264D-01 0.229D+00-0.963D-01 0.849D+00
 Coeff-En:   0.000D+00 0.000D+00 0.219D+00 0.000D+00 0.781D+00
 Coeff:     -0.705D-02 0.239D-01 0.228D+00-0.871D-01 0.843D+00
 Gap=     0.267 Goal=   None    Shift=    0.000
 RMSDP=1.03D-03 MaxDP=7.86D-03 DE=-3.89D-02 OVMax= 2.18D-02

 Cycle   6  Pass 0  IDiag  1:
 E= -228.735141693467     Delta-E=       -0.002297775201 Rises=F Damp=F
 DIIS: error= 5.41D-04 at cycle   6 NSaved=   6.
 NSaved= 6 IEnMin= 6 EnMin= -228.735141693467     IErMin= 6 ErrMin= 5.41D-04
 ErrMax= 5.41D-04  0.00D+00 EMaxC= 1.00D-01 BMatC= 1.03D-05 BMatP= 2.54D-03
 IDIUse=3 WtCom= 9.95D-01 WtEn= 5.41D-03
 Coeff-Com: -0.471D-02 0.104D-01 0.396D-01-0.403D-01 0.278D+00 0.717D+00
 Coeff-En:   0.000D+00 0.000D+00 0.000D+00 0.000D+00 0.000D+00 0.100D+01
 Coeff:     -0.469D-02 0.103D-01 0.394D-01-0.401D-01 0.276D+00 0.719D+00
 Gap=     0.267 Goal=   None    Shift=    0.000
 RMSDP=7.11D-05 MaxDP=5.30D-04 DE=-2.30D-03 OVMax= 1.33D-03

 Cycle   7  Pass 0  IDiag  1:
 E= -228.735152077874     Delta-E=       -0.000010384407 Rises=F Damp=F
 DIIS: error= 3.47D-05 at cycle   7 NSaved=   7.
 NSaved= 7 IEnMin= 7 EnMin= -228.735152077874     IErMin= 7 ErrMin= 3.47D-05
 ErrMax= 3.47D-05  0.00D+00 EMaxC= 1.00D-01 BMatC= 7.52D-08 BMatP= 1.03D-05
 IDIUse=1 WtCom= 1.00D+00 WtEn= 0.00D+00
 Coeff-Com: -0.128D-02 0.230D-02 0.108D-01-0.110D-01 0.846D-01 0.331D+00
 Coeff-Com:  0.584D+00
 Coeff:     -0.128D-02 0.230D-02 0.108D-01-0.110D-01 0.846D-01 0.331D+00
 Coeff:      0.584D+00
 Gap=     0.267 Goal=   None    Shift=    0.000
 RMSDP=6.39D-06 MaxDP=7.15D-05 DE=-1.04D-05 OVMax= 1.32D-04

 Initial convergence to 1.0D-05 achieved.  Increase integral accuracy.
 Cycle   8  Pass 1  IDiag  1:
 E= -228.735187432400     Delta-E=       -0.000035354525 Rises=F Damp=F
 DIIS: error= 1.19D-05 at cycle   1 NSaved=   1.
 NSaved= 1 IEnMin= 1 EnMin= -228.735187432400     IErMin= 1 ErrMin= 1.19D-05
 ErrMax= 1.19D-05  0.00D+00 EMaxC= 1.00D-01 BMatC= 1.30D-08 BMatP= 1.30D-08
 IDIUse=1 WtCom= 1.00D+00 WtEn= 0.00D+00
 Coeff-Com:  0.100D+01
 Coeff:      0.100D+01
 Gap=     0.267 Goal=   None    Shift=    0.000
 RMSDP=6.39D-06 MaxDP=7.15D-05 DE=-3.54D-05 OVMax= 8.63D-05

 Cycle   9  Pass 1  IDiag  1:
 E= -228.735187430221     Delta-E=        0.000000002179 Rises=F Damp=F
 DIIS: error= 1.71D-05 at cycle   2 NSaved=   2.
 NSaved= 2 IEnMin= 1 EnMin= -228.735187432400     IErMin= 1 ErrMin= 1.19D-05
 ErrMax= 1.71D-05  0.00D+00 EMaxC= 1.00D-01 BMatC= 1.56D-08 BMatP= 1.30D-08
 IDIUse=1 WtCom= 1.00D+00 WtEn= 0.00D+00
 Coeff-Com:  0.527D+00 0.473D+00
 Coeff:      0.527D+00 0.473D+00
 Gap=     0.267 Goal=   None    Shift=    0.000
 RMSDP=3.13D-06 MaxDP=3.56D-05 DE= 2.18D-09 OVMax= 7.55D-05

 Cycle  10  Pass 1  IDiag  1:
 E= -228.735187445850     Delta-E=       -0.000000015629 Rises=F Damp=F
 DIIS: error= 5.13D-06 at cycle   3 NSaved=   3.
 NSaved= 3 IEnMin= 3 EnMin= -228.735187445850     IErMin= 3 ErrMin= 5.13D-06
 ErrMax= 5.13D-06  0.00D+00 EMaxC= 1.00D-01 BMatC= 1.09D-09 BMatP= 1.30D-08
 IDIUse=1 WtCom= 1.00D+00 WtEn= 0.00D+00
 Coeff-Com:  0.435D-01 0.213D+00 0.743D+00
 Coeff:      0.435D-01 0.213D+00 0.743D+00
 Gap=     0.267 Goal=   None    Shift=    0.000
 RMSDP=8.39D-07 MaxDP=7.76D-06 DE=-1.56D-08 OVMax= 1.82D-05

 Cycle  11  Pass 1  IDiag  1:
 E= -228.735187446687     Delta-E=       -0.000000000838 Rises=F Damp=F
 DIIS: error= 3.59D-06 at cycle   4 NSaved=   4.
 NSaved= 4 IEnMin= 4 EnMin= -228.735187446687     IErMin= 4 ErrMin= 3.59D-06
 ErrMax= 3.59D-06  0.00D+00 EMaxC= 1.00D-01 BMatC= 3.78D-10 BMatP= 1.09D-09
 IDIUse=1 WtCom= 1.00D+00 WtEn= 0.00D+00
 Coeff-Com: -0.191D-01 0.109D+00 0.512D+00 0.398D+00
 Coeff:     -0.191D-01 0.109D+00 0.512D+00 0.398D+00
 Gap=     0.267 Goal=   None    Shift=    0.000
 RMSDP=3.15D-07 MaxDP=3.54D-06 DE=-8.38D-10 OVMax= 5.59D-06

 Cycle  12  Pass 1  IDiag  1:
 E= -228.735187446972     Delta-E=       -0.000000000285 Rises=F Damp=F
 DIIS: error= 2.08D-07 at cycle   5 NSaved=   5.
 NSaved= 5 IEnMin= 5 EnMin= -228.735187446972     IErMin= 5 ErrMin= 2.08D-07
 ErrMax= 2.08D-07  0.00D+00 EMaxC= 1.00D-01 BMatC= 2.28D-12 BMatP= 3.78D-10
 IDIUse=1 WtCom= 1.00D+00 WtEn= 0.00D+00
 Coeff-Com: -0.906D-02 0.428D-01 0.209D+00 0.168D+00 0.589D+00
 Coeff:     -0.906D-02 0.428D-01 0.209D+00 0.168D+00 0.589D+00
 Gap=     0.267 Goal=   None    Shift=    0.000
 RMSDP=3.78D-08 MaxDP=4.70D-07 DE=-2.85D-10 OVMax= 8.35D-07

 Cycle  13  Pass 1  IDiag  1:
 E= -228.735187446974     Delta-E=       -0.000000000002 Rises=F Damp=F
 DIIS: error= 1.07D-07 at cycle   6 NSaved=   6.
 NSaved= 6 IEnMin= 6 EnMin= -228.735187446974     IErMin= 6 ErrMin= 1.07D-07
 ErrMax= 1.07D-07  0.00D+00 EMaxC= 1.00D-01 BMatC= 4.22D-13 BMatP= 2.28D-12
 IDIUse=1 WtCom= 1.00D+00 WtEn= 0.00D+00
 Coeff-Com: -0.210D-02 0.774D-02 0.414D-01 0.317D-01 0.307D+00 0.614D+00
 Coeff:     -0.210D-02 0.774D-02 0.414D-01 0.317D-01 0.307D+00 0.614D+00
 Gap=     0.267 Goal=   None    Shift=    0.000
 RMSDP=1.65D-08 MaxDP=1.85D-07 DE=-1.82D-12 OVMax= 4.81D-07

 Cycle  14  Pass 1  IDiag  1:
 E= -228.735187446974     Delta-E=        0.000000000000 Rises=F Damp=F
 DIIS: error= 2.76D-08 at cycle   7 NSaved=   7.
 NSaved= 7 IEnMin= 7 EnMin= -228.735187446974     IErMin= 7 ErrMin= 2.76D-08
 ErrMax= 2.76D-08  0.00D+00 EMaxC= 1.00D-01 BMatC= 4.92D-14 BMatP= 4.22D-13
 IDIUse=1 WtCom= 1.00D+00 WtEn= 0.00D+00
 Coeff-Com:  0.322D-04-0.146D-02-0.512D-02-0.471D-02 0.806D-01 0.327D+00
 Coeff-Com:  0.604D+00
 Coeff:      0.322D-04-0.146D-02-0.512D-02-0.471D-02 0.806D-01 0.327D+00
 Coeff:      0.604D+00
 Gap=     0.267 Goal=   None    Shift=    0.000
 RMSDP=4.85D-09 MaxDP=5.28D-08 DE=-3.98D-13 OVMax= 6.78D-08

 SCF Done:  E(RB3LYP) =  -228.735187447     A.U. after   14 cycles
            NFock= 14  Conv=0.48D-08     -V/T= 2.0070
 KE= 2.271470513473D+02 PE=-8.574896016712D+02 EE= 2.392534527864D+02
 Leave Link  502 at Tue Dec 15 16:13:04 2015, MaxMem=    33554432 cpu:         3.8
 (Enter /home/Applications/g09/g09/l801.exe)
 DoSCS=F DFT=T ScalE2(SS,OS)=  1.000000  1.000000
 ExpMin= 1.83D-01 ExpMax= 3.22D+02 ExpMxC= 3.22D+02 IAcc=3 IRadAn=         5 AccDes= 0.00D+00
 HarFok:  IExCor=  205 AccDes= 0.00D+00 IRadAn=         5 IDoV=-2 UseB2=F ITyADJ=14
 ICtDFT= 12500011 ScaDFX=  1.000000  1.000000  1.000000  1.000000
 Largest valence mixing into a core orbital is  1.85D-04
 Largest core mixing into a valence orbital is  4.86D-05
 Range of M.O.s used for correlation:     6    53
 NBasis=    53 NAE=    18 NBE=    18 NFC=     5 NFV=     0
 NROrb=     48 NOA=    13 NOB=    13 NVA=    35 NVB=    35
 Leave Link  801 at Tue Dec 15 16:13:04 2015, MaxMem=    33554432 cpu:         0.2
 (Enter /home/Applications/g09/g09/l914.exe)
 RHF ground state
 MDV=    33554432 DFT=T DoStab=F Mixed=T DoRPA=F DoScal=F NonHer=F
 Keep R1, R2, and R3 ints in memory in canonical form, NReq=5596273.
 FoFCou: FMM=F IPFlag=           0 FMFlag=           0 FMFlg1=           0
         NFxFlg=           0 DoJE=F BraDBF=F KetDBF=F FulRan=T
         wScrn=  0.000000 ICntrl=     600 IOpCl=  0 I1Cent=           0 NGrid=           0
         NMat0=    1 NMatS0=   1431 NMatT0=    0 NMatD0=    1 NMtDS0=    0 NMtDT0=    0
 Symmetry not used in FoFCou.
 Making orbital integer symmetry assigments:
 Orbital symmetries:
       Occupied  (A) (A) (A) (A) (A) (A) (A) (A) (A) (A) (A) (A)
                 (A) (A) (A) (A) (A) (A)
       Virtual   (A) (A) (A) (A) (A) (A) (A) (A) (A) (A) (A) (A)
                 (A) (A) (A) (A) (A) (A) (A) (A) (A) (A) (A) (A)
                 (A) (A) (A) (A) (A) (A) (A) (A) (A) (A) (A)
    60 initial guesses have been made.
 Convergence on wavefunction:    0.000001000000000
 Davidson Disk Diagonalization:  ConvIn= 1.00D-06 SkipCon=T Conv= 1.00D-06.
 Max sub-space:   240 roots to seek:    60 dimension of matrix:          910
 Iteration     1 Dimension    60 NMult     0 NNew     60
 CISAX will form    60 AO SS matrices at one time.
 NMat=    60 NSing=    60 JSym2X= 0.
 New state      1 was old state      2
 New state      2 was old state      1
 New state      3 was old state      5
 New state      4 was old state      6
 New state      5 was old state      7
 New state      6 was old state      8
 New state      7 was old state      4
 New state      8 was old state     10
 New state     10 was old state     11
 New state     11 was old state     13
 New state     13 was old state      3
 Excitation Energies [eV] at current iteration:
 Root      1 :     7.617782226842433
 Root      2 :     8.335994983500413
 Root      3 :     8.717538430648617
 Root      4 :     8.984623852018979
 Root      5 :     9.379092927790271
 Root      6 :     9.725732387044024
 Root      7 :     9.957914069275729
 Root      8 :    10.052120246073640
 Root      9 :    10.200241886121070
 Root     10 :    10.411973416192770
 Root     11 :    10.622146713283310
 Root     12 :    10.697524445834920
 Root     13 :    10.897207719949010
 Root     14 :    11.003916524607260
 Root     15 :    11.200188728811690
 Root     16 :    11.281089100199500
 Root     17 :    11.372352443927240
 Root     18 :    11.448112133470640
 Root     19 :    11.606993304939400
 Root     20 :    11.687039690313090
 Root     21 :    12.104238652473380
 Root     22 :    12.141220338448590
 Root     23 :    12.428469702397670
 Root     24 :    12.565864270582540
 Root     25 :    12.639108854425870
 Root     26 :    13.165475193758230
 Root     27 :    13.430565574088230
 Root     28 :    13.459471933034700
 Root     29 :    13.639932325218660
 Root     30 :    14.022420799107400
 Root     31 :    14.139166968353580
 Root     32 :    14.173362846161800
 Root     33 :    14.206059915376380
 Root     34 :    14.356099806675560
 Root     35 :    14.473535553214330
 Root     36 :    14.588047050900560
 Root     37 :    14.700509461916320
 Root     38 :    14.815775740902290
 Root     39 :    14.908288904953710
 Root     40 :    14.978165122658590
 Root     41 :    15.011927181488030
 Root     42 :    15.230037748847150
 Root     43 :    15.267114863629280
 Root     44 :    15.415037228924120
 Root     45 :    15.500292634422720
 Root     46 :    15.699522394525980
 Root     47 :    15.801666299365840
 Root     48 :    15.884142824150360
 Root     49 :    16.027790659562190
 Root     50 :    16.068326399147710
 Root     51 :    16.140149519152950
 Root     52 :    16.268768962532300
 Root     53 :    16.305255071160530
 Root     54 :    16.454904929848020
 Root     55 :    16.594517985191750
 Root     56 :    16.855704425921740
 Root     57 :    16.936017373448850
 Root     58 :    17.448800892252680
 Root     59 :    17.895233234476610
 Root     60 :    19.508600251662350
 Iteration     2 Dimension   120 NMult    60 NNew     60
 CISAX will form    60 AO SS matrices at one time.
 NMat=    60 NSing=    60 JSym2X= 0.
 Root      1 not converged, maximum delta is    0.236159939966520
 Root      2 not converged, maximum delta is    0.217648126466039
 Root      3 not converged, maximum delta is    0.011194264613047
 Root      4 not converged, maximum delta is    0.033620174533009
 Root      5 not converged, maximum delta is    0.042843128393792
 New state      6 was old state      7
 Root      6 not converged, maximum delta is    0.359053648428460
 New state      7 was old state      6
 Root      7 not converged, maximum delta is    0.177046187516990
 Root      8 not converged, maximum delta is    0.485870945657873
 Root      9 not converged, maximum delta is    0.483860582950698
 New state     10 was old state     13
 Root     10 not converged, maximum delta is    0.495128961325066
 New state     11 was old state     10
 Root     11 not converged, maximum delta is    0.108889952344466
 New state     12 was old state     11
 Root     12 not converged, maximum delta is    0.114771561089040
 New state     13 was old state     12
 Root     13 not converged, maximum delta is    0.044870502742650
 Root     14 not converged, maximum delta is    0.162046685484790
 Root     15 not converged, maximum delta is    0.032475254322525
 Excitation Energies [eV] at current iteration:
 Root      1 :     7.420326604533211   Change is   -0.197455622309222
 Root      2 :     7.666282531650392   Change is   -0.669712451850020
 Root      3 :     8.711648769910475   Change is   -0.005889660738141
 Root      4 :     8.955582176064835   Change is   -0.029041675954144
 Root      5 :     9.359155044539561   Change is   -0.019937883250711
 Root      6 :     9.490804532622649   Change is   -0.467109536653079
 Root      7 :     9.721200125521785   Change is   -0.004532261522239
 Root      8 :     9.983539521877915   Change is   -0.068580724195720
 Root      9 :    10.035784704717360   Change is   -0.164457181403705
 Root     10 :    10.218510925516340   Change is   -0.678696794432671
 Root     11 :    10.394536485289330   Change is   -0.017436930903450
 Root     12 :    10.611696331182710   Change is   -0.010450382100595
 Root     13 :    10.680807174750410   Change is   -0.016717271084508
 Root     14 :    10.973315637744210   Change is   -0.030600886863051
 Root     15 :    11.179211897406200   Change is   -0.020976831405485
 Root     16 :    11.260765970992670   Change is   -0.020323129206828
 Root     17 :    11.309069826898120   Change is   -0.063282617029117
 Root     18 :    11.399455696828700   Change is   -0.048656436641933
 Root     19 :    11.575110535169980   Change is   -0.031882769769422
 Root     20 :    11.649079790231750   Change is   -0.037959900081341
 Root     21 :    12.007110834861090   Change is   -0.134109503587496
 Root     22 :    12.081707507040480   Change is   -0.022531145432896
 Root     23 :    12.376567680378340   Change is   -0.051902022019326
 Root     24 :    12.467554251615130   Change is   -0.098310018967413
 Root     25 :    12.601290897601240   Change is   -0.037817956824634
 Root     26 :    12.981187623790170   Change is   -0.658744701428490
 Root     27 :    13.125635945182940   Change is   -0.039839248575295
 Root     28 :    13.369620355594840   Change is   -0.089851577439858
 Root     29 :    13.430907592460000   Change is    0.000342018371777
 Root     30 :    13.664943488917090   Change is   -0.474223479436485
 Root     31 :    13.927181695616440   Change is   -0.095239103490963
 Root     32 :    14.056245213000640   Change is   -0.117117633161156
 Root     33 :    14.166231078687040   Change is   -0.039828836689346
 Root     34 :    14.243417711076130   Change is   -0.112682095599424
 Root     35 :    14.447540751043830   Change is   -0.025994802170499
 Root     36 :    14.520749375578610   Change is   -0.067297675321946
 Root     37 :    14.570548487786470   Change is   -0.129960974129844
 Root     38 :    14.678473537478260   Change is   -0.229815367475445
 Root     39 :    14.733162699630140   Change is   -0.082613041272147
 Root     40 :    14.903679849958330   Change is   -0.074485272700262
 Root     41 :    14.940949012206590   Change is   -0.070978169281434
 Root     42 :    15.010205384867000   Change is   -0.404831844057123
 Root     43 :    15.184473876959780   Change is   -0.045563871887369
 Root     44 :    15.205365676829360   Change is   -0.061749186799926
 Root     45 :    15.360759667149180   Change is   -0.338762727376804
 Root     46 :    15.461402566411930   Change is   -0.038890068010788
 Root     47 :    15.712706692384100   Change is   -0.315083967178091
 Root     48 :    15.742822379961800   Change is   -0.058843919404038
 Root     49 :    15.845484294946960   Change is   -0.038658529203402
 Root     50 :    15.975442520554020   Change is   -0.092883878593691
 Root     51 :    16.015091044124630   Change is   -0.125058475028323
 Root     52 :    16.084053817270470   Change is   -0.184715145261829
 Root     53 :    16.114413334317480   Change is   -0.190841736843052
 Root     54 :    16.333524935999220   Change is   -0.121379993848807
 Root     55 :    16.372712390370990   Change is   -0.563304983077857
 Root     56 :    16.429947679322400   Change is   -0.164570305869351
 Root     57 :    16.583480051064060   Change is   -0.865320841188614
 Root     58 :    16.646301959223550   Change is   -0.209402466698188
 Root     59 :    16.829659988030670   Change is   -1.065573246445943
 Root     60 :    17.021983191231690   Change is   -2.486617060430665
 Iteration     3 Dimension   135 NMult   120 NNew     15
 CISAX will form    15 AO SS matrices at one time.
 NMat=    15 NSing=    15 JSym2X= 0.
 Root      1 not converged, maximum delta is    0.001154068841473
 Root      2 not converged, maximum delta is    0.002267791598748
 Root      3 not converged, maximum delta is    0.000064470463323
 Root      4 not converged, maximum delta is    0.000204246338913
 Root      5 not converged, maximum delta is    0.000585803540642
 Root      6 not converged, maximum delta is    0.002247245053245
 Root      7 not converged, maximum delta is    0.000532354517871
 Root      8 not converged, maximum delta is    0.011850442319681
 Root      9 not converged, maximum delta is    0.011712745885642
 Root     10 not converged, maximum delta is    0.002560569117372
 Root     11 not converged, maximum delta is    0.000674569156644
 Root     12 not converged, maximum delta is    0.000302938090555
 Root     13 not converged, maximum delta is    0.000311469047811
 Root     14 not converged, maximum delta is    0.000168883108477
 Root     15 not converged, maximum delta is    0.000218114767986
 Excitation Energies [eV] at current iteration:
 Root      1 :     7.419245440685390   Change is   -0.001081163847821
 Root      2 :     7.664720929656561   Change is   -0.001561601993832
 Root      3 :     8.711644727338475   Change is   -0.000004042572000
 Root      4 :     8.955552959566580   Change is   -0.000029216498255
 Root      5 :     9.359092413021687   Change is   -0.000062631517874
 Root      6 :     9.489088555241038   Change is   -0.001715977381612
 Root      7 :     9.721140975242863   Change is   -0.000059150278922
 Root      8 :     9.982290584756910   Change is   -0.001248937121006
 Root      9 :    10.034168588269490   Change is   -0.001616116447873
 Root     10 :    10.217855435512030   Change is   -0.000655490004304
 Root     11 :    10.394427771244410   Change is   -0.000108714044912
 Root     12 :    10.611622361673980   Change is   -0.000073969508727
 Root     13 :    10.680776100597030   Change is   -0.000031074153383
 Root     14 :    10.973293772896590   Change is   -0.000021864847628
 Root     15 :    11.179183614638440   Change is   -0.000028282767767
 Iteration     4 Dimension   150 NMult   135 NNew     15
 CISAX will form    15 AO SS matrices at one time.
 NMat=    15 NSing=    15 JSym2X= 0.
 Root      1 not converged, maximum delta is    0.000038399610753
 Root      2 not converged, maximum delta is    0.000055577887239
 Root      3 not converged, maximum delta is    0.000002356945594
 Root      4 not converged, maximum delta is    0.000005672114931
 Root      5 not converged, maximum delta is    0.000009020185958
 Root      6 not converged, maximum delta is    0.000061014939180
 Root      7 not converged, maximum delta is    0.000010293286150
 Root      8 not converged, maximum delta is    0.000048609827630
 Root      9 not converged, maximum delta is    0.000051230132642
 Root     10 not converged, maximum delta is    0.000041121590518
 Root     11 not converged, maximum delta is    0.000012581610234
 Root     12 not converged, maximum delta is    0.000012087426734
 Root     13 not converged, maximum delta is    0.000009816262840
 Root     14 not converged, maximum delta is    0.000010060219790
 Root     15 not converged, maximum delta is    0.000007808869711
 Excitation Energies [eV] at current iteration:
 Root      1 :     7.419244345024681   Change is   -0.000001095660710
 Root      2 :     7.664719191827641   Change is   -0.000001737828919
 Root      3 :     8.711644723834883   Change is   -0.000000003503593
 Root      4 :     8.955552937655279   Change is   -0.000000021911300
 Root      5 :     9.359092333769564   Change is   -0.000000079252123
 Root      6 :     9.489086282951810   Change is   -0.000002272289228
 Root      7 :     9.721140903040094   Change is   -0.000000072202769
 Root      8 :     9.982288793517029   Change is   -0.000001791239882
 Root      9 :    10.034166308445060   Change is   -0.000002279824435
 Root     10 :    10.217854535335220   Change is   -0.000000900176812
 Root     11 :    10.394427619761670   Change is   -0.000000151482748
 Root     12 :    10.611622261491740   Change is   -0.000000100182246
 Root     13 :    10.680776072187070   Change is   -0.000000028409960
 Root     14 :    10.973293743660770   Change is   -0.000000029235811
 Root     15 :    11.179183578429740   Change is   -0.000000036208704
 Iteration     5 Dimension   165 NMult   150 NNew     15
 CISAX will form    15 AO SS matrices at one time.
 NMat=    15 NSing=    15 JSym2X= 0.
 Root      1 not converged, maximum delta is    0.000001169945702
 Root      2 not converged, maximum delta is    0.000002283783742
 Root      3 has converged.
 Root      4 has converged.
 Root      5 has converged.
 Root      6 not converged, maximum delta is    0.000002379251401
 Root      7 has converged.
 Root      8 not converged, maximum delta is    0.000001733581446
 Root      9 not converged, maximum delta is    0.000001915894332
 Root     10 not converged, maximum delta is    0.000001158632879
 Root     11 has converged.
 Root     12 has converged.
 Root     13 has converged.
 Root     14 has converged.
 Root     15 has converged.
 Excitation Energies [eV] at current iteration:
 Root      1 :     7.419244344247732   Change is   -0.000000000776948
 Root      2 :     7.664719190238740   Change is   -0.000000001588900
 Root      3 :     8.711644723832659   Change is   -0.000000000002224
 Root      4 :     8.955552937636737   Change is   -0.000000000018542
 Root      5 :     9.359092333704018   Change is   -0.000000000065547
 Root      6 :     9.489086281083678   Change is   -0.000000001868133
 Root      7 :     9.721140902970292   Change is   -0.000000000069802
 Root      8 :     9.982288791911227   Change is   -0.000000001605800
 Root      9 :    10.034166306350330   Change is   -0.000000002094724
 Root     10 :    10.217854534518110   Change is   -0.000000000817109
 Root     11 :    10.394427619611280   Change is   -0.000000000150386
 Root     12 :    10.611622261380960   Change is   -0.000000000110780
 Root     13 :    10.680776072154440   Change is   -0.000000000032631
 Root     14 :    10.973293743626170   Change is   -0.000000000034605
 Root     15 :    11.179183578397650   Change is   -0.000000000032084
 Iteration     6 Dimension   171 NMult   165 NNew      6
 CISAX will form     6 AO SS matrices at one time.
 NMat=     6 NSing=     6 JSym2X= 0.
 Root      1 has converged.
 Root      2 has converged.
 Root      3 has converged.
 Root      4 has converged.
 Root      5 has converged.
 Root      6 has converged.
 Root      7 has converged.
 Root      8 has converged.
 Root      9 has converged.
 Root     10 has converged.
 Root     11 has converged.
 Root     12 has converged.
 Root     13 has converged.
 Root     14 has converged.
 Root     15 has converged.
 Excitation Energies [eV] at current iteration:
 Root      1 :     7.419244344247617   Change is   -0.000000000000115
 Root      2 :     7.664719190238177   Change is   -0.000000000000563
 Root      3 :     8.711644723832633   Change is   -0.000000000000027
 Root      4 :     8.955552937636726   Change is   -0.000000000000011
 Root      5 :     9.359092333704007   Change is   -0.000000000000011
 Root      6 :     9.489086281082425   Change is   -0.000000000001251
 Root      7 :     9.721140902970248   Change is   -0.000000000000044
 Root      8 :     9.982288791910626   Change is   -0.000000000000601
 Root      9 :    10.034166306349410   Change is   -0.000000000000926
 Root     10 :    10.217854534517760   Change is   -0.000000000000347
 Root     11 :    10.394427619611190   Change is   -0.000000000000094
 Root     12 :    10.611622261380920   Change is   -0.000000000000035
 Root     13 :    10.680776072154420   Change is   -0.000000000000020
 Root     14 :    10.973293743626160   Change is   -0.000000000000009
 Root     15 :    11.179183578397640   Change is   -0.000000000000008
 Convergence achieved on expansion vectors.
 ***********************************************************************
 Excited states from <AA,BB:AA,BB> singles matrix:
 ***********************************************************************
 
 1PDM for each excited state written to RWF  633
 Ground to excited state transition densities written to RWF  633
 Ground to excited state transition electric dipole moments (Au):
       state          X           Y           Z        Dip. S.      Osc.
         1        -0.6461     -0.0333      0.0485      0.4209      0.0765
         2        -0.8539      0.1470      0.1053      0.7619      0.1431
         3         0.0066      0.0471     -0.0132      0.0024      0.0005
         4         0.0451      0.0508     -0.1456      0.0258      0.0057
         5         0.0663      0.1865      0.0800      0.0456      0.0105
         6        -0.7036     -0.4747     -0.1047      0.7314      0.1700
         7         0.0803      0.0159     -0.0385      0.0082      0.0019
         8        -0.1024      0.8442     -0.0822      0.7298      0.1785
         9         0.2551     -0.8886      0.0045      0.8548      0.2101
        10        -0.0061     -0.5744      0.0011      0.3300      0.0826
        11         0.1134     -0.1910     -0.0086      0.0494      0.0126
        12        -0.0531      0.1129      0.0454      0.0176      0.0046
        13         0.0867      0.0139     -0.0455      0.0098      0.0026
        14         0.0060     -0.0727     -0.0298      0.0062      0.0017
        15         0.0161     -0.0324     -0.1029      0.0119      0.0033
 Ground to excited state transition velocity dipole moments (Au):
       state          X           Y           Z        Dip. S.      Osc.
         1         0.0098     -0.0449      0.0008      0.0021      0.0052
         2         0.0134      0.0364      0.0054      0.0015      0.0036
         3        -0.0026     -0.0085     -0.0145      0.0003      0.0006
         4        -0.0009     -0.0018      0.0734      0.0054      0.0109
         5        -0.0145     -0.0091     -0.0327      0.0014      0.0026
         6         0.0780      0.0093     -0.0033      0.0062      0.0118
         7        -0.0011     -0.0022     -0.0138      0.0002      0.0004
         8         0.0101     -0.0274      0.0243      0.0014      0.0026
         9        -0.0340      0.0303      0.0209      0.0025      0.0045
        10         0.0089      0.0137      0.0188      0.0006      0.0011
        11        -0.0193      0.0127     -0.0310      0.0015      0.0026
        12         0.0068     -0.0114     -0.0211      0.0006      0.0011
        13        -0.0260      0.0006      0.0383      0.0021      0.0036
        14        -0.0017      0.0022      0.0018      0.0000      0.0000
        15        -0.0095      0.0019     -0.0306      0.0010      0.0017
 Ground to excited state transition magnetic dipole moments (Au):
       state          X           Y           Z
         1        -0.0109      0.0405     -0.2860
         2        -0.0752     -0.0196     -0.4697
         3         0.0324     -0.5084      0.0014
         4        -1.5425      0.0486     -0.0285
         5        -0.0063      0.1757      0.0071
         6        -0.0829      0.0189      0.3046
         7        -0.2111     -0.1253     -0.0552
         8        -0.1739     -0.1549      0.1443
         9        -0.2701      0.0669     -0.1011
        10         0.0613     -0.0017     -0.1116
        11         0.1464     -0.0503     -0.0742
        12         0.1082     -0.2960      0.0694
        13         0.1522     -0.1956      0.0516
        14         0.4339      0.3537     -0.0013
        15         0.0313     -0.4738     -0.0953
 Ground to excited state transition velocity quadrupole moments (Au):
       state          XX          YY          ZZ          XY          XZ          YZ
         1        -0.0505     -0.0323      0.0304     -0.1062     -0.0003      0.0020
         2         0.0170     -0.0078     -0.0162     -0.2266     -0.0039     -0.0101
         3         0.0258     -0.0295     -0.0007      0.0256      0.0736      0.0035
         4         0.0079      0.0017     -0.0030      0.0141      0.0033     -0.1970
         5         0.0569     -0.0166     -0.0079      0.0431      0.1130      0.0734
         6        -0.1219      0.0833      0.0154      0.3075     -0.0073      0.0225
         7        -0.0120     -0.0156      0.0062     -0.0154     -0.0254     -0.1061
         8         0.1814     -0.1465     -0.0392      0.0466      0.0519     -0.0272
         9        -0.1785      0.1549      0.0408     -0.1534     -0.0245     -0.0036
        10        -0.1154      0.1201      0.0264     -0.0536      0.1606     -0.0662
        11        -0.0471      0.0423      0.0114     -0.0824     -0.0618      0.0723
        12         0.0504      0.0098     -0.0185      0.0622     -0.0096      0.0248
        13         0.0195     -0.0113     -0.0041     -0.0402      0.0102      0.0834
        14        -0.0610      0.0334      0.0135     -0.0096      0.0083      0.0734
        15         0.0319      0.0038     -0.0057     -0.0328      0.0693     -0.0328
 <0|del|b> * <b|rxdel|0> + <0|del|b> * <b|delr+rdel|0>
 Rotatory Strengths (R) in cgs (10**-40 erg-esu-cm/Gauss)
       state          XX          YY          ZZ    R(velocity)    E-M Angle
         1        -2.7642     -0.2920     -2.4985     -1.8516       99.28
         2        -5.4361     -3.0867     -2.1735     -3.5654      103.22
         3         5.0567      0.2852      4.0190      3.1203       60.71
         4        -1.2289     -1.6261      1.2387     -0.5388       90.38
         5        -2.2778      0.2068     -1.5157     -1.1956      105.56
         6        -1.7848     -4.7674     -8.2238     -4.9253      107.05
         7         1.1820      0.8745      0.4424      0.8330       68.97
         8         9.9171      0.3254      1.2845      3.8423       54.87
         9        -2.4322      9.9774      9.9331      5.8261       52.13
        10        -5.0269     -1.0686      3.1266     -0.9896      119.75
        11         4.6270     -4.1361     -2.6453     -0.7181      100.10
        12         0.4575      0.6883      3.6888      1.6116       70.65
        13         0.2899     -2.3415     -1.7029     -1.2515      100.24
        14         0.6393     -0.7265      0.1625      0.0251       90.00
        15         2.4993      1.6570     -1.1748      0.9938       83.60
 1/2[<0|r|b>*<b|rxdel|0> + (<0|rxdel|b>*<b|r|0>)*]
 Rotatory Strengths (R) in cgs (10**-40 erg-esu-cm/Gauss)
       state          XX          YY          ZZ     R(length)
         1        -4.9629      0.9544      9.8032      1.9316
         2       -45.4065      2.0389     34.9740     -2.7978
         3        -0.1502     16.9346      0.0134      5.5993
         4        49.1792     -1.7462     -2.9364     14.8322
         5         0.2965    -23.1671     -0.4028     -7.7578
         6       -41.2488      6.3563     22.5462     -4.1154
         7        11.9828      1.4076     -1.5032      3.9624
         8       -12.5938     92.4665      8.3891     29.4206
         9        48.7287     42.0547      0.3226     30.3686
        10         0.2666     -0.7080      0.0902     -0.1171
        11       -11.7474     -6.7973     -0.4537     -6.3328
        12         4.0626     23.6221     -2.2286      8.4854
        13        -9.3291      1.9256      1.6613     -1.9141
        14        -1.8399     18.1782     -0.0264      5.4373
        15        -0.3564    -10.8667     -6.9385     -6.0539
  1/2[<0|del|b>*<b|r|0> + (<0|r|b>*<b|del|0>)*] (Au)
       state          X           Y           Z        Dip. S.   Osc.(frdel)
         1        -0.0064      0.0015      0.0000      0.0048      0.0032
         2        -0.0115      0.0053      0.0006      0.0056      0.0037
         3         0.0000     -0.0004      0.0002      0.0002      0.0002
         4         0.0000     -0.0001     -0.0107      0.0108      0.0072
         5        -0.0010     -0.0017     -0.0026      0.0053      0.0035
         6        -0.0549     -0.0044      0.0003      0.0589      0.0393
         7        -0.0001      0.0000      0.0005     -0.0004     -0.0003
         8        -0.0010     -0.0231     -0.0020      0.0261      0.0174
         9        -0.0087     -0.0270      0.0001      0.0356      0.0237
        10        -0.0001     -0.0079      0.0000      0.0079      0.0053
        11        -0.0022     -0.0024      0.0003      0.0044      0.0029
        12        -0.0004     -0.0013     -0.0010      0.0026      0.0017
        13        -0.0023      0.0000     -0.0017      0.0040      0.0027
        14         0.0000     -0.0002     -0.0001      0.0002      0.0001
        15        -0.0002     -0.0001      0.0031     -0.0029     -0.0020

 Excitation energies and oscillator strengths:
 
 Excited State   1:      Singlet-A      7.4192 eV  167.11 nm  f=0.0765  <S**2>=0.000
      17 -> 19         0.44493
      18 -> 19         0.41258
      18 -> 20         0.33575
 This state for optimization and/or second-order correction.
 Total Energy, E(CIS) =  -228.462535222    
 Copying the excited state density for this state as the 1-particle RhoCI density.
 
 Excited State   2:      Singlet-A      7.6647 eV  161.76 nm  f=0.1431  <S**2>=0.000
      17 -> 19        -0.28919
      18 -> 19         0.54133
      18 -> 20        -0.31366
 
 Excited State   3:      Singlet-A      8.7116 eV  142.32 nm  f=0.0005  <S**2>=0.000
      18 -> 21         0.69683
 
 Excited State   4:      Singlet-A      8.9556 eV  138.44 nm  f=0.0057  <S**2>=0.000
      16 -> 19         0.69974
 
 Excited State   5:      Singlet-A      9.3591 eV  132.47 nm  f=0.0105  <S**2>=0.000
      17 -> 21         0.13756
      18 -> 22         0.66234
 
 Excited State   6:      Singlet-A      9.4891 eV  130.66 nm  f=0.1700  <S**2>=0.000
      17 -> 19         0.20108
      17 -> 20         0.60285
      18 -> 20        -0.21431
 
 Excited State   7:      Singlet-A      9.7211 eV  127.54 nm  f=0.0019  <S**2>=0.000
      17 -> 21         0.67635
      18 -> 22        -0.14036
 
 Excited State   8:      Singlet-A      9.9823 eV  124.20 nm  f=0.1785  <S**2>=0.000
      15 -> 19         0.47081
      17 -> 19        -0.22847
      17 -> 20         0.16200
      18 -> 20         0.27795
      18 -> 23         0.27617
 
 Excited State   9:      Singlet-A     10.0342 eV  123.56 nm  f=0.2101  <S**2>=0.000
      15 -> 19         0.48159
      17 -> 19         0.22483
      17 -> 20        -0.24513
      18 -> 20        -0.28235
      18 -> 22         0.11221
 
 Excited State  10:      Singlet-A     10.2179 eV  121.34 nm  f=0.0826  <S**2>=0.000
      15 -> 19        -0.14265
      17 -> 19         0.14900
      18 -> 20        -0.17644
      18 -> 23         0.61060
 
 Excited State  11:      Singlet-A     10.3944 eV  119.28 nm  f=0.0126  <S**2>=0.000
      17 -> 22         0.67462
 
 Excited State  12:      Singlet-A     10.6116 eV  116.84 nm  f=0.0046  <S**2>=0.000
      14 -> 19        -0.39884
      16 -> 20         0.55658
 
 Excited State  13:      Singlet-A     10.6808 eV  116.08 nm  f=0.0026  <S**2>=0.000
      18 -> 23        -0.10626
      18 -> 24         0.68120
 
 Excited State  14:      Singlet-A     10.9733 eV  112.99 nm  f=0.0017  <S**2>=0.000
      13 -> 19        -0.21810
      14 -> 19         0.51391
      16 -> 20         0.40159
      17 -> 23         0.10078
 
 Excited State  15:      Singlet-A     11.1792 eV  110.91 nm  f=0.0033  <S**2>=0.000
      13 -> 19         0.15477
      17 -> 23         0.47719
      17 -> 24         0.10936
      18 -> 25         0.46076
 SavETr:  write IOETrn=   770 NScale= 10 NData=  16 NLR=1 NState=   15 LETran=     280.
 The selected state is a singlet
 CISAX will form     1 AO SS matrices at one time.
 NMat=     1 NSing=     1 JSym2X= 0.
 CISAX will form     1 AO SS matrices at one time.
 NMat=     1 NSing=     1 JSym2X= 0.
 Leave Link  914 at Tue Dec 15 16:13:37 2015, MaxMem=    33554432 cpu:        32.7
 (Enter /home/Applications/g09/g09/l1002.exe)
 Minotr:  Closed shell wavefunction.
          Computing CIS/TD-HF/TD-KS derivatives.
          Using Z-Vector for PSCF gradient.
          Skipping F1 and S1 gradient terms here.
          IDoAtm=111111111
          Frozen-core window.
          Direct CPHF calculation.
          Differentiating once with respect to electric field.
                with respect to dipole field.
          Differentiating once with respect to nuclear coordinates.
          Requested convergence is 1.0D-10 RMS, and 1.0D-09 maximum.
          NewPWx=F KeepS1=T KeepF1=T KeepIn=T MapXYZ=F SortEE=F KeepMc=T.
          MDV=      33554290 using IRadAn=       0.
 Using stored XC quadrature information.
 Keep R1 ints in memory in canonical form, NReq=1898913.
 FoFCou: FMM=F IPFlag=           0 FMFlag=           0 FMFlg1=           0
         NFxFlg=           0 DoJE=F BraDBF=F KetDBF=F FulRan=T
         wScrn=  0.000000 ICntrl=     600 IOpCl=  0 I1Cent=           0 NGrid=           0
         NMat0=    1 NMatS0=   1431 NMatT0=    0 NMatD0=    1 NMtDS0=    0 NMtDT0=    0
 Symmetry not used in FoFCou.
          Solving linear equations separately, MaxMat=       0.
          There are     1 degrees of freedom in the 1st order CPHF.  IDoFFX=0 NUNeed=     1.
 LinEq1:  Iter=  0 NonCon=     1 RMS=4.51D-02 Max=7.16D-01 NDo=     1
 AX will form     1 AO Fock derivatives at one time.
 LinEq1:  Iter=  1 NonCon=     1 RMS=1.43D-02 Max=1.97D-01 NDo=     1
 LinEq1:  Iter=  2 NonCon=     1 RMS=1.06D-02 Max=1.52D-01 NDo=     1
 LinEq1:  Iter=  3 NonCon=     1 RMS=4.58D-03 Max=6.81D-02 NDo=     1
 LinEq1:  Iter=  4 NonCon=     1 RMS=3.57D-03 Max=4.13D-02 NDo=     1
 LinEq1:  Iter=  5 NonCon=     1 RMS=8.48D-04 Max=9.50D-03 NDo=     1
 LinEq1:  Iter=  6 NonCon=     1 RMS=4.44D-04 Max=4.49D-03 NDo=     1
 LinEq1:  Iter=  7 NonCon=     1 RMS=1.21D-04 Max=9.72D-04 NDo=     1
 LinEq1:  Iter=  8 NonCon=     1 RMS=1.85D-05 Max=1.43D-04 NDo=     1
 LinEq1:  Iter=  9 NonCon=     1 RMS=7.55D-06 Max=4.79D-05 NDo=     1
 LinEq1:  Iter= 10 NonCon=     1 RMS=1.02D-06 Max=7.50D-06 NDo=     1
 LinEq1:  Iter= 11 NonCon=     1 RMS=1.36D-07 Max=1.26D-06 NDo=     1
 LinEq1:  Iter= 12 NonCon=     1 RMS=1.64D-08 Max=1.01D-07 NDo=     1
 LinEq1:  Iter= 13 NonCon=     1 RMS=2.00D-09 Max=1.17D-08 NDo=     1
 LinEq1:  Iter= 14 NonCon=     1 RMS=2.52D-10 Max=1.19D-09 NDo=     1
 LinEq1:  Iter= 15 NonCon=     0 RMS=2.72D-11 Max=1.41D-10 NDo=     1
 Linear equations converged to 1.000D-10 1.000D-09 after    15 iterations.
 End of Minotr F.D. properties file   721 does not exist.
 End of Minotr F.D. properties file   722 does not exist.
 End of Minotr F.D. properties file   788 does not exist.
 Leave Link 1002 at Tue Dec 15 16:13:46 2015, MaxMem=    33554432 cpu:         9.1
 (Enter /home/Applications/g09/g09/l601.exe)
 Copying SCF densities to generalized density rwf, IOpCl= 0 IROHF=0.

 **********************************************************************

            Population analysis using the SCF density.

 **********************************************************************

 Orbital symmetries:
       Occupied  (A) (A) (A) (A) (A) (A) (A) (A) (A) (A) (A) (A)
                 (A) (A) (A) (A) (A) (A)
       Virtual   (A) (A) (A) (A) (A) (A) (A) (A) (A) (A) (A) (A)
                 (A) (A) (A) (A) (A) (A) (A) (A) (A) (A) (A) (A)
                 (A) (A) (A) (A) (A) (A) (A) (A) (A) (A) (A)
 The electronic state is 1-A.
 Alpha  occ. eigenvalues --  -19.10470 -10.17112 -10.17006 -10.12362 -10.12048
 Alpha  occ. eigenvalues --   -1.12662  -0.81018  -0.75610  -0.60859  -0.56984
 Alpha  occ. eigenvalues --   -0.54348  -0.44960  -0.44260  -0.42598  -0.39484
 Alpha  occ. eigenvalues --   -0.36086  -0.27673  -0.23999
 Alpha virt. eigenvalues --    0.02673   0.08610   0.12683   0.15136   0.17804
 Alpha virt. eigenvalues --    0.19278   0.21830   0.23465   0.37044   0.43100
 Alpha virt. eigenvalues --    0.47873   0.67830   0.69638   0.70090   0.75941
 Alpha virt. eigenvalues --    0.77096   0.79189   0.80676   0.82387   0.84459
 Alpha virt. eigenvalues --    0.93177   0.98968   1.01106   1.04655   1.17840
 Alpha virt. eigenvalues --    1.22551   1.30099   1.36614   1.50974   1.56166
 Alpha virt. eigenvalues --    1.65480   1.75128   1.93945   2.12984   3.18458
     Molecular Orbital Coefficients:
                           1         2         3         4         5
                           O         O         O         O         O
     Eigenvalues --   -19.10470 -10.17112 -10.17006 -10.12362 -10.12048
   1 1   C  1S          0.00015  -0.01082  -0.00312   0.96965   0.17862
   2        2S          0.00063  -0.00527  -0.00149   0.10904   0.01667
   3        2PX        -0.00108  -0.00126  -0.00014  -0.00112   0.00055
   4        2PY         0.00077   0.00240   0.00117  -0.00148   0.00013
   5        2PZ         0.00011   0.00009   0.00001  -0.00036  -0.00006
   6        3S         -0.00611   0.03877  -0.00765  -0.10701   0.01414
   7        3PX         0.00436   0.00366   0.00113   0.01903  -0.01508
   8        3PY         0.00839  -0.02092   0.00586   0.02838  -0.00368
   9        3PZ        -0.00039  -0.00089   0.00044   0.00277  -0.00015
  10 2   C  1S         -0.00051   0.96262   0.21064   0.01062   0.00253
  11        2S         -0.00098   0.10491   0.01965  -0.00324  -0.00120
  12        2PX        -0.00178  -0.00238   0.00062   0.00100   0.00031
  13        2PY        -0.00162  -0.00019  -0.00069  -0.00194  -0.00137
  14        2PZ         0.00005   0.00024   0.00002  -0.00013   0.00010
  15        3S          0.01761  -0.07638  -0.00117   0.04016   0.00055
  16        3PX        -0.01538   0.01389  -0.01397  -0.01729  -0.00039
  17        3PY         0.00097  -0.01832   0.00835   0.01981   0.00319
  18        3PZ         0.00034  -0.00145   0.00035   0.00086  -0.00064
  19 3   O  1S          0.98279   0.00013   0.00033   0.00006   0.00008
  20        2S          0.10791   0.00117   0.00216   0.00028   0.00027
  21        2PX        -0.00025   0.00080  -0.00028   0.00000   0.00005
  22        2PY         0.00428   0.00066   0.00070  -0.00006  -0.00010
  23        2PZ         0.00012  -0.00003   0.00007  -0.00007   0.00007
  24        3S         -0.06110   0.00063  -0.00034  -0.00293  -0.00439
  25        3PX         0.00116  -0.00095   0.00150  -0.00227   0.00136
  26        3PY        -0.01391  -0.00241  -0.00418  -0.00150  -0.00215
  27        3PZ        -0.00036   0.00013  -0.00041   0.00023  -0.00025
  28 4   C  1S         -0.00040  -0.21173   0.96237  -0.00054   0.00626
  29        2S         -0.00051  -0.02628   0.10377   0.00011  -0.00508
  30        2PX         0.00215  -0.00169   0.00267   0.00013  -0.00102
  31        2PY        -0.00165  -0.00059   0.00010  -0.00043  -0.00339
  32        2PZ        -0.00012   0.00006  -0.00039  -0.00014   0.00016
  33        3S          0.01933   0.03571  -0.07229  -0.01562   0.04587
  34        3PX         0.01531   0.01745  -0.00552  -0.00558   0.01532
  35        3PY        -0.00136   0.01651  -0.01605  -0.00426   0.02257
  36        3PZ        -0.00081  -0.00107   0.00182   0.00101  -0.00110
  37 5   C  1S          0.00011   0.00084  -0.00668  -0.17909   0.96959
  38        2S          0.00040   0.00105  -0.00595  -0.02348   0.10797
  39        2PX         0.00104  -0.00052   0.00139  -0.00104   0.00107
  40        2PY         0.00094  -0.00013   0.00366   0.00067  -0.00201
  41        2PZ        -0.00008   0.00006  -0.00019  -0.00009   0.00040
  42        3S         -0.00552  -0.02758   0.03604   0.05340  -0.09996
  43        3PX        -0.00548  -0.00101  -0.00482   0.02232  -0.01309
  44        3PY         0.00593   0.01502  -0.01825  -0.01240   0.02631
  45        3PZ         0.00033  -0.00125   0.00088   0.00142  -0.00312
  46 6   H  1S         -0.00089  -0.00010  -0.00122   0.00031  -0.00283
  47        2S         -0.00234  -0.00130   0.00143   0.00280   0.00498
  48 7   H  1S         -0.00011   0.00195  -0.00263   0.00006  -0.00021
  49        2S          0.00289   0.00498   0.00899  -0.00036   0.00528
  50 8   H  1S          0.00018  -0.00476   0.00047  -0.00021  -0.00004
  51        2S          0.00428   0.00729   0.01019   0.00627   0.00156
  52 9   H  1S         -0.00097  -0.00094  -0.00054  -0.00412  -0.00119
  53        2S         -0.00343   0.00233  -0.00050   0.00475   0.00473
                           6         7         8         9        10
                           O         O         O         O         O
     Eigenvalues --    -1.12662  -0.81018  -0.75610  -0.60859  -0.56984
   1 1   C  1S         -0.02832   0.13884  -0.08221  -0.12110   0.02200
   2        2S          0.02769  -0.14795   0.08885   0.12320  -0.02143
   3        2PX        -0.01004   0.05670   0.05941   0.07632   0.15582
   4        2PY        -0.03345   0.05451  -0.07029   0.03354  -0.07970
   5        2PZ        -0.00171   0.00852  -0.00524  -0.00803   0.00401
   6        3S          0.05001  -0.27978   0.16222   0.41067  -0.06487
   7        3PX        -0.02125   0.02132  -0.01723   0.01205   0.06975
   8        3PY        -0.04419   0.03864   0.00641  -0.02445  -0.02318
   9        3PZ         0.00004   0.00646  -0.00304  -0.00759   0.00222
  10 2   C  1S         -0.07034   0.04791  -0.15204   0.04365  -0.10079
  11        2S          0.07934  -0.05678   0.16380  -0.04325   0.11220
  12        2PX        -0.07740   0.01296  -0.02323   0.00315   0.18968
  13        2PY        -0.02693  -0.11700   0.00701   0.20126   0.03456
  14        2PZ         0.00144  -0.00275   0.00468   0.00309   0.00622
  15        3S          0.05340  -0.05966   0.36905  -0.17819   0.30688
  16        3PX         0.03814   0.00931  -0.02819   0.02280   0.10501
  17        3PY        -0.01653  -0.02967   0.03724   0.04843   0.01227
  18        3PZ        -0.00032  -0.00197   0.00458  -0.00020   0.00389
  19 3   O  1S         -0.20833  -0.09435  -0.00107  -0.00972   0.04463
  20        2S          0.18866   0.09080   0.00036   0.01095  -0.04399
  21        2PX        -0.01099  -0.00039   0.20048  -0.24839  -0.08826
  22        2PY         0.11309  -0.02142  -0.00054  -0.00434  -0.02996
  23        2PZ         0.00290   0.00116  -0.00253   0.00899   0.00329
  24        3S          0.66408   0.34023   0.00348   0.04104  -0.19720
  25        3PX        -0.00981  -0.00092   0.16533  -0.21673  -0.07904
  26        3PY         0.14396  -0.00248   0.00161  -0.00538  -0.03328
  27        3PZ         0.00383   0.00091  -0.00327   0.00775   0.00319
  28 4   C  1S         -0.08303   0.06386   0.14113   0.00541  -0.10501
  29        2S          0.09261  -0.07573  -0.15308  -0.01133   0.11520
  30        2PX         0.09091  -0.01176  -0.02952   0.05323  -0.12435
  31        2PY        -0.03156  -0.14884  -0.00992  -0.22850  -0.05668
  32        2PZ        -0.00473   0.00450   0.00957   0.00427  -0.00451
  33        3S          0.05782  -0.09394  -0.34790   0.04252   0.34715
  34        3PX        -0.04134  -0.01143  -0.02240   0.03634  -0.07419
  35        3PY        -0.00914  -0.03567  -0.04229  -0.05867  -0.01664
  36        3PZ         0.00056   0.00325   0.00648   0.00015  -0.00435
  37 5   C  1S         -0.03173   0.15181   0.06859   0.08507   0.05470
  38        2S          0.03219  -0.16235  -0.07579  -0.08703  -0.05219
  39        2PX         0.01151  -0.05261   0.06281   0.12202  -0.11415
  40        2PY        -0.03926   0.07542   0.08367   0.07194  -0.08908
  41        2PZ         0.00202  -0.01114  -0.00527  -0.00684  -0.00390
  42        3S          0.05698  -0.30135  -0.11874  -0.29904  -0.19095
  43        3PX         0.02986  -0.02155  -0.01534   0.02764  -0.05298
  44        3PY        -0.03447   0.03375  -0.01181   0.05698  -0.00978
  45        3PZ         0.00090  -0.00783  -0.00145  -0.00649  -0.00328
  46 6   H  1S          0.00721  -0.05152  -0.03021  -0.06879  -0.04136
  47        2S          0.01234  -0.01143  -0.00602  -0.03988  -0.03099
  48 7   H  1S          0.01436  -0.01252  -0.07241   0.02525   0.14954
  49        2S         -0.01855  -0.00151  -0.02830   0.02438   0.07908
  50 8   H  1S          0.01465  -0.01253   0.09507  -0.07994   0.17282
  51        2S         -0.02328  -0.00298   0.03409  -0.05064   0.08089
  52 9   H  1S          0.00827  -0.05937   0.04391   0.13056  -0.01086
  53        2S          0.01723  -0.01480   0.00834   0.06876  -0.00989
                          11        12        13        14        15
                           O         O         O         O         O
     Eigenvalues --    -0.54348  -0.44960  -0.44260  -0.42598  -0.39484
   1 1   C  1S         -0.03715   0.00566   0.03196   0.01121  -0.02384
   2        2S          0.03330  -0.00888  -0.03501  -0.00780   0.02480
   3        2PX         0.01842  -0.03527  -0.08615  -0.10517  -0.31367
   4        2PY         0.23406  -0.01188   0.02978  -0.26542   0.03196
   5        2PZ        -0.00232   0.11124  -0.02611  -0.01549  -0.00824
   6        3S          0.17328   0.00977  -0.10606  -0.05219   0.10532
   7        3PX         0.03628  -0.04378  -0.04376  -0.09442  -0.19063
   8        3PY         0.12300  -0.03597  -0.00313  -0.15032  -0.00562
   9        3PZ        -0.00556   0.08099  -0.01910  -0.01139  -0.00652
  10 2   C  1S          0.02204  -0.00327  -0.01271  -0.04034   0.01139
  11        2S         -0.02756   0.00430   0.01241   0.04721  -0.01480
  12        2PX         0.12387   0.05881   0.26639  -0.05973   0.04395
  13        2PY        -0.12994  -0.01219  -0.06130   0.16431  -0.14658
  14        2PZ        -0.00665   0.17399  -0.04326  -0.00885  -0.01211
  15        3S         -0.03857  -0.00499   0.03242   0.13973  -0.05368
  16        3PX         0.08748   0.05725   0.17501  -0.04763   0.03334
  17        3PY        -0.11520  -0.01799  -0.03751   0.09790  -0.12849
  18        3PZ        -0.00294   0.16288  -0.04094  -0.01059  -0.00930
  19 3   O  1S         -0.05552   0.00232   0.00466   0.00038   0.01282
  20        2S          0.05491  -0.00182  -0.00289   0.00098  -0.00807
  21        2PX         0.03167  -0.05248  -0.24642  -0.07665   0.05957
  22        2PY        -0.17234  -0.00240   0.01926  -0.03747  -0.11545
  23        2PZ        -0.00443   0.35853  -0.07834  -0.02526  -0.00862
  24        3S          0.21449  -0.01018  -0.01881  -0.00871  -0.08605
  25        3PX         0.02914  -0.04761  -0.23270  -0.08120   0.06063
  26        3PY        -0.15710  -0.00297   0.01737  -0.03842  -0.12003
  27        3PZ        -0.00450   0.35984  -0.07995  -0.02597  -0.00935
  28 4   C  1S          0.01849   0.00489   0.02671   0.04270  -0.01185
  29        2S         -0.02202  -0.00546  -0.02378  -0.05335   0.00954
  30        2PX        -0.12904   0.05932   0.26458  -0.09287  -0.11319
  31        2PY        -0.05989  -0.01672  -0.01020  -0.20964  -0.08828
  32        2PZ         0.00326   0.20239  -0.05266  -0.00825   0.00995
  33        3S         -0.04659  -0.00288  -0.10322  -0.14946   0.02554
  34        3PX        -0.08760   0.05842   0.17136  -0.07151  -0.08944
  35        3PY        -0.09568   0.00445   0.01370  -0.14466  -0.10356
  36        3PZ         0.00100   0.18194  -0.04680  -0.01045   0.00624
  37 5   C  1S         -0.06031  -0.00912  -0.04075  -0.02574  -0.00373
  38        2S          0.05673   0.01262   0.04384   0.01962   0.00531
  39        2PX        -0.06065   0.01676   0.07227   0.00426   0.33340
  40        2PY         0.19422   0.03301   0.01679   0.27089  -0.03672
  41        2PZ        -0.00247   0.12562  -0.02825  -0.02176   0.01257
  42        3S          0.26442   0.00207   0.13071   0.14325   0.04513
  43        3PX        -0.05827  -0.01733   0.05315  -0.03716   0.22635
  44        3PY         0.09238   0.04344   0.02084   0.13604  -0.07020
  45        3PZ         0.00384   0.08584  -0.02068  -0.01292   0.01149
  46 6   H  1S          0.13992   0.02015   0.02494   0.16613  -0.16498
  47        2S          0.08223   0.00391   0.01623   0.14974  -0.15097
  48 7   H  1S          0.05165  -0.03411  -0.17079   0.07105   0.12772
  49        2S          0.01946  -0.01791  -0.13968   0.06522   0.11655
  50 8   H  1S          0.06552   0.04449   0.19724  -0.03339   0.07117
  51        2S          0.02365   0.02381   0.15103  -0.03035   0.06184
  52 9   H  1S          0.13994  -0.02859  -0.05278  -0.20643  -0.07685
  53        2S          0.07273  -0.00628  -0.03094  -0.17070  -0.07154
                          16        17        18        19        20
                           O         O         O         V         V
     Eigenvalues --    -0.36086  -0.27673  -0.23999   0.02673   0.08610
   1 1   C  1S          0.02324   0.00631  -0.00629   0.00836   0.00535
   2        2S         -0.02290  -0.00886   0.00707  -0.00557   0.00219
   3        2PX        -0.04228   0.00590  -0.01030   0.01316  -0.01653
   4        2PY         0.15391   0.00274  -0.00037  -0.00715  -0.00606
   5        2PZ        -0.00623  -0.27483   0.20892  -0.23368  -0.29650
   6        3S         -0.16012  -0.00387   0.02422  -0.07296  -0.08111
   7        3PX        -0.07471  -0.00742  -0.01065   0.03498  -0.04280
   8        3PY         0.11252  -0.00344   0.00521  -0.03039  -0.00882
   9        3PZ         0.00031  -0.28814   0.22008  -0.41322  -0.60155
  10 2   C  1S         -0.01925   0.00003   0.00463   0.00557   0.00287
  11        2S          0.02386  -0.00010  -0.00574  -0.00365   0.00379
  12        2PX        -0.05675  -0.00018  -0.00031   0.00234   0.00157
  13        2PY        -0.18414   0.00237  -0.01716  -0.00154   0.01908
  14        2PZ        -0.00953  -0.05902   0.33309   0.35013   0.16027
  15        3S          0.08308  -0.00714  -0.01362  -0.06063  -0.04166
  16        3PX        -0.03659   0.00569  -0.00449  -0.01038   0.01539
  17        3PY         0.00510  -0.00438  -0.01017  -0.01580   0.04245
  18        3PZ        -0.00558  -0.01631   0.35308   0.54697   0.33643
  19 3   O  1S          0.07142   0.00024   0.00112  -0.00065  -0.00979
  20        2S         -0.07203   0.00003   0.00052  -0.00011   0.00634
  21        2PX         0.02504   0.01246   0.00278   0.00315  -0.00674
  22        2PY         0.42761  -0.01584   0.00208   0.00154   0.01321
  23        2PZ         0.00708   0.32619   0.00134  -0.27920   0.05510
  24        3S         -0.26432  -0.00401  -0.01215   0.00685   0.08245
  25        3PX         0.02407   0.01684   0.00423  -0.00109  -0.01150
  26        3PY         0.46081  -0.01738  -0.00088   0.00289   0.02305
  27        3PZ         0.00853   0.36926   0.00398  -0.39223   0.08418
  28 4   C  1S         -0.02139   0.00080   0.00667  -0.00814   0.01336
  29        2S          0.02448   0.00007  -0.00849   0.00510  -0.00411
  30        2PX         0.01363  -0.00065  -0.00746   0.00200  -0.00122
  31        2PY        -0.18898   0.00306  -0.01154   0.00449   0.02715
  32        2PZ         0.00261  -0.08029  -0.31124   0.27986  -0.27170
  33        3S          0.10866  -0.00178  -0.01571   0.08487  -0.13501
  34        3PX        -0.01801   0.00634   0.00172  -0.01371   0.00488
  35        3PY         0.02128  -0.00496  -0.00131   0.02316   0.06100
  36        3PZ         0.00126  -0.03043  -0.32057   0.42146  -0.54237
  37 5   C  1S          0.02574  -0.00839  -0.00473  -0.00349   0.00722
  38        2S         -0.02790   0.01167   0.00624   0.00214   0.00346
  39        2PX         0.02531   0.00970   0.00897   0.01547   0.00669
  40        2PY         0.16532  -0.01928  -0.00735   0.00930  -0.00837
  41        2PZ        -0.01273  -0.28813  -0.19079  -0.10448   0.35901
  42        3S         -0.17294   0.02056   0.00691   0.02179  -0.12603
  43        3PX         0.06400  -0.01073   0.00662   0.04608   0.00329
  44        3PY         0.12425  -0.01269   0.00422   0.02801  -0.00338
  45        3PZ        -0.01719  -0.30046  -0.19301  -0.19409   0.73521
  46 6   H  1S          0.05975  -0.00853  -0.00526  -0.00305   0.01233
  47        2S          0.08876  -0.01525  -0.00950  -0.00821   0.06527
  48 7   H  1S          0.09124  -0.00055   0.00839  -0.00876   0.01993
  49        2S          0.09406  -0.00026   0.01403  -0.03367   0.11795
  50 8   H  1S          0.05485  -0.00200   0.00426   0.00718   0.00983
  51        2S          0.05839  -0.00408   0.00666   0.02718   0.04092
  52 9   H  1S          0.05771   0.00445  -0.00292   0.01082   0.01333
  53        2S          0.08194   0.00639  -0.00452   0.03533   0.05793
                          21        22        23        24        25
                           V         V         V         V         V
     Eigenvalues --     0.12683   0.15136   0.17804   0.19278   0.21830
   1 1   C  1S          0.03361   0.01224  -0.05944   0.09654  -0.08579
   2        2S         -0.01713  -0.00755   0.06098  -0.07829   0.02898
   3        2PX        -0.01699   0.09351  -0.07043  -0.07023  -0.00806
   4        2PY        -0.10945   0.05266  -0.04748  -0.16966   0.11068
   5        2PZ         0.01962   0.01816   0.00341   0.01826  -0.01890
   6        3S         -0.46277  -0.09206   0.30932  -1.02963   1.53818
   7        3PX        -0.04946   0.34727  -0.07790  -0.52752  -0.34790
   8        3PY        -0.33103   0.13073   0.18156  -0.89145   0.36008
   9        3PZ         0.05712   0.03826   0.01846   0.04213  -0.09589
  10 2   C  1S          0.02780   0.06197   0.11082  -0.02905  -0.06045
  11        2S         -0.02055  -0.04942  -0.08059   0.04171   0.05120
  12        2PX        -0.07851   0.18461  -0.18924  -0.15643  -0.14054
  13        2PY        -0.02567   0.13556   0.13219   0.01396  -0.17957
  14        2PZ        -0.01136  -0.00940  -0.01364  -0.00298   0.00893
  15        3S         -0.41574  -0.46264  -1.33687  -0.11954   0.57496
  16        3PX        -0.18530   0.37253  -0.92930  -0.13334  -0.37415
  17        3PY        -0.09826   0.39052   0.56227  -0.00332  -0.57129
  18        3PZ        -0.03492  -0.02172  -0.02461  -0.03654   0.03543
  19 3   O  1S          0.03295  -0.07978  -0.05060   0.01792   0.03754
  20        2S         -0.02156   0.05640   0.03518  -0.01032  -0.01610
  21        2PX         0.01567   0.08820  -0.02935  -0.09686  -0.26253
  22        2PY        -0.10233   0.13317   0.07486  -0.03317  -0.02423
  23        2PZ        -0.00656  -0.00387   0.00532   0.00150  -0.00940
  24        3S         -0.28157   0.65621   0.43149  -0.17408  -0.39670
  25        3PX         0.02234   0.16933  -0.08437  -0.11386  -0.53111
  26        3PY        -0.19440   0.20914   0.11530  -0.07746  -0.09969
  27        3PZ        -0.01138  -0.00782   0.01245   0.00366  -0.01589
  28 4   C  1S          0.03763   0.09193   0.02519   0.04333   0.08976
  29        2S         -0.01961  -0.06780  -0.01730  -0.04821  -0.05622
  30        2PX         0.22115   0.12738  -0.16221  -0.02106   0.08021
  31        2PY         0.03794   0.14533   0.04052  -0.02213   0.07752
  32        2PZ         0.01853   0.02802   0.01083   0.00293   0.01931
  33        3S         -0.60278  -0.83033  -0.23077  -0.17630  -1.28827
  34        3PX         0.48888   0.59238  -0.50497   0.23170   0.35611
  35        3PY         0.06340   0.56298   0.12196  -0.06106   0.04627
  36        3PZ         0.05331   0.04841   0.03239  -0.01579   0.07006
  37 5   C  1S          0.05311  -0.06978   0.03601  -0.08335   0.00988
  38        2S         -0.02773   0.05934  -0.03226   0.06852   0.00634
  39        2PX         0.11053   0.03519  -0.07306  -0.11016  -0.22017
  40        2PY        -0.20013   0.04208   0.01411   0.12143  -0.04782
  41        2PZ        -0.02071  -0.01507  -0.01794   0.01002  -0.00387
  42        3S         -0.64788   0.47747  -0.25100   0.76273  -0.14198
  43        3PX         0.33597   0.03510  -0.18777  -0.59706  -1.06152
  44        3PY        -0.50694   0.33854  -0.14009   0.68522  -0.26971
  45        3PZ        -0.05689  -0.04758  -0.03337  -0.00069  -0.02713
  46 6   H  1S          0.11241  -0.03869  -0.01287  -0.04661  -0.00706
  47        2S          1.16774  -0.52409   0.03156  -1.28669  -0.41130
  48 7   H  1S          0.06769   0.10766  -0.01711   0.00844  -0.03057
  49        2S          0.89171   1.37875  -0.29346   0.24123   0.88249
  50 8   H  1S          0.02611   0.00205   0.09489   0.00003   0.03525
  51        2S          0.39489   0.08998   2.00127   0.23724  -0.23865
  52 9   H  1S          0.07008  -0.05287  -0.00729   0.06698   0.05688
  53        2S          0.72037  -0.40889  -0.23125   1.71082  -0.77565
                          26        27        28        29        30
                           V         V         V         V         V
     Eigenvalues --     0.23465   0.37044   0.43100   0.47873   0.67830
   1 1   C  1S         -0.02289   0.08487   0.02209   0.11465   0.04973
   2        2S          0.01425  -0.02027  -0.02438  -0.01022  -0.09617
   3        2PX         0.25923   0.05611   0.25781   0.05180  -0.16878
   4        2PY        -0.00756   0.16392  -0.11606   0.20496   0.29392
   5        2PZ        -0.02249  -0.00439   0.01538  -0.00296  -0.03561
   6        3S          0.51085  -1.75830  -0.10552  -3.03705  -0.33027
   7        3PX         1.17110  -0.33615   1.37626   1.38773   0.15205
   8        3PY        -0.09054   1.88579  -0.79339   1.94298   0.21924
   9        3PZ        -0.05537   0.06364   0.04775   0.12519   0.04204
  10 2   C  1S          0.05977  -0.09094   0.00101  -0.08842  -0.04923
  11        2S         -0.03839   0.00281   0.00092   0.02664  -0.03293
  12        2PX        -0.13763  -0.15495  -0.09957  -0.25830  -0.15736
  13        2PY        -0.07505   0.24076  -0.11780  -0.15932  -0.05148
  14        2PZ        -0.00012   0.00085  -0.00980   0.00545  -0.00894
  15        3S         -1.05216   1.85321  -0.51863   1.76005   0.44988
  16        3PX        -0.50948  -1.10437  -0.40537  -1.23508  -0.12166
  17        3PY        -0.47441   1.52589  -1.21512   1.41833   0.46586
  18        3PZ        -0.01074   0.06805  -0.06470   0.07586   0.02764
  19 3   O  1S          0.08616   0.05036  -0.00571  -0.01062   0.02899
  20        2S         -0.04151  -0.01935   0.00079  -0.00079  -0.08400
  21        2PX         0.15200   0.02895  -0.25468  -0.18900   0.05390
  22        2PY        -0.06242  -0.14265  -0.02596   0.01356  -0.20002
  23        2PZ         0.00167  -0.00316   0.02487   0.01068   0.00077
  24        3S         -0.89653  -0.66067   0.10063   0.17287   0.15687
  25        3PX         0.31906   0.08854  -0.66708  -0.31241  -0.03161
  26        3PY        -0.21231  -0.46761  -0.06130   0.10392  -0.13417
  27        3PZ        -0.00314  -0.00864   0.04483   0.00058   0.00619
  28 4   C  1S         -0.04797  -0.07090  -0.02817   0.10550  -0.04053
  29        2S          0.04324   0.00816   0.00406  -0.01282  -0.08564
  30        2PX         0.19053   0.11885  -0.06155  -0.25670   0.34491
  31        2PY        -0.18349   0.18141   0.18342   0.11117  -0.49226
  32        2PZ        -0.02433  -0.00169  -0.00408   0.00394   0.02587
  33        3S          0.24801   1.56031   1.52328  -2.72981  -0.11669
  34        3PX         0.50628   0.86064  -0.28484  -1.51710  -0.16367
  35        3PY        -0.77425   0.76856   2.03957  -1.81276   0.75794
  36        3PZ        -0.06646  -0.06684  -0.09863   0.14137  -0.04596
  37 5   C  1S         -0.07278   0.06393   0.00845  -0.13109  -0.01412
  38        2S          0.01510  -0.01771   0.01823   0.01847  -0.11231
[...]
               1          2          3          4          5          6
     1  C    5.245407   0.462224  -0.080086  -0.137497   0.443389  -0.023972
     2  C    0.462224   5.089159   0.288236  -0.156173  -0.129602   0.004592
     3  O   -0.080086   0.288236   8.131812   0.297273  -0.091602   0.002246
     4  C   -0.137497  -0.156173   0.297273   5.067597   0.438224  -0.029627
     5  C    0.443389  -0.129602  -0.091602   0.438224   5.282707   0.374370
     6  H   -0.023972   0.004592   0.002246  -0.029627   0.374370   0.491422
     7  H    0.003106   0.004369  -0.032073   0.383931  -0.038499  -0.000884
     8  H   -0.038258   0.393434  -0.027786   0.003635   0.003099  -0.000023
     9  H    0.386619  -0.030410   0.002353   0.006139  -0.029109  -0.001090
               7          8          9
     1  C    0.003106  -0.038258   0.386619
     2  C    0.004369   0.393434  -0.030410
     3  O   -0.032073  -0.027786   0.002353
     4  C    0.383931   0.003635   0.006139
     5  C   -0.038499   0.003099  -0.029109
     6  H   -0.000884  -0.000023  -0.001090
     7  H    0.468676  -0.000055  -0.000028
     8  H   -0.000055   0.446674  -0.000523
     9  H   -0.000028  -0.000523   0.476661
 Mulliken charges:
               1
     1  C   -0.260932
     2  C    0.074170
     3  O   -0.490373
     4  C    0.126499
     5  C   -0.252979
     6  H    0.182965
     7  H    0.211458
     8  H    0.219803
     9  H    0.189388
 Sum of Mulliken charges =   0.00000
 Mulliken charges with hydrogens summed into heavy atoms:
               1
     1  C   -0.071544
     2  C    0.293973
     3  O   -0.490373
     4  C    0.337957
     5  C   -0.070013
 Electronic spatial extent (au):  <R**2>=            286.2806
 Charge=              0.0000 electrons
 Dipole moment (field-independent basis, Debye):
    X=              0.0319    Y=              0.7105    Z=             -0.0055  Tot=              0.7113
 Quadrupole moment (field-independent basis, Debye-Ang):
   XX=            -23.7431   YY=            -27.9855   ZZ=            -31.6055
   XY=              0.0090   XZ=             -0.0050   YZ=             -0.0730
 Traceless Quadrupole moment (field-independent basis, Debye-Ang):
   XX=              4.0349   YY=             -0.2074   ZZ=             -3.8275
   XY=              0.0090   XZ=             -0.0050   YZ=             -0.0730
 Octapole moment (field-independent basis, Debye-Ang**2):
  XXX=              0.5391  YYY=              1.9000  ZZZ=             -0.1099  XYY=             -0.1760
  XXY=             -4.4698  XXZ=             -0.0808  XZZ=              0.0776  YZZ=             -3.4016
  YYZ=             -0.1285  XYZ=             -0.0205
 Hexadecapole moment (field-independent basis, Debye-Ang**3):
 XXXX=           -157.5477 YYYY=           -153.3487 ZZZZ=            -30.6888 XXXY=             -0.7393
 XXXZ=              0.1730 YYYX=              0.4151 YYYZ=             -0.2346 ZZZX=             -0.0141
 ZZZY=              0.0362 XXYY=            -44.5037 XXZZ=            -38.8895 YYZZ=            -33.5941
 XXYZ=             -0.0643 YYXZ=             -0.0959 ZZXY=              0.0238
 N-N= 1.623539100905D+02 E-N=-8.574896035316D+02  KE= 2.271470513473D+02
 Orbital energies and kinetic energies (alpha):
                                 1                 2
   1         O               -19.104702         28.828769
   2         O               -10.171124         15.801740
   3         O               -10.170064         15.794440
   4         O               -10.123617         15.803825
   5         O               -10.120485         15.804486
   6         O                -1.126617          2.490300
   7         O                -0.810182          1.854871
   8         O                -0.756101          1.817508
   9         O                -0.608588          1.677628
  10         O                -0.569841          1.407559
  11         O                -0.543481          1.312776
  12         O                -0.449599          1.546023
  13         O                -0.442596          1.519533
  14         O                -0.425977          1.374191
  15         O                -0.394844          1.371364
  16         O                -0.360862          2.335650
  17         O                -0.276726          1.606491
  18         O                -0.239992          1.226373
  19         V                 0.026731          1.806122
  20         V                 0.086100          1.502557
  21         V                 0.126832          1.158993
  22         V                 0.151362          1.707714
  23         V                 0.178039          1.363361
  24         V                 0.192776          1.298202
  25         V                 0.218305          1.896077
  26         V                 0.234653          1.831504
  27         V                 0.370438          1.889847
  28         V                 0.431003          1.846776
  29         V                 0.478735          2.580446
  30         V                 0.678300          2.588999
  31         V                 0.696376          2.516446
  32         V                 0.700901          2.656065
  33         V                 0.759407          2.553318
  34         V                 0.770961          2.570116
  35         V                 0.791891          2.614761
  36         V                 0.806765          2.604856
  37         V                 0.823870          2.668291
  38         V                 0.844585          2.594897
  39         V                 0.931768          2.741533
  40         V                 0.989683          3.254103
  41         V                 1.011061          3.205428
  42         V                 1.046549          3.275915
  43         V                 1.178400          2.803688
  44         V                 1.225515          2.911581
  45         V                 1.300992          2.520762
  46         V                 1.366140          2.909347
  47         V                 1.509743          4.895858
  48         V                 1.561660          3.384484
  49         V                 1.654798          3.924070
  50         V                 1.751277          4.259484
  51         V                 1.939453          3.779217
  52         V                 2.129840          4.569168
  53         V                 3.184577          6.835629
 Total kinetic energy from orbitals= 2.271470513473D+02
 No NMR shielding tensors so no spin-rotation constants.
 Leave Link  601 at Tue Dec 15 16:13:46 2015, MaxMem=    33554432 cpu:         0.1
 (Enter /home/Applications/g09/g09/l701.exe)
 Compute integral first derivatives.
 ... and contract with generalized density number  6.
 Leave Link  701 at Tue Dec 15 16:13:46 2015, MaxMem=    33554432 cpu:         0.1
 (Enter /home/Applications/g09/g09/l702.exe)
 L702 exits ... SP integral derivatives will be done elsewhere.
 Leave Link  702 at Tue Dec 15 16:13:46 2015, MaxMem=    33554432 cpu:         0.0
 (Enter /home/Applications/g09/g09/l703.exe)
 Compute integral first derivatives, UseDBF=F ICtDFT=           0.
 Integral derivatives from FoFJK, PRISM(SPDF).
 Calling FoFJK, ICntrl=  10005127 FMM=F ISym2X=0 I1Cent= 0 IOpClX= 0 NMat=1 NMatS=1 NMatT=0.
 FoFJK:  IHMeth= 1 ICntrl=10005127 DoSepK=F KAlg= 0 I1Cent=   0 FoldK=F
 IRaf=         0 NMat=   1 IRICut=       1 DoRegI=T DoRafI=F ISym2E= 0.
 FoFCou: FMM=F IPFlag=           0 FMFlag=      100000 FMFlg1=         800
         NFxFlg=           0 DoJE=F BraDBF=F KetDBF=F FulRan=T
         wScrn=  0.000000 ICntrl=10005127 IOpCl=  0 I1Cent=           0 NGrid=           0
         NMat0=    1 NMatS0=      1 NMatT0=    0 NMatD0=    1 NMtDS0=    0 NMtDT0=    0
 Symmetry not used in FoFCou.
 Leave Link  703 at Tue Dec 15 16:13:48 2015, MaxMem=    33554432 cpu:         1.5
 (Enter /home/Applications/g09/g09/l716.exe)
 Dipole        =-7.51575918D-01 3.18095946D-01-2.50597737D-02
 ***** Axes restored to original set *****
 -------------------------------------------------------------------
 Center     Atomic                   Forces (Hartrees/Bohr)
 Number     Number              X              Y              Z
 -------------------------------------------------------------------
      1        6           0.071813444    0.000624338    0.004906580
      2        6          -0.011212786   -0.046720954   -0.006214582
      3        8          -0.078571555    0.034840786    0.003327813
      4        6          -0.164444732    0.109152929   -0.000574966
      5        6           0.175308130   -0.009495438    0.001350996
      6        1          -0.022742529   -0.018013148   -0.003333795
      7        1           0.021208496   -0.017845972    0.002498331
      8        1          -0.016435242   -0.035013771    0.000489835
      9        1           0.025076775   -0.017528770   -0.002450213
 -------------------------------------------------------------------
 Cartesian Forces:  Max     0.175308130 RMS     0.057340673
 Z-matrix is all fixed cartesians, so copy forces.
 Force constants in Cartesian coordinates: 
                1             2             3             4             5 
      1  0.969114D+00
      2 -0.475423D-01  0.784866D+00
      3  0.661883D-02 -0.342270D-02  0.214534D+00
      4 -0.512030D+00 -0.108396D+00 -0.213660D-01  0.943936D+00
      5 -0.854897D-01 -0.218128D+00 -0.675957D-02  0.839484D-01  0.906338D+00
      6 -0.246986D-01 -0.572777D-02 -0.114123D+00  0.181184D-01  0.783484D-02
      7 -0.866304D-02  0.292962D-01  0.381670D-03 -0.254721D+00  0.143568D+00
      8 -0.589978D-02  0.201776D-01  0.806863D-03  0.186284D+00 -0.349293D+00
      9 -0.172948D-02  0.250826D-02  0.337395D-02  0.250448D-02 -0.680198D-02
     10  0.103063D-01  0.664428D-04 -0.108516D-02  0.241545D-01  0.165971D-01
     11  0.357748D-01  0.218922D-03 -0.434245D-02 -0.193259D-01 -0.133052D-01
     12 -0.327845D-02  0.178213D-03 -0.987439D-03 -0.104554D-03 -0.329234D-03
     13 -0.162765D+00  0.129364D-01  0.103266D-02  0.988447D-02 -0.340951D-01
     14 -0.108242D-01 -0.384350D+00  0.209381D-01  0.152172D-03 -0.579490D-03
     15  0.106823D-02  0.210016D-01 -0.773521D-01  0.883899D-03 -0.265684D-02
     16  0.164639D-01  0.226771D-03  0.409992D-03  0.119822D-04 -0.958233D-05
     17 -0.218753D-01 -0.319676D-03 -0.906672D-03 -0.107496D-04  0.859660D-05
     18  0.291692D-02  0.810585D-03  0.152514D-01 -0.214746D-03  0.171735D-03
     19  0.626626D-04  0.406496D-04  0.785446D-03  0.722863D-05  0.801222D-05
     20  0.503049D-04  0.326331D-04  0.630548D-03  0.147306D-05  0.163274D-05
     21  0.741430D-03  0.480970D-03  0.929347D-02 -0.138289D-03 -0.153280D-03
     22  0.776740D-02 -0.264165D-01 -0.445944D-04 -0.206026D+00 -0.142001D+00
     23 -0.461425D-02  0.156366D-01  0.371955D-03 -0.135366D+00 -0.349838D+00
     24 -0.476274D-03 -0.418509D-02  0.357012D-01  0.268146D-02  0.566645D-02
     25 -0.320256D+00  0.139788D+00  0.132671D-01 -0.521700D-02  0.174748D-01
     26  0.140420D+00 -0.218135D+00 -0.731606D-02 -0.728724D-02  0.247952D-01
     27  0.188374D-01 -0.116440D-01 -0.856915D-01 -0.236464D-02  0.302787D-02
                6             7             8             9            10 
      6  0.212042D+00
      7 -0.654778D-03  0.551764D+00
      8 -0.343065D-02  0.501005D-01  0.713591D+00
      9 -0.452071D-01  0.135803D-01  0.213964D-01  0.608749D-01
     10  0.147990D-02 -0.321764D+00 -0.236704D+00 -0.173312D-01  0.112237D+01
     11 -0.157913D-02 -0.191114D+00 -0.390200D+00 -0.199579D-01 -0.299041D-01
     12 -0.611919D-03 -0.121165D-01 -0.176136D-01 -0.534732D-01 -0.200635D-01
     13  0.284556D-02 -0.906335D-02  0.714628D-02  0.216410D-02 -0.669481D+00
     14  0.467716D-03 -0.302461D-01  0.240735D-01  0.322166D-02  0.152765D+00
     15 -0.319040D-02 -0.219143D-02  0.129512D-02  0.986739D-02  0.393062D-01
     16 -0.191747D-03  0.146649D-04 -0.311520D-04  0.369201D-03 -0.524781D-02
     17  0.172022D-03 -0.278695D-04  0.592019D-04 -0.701637D-03  0.687153D-02
     18  0.343650D-02  0.354237D-03 -0.752490D-03  0.891820D-02  0.331270D-02
     19 -0.262741D-03  0.201792D-01 -0.162296D-01  0.109574D-02 -0.160361D+00
     20 -0.535418D-04  0.116042D-01 -0.933650D-02  0.697355D-03  0.902918D-01
     21  0.502644D-02  0.122205D-02 -0.116549D-02  0.354202D-02 -0.581240D-02
     22  0.168635D-02  0.222489D-01  0.153290D-01 -0.531757D-03 -0.194333D-05
     23  0.234701D-02 -0.132069D-01 -0.909983D-02  0.364857D-03  0.000000D+00
     24 -0.882213D-01 -0.316650D-03 -0.276879D-03  0.509241D-02 -0.117398D-03
     25  0.167771D-02  0.448334D-05  0.448953D-05 -0.121404D-03  0.283793D-04
     26 -0.305052D-04  0.268518D-04  0.268888D-04 -0.727115D-03  0.161315D-04
     27  0.308491D-01 -0.258926D-03 -0.259283D-03  0.701141D-02  0.310832D-03
               11            12            13            14            15 
     11  0.888680D+00
     12  0.272031D-01  0.243267D+00
     13  0.125650D+00  0.393382D-01  0.104263D+01
     14 -0.246570D+00 -0.113786D-01 -0.392898D-01  0.774161D+00
     15 -0.129888D-01 -0.136132D+00 -0.345318D-01 -0.523526D-02  0.229165D+00
     16 -0.177703D-01 -0.287168D-03 -0.235619D+00 -0.984029D-01 -0.365687D-02
     17  0.234348D-01 -0.381571D-03 -0.101040D+00 -0.181612D+00 -0.582790D-03
     18  0.424798D-02  0.319543D-01 -0.833241D-02 -0.478170D-02 -0.844857D-01
     19  0.966735D-01 -0.391448D-02  0.756769D-02  0.256869D-01  0.136602D-03
     20 -0.262269D+00  0.212015D-02  0.436647D-02  0.146568D-01  0.827761D-03
     21  0.734564D-02 -0.921796D-01  0.121364D-02 -0.437257D-02  0.387350D-01
     22 -0.215399D-05  0.706348D-04  0.295120D-04 -0.236011D-04 -0.472270D-03
     23  0.000000D+00  0.000000D+00 -0.221697D-04  0.177293D-04  0.354773D-03
     24 -0.130124D-03  0.426709D-02 -0.481072D-03  0.384719D-03  0.769842D-02
     25  0.184098D-04  0.355721D-03  0.168167D-01  0.182837D-03 -0.542549D-03
     26  0.104646D-04  0.202200D-03  0.243477D-01  0.202288D-03 -0.201552D-02
     27  0.201639D-03  0.389613D-02 -0.324894D-02  0.755934D-03  0.156944D-01
               16            17            18            19            20 
     16  0.224399D+00
     17  0.116012D+00  0.158367D+00
     18  0.365071D-02  0.154519D-02  0.444657D-01
     19 -0.498360D-04  0.947094D-04 -0.120381D-02  0.132594D+00
     20 -0.400078D-04  0.760317D-04 -0.966405D-03 -0.106274D+00  0.256839D+00
     21 -0.589664D-03  0.112061D-02 -0.142436D-01  0.336323D-02 -0.325587D-02
     22  0.000000D+00  0.000000D+00  0.000000D+00  0.000000D+00  0.000000D+00
     23  0.000000D+00  0.000000D+00  0.000000D+00  0.000000D+00  0.000000D+00
     24  0.000000D+00  0.000000D+00  0.000000D+00  0.000000D+00  0.000000D+00
     25  0.269841D-04 -0.242082D-04 -0.483609D-03  0.000000D+00  0.000000D+00
     26  0.153384D-04 -0.137605D-04 -0.274895D-03  0.000000D+00  0.000000D+00
     27  0.295551D-03 -0.265147D-03 -0.529686D-02  0.000000D+00  0.000000D+00
               21            22            23            24            25 
     21  0.498263D-01
     22  0.000000D+00  0.175996D+00
     23  0.000000D+00  0.153199D+00  0.343221D+00
     24  0.000000D+00 -0.151883D-02 -0.282915D-02  0.486735D-01
     25  0.000000D+00 -0.140333D-04  0.105420D-04  0.228756D-03  0.308611D+00
     26  0.000000D+00 -0.840489D-04  0.631382D-04  0.137007D-02 -0.157455D+00
     27  0.000000D+00  0.810465D-03 -0.608828D-03 -0.132113D-01 -0.143817D-01
               26            27 
     26  0.193050D+00
     27  0.879183D-02  0.467486D-01
 Leave Link  716 at Tue Dec 15 16:13:48 2015, MaxMem=    33554432 cpu:         0.0
 (Enter /home/Applications/g09/g09/l103.exe)

 GradGradGradGradGradGradGradGradGradGradGradGradGradGradGradGradGradGrad
 Berny optimization.
 Search for a local minimum.
 Step number   1 out of a maximum of    2
 All quantities printed in internal units (Hartrees-Bohrs-Radians)
 Second derivative matrix not updated -- first step.
 ITU=  0
     Eigenvalues ---    0.01961   0.03310   0.06872   0.07351   0.08201
     Eigenvalues ---    0.08828   0.13053   0.13954   0.16490   0.22959
     Eigenvalues ---    0.26394   0.34919   0.42856   0.43997   0.63232
     Eigenvalues ---    0.85859   1.07286   1.35000   1.45023   1.62763
     Eigenvalues ---    1.90099
 Quadratic step=4.881D-01 exceeds max=3.000D-01 adjusted using Lamda=-1.590D-01.
 Angle between NR and scaled steps=  19.62 degrees.
 Angle between quadratic step and forces=  36.79 degrees.
 Linear search not attempted -- first point.
 TrRot= -0.009586  0.010760  0.001730 -0.096183 -0.000501  0.096329
 Variable       Old X    -DE/DX   Delta X   Delta X   Delta X     New X
                                 (Linear)    (Quad)   (Total)
    X1        1.77078   0.07181   0.00000   0.10909   0.09969   1.87047
    Y1       -1.39439   0.00062   0.00000  -0.03557  -0.02454  -1.41893
    Z1        0.04645   0.00491   0.00000   0.00162   0.00436   0.05080
    X2       -0.68093  -0.01121   0.00000  -0.00700  -0.01623  -0.69717
    Y2       -2.11509  -0.04672   0.00000  -0.04303  -0.03237  -2.14746
    Z2       -0.07074  -0.00621   0.00000  -0.00652  -0.00503  -0.07577
    X3       -2.17086  -0.07857   0.00000  -0.12414  -0.13372  -2.30458
    Y3        0.04829   0.03484   0.00000   0.04046   0.05088   0.09917
    Z3       -0.04576   0.00333   0.00000   0.01201   0.01259  -0.03318
    X4       -0.58925  -0.16444   0.00000  -0.10073  -0.11064  -0.69990
    Y4        2.02179   0.10915   0.00000   0.08755   0.09821   2.12000
    Z4        0.05793  -0.00057   0.00000  -0.01614  -0.01486   0.04307
    X5        1.73661   0.17531   0.00000   0.09579   0.08604   1.82265
    Y5        1.33736  -0.00950   0.00000   0.00718   0.01820   1.35556
    Z5       -0.09220   0.00135   0.00000   0.01790   0.02048  -0.07173
    X6        3.43091  -0.02274   0.00000   0.00992  -0.00001   3.43090
    Y6        2.61660  -0.01801   0.00000  -0.02593  -0.01467   2.60193
    Z6       -0.06170  -0.00333   0.00000  -0.00607  -0.00275  -0.06445
    X7       -1.64050   0.02121   0.00000   0.01329   0.00312  -1.63738
    Y7        3.85359  -0.01785   0.00000   0.03861   0.04913   3.90272
    Z7        0.02249   0.00250   0.00000  -0.00428  -0.00355   0.01894
    X8       -1.67027  -0.01644   0.00000  -0.02453  -0.03352  -1.70379
    Y8       -3.78215  -0.03501   0.00000  -0.09620  -0.08570  -3.86784
    Z8       -0.05461   0.00049   0.00000  -0.00274  -0.00167  -0.05628
    X9        3.37395   0.02508   0.00000   0.11445   0.10527   3.47922
    Y9       -2.51346  -0.01753   0.00000  -0.07043  -0.05917  -2.57263
    Z9       -0.04185  -0.00245   0.00000  -0.01316  -0.00957  -0.05141
         Item               Value     Threshold  Converged?
 Maximum Force            0.175308     0.000450     NO 
 RMS     Force            0.057341     0.000300     NO 
 Maximum Displacement     0.133718     0.001800     NO 
 RMS     Displacement     0.057281     0.001200     NO 
 Predicted change in Energy=-4.308926D-02
 GradGradGradGradGradGradGradGradGradGradGradGradGradGradGradGradGradGrad

 Leave Link  103 at Tue Dec 15 16:13:48 2015, MaxMem=    33554432 cpu:         0.0
 (Enter /home/Applications/g09/g09/l9999.exe)
 1\1\GINC-DUSTIN-DESKTOP\Force\RB3LYP-FC\3-21G\C4H4O1\DUSTIN\15-Dec-201
 5\0\\#P B3LYP/3-21G CIS(Singlets,NStates=15) pop(full) force\\FuranDFT
 \\0,1\C,0.937058,-0.73788,0.024579\C,-0.360335,-1.119256,-0.037436\O,-
 1.148769,0.025554,-0.024217\C,-0.31182,1.069883,0.030656\C,0.918974,0.
 707698,-0.048792\H,1.815561,1.384643,-0.032651\H,-0.868115,2.039231,0.
 011903\H,-0.883868,-2.001426,-0.028899\H,1.785418,-1.330067,-0.022144\
 \Version=ES64L-G09RevD.01\State=1-A\HF=-228.7351874\RMSD=4.848e-09\RMS
 F=5.734e-02\Dipole=0.3426462,0.7408494,-0.0203769\PG=C01 [X(C4H4O1)]\\
 @


 I WANT IT ALL - RICH, THIN, AND CHOCOLATE.
 Job cpu time:       0 days  0 hours  0 minutes 48.1 seconds.
 File lengths (MBytes):  RWF=     14 Int=      0 D2E=      0 Chk=      3 Scr=      1
 Normal termination of Gaussian 09 at Tue Dec 15 16:13:48 2015.
