 Entering Gaussian System, Link 0=g09
 Input=FuranDFT_63.com
 Output=FuranDFT_63.log
 Initial command:
 /home/Applications/g09/g09/l1.exe "/home/Applications/g09/scratch/Gau-6090.inp" -scrdir="/home/Applications/g09/scratch/"
 Entering Link 1 = /home/Applications/g09/g09/l1.exe PID=      6092.
  
 Copyright (c) 1988,1990,1992,1993,1995,1998,2003,2009,2013,
            Gaussian, Inc.  All Rights Reserved.
  
 This is part of the Gaussian(R) 09 program.  It is based on
 the Gaussian(R) 03 system (copyright 2003, Gaussian, Inc.),
 the Gaussian(R) 98 system (copyright 1998, Gaussian, Inc.),
 the Gaussian(R) 94 system (copyright 1995, Gaussian, Inc.),
 the Gaussian 92(TM) system (copyright 1992, Gaussian, Inc.),
 the Gaussian 90(TM) system (copyright 1990, Gaussian, Inc.),
 the Gaussian 88(TM) system (copyright 1988, Gaussian, Inc.),
 the Gaussian 86(TM) system (copyright 1986, Carnegie Mellon
 University), and the Gaussian 82(TM) system (copyright 1983,
 Carnegie Mellon University). Gaussian is a federally registered
 trademark of Gaussian, Inc.
  
 This software contains proprietary and confidential information,
 including trade secrets, belonging to Gaussian, Inc.
  
 This software is provided under written license and may be
 used, copied, transmitted, or stored only in accord with that
 written license.
  
 The following legend is applicable only to US Government
 contracts under FAR:
  
                    RESTRICTED RIGHTS LEGEND
  
 Use, reproduction and disclosure by the US Government is
 subject to restrictions as set forth in subparagraphs (a)
 and (c) of the Commercial Computer Software - Restricted
 Rights clause in FAR 52.227-19.
  
 Gaussian, Inc.
 340 Quinnipiac St., Bldg. 40, Wallingford CT 06492
  
  
 ---------------------------------------------------------------
 Warning -- This program may not be used in any manner that
 competes with the business of Gaussian, Inc. or will provide
 assistance to any competitor of Gaussian, Inc.  The licensee
 of this program is prohibited from giving any competitor of
 Gaussian, Inc. access to this program.  By using this program,
 the user acknowledges that Gaussian, Inc. is engaged in the
 business of creating and licensing software in the field of
 computational chemistry and represents and warrants to the
 licensee that it is not a competitor of Gaussian, Inc. and that
 it will not use this program in any manner prohibited above.
 ---------------------------------------------------------------
  

 Cite this work as:
 Gaussian 09, Revision D.01,
 M. J. Frisch, G. W. Trucks, H. B. Schlegel, G. E. Scuseria, 
 M. A. Robb, J. R. Cheeseman, G. Scalmani, V. Barone, B. Mennucci, 
 G. A. Petersson, H. Nakatsuji, M. Caricato, X. Li, H. P. Hratchian, 
 A. F. Izmaylov, J. Bloino, G. Zheng, J. L. Sonnenberg, M. Hada, 
 M. Ehara, K. Toyota, R. Fukuda, J. Hasegawa, M. Ishida, T. Nakajima, 
 Y. Honda, O. Kitao, H. Nakai, T. Vreven, J. A. Montgomery, Jr., 
 J. E. Peralta, F. Ogliaro, M. Bearpark, J. J. Heyd, E. Brothers, 
 K. N. Kudin, V. N. Staroverov, T. Keith, R. Kobayashi, J. Normand, 
 K. Raghavachari, A. Rendell, J. C. Burant, S. S. Iyengar, J. Tomasi, 
 M. Cossi, N. Rega, J. M. Millam, M. Klene, J. E. Knox, J. B. Cross, 
 V. Bakken, C. Adamo, J. Jaramillo, R. Gomperts, R. E. Stratmann, 
 O. Yazyev, A. J. Austin, R. Cammi, C. Pomelli, J. W. Ochterski, 
 R. L. Martin, K. Morokuma, V. G. Zakrzewski, G. A. Voth, 
 P. Salvador, J. J. Dannenberg, S. Dapprich, A. D. Daniels, 
 O. Farkas, J. B. Foresman, J. V. Ortiz, J. Cioslowski, 
 and D. J. Fox, Gaussian, Inc., Wallingford CT, 2013.
 
 ******************************************
 Gaussian 09:  ES64L-G09RevD.01 24-Apr-2013
                15-Dec-2015 
 ******************************************
 -------------------------------------------------------
 #P B3LYP/3-21G CIS(Singlets,NStates=15) pop(full) force
 -------------------------------------------------------
 1/10=7,30=1,38=1/1,3;
 2/12=2,17=6,18=5,40=1/2;
 3/5=5,11=9,16=1,25=1,30=1,71=1,74=-5/1,2,8,3;
 4//1;
 5/5=2,38=5/2;
 8/6=1,10=1,108=15/1;
 9/15=2,41=15,42=1,48=1/14;
 10/5=4/2;
 6/7=3,18=1/1;
 7/12=6,13=5,29=1/1,2,3,16;
 1/10=7,30=1/3;
 99//99;
 Leave Link    1 at Tue Dec 15 16:23:07 2015, MaxMem=           0 cpu:         0.0
 (Enter /home/Applications/g09/g09/l101.exe)
 --------
 FuranDFT
 --------
 Symbolic Z-matrix:
 Charge =  0 Multiplicity = 1
 6                     0.92573  -0.74458   0.03902 
 6                    -0.38036  -1.1145    0.03167 
 8                    -1.17076  -0.01374   0.00789 
 6                    -0.30153   1.09185   0.0267 
 6                     0.9591    0.70893  -0.00943 
 1                     1.84197   1.39787  -0.04031 
 1                    -0.85559   2.04177  -0.00316 
 1                    -0.85438  -2.08337  -0.04464 
 1                     1.76133  -1.33423  -0.02368 
 
 NAtoms=      9 NQM=        9 NQMF=       0 NMMI=      0 NMMIF=      0
                NMic=       0 NMicF=      0.
                    Isotopes and Nuclear Properties:
 (Nuclear quadrupole moments (NQMom) in fm**2, nuclear magnetic moments (NMagM)
  in nuclear magnetons)

  Atom         1           2           3           4           5           6           7           8           9
 IAtWgt=          12          12          16          12          12           1           1           1           1
 AtmWgt=  12.0000000  12.0000000  15.9949146  12.0000000  12.0000000   1.0078250   1.0078250   1.0078250   1.0078250
 NucSpn=           0           0           0           0           0           1           1           1           1
 AtZEff=   0.0000000   0.0000000   0.0000000   0.0000000   0.0000000   0.0000000   0.0000000   0.0000000   0.0000000
 NQMom=    0.0000000   0.0000000   0.0000000   0.0000000   0.0000000   0.0000000   0.0000000   0.0000000   0.0000000
 NMagM=    0.0000000   0.0000000   0.0000000   0.0000000   0.0000000   2.7928460   2.7928460   2.7928460   2.7928460
 AtZNuc=   6.0000000   6.0000000   8.0000000   6.0000000   6.0000000   1.0000000   1.0000000   1.0000000   1.0000000
 Leave Link  101 at Tue Dec 15 16:23:07 2015, MaxMem=    33554432 cpu:         0.0
 (Enter /home/Applications/g09/g09/l103.exe)

 GradGradGradGradGradGradGradGradGradGradGradGradGradGradGradGradGradGrad
 Berny optimization.
 Initialization pass.
 Trust Radius=3.00D-01 FncErr=1.00D-07 GrdErr=1.00D-07
 Number of steps in this run=      2 maximum allowed number of steps=      2.
 GradGradGradGradGradGradGradGradGradGradGradGradGradGradGradGradGradGrad

 Leave Link  103 at Tue Dec 15 16:23:07 2015, MaxMem=    33554432 cpu:         0.0
 (Enter /home/Applications/g09/g09/l202.exe)
                          Input orientation:                          
 ---------------------------------------------------------------------
 Center     Atomic      Atomic             Coordinates (Angstroms)
 Number     Number       Type             X           Y           Z
 ---------------------------------------------------------------------
      1          6           0        0.925731   -0.744579    0.039015
      2          6           0       -0.380357   -1.114501    0.031671
      3          8           0       -1.170762   -0.013737    0.007892
      4          6           0       -0.301526    1.091852    0.026696
      5          6           0        0.959101    0.708926   -0.009426
      6          1           0        1.841970    1.397872   -0.040313
      7          1           0       -0.855593    2.041767   -0.003163
      8          1           0       -0.854377   -2.083368   -0.044637
      9          1           0        1.761327   -1.334228   -0.023680
 ---------------------------------------------------------------------
                    Distance matrix (angstroms):
                    1          2          3          4          5
     1  C    0.000000
     2  C    1.357484   0.000000
     3  O    2.220446   1.355355   0.000000
     4  C    2.208798   2.207766   1.406503   0.000000
     5  C    1.454695   2.262901   2.249191   1.317998   0.000000
     6  H    2.331498   3.354987   3.327389   2.166267   1.120294
     7  H    3.307358   3.192035   2.079555   1.100100   2.251581
     8  H    2.228932   1.081305   2.094333   3.223780   3.329692
     9  H    1.024616   2.153637   3.215873   3.184928   2.195051
                    6          7          8          9
     6  H    0.000000
     7  H    2.773595   0.000000
     8  H    4.403333   4.125344   0.000000
     9  H    2.733341   4.271538   2.720948   0.000000
 Stoichiometry    C4H4O
 Framework group  C1[X(C4H4O)]
 Deg. of freedom    21
 Full point group                 C1      NOp   1
 Largest Abelian subgroup         C1      NOp   1
 Largest concise Abelian subgroup C1      NOp   1
                         Standard orientation:                         
 ---------------------------------------------------------------------
 Center     Atomic      Atomic             Coordinates (Angstroms)
 Number     Number       Type             X           Y           Z
 ---------------------------------------------------------------------
      1          6           0       -0.376584    1.124644   -0.024671
      2          6           0       -1.163767    0.018786   -0.011134
      3          8           0       -0.392425   -1.095488    0.009137
      4          6           0        0.940801   -0.648277   -0.018496
      5          6           0        1.003911    0.667765    0.015701
      6          1           0        1.949612    1.267863    0.039996
      7          1           0        1.649509   -1.489261    0.007927
      8          1           0       -2.235078   -0.102056    0.071992
      9          1           0       -0.650812    2.109852    0.038586
 ---------------------------------------------------------------------
 Rotational constants (GHZ):      9.6026267      9.0800344      4.6691501
 Leave Link  202 at Tue Dec 15 16:23:07 2015, MaxMem=    33554432 cpu:         0.0
 (Enter /home/Applications/g09/g09/l301.exe)
 Standard basis: 3-21G (6D, 7F)
 Ernie: Thresh=  0.10000D-02 Tol=  0.10000D-05 Strict=F.
 There are    53 symmetry adapted cartesian basis functions of A   symmetry.
 There are    53 symmetry adapted basis functions of A   symmetry.
    53 basis functions,    87 primitive gaussians,    53 cartesian basis functions
    18 alpha electrons       18 beta electrons
       nuclear repulsion energy       160.5599755493 Hartrees.
 IExCor=  402 DFT=T Ex+Corr=B3LYP ExCW=0 ScaHFX=  0.200000
 ScaDFX=  0.800000  0.720000  1.000000  0.810000 ScalE2=  1.000000  1.000000
 IRadAn=      0 IRanWt=     -1 IRanGd=            0 ICorTp=0 IEmpDi=  4
 NAtoms=    9 NActive=    9 NUniq=    9 SFac= 1.00D+00 NAtFMM=   60 NAOKFM=F Big=F
 Integral buffers will be    131072 words long.
 Regular integral format.
 Two-electron integral symmetry is turned on.
 Leave Link  301 at Tue Dec 15 16:23:07 2015, MaxMem=    33554432 cpu:         0.0
 (Enter /home/Applications/g09/g09/l302.exe)
 NPDir=0 NMtPBC=     1 NCelOv=     1 NCel=       1 NClECP=     1 NCelD=      1
         NCelK=      1 NCelE2=     1 NClLst=     1 CellRange=     0.0.
 One-electron integrals computed using PRISM.
 NBasis=    53 RedAO= T EigKep=  3.27D-03  NBF=    53
 NBsUse=    53 1.00D-06 EigRej= -1.00D+00 NBFU=    53
 Precomputing XC quadrature grid using
 IXCGrd= 4 IRadAn=           0 IRanWt=          -1 IRanGd=           0 AccXCQ= 0.00D+00.
 Generated NRdTot=       0 NPtTot=           0 NUsed=           0 NTot=          32
 NSgBfM=    53    53    53    53    53 MxSgAt=     9 MxSgA2=     9.
 Leave Link  302 at Tue Dec 15 16:23:07 2015, MaxMem=    33554432 cpu:         0.1
 (Enter /home/Applications/g09/g09/l308.exe)
 Leave Link  308 at Tue Dec 15 16:23:07 2015, MaxMem=    33554432 cpu:         0.0
 (Enter /home/Applications/g09/g09/l303.exe)
 DipDrv:  MaxL=1.
 Leave Link  303 at Tue Dec 15 16:23:07 2015, MaxMem=    33554432 cpu:         0.0
 (Enter /home/Applications/g09/g09/l401.exe)
 ExpMin= 1.83D-01 ExpMax= 3.22D+02 ExpMxC= 3.22D+02 IAcc=1 IRadAn=         1 AccDes= 0.00D+00
 Harris functional with IExCor=  402 and IRadAn=       1 diagonalized for initial guess.
 HarFok:  IExCor=  402 AccDes= 0.00D+00 IRadAn=         1 IDoV= 1 UseB2=F ITyADJ=14
 ICtDFT=  3500011 ScaDFX=  1.000000  1.000000  1.000000  1.000000
 FoFCou: FMM=F IPFlag=           0 FMFlag=      100000 FMFlg1=           0
         NFxFlg=           0 DoJE=T BraDBF=F KetDBF=T FulRan=T
         wScrn=  0.000000 ICntrl=     500 IOpCl=  0 I1Cent=   200000004 NGrid=           0
         NMat0=    1 NMatS0=      1 NMatT0=    0 NMatD0=    1 NMtDS0=    0 NMtDT0=    0
 Petite list used in FoFCou.
 Harris En= -228.735828111860    
 JPrj=0 DoOrth=F DoCkMO=F.
 Leave Link  401 at Tue Dec 15 16:23:07 2015, MaxMem=    33554432 cpu:         0.2
 (Enter /home/Applications/g09/g09/l502.exe)
 Closed shell SCF:
 Using DIIS extrapolation, IDIIS=  1040.
 Integral symmetry usage will be decided dynamically.
 Keep R1 ints in memory in canonical form, NReq=1925595.
 IVT=       27707 IEndB=       27707 NGot=    33554432 MDV=    32502130
 LenX=    32502130 LenY=    32498880
 Requested convergence on RMS density matrix=1.00D-08 within 128 cycles.
 Requested convergence on MAX density matrix=1.00D-06.
 Requested convergence on             energy=1.00D-06.
 No special actions if energy rises.
 FoFCou: FMM=F IPFlag=           0 FMFlag=           0 FMFlg1=           0
         NFxFlg=           0 DoJE=F BraDBF=F KetDBF=F FulRan=T
         wScrn=  0.000000 ICntrl=     600 IOpCl=  0 I1Cent=           0 NGrid=           0
         NMat0=    1 NMatS0=   1431 NMatT0=    0 NMatD0=    1 NMtDS0=    0 NMtDT0=    0
 Symmetry not used in FoFCou.
 Integral accuracy reduced to 1.0D-05 until final iterations.

 Cycle   1  Pass 0  IDiag  1:
 E= -228.663095213303    
 DIIS: error= 3.33D-02 at cycle   1 NSaved=   1.
 NSaved= 1 IEnMin= 1 EnMin= -228.663095213303     IErMin= 1 ErrMin= 3.33D-02
 ErrMax= 3.33D-02  0.00D+00 EMaxC= 1.00D-01 BMatC= 7.76D-02 BMatP= 7.76D-02
 IDIUse=3 WtCom= 6.67D-01 WtEn= 3.33D-01
 Coeff-Com:  0.100D+01
 Coeff-En:   0.100D+01
 Coeff:      0.100D+01
 Gap=     0.233 Goal=   None    Shift=    0.000
 GapD=    0.233 DampG=1.000 DampE=0.500 DampFc=0.5000 IDamp=-1.
 Damping current iteration by 5.00D-01
 RMSDP=1.20D-02 MaxDP=1.08D-01              OVMax= 1.97D-01

 Cycle   2  Pass 0  IDiag  1:
 E= -228.693524788128     Delta-E=       -0.030429574826 Rises=F Damp=T
 DIIS: error= 1.48D-02 at cycle   2 NSaved=   2.
 NSaved= 2 IEnMin= 2 EnMin= -228.693524788128     IErMin= 2 ErrMin= 1.48D-02
 ErrMax= 1.48D-02  0.00D+00 EMaxC= 1.00D-01 BMatC= 9.38D-03 BMatP= 7.76D-02
 IDIUse=3 WtCom= 8.52D-01 WtEn= 1.48D-01
 Coeff-Com:  0.123D+00 0.877D+00
 Coeff-En:   0.218D+00 0.782D+00
 Coeff:      0.137D+00 0.863D+00
 Gap=     0.251 Goal=   None    Shift=    0.000
 RMSDP=4.50D-03 MaxDP=3.73D-02 DE=-3.04D-02 OVMax= 1.64D-01

 Cycle   3  Pass 0  IDiag  1:
 E= -228.733418673795     Delta-E=       -0.039893885667 Rises=F Damp=F
 DIIS: error= 2.07D-02 at cycle   3 NSaved=   3.
 NSaved= 3 IEnMin= 3 EnMin= -228.733418673795     IErMin= 2 ErrMin= 1.48D-02
 ErrMax= 2.07D-02  0.00D+00 EMaxC= 1.00D-01 BMatC= 1.20D-02 BMatP= 9.38D-03
 IDIUse=2 WtCom= 0.00D+00 WtEn= 1.00D+00
 Coeff-En:   0.000D+00 0.000D+00 0.100D+01
 Coeff:      0.000D+00 0.000D+00 0.100D+01
 Gap=     0.243 Goal=   None    Shift=    0.000
 RMSDP=5.99D-03 MaxDP=4.74D-02 DE=-3.99D-02 OVMax= 1.24D-01

 Cycle   4  Pass 0  IDiag  1:
 E= -228.701293663806     Delta-E=        0.032125009989 Rises=F Damp=F
 DIIS: error= 4.26D-02 at cycle   4 NSaved=   4.
 NSaved= 4 IEnMin= 3 EnMin= -228.733418673795     IErMin= 2 ErrMin= 1.48D-02
 ErrMax= 4.26D-02  0.00D+00 EMaxC= 1.00D-01 BMatC= 4.78D-02 BMatP= 9.38D-03
 IDIUse=2 WtCom= 0.00D+00 WtEn= 1.00D+00
 Coeff-En:   0.000D+00 0.000D+00 0.750D+00 0.250D+00
 Coeff:      0.000D+00 0.000D+00 0.750D+00 0.250D+00
 Gap=     0.254 Goal=   None    Shift=    0.000
 RMSDP=3.01D-03 MaxDP=2.38D-02 DE= 3.21D-02 OVMax= 6.71D-02

 Cycle   5  Pass 0  IDiag  1:
 E= -228.741935862623     Delta-E=       -0.040642198817 Rises=F Damp=F
 DIIS: error= 9.88D-03 at cycle   5 NSaved=   5.
 NSaved= 5 IEnMin= 5 EnMin= -228.741935862623     IErMin= 5 ErrMin= 9.88D-03
 ErrMax= 9.88D-03  0.00D+00 EMaxC= 1.00D-01 BMatC= 2.66D-03 BMatP= 9.38D-03
 IDIUse=3 WtCom= 9.01D-01 WtEn= 9.88D-02
 Coeff-Com: -0.824D-02 0.276D-01 0.239D+00-0.899D-01 0.832D+00
 Coeff-En:   0.000D+00 0.000D+00 0.223D+00 0.000D+00 0.777D+00
 Coeff:     -0.743D-02 0.249D-01 0.237D+00-0.810D-01 0.826D+00
 Gap=     0.259 Goal=   None    Shift=    0.000
 RMSDP=1.03D-03 MaxDP=8.01D-03 DE=-4.06D-02 OVMax= 2.16D-02

 Cycle   6  Pass 0  IDiag  1:
 E= -228.744338379417     Delta-E=       -0.002402516794 Rises=F Damp=F
 DIIS: error= 5.87D-04 at cycle   6 NSaved=   6.
 NSaved= 6 IEnMin= 6 EnMin= -228.744338379417     IErMin= 6 ErrMin= 5.87D-04
 ErrMax= 5.87D-04  0.00D+00 EMaxC= 1.00D-01 BMatC= 1.18D-05 BMatP= 2.66D-03
 IDIUse=3 WtCom= 9.94D-01 WtEn= 5.87D-03
 Coeff-Com: -0.530D-02 0.117D-01 0.531D-01-0.403D-01 0.300D+00 0.681D+00
 Coeff-En:   0.000D+00 0.000D+00 0.000D+00 0.000D+00 0.000D+00 0.100D+01
 Coeff:     -0.527D-02 0.117D-01 0.527D-01-0.401D-01 0.298D+00 0.683D+00
 Gap=     0.259 Goal=   None    Shift=    0.000
 RMSDP=7.31D-05 MaxDP=5.91D-04 DE=-2.40D-03 OVMax= 1.51D-03

 Cycle   7  Pass 0  IDiag  1:
 E= -228.744349797181     Delta-E=       -0.000011417764 Rises=F Damp=F
 DIIS: error= 1.26D-04 at cycle   7 NSaved=   7.
 NSaved= 7 IEnMin= 7 EnMin= -228.744349797181     IErMin= 7 ErrMin= 1.26D-04
 ErrMax= 1.26D-04  0.00D+00 EMaxC= 1.00D-01 BMatC= 4.07D-07 BMatP= 1.18D-05
 IDIUse=3 WtCom= 9.99D-01 WtEn= 1.26D-03
 Coeff-Com: -0.251D-02 0.493D-02 0.170D-01-0.180D-01 0.127D+00 0.424D+00
 Coeff-Com:  0.447D+00
 Coeff-En:   0.000D+00 0.000D+00 0.000D+00 0.000D+00 0.000D+00 0.000D+00
 Coeff-En:   0.100D+01
 Coeff:     -0.250D-02 0.493D-02 0.169D-01-0.180D-01 0.127D+00 0.423D+00
 Coeff:      0.448D+00
 Gap=     0.259 Goal=   None    Shift=    0.000
 RMSDP=1.18D-05 MaxDP=1.33D-04 DE=-1.14D-05 OVMax= 3.52D-04

 Cycle   8  Pass 0  IDiag  1:
 E= -228.744350217333     Delta-E=       -0.000000420152 Rises=F Damp=F
 DIIS: error= 1.63D-05 at cycle   8 NSaved=   8.
 NSaved= 8 IEnMin= 8 EnMin= -228.744350217333     IErMin= 8 ErrMin= 1.63D-05
 ErrMax= 1.63D-05  0.00D+00 EMaxC= 1.00D-01 BMatC= 9.48D-09 BMatP= 4.07D-07
 IDIUse=1 WtCom= 1.00D+00 WtEn= 0.00D+00
 Coeff-Com: -0.303D-03 0.273D-03 0.241D-02-0.225D-02 0.215D-01 0.126D+00
 Coeff-Com:  0.169D+00 0.683D+00
 Coeff:     -0.303D-03 0.273D-03 0.241D-02-0.225D-02 0.215D-01 0.126D+00
 Coeff:      0.169D+00 0.683D+00
 Gap=     0.259 Goal=   None    Shift=    0.000
 RMSDP=1.66D-06 MaxDP=1.85D-05 DE=-4.20D-07 OVMax= 2.55D-05

 Initial convergence to 1.0D-05 achieved.  Increase integral accuracy.
 Cycle   9  Pass 1  IDiag  1:
 E= -228.744366234772     Delta-E=       -0.000016017439 Rises=F Damp=F
 DIIS: error= 1.86D-05 at cycle   1 NSaved=   1.
 NSaved= 1 IEnMin= 1 EnMin= -228.744366234772     IErMin= 1 ErrMin= 1.86D-05
 ErrMax= 1.86D-05  0.00D+00 EMaxC= 1.00D-01 BMatC= 1.12D-08 BMatP= 1.12D-08
 IDIUse=1 WtCom= 1.00D+00 WtEn= 0.00D+00
 Coeff-Com:  0.100D+01
 Coeff:      0.100D+01
 Gap=     0.259 Goal=   None    Shift=    0.000
 RMSDP=1.66D-06 MaxDP=1.85D-05 DE=-1.60D-05 OVMax= 2.80D-05

 Cycle  10  Pass 1  IDiag  1:
 E= -228.744366249582     Delta-E=       -0.000000014810 Rises=F Damp=F
 DIIS: error= 3.29D-06 at cycle   2 NSaved=   2.
 NSaved= 2 IEnMin= 2 EnMin= -228.744366249582     IErMin= 2 ErrMin= 3.29D-06
 ErrMax= 3.29D-06  0.00D+00 EMaxC= 1.00D-01 BMatC= 7.04D-10 BMatP= 1.12D-08
 IDIUse=1 WtCom= 1.00D+00 WtEn= 0.00D+00
 Coeff-Com:  0.616D-01 0.938D+00
 Coeff:      0.616D-01 0.938D+00
 Gap=     0.259 Goal=   None    Shift=    0.000
 RMSDP=1.19D-06 MaxDP=1.41D-05 DE=-1.48D-08 OVMax= 2.18D-05

 Cycle  11  Pass 1  IDiag  1:
 E= -228.744366249028     Delta-E=        0.000000000554 Rises=F Damp=F
 DIIS: error= 5.87D-06 at cycle   3 NSaved=   3.
 NSaved= 3 IEnMin= 2 EnMin= -228.744366249582     IErMin= 2 ErrMin= 3.29D-06
 ErrMax= 5.87D-06  0.00D+00 EMaxC= 1.00D-01 BMatC= 1.46D-09 BMatP= 7.04D-10
 IDIUse=1 WtCom= 1.00D+00 WtEn= 0.00D+00
 Coeff-Com: -0.227D-01 0.602D+00 0.420D+00
 Coeff:     -0.227D-01 0.602D+00 0.420D+00
 Gap=     0.259 Goal=   None    Shift=    0.000
 RMSDP=6.58D-07 MaxDP=8.07D-06 DE= 5.54D-10 OVMax= 1.35D-05

 Cycle  12  Pass 1  IDiag  1:
 E= -228.744366250201     Delta-E=       -0.000000001174 Rises=F Damp=F
 DIIS: error= 1.01D-06 at cycle   4 NSaved=   4.
 NSaved= 4 IEnMin= 4 EnMin= -228.744366250201     IErMin= 4 ErrMin= 1.01D-06
 ErrMax= 1.01D-06  0.00D+00 EMaxC= 1.00D-01 BMatC= 3.58D-11 BMatP= 7.04D-10
 IDIUse=1 WtCom= 1.00D+00 WtEn= 0.00D+00
 Coeff-Com: -0.168D-01 0.324D+00 0.245D+00 0.447D+00
 Coeff:     -0.168D-01 0.324D+00 0.245D+00 0.447D+00
 Gap=     0.259 Goal=   None    Shift=    0.000
 RMSDP=1.38D-07 MaxDP=2.19D-06 DE=-1.17D-09 OVMax= 2.95D-06

 Cycle  13  Pass 1  IDiag  1:
 E= -228.744366250231     Delta-E=       -0.000000000030 Rises=F Damp=F
 DIIS: error= 2.22D-07 at cycle   5 NSaved=   5.
 NSaved= 5 IEnMin= 5 EnMin= -228.744366250231     IErMin= 5 ErrMin= 2.22D-07
 ErrMax= 2.22D-07  0.00D+00 EMaxC= 1.00D-01 BMatC= 1.84D-12 BMatP= 3.58D-11
 IDIUse=1 WtCom= 1.00D+00 WtEn= 0.00D+00
 Coeff-Com: -0.271D-02 0.399D-01 0.327D-01 0.206D+00 0.724D+00
 Coeff:     -0.271D-02 0.399D-01 0.327D-01 0.206D+00 0.724D+00
 Gap=     0.259 Goal=   None    Shift=    0.000
 RMSDP=3.70D-08 MaxDP=4.00D-07 DE=-2.98D-11 OVMax= 6.82D-07

 Cycle  14  Pass 1  IDiag  1:
 E= -228.744366250235     Delta-E=       -0.000000000003 Rises=F Damp=F
 DIIS: error= 5.89D-08 at cycle   6 NSaved=   6.
 NSaved= 6 IEnMin= 6 EnMin= -228.744366250235     IErMin= 6 ErrMin= 5.89D-08
 ErrMax= 5.89D-08  0.00D+00 EMaxC= 1.00D-01 BMatC= 1.90D-13 BMatP= 1.84D-12
 IDIUse=1 WtCom= 1.00D+00 WtEn= 0.00D+00
 Coeff-Com: -0.586D-03 0.566D-02 0.580D-02 0.908D-01 0.405D+00 0.493D+00
 Coeff:     -0.586D-03 0.566D-02 0.580D-02 0.908D-01 0.405D+00 0.493D+00
 Gap=     0.259 Goal=   None    Shift=    0.000
 RMSDP=8.96D-09 MaxDP=1.21D-07 DE=-3.30D-12 OVMax= 2.59D-07

 SCF Done:  E(RB3LYP) =  -228.744366250     A.U. after   14 cycles
            NFock= 14  Conv=0.90D-08     -V/T= 2.0082
 KE= 2.268893037144D+02 PE=-8.537504652183D+02 EE= 2.375568197044D+02
 Leave Link  502 at Tue Dec 15 16:23:12 2015, MaxMem=    33554432 cpu:         4.2
 (Enter /home/Applications/g09/g09/l801.exe)
 DoSCS=F DFT=T ScalE2(SS,OS)=  1.000000  1.000000
 ExpMin= 1.83D-01 ExpMax= 3.22D+02 ExpMxC= 3.22D+02 IAcc=3 IRadAn=         5 AccDes= 0.00D+00
 HarFok:  IExCor=  205 AccDes= 0.00D+00 IRadAn=         5 IDoV=-2 UseB2=F ITyADJ=14
 ICtDFT= 12500011 ScaDFX=  1.000000  1.000000  1.000000  1.000000
 Largest valence mixing into a core orbital is  1.75D-04
 Largest core mixing into a valence orbital is  4.83D-05
 Range of M.O.s used for correlation:     6    53
 NBasis=    53 NAE=    18 NBE=    18 NFC=     5 NFV=     0
 NROrb=     48 NOA=    13 NOB=    13 NVA=    35 NVB=    35
 Leave Link  801 at Tue Dec 15 16:23:12 2015, MaxMem=    33554432 cpu:         0.3
 (Enter /home/Applications/g09/g09/l914.exe)
 RHF ground state
 MDV=    33554432 DFT=T DoStab=F Mixed=T DoRPA=F DoScal=F NonHer=F
 Keep R1, R2, and R3 ints in memory in canonical form, NReq=5596273.
 FoFCou: FMM=F IPFlag=           0 FMFlag=           0 FMFlg1=           0
         NFxFlg=           0 DoJE=F BraDBF=F KetDBF=F FulRan=T
         wScrn=  0.000000 ICntrl=     600 IOpCl=  0 I1Cent=           0 NGrid=           0
         NMat0=    1 NMatS0=   1431 NMatT0=    0 NMatD0=    1 NMtDS0=    0 NMtDT0=    0
 Symmetry not used in FoFCou.
 Making orbital integer symmetry assigments:
 Orbital symmetries:
       Occupied  (A) (A) (A) (A) (A) (A) (A) (A) (A) (A) (A) (A)
                 (A) (A) (A) (A) (A) (A)
       Virtual   (A) (A) (A) (A) (A) (A) (A) (A) (A) (A) (A) (A)
                 (A) (A) (A) (A) (A) (A) (A) (A) (A) (A) (A) (A)
                 (A) (A) (A) (A) (A) (A) (A) (A) (A) (A) (A)
    60 initial guesses have been made.
 Convergence on wavefunction:    0.000001000000000
 Davidson Disk Diagonalization:  ConvIn= 1.00D-06 SkipCon=T Conv= 1.00D-06.
 Max sub-space:   240 roots to seek:    60 dimension of matrix:          910
 Iteration     1 Dimension    60 NMult     0 NNew     60
 CISAX will form    60 AO SS matrices at one time.
 NMat=    60 NSing=    60 JSym2X= 0.
 New state      1 was old state      2
 New state      2 was old state      1
 New state      3 was old state      5
 New state      4 was old state      7
 New state      5 was old state      6
 New state      6 was old state      8
 New state      7 was old state      9
 New state      8 was old state      4
 New state      9 was old state     10
 New state     10 was old state     11
 New state     11 was old state     14
 New state     14 was old state     15
 New state     15 was old state     16
 Excitation Energies [eV] at current iteration:
 Root      1 :     7.447831159648588
 Root      2 :     8.125022186272032
 Root      3 :     8.557828508906878
 Root      4 :     8.872497454993338
 Root      5 :     9.281316412750749
 Root      6 :     9.553729589830175
 Root      7 :     9.706574805921942
 Root      8 :     9.925095896544995
 Root      9 :    10.030217314786410
 Root     10 :    10.311922822103500
 Root     11 :    10.466905521794400
 Root     12 :    10.595599125484770
 Root     13 :    10.783920216831900
 Root     14 :    10.827876943674040
 Root     15 :    10.896829584610540
 Root     16 :    11.028538995734420
 Root     17 :    11.210551953677030
 Root     18 :    11.307935590712220
 Root     19 :    11.340007598013690
 Root     20 :    11.727103306494870
 Root     21 :    11.853399495511810
 Root     22 :    11.931787554635640
 Root     23 :    12.220211541123880
 Root     24 :    12.523381419764600
 Root     25 :    12.551208167543570
 Root     26 :    13.009832204285410
 Root     27 :    13.078489942532130
 Root     28 :    13.368940917611450
 Root     29 :    13.564296955152580
 Root     30 :    13.683016257730220
 Root     31 :    13.924381302901970
 Root     32 :    14.015537848107180
 Root     33 :    14.202365622116830
 Root     34 :    14.250757934322000
 Root     35 :    14.340224726663410
 Root     36 :    14.444251930173020
 Root     37 :    14.508052911251240
 Root     38 :    14.525031780822140
 Root     39 :    14.698517688960250
 Root     40 :    14.813515506127270
 Root     41 :    14.919034480905950
 Root     42 :    14.940975299051540
 Root     43 :    15.087685122246530
 Root     44 :    15.253428911082450
 Root     45 :    15.266311706068890
 Root     46 :    15.343129410476660
 Root     47 :    15.433219566391230
 Root     48 :    15.626346275999850
 Root     49 :    15.718793903869040
 Root     50 :    15.863231015237480
 Root     51 :    16.055029969782770
 Root     52 :    16.089297348277010
 Root     53 :    16.156981424283550
 Root     54 :    16.279835991485850
 Root     55 :    16.363274884565160
 Root     56 :    16.578492872165680
 Root     57 :    16.825180187079940
 Root     58 :    17.260107240226040
 Root     59 :    17.548122999476370
 Root     60 :    19.070349558504620
 Iteration     2 Dimension   120 NMult    60 NNew     60
 CISAX will form    60 AO SS matrices at one time.
 NMat=    60 NSing=    60 JSym2X= 0.
 Root      1 not converged, maximum delta is    0.303329186212499
 Root      2 not converged, maximum delta is    0.225247541754671
 Root      3 not converged, maximum delta is    0.040025785821442
 Root      4 not converged, maximum delta is    0.029391489576872
 Root      5 not converged, maximum delta is    0.030929562539547
 New state      6 was old state      8
 Root      6 not converged, maximum delta is    0.266033586467601
 New state      7 was old state      6
 Root      7 not converged, maximum delta is    0.117998796029207
 New state      8 was old state      7
 Root      8 not converged, maximum delta is    0.125836790497966
 New state      9 was old state     14
 Root      9 not converged, maximum delta is    0.341477530824526
 New state     10 was old state      9
 Root     10 not converged, maximum delta is    0.296062052947565
 New state     11 was old state     10
 Root     11 not converged, maximum delta is    0.202546060140876
 New state     12 was old state     11
 Root     12 not converged, maximum delta is    0.044082866302537
 New state     13 was old state     12
 Root     13 not converged, maximum delta is    0.066570693425909
 New state     14 was old state     13
 Root     14 not converged, maximum delta is    0.144387528896657
 Root     15 not converged, maximum delta is    0.402863879219654
 Excitation Energies [eV] at current iteration:
 Root      1 :     7.231918386754534   Change is   -0.215912772894054
 Root      2 :     7.461042156653376   Change is   -0.663980029618656
 Root      3 :     8.548918823345847   Change is   -0.008909685561030
 Root      4 :     8.843171548414610   Change is   -0.029325906578729
 Root      5 :     9.254162244965261   Change is   -0.027154167785488
 Root      6 :     9.406005866525224   Change is   -0.519090030019772
 Root      7 :     9.546720708193059   Change is   -0.007008881637115
 Root      8 :     9.679108934892309   Change is   -0.027465871029634
 Root      9 :     9.893194285476792   Change is   -0.934682658197244
 Root     10 :     9.977396661995785   Change is   -0.052820652790621
 Root     11 :    10.362621192866480   Change is    0.050698370762974
 Root     12 :    10.446789955071760   Change is   -0.020115566722641
 Root     13 :    10.583899996686500   Change is   -0.011699128798272
 Root     14 :    10.781305094613590   Change is   -0.002615122218312
 Root     15 :    10.861112905293010   Change is   -0.035716679317537
 Root     16 :    10.933893339068480   Change is   -0.094645656665940
 Root     17 :    11.164752163568820   Change is   -0.045799790108212
 Root     18 :    11.275600052699720   Change is   -0.032335538012497
 Root     19 :    11.313391049024320   Change is   -0.026616548989376
 Root     20 :    11.711054199322430   Change is   -0.016049107172444
 Root     21 :    11.782795130782940   Change is   -0.148992423852691
 Root     22 :    11.822595196035380   Change is   -0.030804299476428
 Root     23 :    12.173869375898070   Change is   -0.046342165225815
 Root     24 :    12.478609392798720   Change is   -0.072598774744850
 Root     25 :    12.495100248455650   Change is   -0.028281171308956
 Root     26 :    12.728531699029680   Change is   -0.835765256122901
 Root     27 :    12.972794937059780   Change is   -0.037037267225628
 Root     28 :    13.084175922648760   Change is    0.005685980116633
 Root     29 :    13.292909446474070   Change is   -0.076031471137378
 Root     30 :    13.313730153655130   Change is   -0.369286104075092
 Root     31 :    13.802162408453250   Change is   -0.122218894448728
 Root     32 :    13.982759205795280   Change is   -0.032778642311905
 Root     33 :    14.119943991989610   Change is   -0.130813942332385
 Root     34 :    14.137422689431710   Change is   -0.064942932685120
 Root     35 :    14.240653897592950   Change is   -0.099570829070462
 Root     36 :    14.266999169358090   Change is   -0.177252760814930
 Root     37 :    14.310387938965270   Change is   -0.214643841856863
 Root     38 :    14.455424858603930   Change is   -0.052628052647302
 Root     39 :    14.604524200080030   Change is   -0.208991306047236
 Root     40 :    14.668279645830490   Change is   -0.030238043129764
 Root     41 :    14.828367427528270   Change is   -0.090667053377680
 Root     42 :    14.895592205604890   Change is   -0.045383093446645
 Root     43 :    14.912410609025660   Change is   -0.175274513220866
 Root     44 :    15.098421001943590   Change is   -0.167890704125299
 Root     45 :    15.191689720156060   Change is   -0.241529846235172
 Root     46 :    15.207218206989310   Change is   -0.046210704093144
 Root     47 :    15.265563703575360   Change is   -0.077565706901304
 Root     48 :    15.500325070498900   Change is   -0.218468833370140
 Root     49 :    15.588065584614210   Change is   -0.038280691385638
 Root     50 :    15.649555980610660   Change is   -0.507425443672888
 Root     51 :    15.792663053861990   Change is   -0.070567961375483
 Root     52 :    15.862879981871100   Change is   -0.192149987911669
 Root     53 :    15.967157971441330   Change is   -0.122139376835680
 Root     54 :    16.079485720215650   Change is   -0.200350271270202
 Root     55 :    16.180805662644390   Change is   -1.367317336831982
 Root     56 :    16.265376583120320   Change is   -0.097898301444840
 Root     57 :    16.396151384489720   Change is   -0.429028802590221
 Root     58 :    16.451710471115490   Change is   -0.808396769110558
 Root     59 :    16.586258557621700   Change is    0.007765685456021
 Root     60 :    16.642907361035650   Change is   -2.427442197468965
 Iteration     3 Dimension   135 NMult   120 NNew     15
 CISAX will form    15 AO SS matrices at one time.
 NMat=    15 NSing=    15 JSym2X= 0.
 Root      1 not converged, maximum delta is    0.001727651057358
 Root      2 not converged, maximum delta is    0.001968082090003
 Root      3 not converged, maximum delta is    0.000123401320358
 Root      4 not converged, maximum delta is    0.000237139396501
 Root      5 not converged, maximum delta is    0.000304100942655
 Root      6 not converged, maximum delta is    0.002466119129858
 Root      7 not converged, maximum delta is    0.000858340680911
 Root      8 not converged, maximum delta is    0.001534277718747
 Root      9 not converged, maximum delta is    0.003009640011091
 Root     10 not converged, maximum delta is    0.000634773075408
 Root     11 not converged, maximum delta is    0.000912309855064
 Root     12 not converged, maximum delta is    0.000212554107393
 Root     13 not converged, maximum delta is    0.000388681475363
 Root     14 not converged, maximum delta is    0.000149810981307
 Root     15 not converged, maximum delta is    0.000261592432682
 Excitation Energies [eV] at current iteration:
 Root      1 :     7.230745919720732   Change is   -0.001172467033801
 Root      2 :     7.459621954149808   Change is   -0.001420202503567
 Root      3 :     8.548910453047394   Change is   -0.000008370298452
 Root      4 :     8.843140116462513   Change is   -0.000031431952097
 Root      5 :     9.254130477187966   Change is   -0.000031767777296
 Root      6 :     9.403944850156272   Change is   -0.002061016368952
 Root      7 :     9.546679968572604   Change is   -0.000040739620455
 Root      8 :     9.678849173151303   Change is   -0.000259761741005
 Root      9 :     9.889877832534689   Change is   -0.003316452942104
 Root     10 :     9.977309637674551   Change is   -0.000087024321233
 Root     11 :    10.362331768982720   Change is   -0.000289423883755
 Root     12 :    10.446762992733250   Change is   -0.000026962338502
 Root     13 :    10.583847279328380   Change is   -0.000052717358114
 Root     14 :    10.781293232463300   Change is   -0.000011862150286
 Root     15 :    10.861082928160540   Change is   -0.000029977132466
 Iteration     4 Dimension   150 NMult   135 NNew     15
 CISAX will form    15 AO SS matrices at one time.
 NMat=    15 NSing=    15 JSym2X= 0.
 Root      1 not converged, maximum delta is    0.000040866882611
 Root      2 not converged, maximum delta is    0.000054125780450
 Root      3 not converged, maximum delta is    0.000002705858269
 Root      4 not converged, maximum delta is    0.000006449824994
 Root      5 not converged, maximum delta is    0.000005703823408
 Root      6 not converged, maximum delta is    0.000059063147704
 Root      7 not converged, maximum delta is    0.000008287982886
 Root      8 not converged, maximum delta is    0.000020468024974
 Root      9 not converged, maximum delta is    0.000084775234168
 Root     10 not converged, maximum delta is    0.000013264901191
 Root     11 not converged, maximum delta is    0.000031231541737
 Root     12 not converged, maximum delta is    0.000005720294285
 Root     13 not converged, maximum delta is    0.000011167253018
 Root     14 not converged, maximum delta is    0.000004170549152
 Root     15 not converged, maximum delta is    0.000006395860389
 Excitation Energies [eV] at current iteration:
 Root      1 :     7.230744432168769   Change is   -0.000001487551963
 Root      2 :     7.459620562761828   Change is   -0.000001391387981
 Root      3 :     8.548910444596718   Change is   -0.000000008450677
 Root      4 :     8.843140092945509   Change is   -0.000000023517004
 Root      5 :     9.254130452507065   Change is   -0.000000024680901
 Root      6 :     9.403941764545227   Change is   -0.000003085611044
 Root      7 :     9.546679912429777   Change is   -0.000000056142826
 Root      8 :     9.678848809185427   Change is   -0.000000363965877
 Root      9 :     9.889872741471327   Change is   -0.000005091063360
 Root     10 :     9.977309542482148   Change is   -0.000000095192404
 Root     11 :    10.362331316895480   Change is   -0.000000452087238
 Root     12 :    10.446762965640690   Change is   -0.000000027092560
 Root     13 :    10.583847222134170   Change is   -0.000000057194209
 Root     14 :    10.781293218332730   Change is   -0.000000014130578
 Root     15 :    10.861082892074590   Change is   -0.000000036085951
 Iteration     5 Dimension   165 NMult   150 NNew     15
 CISAX will form    15 AO SS matrices at one time.
 NMat=    15 NSing=    15 JSym2X= 0.
 Root      1 not converged, maximum delta is    0.000001439978357
 Root      2 not converged, maximum delta is    0.000001534104290
 Root      3 has converged.
 Root      4 has converged.
 Root      5 has converged.
 Root      6 not converged, maximum delta is    0.000002674614616
 Root      7 has converged.
 Root      8 has converged.
 Root      9 not converged, maximum delta is    0.000002532956909
 Root     10 has converged.
 Root     11 has converged.
 Root     12 has converged.
 Root     13 has converged.
 Root     14 has converged.
 Root     15 has converged.
 Excitation Energies [eV] at current iteration:
 Root      1 :     7.230744430962395   Change is   -0.000000001206374
 Root      2 :     7.459620561691987   Change is   -0.000000001069840
 Root      3 :     8.548910444588468   Change is   -0.000000000008249
 Root      4 :     8.843140092925534   Change is   -0.000000000019975
 Root      5 :     9.254130452486480   Change is   -0.000000000020584
 Root      6 :     9.403941761817586   Change is   -0.000000002727641
 Root      7 :     9.546679912379689   Change is   -0.000000000050089
 Root      8 :     9.678848808854577   Change is   -0.000000000330851
 Root      9 :     9.889872736754825   Change is   -0.000000004716503
 Root     10 :     9.977309542409293   Change is   -0.000000000072856
 Root     11 :    10.362331316449690   Change is   -0.000000000445794
 Root     12 :    10.446762965618470   Change is   -0.000000000022228
 Root     13 :    10.583847222085830   Change is   -0.000000000048343
 Root     14 :    10.781293218318990   Change is   -0.000000000013731
 Root     15 :    10.861082892038270   Change is   -0.000000000036316
 Iteration     6 Dimension   169 NMult   165 NNew      4
 CISAX will form     4 AO SS matrices at one time.
 NMat=     4 NSing=     4 JSym2X= 0.
 Root      1 has converged.
 Root      2 has converged.
 Root      3 has converged.
 Root      4 has converged.
 Root      5 has converged.
 Root      6 has converged.
 Root      7 has converged.
 Root      8 has converged.
 Root      9 has converged.
 Root     10 has converged.
 Root     11 has converged.
 Root     12 has converged.
 Root     13 has converged.
 Root     14 has converged.
 Root     15 has converged.
 Excitation Energies [eV] at current iteration:
 Root      1 :     7.230744430962102   Change is   -0.000000000000293
 Root      2 :     7.459620561691634   Change is   -0.000000000000353
 Root      3 :     8.548910444588454   Change is   -0.000000000000015
 Root      4 :     8.843140092925532   Change is   -0.000000000000002
 Root      5 :     9.254130452486473   Change is   -0.000000000000008
 Root      6 :     9.403941761815712   Change is   -0.000000000001873
 Root      7 :     9.546679912379661   Change is   -0.000000000000027
 Root      8 :     9.678848808854395   Change is   -0.000000000000180
 Root      9 :     9.889872736751935   Change is   -0.000000000002890
 Root     10 :     9.977309542409273   Change is   -0.000000000000018
 Root     11 :    10.362331316449380   Change is   -0.000000000000307
 Root     12 :    10.446762965618480   Change is    0.000000000000014
 Root     13 :    10.583847222085810   Change is   -0.000000000000021
 Root     14 :    10.781293218319000   Change is    0.000000000000003
 Root     15 :    10.861082892038250   Change is   -0.000000000000023
 Convergence achieved on expansion vectors.
 ***********************************************************************
 Excited states from <AA,BB:AA,BB> singles matrix:
 ***********************************************************************
 
 1PDM for each excited state written to RWF  633
 Ground to excited state transition densities written to RWF  633
 Ground to excited state transition electric dipole moments (Au):
       state          X           Y           Z        Dip. S.      Osc.
         1        -0.7248      0.0895      0.0214      0.5338      0.0946
         2        -0.7642      0.2252      0.0088      0.6348      0.1160
         3        -0.0383     -0.0014     -0.0113      0.0016      0.0003
         4         0.0504     -0.0722     -0.1482      0.0297      0.0064
         5         0.0152     -0.0037      0.0216      0.0007      0.0002
         6         0.5331     -0.7207      0.0539      0.8065      0.1858
         7         0.1011     -0.0166     -0.0311      0.0115      0.0027
         8         0.1816      0.2864     -0.0523      0.1177      0.0279
         9        -0.5798     -1.1776     -0.0579      1.7263      0.4183
        10         0.0661     -0.0766     -0.0653      0.0145      0.0035
        11         0.1173      0.3391     -0.0532      0.1316      0.0334
        12        -0.0364     -0.0300     -0.0157      0.0025      0.0006
        13        -0.0963     -0.0586      0.0022      0.0127      0.0033
        14         0.0373     -0.0472     -0.0273      0.0044      0.0012
        15        -0.0149      0.0913     -0.0496      0.0110      0.0029
 Ground to excited state transition velocity dipole moments (Au):
       state          X           Y           Z        Dip. S.      Osc.
         1        -0.0092     -0.0511      0.0019      0.0027      0.0068
         2         0.0166      0.0228      0.0016      0.0008      0.0019
         3         0.0004     -0.0063      0.0129      0.0002      0.0004
         4        -0.0055      0.0023      0.0781      0.0061      0.0126
         5         0.0026     -0.0036     -0.0195      0.0004      0.0008
         6        -0.0705      0.0281     -0.0140      0.0060      0.0115
         7        -0.0107      0.0008      0.0334      0.0012      0.0023
         8        -0.0090     -0.0016      0.0152      0.0003      0.0006
         9         0.0337      0.0231     -0.0091      0.0018      0.0032
        10        -0.0146      0.0031      0.0248      0.0008      0.0015
        11        -0.0063     -0.0112     -0.0481      0.0025      0.0043
        12         0.0023      0.0014      0.0122      0.0002      0.0003
        13         0.0179      0.0012     -0.0226      0.0008      0.0014
        14        -0.0091      0.0054     -0.0090      0.0002      0.0003
        15         0.0042     -0.0104     -0.0016      0.0001      0.0002
 Ground to excited state transition magnetic dipole moments (Au):
       state          X           Y           Z
         1        -0.0553      0.0603     -0.3814
         2        -0.0169      0.0408     -0.4017
         3        -0.1363     -0.4978      0.0018
         4        -1.4507      0.6269      0.0054
         5        -0.0764      0.0602      0.0618
         6         0.0366     -0.0104     -0.3030
         7         0.0646     -0.0335     -0.0752
         8        -0.2038      0.1568     -0.0379
         9         0.0319      0.1014      0.1082
        10        -0.3410     -0.0237      0.0613
        11         0.0552      0.0237     -0.0224
        12         0.1765      0.3630      0.1373
        13        -0.2618     -0.2488     -0.0179
        14         0.1444      0.1350     -0.0191
        15        -0.1373     -0.4111      0.0508
 Ground to excited state transition velocity quadrupole moments (Au):
       state          XX          YY          ZZ          XY          XZ          YZ
         1        -0.1179      0.0776      0.0254     -0.0889      0.0072     -0.0062
         2        -0.0994      0.1465     -0.0186     -0.1384      0.0088     -0.0032
         3        -0.0206      0.0047      0.0015     -0.0225      0.0345     -0.0273
         4         0.0050     -0.0103      0.0023      0.0196     -0.0885     -0.1832
         5         0.0259     -0.0172     -0.0079      0.0385      0.1788     -0.0309
         6        -0.2849      0.2288      0.0219     -0.1647     -0.0006      0.0066
         7        -0.0212      0.0394      0.0044     -0.0735      0.0605     -0.0555
         8         0.0450     -0.0068     -0.0173     -0.0935     -0.0277     -0.1302
         9        -0.1316      0.0848      0.0559      0.2803     -0.0116     -0.0123
        10        -0.0151      0.0270     -0.0011     -0.0204      0.0079      0.0155
        11         0.0731     -0.0409     -0.0234     -0.0572     -0.0455      0.0397
        12         0.0263     -0.0362      0.0038      0.0369      0.0266      0.0233
        13         0.0047     -0.0070     -0.0043      0.0373     -0.0259     -0.1129
        14        -0.0174      0.0045      0.0003     -0.0040      0.0595      0.0052
        15         0.0133     -0.0078     -0.0038     -0.0380      0.0741     -0.0194
 <0|del|b> * <b|rxdel|0> + <0|del|b> * <b|delr+rdel|0>
 Rotatory Strengths (R) in cgs (10**-40 erg-esu-cm/Gauss)
       state          XX          YY          ZZ    R(velocity)    E-M Angle
         1        -4.7973      0.0147     -3.9834     -2.9220       99.36
         2        -0.1975     -0.9868      1.1691     -0.0051       90.00
         3         3.4813      0.2774      3.2407      2.3331       65.21
         4         3.8988      8.4836      8.8503      7.0776       85.48
         5        -1.5920     -0.7649     -1.0162     -1.1244      134.70
         6         6.4172     -1.1320     -2.4813      0.9346       86.67
         7        -5.0918     -0.1583     -1.2749     -2.1750      151.66
         8        -2.2749      3.8305      0.4577      0.6711       77.31
         9        -0.8988      2.1636      3.4687      1.5778       67.48
        10         0.8832      6.5483      4.9834      4.1383       50.23
        11         2.8386     -2.1085      0.1354      0.2885       81.60
        12         2.3770      1.5564      0.8135      1.5823       61.07
        13        -0.6449     -4.9615     -2.7259     -2.7775      116.05
        14         0.5512     -1.0965     -0.1946     -0.2466       98.61
        15         4.4579     -0.7160      2.6672      2.1364       43.14
 1/2[<0|r|b>*<b|rxdel|0> + (<0|rxdel|b>*<b|r|0>)*]
 Rotatory Strengths (R) in cgs (10**-40 erg-esu-cm/Gauss)
       state          XX          YY          ZZ     R(length)
         1       -28.3630     -3.8140      5.7813     -8.7986
         2        -9.1141     -6.4970      2.4867     -4.3748
         3        -3.6884     -0.5037      0.0147     -1.3925
         4        51.6657     32.0102      0.5680     28.0813
         5         0.8209      0.1567     -0.9453      0.0107
         6       -13.7853     -5.3243     11.5432     -2.5221
         7        -4.6199     -0.3937     -1.6533     -2.2223
         8        26.1680    -31.7529     -1.4030     -2.3293
         9        13.0892     84.4596      4.4352     33.9947
        10        15.9519     -1.2839      2.8299      5.8326
        11        -4.5820     -5.6898     -0.8408     -3.7042
        12         4.5455      7.7045      1.5247      4.5916
        13       -17.8247    -10.3069      0.0283     -9.3678
        14        -3.8073      4.5094     -0.3688      0.1111
        15        -1.4463     26.5322      1.7811      8.9557
  1/2[<0|del|b>*<b|r|0> + (<0|r|b>*<b|del|0>)*] (Au)
       state          X           Y           Z        Dip. S.   Osc.(frdel)
         1         0.0067     -0.0046      0.0000     -0.0021     -0.0014
         2        -0.0127      0.0051      0.0000      0.0076      0.0050
         3         0.0000      0.0000     -0.0001      0.0002      0.0001
         4        -0.0003     -0.0002     -0.0116      0.0120      0.0080
         5         0.0000      0.0000     -0.0004      0.0004      0.0002
         6        -0.0376     -0.0203     -0.0008      0.0586      0.0391
         7        -0.0011      0.0000     -0.0010      0.0021      0.0014
         8        -0.0016     -0.0004     -0.0008      0.0029      0.0019
         9        -0.0196     -0.0272      0.0005      0.0462      0.0308
        10        -0.0010     -0.0002     -0.0016      0.0028      0.0019
        11        -0.0007     -0.0038      0.0026      0.0020      0.0013
        12        -0.0001      0.0000     -0.0002      0.0003      0.0002
        13        -0.0017     -0.0001     -0.0001      0.0018      0.0012
        14        -0.0003     -0.0003      0.0002      0.0003      0.0002
        15        -0.0001     -0.0010      0.0001      0.0009      0.0006

 Excitation energies and oscillator strengths:
 
 Excited State   1:      Singlet-A      7.2307 eV  171.47 nm  f=0.0946  <S**2>=0.000
      17 -> 19         0.33652
      18 -> 19         0.49480
      18 -> 20        -0.34565
 This state for optimization and/or second-order correction.
 Total Energy, E(CIS) =  -228.478641270    
 Copying the excited state density for this state as the 1-particle RhoCI density.
 
 Excited State   2:      Singlet-A      7.4596 eV  166.21 nm  f=0.1160  <S**2>=0.000
      17 -> 19        -0.40340
      18 -> 19         0.46811
      18 -> 20         0.30918
 
 Excited State   3:      Singlet-A      8.5489 eV  145.03 nm  f=0.0003  <S**2>=0.000
      18 -> 21         0.69467
 
 Excited State   4:      Singlet-A      8.8431 eV  140.20 nm  f=0.0064  <S**2>=0.000
      16 -> 19         0.69863
 
 Excited State   5:      Singlet-A      9.2541 eV  133.98 nm  f=0.0002  <S**2>=0.000
      18 -> 22         0.66947
      18 -> 23        -0.16194
 
 Excited State   6:      Singlet-A      9.4039 eV  131.84 nm  f=0.1858  <S**2>=0.000
      17 -> 19         0.19139
      17 -> 20         0.58779
      18 -> 20         0.26011
 
 Excited State   7:      Singlet-A      9.5467 eV  129.87 nm  f=0.0027  <S**2>=0.000
      15 -> 19         0.10773
      17 -> 21        -0.37069
      18 -> 22         0.16377
      18 -> 23         0.54665
 
 Excited State   8:      Singlet-A      9.6788 eV  128.10 nm  f=0.0279  <S**2>=0.000
      15 -> 19         0.16061
      17 -> 20         0.12022
      17 -> 21         0.55884
      17 -> 22        -0.11847
      18 -> 20        -0.11167
      18 -> 23         0.31174
 
 Excited State   9:      Singlet-A      9.8899 eV  125.36 nm  f=0.4183  <S**2>=0.000
      17 -> 19         0.35291
      17 -> 20        -0.29893
      17 -> 21         0.16048
      17 -> 22         0.12262
      18 -> 20         0.39072
      18 -> 23         0.13945
 
 Excited State  10:      Singlet-A      9.9773 eV  124.27 nm  f=0.0035  <S**2>=0.000
      15 -> 19         0.66980
      18 -> 23        -0.18205
 
 Excited State  11:      Singlet-A     10.3623 eV  119.65 nm  f=0.0334  <S**2>=0.000
      17 -> 22         0.66206
      18 -> 24         0.10153
 
 Excited State  12:      Singlet-A     10.4468 eV  118.68 nm  f=0.0006  <S**2>=0.000
      14 -> 19        -0.46100
      16 -> 20         0.51098
 
 Excited State  13:      Singlet-A     10.5838 eV  117.14 nm  f=0.0033  <S**2>=0.000
      17 -> 22        -0.10624
      17 -> 23        -0.10575
      18 -> 24         0.67129
 
 Excited State  14:      Singlet-A     10.7813 eV  115.00 nm  f=0.0012  <S**2>=0.000
      14 -> 19        -0.27856
      16 -> 20        -0.30136
      17 -> 23         0.52975
      17 -> 25        -0.10842
      18 -> 25        -0.13594
 
 Excited State  15:      Singlet-A     10.8611 eV  114.15 nm  f=0.0029  <S**2>=0.000
      12 -> 19        -0.15653
      13 -> 19         0.17387
      14 -> 19         0.38523
      16 -> 20         0.33549
      17 -> 23         0.35443
      18 -> 25        -0.19722
 SavETr:  write IOETrn=   770 NScale= 10 NData=  16 NLR=1 NState=   15 LETran=     280.
 The selected state is a singlet
 CISAX will form     1 AO SS matrices at one time.
 NMat=     1 NSing=     1 JSym2X= 0.
 CISAX will form     1 AO SS matrices at one time.
 NMat=     1 NSing=     1 JSym2X= 0.
 Leave Link  914 at Tue Dec 15 16:23:46 2015, MaxMem=    33554432 cpu:        33.6
 (Enter /home/Applications/g09/g09/l1002.exe)
 Minotr:  Closed shell wavefunction.
          Computing CIS/TD-HF/TD-KS derivatives.
          Using Z-Vector for PSCF gradient.
          Skipping F1 and S1 gradient terms here.
          IDoAtm=111111111
          Frozen-core window.
          Direct CPHF calculation.
          Differentiating once with respect to electric field.
                with respect to dipole field.
          Differentiating once with respect to nuclear coordinates.
          Requested convergence is 1.0D-10 RMS, and 1.0D-09 maximum.
          NewPWx=F KeepS1=T KeepF1=T KeepIn=T MapXYZ=F SortEE=F KeepMc=T.
          MDV=      33554290 using IRadAn=       0.
 Using stored XC quadrature information.
 Keep R1 ints in memory in canonical form, NReq=1898913.
 FoFCou: FMM=F IPFlag=           0 FMFlag=           0 FMFlg1=           0
         NFxFlg=           0 DoJE=F BraDBF=F KetDBF=F FulRan=T
         wScrn=  0.000000 ICntrl=     600 IOpCl=  0 I1Cent=           0 NGrid=           0
         NMat0=    1 NMatS0=   1431 NMatT0=    0 NMatD0=    1 NMtDS0=    0 NMtDT0=    0
 Symmetry not used in FoFCou.
          Solving linear equations separately, MaxMat=       0.
          There are     1 degrees of freedom in the 1st order CPHF.  IDoFFX=0 NUNeed=     1.
 LinEq1:  Iter=  0 NonCon=     1 RMS=4.72D-02 Max=6.52D-01 NDo=     1
 AX will form     1 AO Fock derivatives at one time.
 LinEq1:  Iter=  1 NonCon=     1 RMS=1.62D-02 Max=2.33D-01 NDo=     1
 LinEq1:  Iter=  2 NonCon=     1 RMS=1.23D-02 Max=1.66D-01 NDo=     1
 LinEq1:  Iter=  3 NonCon=     1 RMS=6.01D-03 Max=7.23D-02 NDo=     1
 LinEq1:  Iter=  4 NonCon=     1 RMS=4.62D-03 Max=5.08D-02 NDo=     1
 LinEq1:  Iter=  5 NonCon=     1 RMS=1.08D-03 Max=8.56D-03 NDo=     1
 LinEq1:  Iter=  6 NonCon=     1 RMS=4.59D-04 Max=3.33D-03 NDo=     1
 LinEq1:  Iter=  7 NonCon=     1 RMS=1.22D-04 Max=7.58D-04 NDo=     1
 LinEq1:  Iter=  8 NonCon=     1 RMS=9.18D-05 Max=9.30D-04 NDo=     1
 LinEq1:  Iter=  9 NonCon=     1 RMS=1.22D-05 Max=7.00D-05 NDo=     1
 LinEq1:  Iter= 10 NonCon=     1 RMS=1.17D-06 Max=7.35D-06 NDo=     1
 LinEq1:  Iter= 11 NonCon=     1 RMS=1.56D-07 Max=8.94D-07 NDo=     1
 LinEq1:  Iter= 12 NonCon=     1 RMS=1.97D-08 Max=1.65D-07 NDo=     1
 LinEq1:  Iter= 13 NonCon=     1 RMS=2.46D-09 Max=1.38D-08 NDo=     1
 LinEq1:  Iter= 14 NonCon=     1 RMS=3.00D-10 Max=2.11D-09 NDo=     1
 LinEq1:  Iter= 15 NonCon=     0 RMS=3.14D-11 Max=1.76D-10 NDo=     1
 Linear equations converged to 1.000D-10 1.000D-09 after    15 iterations.
 End of Minotr F.D. properties file   721 does not exist.
 End of Minotr F.D. properties file   722 does not exist.
 End of Minotr F.D. properties file   788 does not exist.
 Leave Link 1002 at Tue Dec 15 16:23:56 2015, MaxMem=    33554432 cpu:         9.7
 (Enter /home/Applications/g09/g09/l601.exe)
 Copying SCF densities to generalized density rwf, IOpCl= 0 IROHF=0.

 **********************************************************************

            Population analysis using the SCF density.

 **********************************************************************

 Orbital symmetries:
       Occupied  (A) (A) (A) (A) (A) (A) (A) (A) (A) (A) (A) (A)
                 (A) (A) (A) (A) (A) (A)
       Virtual   (A) (A) (A) (A) (A) (A) (A) (A) (A) (A) (A) (A)
                 (A) (A) (A) (A) (A) (A) (A) (A) (A) (A) (A) (A)
                 (A) (A) (A) (A) (A) (A) (A) (A) (A) (A) (A)
 The electronic state is 1-A.
 Alpha  occ. eigenvalues --  -19.10682 -10.17640 -10.17447 -10.12979 -10.11992
 Alpha  occ. eigenvalues --   -1.11527  -0.80703  -0.74764  -0.60168  -0.56853
 Alpha  occ. eigenvalues --   -0.54144  -0.44318  -0.43943  -0.42395  -0.39681
 Alpha  occ. eigenvalues --   -0.36119  -0.27744  -0.23594
 Alpha virt. eigenvalues --    0.02268   0.08121   0.12552   0.14600   0.16407
 Alpha virt. eigenvalues --    0.19493   0.21006   0.22854   0.36463   0.41963
 Alpha virt. eigenvalues --    0.46871   0.67722   0.69849   0.70283   0.75591
 Alpha virt. eigenvalues --    0.76718   0.79130   0.80402   0.82193   0.83794
 Alpha virt. eigenvalues --    0.92436   0.98694   1.00027   1.04779   1.18186
 Alpha virt. eigenvalues --    1.21797   1.32250   1.36557   1.50663   1.55601
 Alpha virt. eigenvalues --    1.64263   1.74540   1.95499   2.12845   3.16643
     Molecular Orbital Coefficients:
                           1         2         3         4         5
                           O         O         O         O         O
     Eigenvalues --   -19.10682 -10.17640 -10.17447 -10.12979 -10.11992
   1 1   C  1S          0.00017  -0.00951  -0.00183  -0.05695   0.98433
   2        2S          0.00072  -0.00515  -0.00096  -0.00991   0.10988
   3        2PX         0.00133   0.00207   0.00022  -0.00060   0.00048
   4        2PY         0.00034   0.00204   0.00085   0.00070  -0.00156
   5        2PZ        -0.00007   0.00000  -0.00002   0.00001   0.00017
   6        3S         -0.00673   0.03674  -0.01130   0.04054  -0.09980
   7        3PX        -0.00297  -0.00986   0.00033   0.01607  -0.00678
   8        3PY         0.01078  -0.01730   0.00775  -0.01623   0.02957
   9        3PZ         0.00043   0.00024   0.00013   0.00026  -0.00091
  10 2   C  1S         -0.00045   0.97870   0.11490   0.00010   0.00934
  11        2S         -0.00076   0.10606   0.00916  -0.00021  -0.00364
  12        2PX         0.00119   0.00234  -0.00107  -0.00031  -0.00153
  13        2PY        -0.00214  -0.00098  -0.00024  -0.00089  -0.00171
  14        2PZ         0.00008   0.00011   0.00013  -0.00007   0.00010
  15        3S          0.01970  -0.07460   0.00704  -0.00992   0.03973
  16        3PX         0.01643  -0.01519   0.01734  -0.00538   0.02151
  17        3PY        -0.00552  -0.01307   0.00305  -0.00048   0.01289
  18        3PZ        -0.00026  -0.00006  -0.00083   0.00036  -0.00043
  19 3   O  1S          0.98277   0.00023   0.00022   0.00007   0.00009
  20        2S          0.10761   0.00148   0.00185   0.00029   0.00039
  21        2PX         0.00115  -0.00036   0.00096  -0.00004  -0.00005
  22        2PY         0.00410   0.00069   0.00061  -0.00004  -0.00010
  23        2PZ        -0.00015  -0.00002  -0.00009  -0.00003   0.00000
  24        3S         -0.06010   0.00023   0.00014  -0.00301  -0.00444
  25        3PX        -0.00338   0.00007  -0.00110  -0.00251   0.00128
  26        3PY        -0.01335  -0.00335  -0.00308  -0.00108  -0.00245
  27        3PZ         0.00045   0.00012   0.00039   0.00011   0.00008
  28 4   C  1S         -0.00052  -0.11601   0.97859   0.01033   0.00119
  29        2S         -0.00092  -0.01582   0.10547  -0.00415  -0.00103
  30        2PX        -0.00225   0.00116  -0.00226   0.00022  -0.00023
  31        2PY        -0.00091  -0.00103   0.00087  -0.00285  -0.00123
  32        2PZ         0.00004   0.00001   0.00015  -0.00005   0.00002
  33        3S          0.01575   0.02678  -0.07494   0.04496  -0.00506
  34        3PX        -0.01269  -0.01133   0.00329  -0.00895   0.00207
  35        3PY         0.00322   0.01895  -0.01852   0.02629   0.00003
  36        3PZ         0.00033   0.00018  -0.00080   0.00047  -0.00022
  37 5   C  1S          0.00012   0.00065  -0.01080   0.98440   0.05640
  38        2S          0.00048   0.00066  -0.00618   0.11019   0.00273
  39        2PX        -0.00076   0.00035  -0.00020  -0.00183   0.00084
  40        2PY         0.00109   0.00016   0.00338  -0.00148   0.00011
  41        2PZ         0.00001  -0.00003   0.00007  -0.00017   0.00002
  42        3S         -0.00344  -0.02236   0.03780  -0.10745   0.02821
  43        3PX         0.00544   0.00566  -0.00301   0.02668  -0.02036
  44        3PY         0.00355   0.01235  -0.01964   0.02179  -0.00158
  45        3PZ        -0.00014   0.00057  -0.00050   0.00154  -0.00051
  46 6   H  1S         -0.00080  -0.00030  -0.00109  -0.00309  -0.00017
  47        2S         -0.00204  -0.00162   0.00202   0.00366   0.00466
  48 7   H  1S         -0.00006   0.00174  -0.00320  -0.00013   0.00000
  49        2S          0.00266   0.00600   0.00839   0.00573   0.00077
  50 8   H  1S          0.00039  -0.00351   0.00094  -0.00015  -0.00022
  51        2S          0.00445   0.00830   0.00850  -0.00045   0.00546
  52 9   H  1S         -0.00115  -0.00107  -0.00049  -0.00018  -0.00449
  53        2S         -0.00427   0.00190  -0.00090   0.00390   0.00587
                           6         7         8         9        10
                           O         O         O         O         O
     Eigenvalues --    -1.11527  -0.80703  -0.74764  -0.60168  -0.56853
   1 1   C  1S         -0.02910   0.13458  -0.09648  -0.11029   0.04018
   2        2S          0.02815  -0.14304   0.10358   0.11189  -0.03868
   3        2PX        -0.00190  -0.04278  -0.07637  -0.07801  -0.17232
   4        2PY        -0.03558   0.06117  -0.05015   0.05060  -0.07981
   5        2PZ         0.00096  -0.00437   0.00345   0.00504  -0.00278
   6        3S          0.05674  -0.27544   0.19819   0.37770  -0.13757
   7        3PX         0.01564  -0.00641   0.01847  -0.02549  -0.06881
   8        3PY        -0.05632   0.04305  -0.00451  -0.01893  -0.02048
   9        3PZ        -0.00137  -0.00309   0.00251   0.00461  -0.00272
  10 2   C  1S         -0.07965   0.03468  -0.14908   0.03771  -0.10711
  11        2S          0.08942  -0.04301   0.16219  -0.03773   0.11873
  12        2PX         0.07293  -0.04200   0.02959   0.03945  -0.13108
  13        2PY        -0.06082  -0.11478   0.01886   0.19771   0.08672
  14        2PZ         0.00128   0.00077   0.00395  -0.00565   0.00682
  15        3S          0.05786  -0.03328   0.35945  -0.15658   0.33513
  16        3PX        -0.05007  -0.01297   0.03150  -0.00834  -0.06975
  17        3PY         0.00355  -0.02233   0.03392   0.05520   0.05326
  18        3PZ         0.00213   0.00061   0.00134  -0.00238   0.00607
  19 3   O  1S         -0.20965  -0.09033   0.01647  -0.01075   0.05196
  20        2S          0.19056   0.08711  -0.01517   0.00968  -0.05201
  21        2PX         0.02422  -0.03194  -0.17898   0.24617   0.03695
  22        2PY         0.10913  -0.01059   0.06518  -0.08605  -0.01409
  23        2PZ        -0.00305  -0.00100   0.00062  -0.00255   0.00340
  24        3S          0.66833   0.32522  -0.06075   0.04458  -0.22271
  25        3PX         0.03410  -0.02144  -0.14885   0.21566   0.03192
  26        3PY         0.13851   0.00469   0.04989  -0.07346  -0.01754
  27        3PZ        -0.00439  -0.00086   0.00086  -0.00241   0.00224
  28 4   C  1S         -0.07024   0.07853   0.13864  -0.01094  -0.10651
  29        2S          0.07940  -0.09072  -0.14847   0.00499   0.11667
  30        2PX        -0.08010  -0.02210   0.02230  -0.10786   0.10596
  31        2PY         0.00025  -0.13242  -0.00696  -0.19950  -0.06180
  32        2PZ         0.00187  -0.00217  -0.00474  -0.00040   0.00428
  33        3S          0.06416  -0.13121  -0.35054   0.09928   0.34164
  34        3PX         0.02323   0.00084   0.01298  -0.05499   0.06468
  35        3PY        -0.01835  -0.04076  -0.03666  -0.04635  -0.01876
  36        3PZ        -0.00004  -0.00141  -0.00286   0.00077   0.00353
  37 5   C  1S         -0.02823   0.15383   0.05719   0.09623   0.05861
  38        2S          0.02860  -0.16576  -0.06321  -0.09834  -0.05708
  39        2PX        -0.02035   0.06993  -0.04217  -0.09507   0.07715
  40        2PY        -0.02913   0.06092   0.09384   0.07610  -0.14499
  41        2PZ        -0.00072   0.00446   0.00141   0.00196   0.00142
  42        3S          0.04074  -0.30608  -0.10735  -0.33869  -0.20257
  43        3PX        -0.02659   0.03101   0.00757  -0.01035   0.03772
  44        3PY        -0.02046   0.02218  -0.01028   0.05897  -0.04380
  45        3PZ        -0.00013   0.00289   0.00023   0.00209   0.00117
  46 6   H  1S          0.00636  -0.05430  -0.02816  -0.08799  -0.05253
  47        2S          0.00964  -0.01178  -0.00666  -0.05319  -0.03459
  48 7   H  1S          0.01303  -0.02146  -0.07773   0.04281   0.14652
  49        2S         -0.01522  -0.00424  -0.03028   0.03455   0.07836
  50 8   H  1S          0.01342  -0.00719   0.08350  -0.05678   0.15478
  51        2S         -0.02617  -0.00134   0.03003  -0.03809   0.08066
  52 9   H  1S          0.00927  -0.05969   0.05411   0.12403  -0.05071
  53        2S          0.02148  -0.01473   0.01269   0.06573  -0.03067
                          11        12        13        14        15
                           O         O         O         O         O
     Eigenvalues --    -0.54144  -0.44318  -0.43943  -0.42395  -0.39681
   1 1   C  1S         -0.03458   0.02078  -0.02896   0.00796  -0.01717
   2        2S          0.03129  -0.02258   0.03235  -0.00500   0.01841
   3        2PX         0.00930   0.02758  -0.03176  -0.04238   0.31193
   4        2PY         0.22763  -0.00825   0.05224  -0.24760  -0.11598
   5        2PZ         0.00926   0.09843   0.06874   0.00598  -0.00109
   6        3S          0.16005  -0.06699   0.08048  -0.04147   0.07715
   7        3PX        -0.01554   0.00540  -0.01515   0.01363   0.18535
   8        3PY         0.13246  -0.01134   0.05322  -0.14727  -0.09289
   9        3PZ         0.00665   0.07198   0.05210   0.00551  -0.00164
  10 2   C  1S          0.00756  -0.00442   0.01828  -0.03598   0.00075
  11        2S         -0.01215   0.00197  -0.01772   0.04391  -0.00286
  12        2PX        -0.17889  -0.14836   0.20625   0.16023  -0.09119
  13        2PY        -0.06229   0.04265  -0.08415   0.14459  -0.08935
  14        2PZ         0.01061   0.16929   0.10340   0.01263   0.00853
  15        3S          0.00872   0.02101  -0.05944   0.12405  -0.00810
  16        3PX        -0.12890  -0.10033   0.14318   0.11274  -0.07531
  17        3PY        -0.06582   0.01718  -0.03535   0.09324  -0.09024
  18        3PZ         0.00779   0.15729   0.09740   0.01537   0.00688
  19 3   O  1S         -0.04853  -0.00651   0.00938   0.00133   0.01097
  20        2S          0.04769   0.00597  -0.00835  -0.00149  -0.00586
  21        2PX        -0.07326   0.13421  -0.19945   0.05920  -0.06941
  22        2PY        -0.15721  -0.05698   0.11003  -0.00130  -0.10355
  23        2PZ         0.00856   0.30476   0.20635   0.04179   0.00488
  24        3S          0.18617   0.02619  -0.03689  -0.00438  -0.07641
  25        3PX        -0.06854   0.12828  -0.18923   0.06418  -0.07024
  26        3PY        -0.14329  -0.05270   0.10424  -0.00320  -0.10903
  27        3PZ         0.00803   0.30647   0.20844   0.04267   0.00545
  28 4   C  1S          0.00209   0.01751  -0.02886   0.04251   0.00023
  29        2S         -0.00368  -0.01808   0.03139  -0.05240  -0.00365
  30        2PX         0.11797  -0.13892   0.19478   0.03441   0.06196
  31        2PY        -0.11334   0.06339  -0.04952  -0.22190  -0.16033
  32        2PZ         0.00343   0.15331   0.10506   0.02248  -0.00587
  33        3S          0.00618  -0.06282   0.09223  -0.14013  -0.02213
  34        3PX         0.06794  -0.09445   0.14305   0.03128   0.04524
  35        3PY        -0.12360   0.03942  -0.03500  -0.13937  -0.14878
  36        3PZ         0.00305   0.14496   0.10039   0.02209  -0.00379
  37 5   C  1S         -0.04613  -0.02306   0.03769  -0.01687  -0.01471
  38        2S          0.04223   0.02440  -0.04058   0.01079   0.01466
  39        2PX         0.12873  -0.02540  -0.00263   0.14458  -0.30911
  40        2PY         0.14555  -0.00357  -0.04972   0.25128   0.12605
  41        2PZ         0.00696   0.09895   0.06811   0.02415  -0.01087
  42        3S          0.21358   0.08076  -0.12847   0.09177   0.09088
  43        3PX         0.08975  -0.02063  -0.02289   0.12274  -0.22055
  44        3PY         0.06344   0.00204  -0.04108   0.12717   0.03829
  45        3PZ         0.00244   0.07115   0.04833   0.01721  -0.00937
  46 6   H  1S          0.12961   0.01199  -0.06009   0.19346  -0.11918
  47        2S          0.07660   0.00758  -0.03921   0.17542  -0.10541
  48 7   H  1S          0.07847  -0.10807   0.14412   0.07299   0.12563
  49        2S          0.03349  -0.08764   0.11184   0.06849   0.11287
  50 8   H  1S          0.08477   0.10849  -0.14997  -0.07176   0.07835
  51        2S          0.03969   0.08419  -0.12061  -0.06554   0.06997
  52 9   H  1S          0.14432  -0.03204   0.07778  -0.16583  -0.12413
  53        2S          0.07360  -0.02183   0.04858  -0.13426  -0.11232
                          16        17        18        19        20
                           O         O         O         V         V
     Eigenvalues --    -0.36119  -0.27744  -0.23594   0.02268   0.08121
   1 1   C  1S          0.02924  -0.00274  -0.00256  -0.00722  -0.00819
   2        2S         -0.03004   0.00362   0.00227   0.00853   0.00731
   3        2PX         0.09738   0.00033   0.00901   0.00323  -0.00688
   4        2PY         0.15165   0.01054   0.01202   0.00033   0.00900
   5        2PZ         0.01041  -0.24117  -0.24901  -0.18347  -0.32688
   6        3S         -0.17359   0.00004   0.01242   0.02913   0.04316
   7        3PX         0.11070  -0.00098   0.00562   0.01298  -0.02485
   8        3PY         0.08690   0.01079   0.00913   0.03921   0.05738
   9        3PZ         0.00603  -0.25469  -0.26822  -0.31847  -0.65224
  10 2   C  1S         -0.01911   0.00031  -0.00298   0.00733   0.00929
  11        2S          0.02385  -0.00071   0.00277  -0.00602  -0.01136
  12        2PX        -0.04979  -0.00109  -0.01732   0.01705   0.00942
  13        2PY        -0.19341  -0.00250  -0.01515   0.00858   0.00004
  14        2PZ         0.01072  -0.00516  -0.32359   0.32930   0.21089
  15        3S          0.07333   0.00417   0.01416  -0.03662  -0.05186
  16        3PX        -0.01086   0.00106  -0.01925   0.05894   0.06038
  17        3PY        -0.00292   0.00441  -0.00993   0.02926   0.00359
  18        3PZ         0.00437   0.03562  -0.33190   0.50147   0.40755
  19 3   O  1S          0.07102  -0.00037   0.00187  -0.00414   0.00139
  20        2S         -0.07184  -0.00011  -0.00160   0.00445  -0.00006
  21        2PX         0.14296   0.00857   0.00459   0.00247  -0.01538
  22        2PY         0.39951   0.01804   0.00713   0.00336   0.00096
  23        2PZ        -0.01945   0.31678   0.06518  -0.28350   0.00435
  24        3S         -0.26534   0.00535  -0.00929   0.02412  -0.01700
  25        3PX         0.15510   0.01077   0.00241   0.00423  -0.02138
  26        3PY         0.43042   0.01984   0.00868   0.00166  -0.00257
  27        3PZ        -0.02159   0.35703   0.07789  -0.39419   0.00338
  28 4   C  1S         -0.02081  -0.00153   0.00188   0.00799  -0.00623
  29        2S          0.02343   0.00116  -0.00264  -0.00471   0.00422
  30        2PX        -0.10929  -0.00138  -0.00413   0.00868  -0.00429
  31        2PY        -0.14968  -0.00158  -0.00245   0.00415  -0.00828
  32        2PZ        -0.00425  -0.13600   0.30745   0.31037  -0.22880
  33        3S          0.11271   0.00924  -0.00039  -0.07548   0.03935
  34        3PX        -0.02527   0.00404  -0.00530   0.00954   0.00596
  35        3PY         0.02878   0.00535   0.00562  -0.00049  -0.03163
  36        3PZ        -0.00552  -0.08858   0.33318   0.47029  -0.46173
  37 5   C  1S          0.01824   0.00380  -0.00137   0.00145   0.00236
  38        2S         -0.01856  -0.00529   0.00182  -0.00100  -0.00724
  39        2PX         0.01039   0.01474  -0.00759   0.01168  -0.00168
  40        2PY         0.15283   0.01023  -0.00301  -0.00721  -0.00523
  41        2PZ         0.00711  -0.31228   0.14203  -0.16237   0.34655
  42        3S         -0.15051  -0.01378  -0.00046   0.00036   0.02881
  43        3PX        -0.02632   0.00352  -0.00848   0.01957  -0.03586
  44        3PY         0.13715   0.01123   0.00557  -0.02394  -0.02884
  45        3PZ         0.00902  -0.32245   0.14290  -0.29038   0.69228
  46 6   H  1S          0.05268   0.00447  -0.00364  -0.00085   0.00227
  47        2S          0.07617   0.00892  -0.00618  -0.00089   0.02282
  48 7   H  1S          0.05544  -0.00069   0.00329   0.00731  -0.00773
  49        2S          0.05963  -0.00093   0.00480   0.02504  -0.04536
  50 8   H  1S          0.08604   0.00096   0.00025   0.01515   0.01072
  51        2S          0.09003   0.00092   0.00096   0.05973   0.06708
  52 9   H  1S          0.05998   0.00115  -0.00114  -0.00728  -0.01331
  53        2S          0.08839   0.00361   0.00086  -0.03501  -0.05875
                          21        22        23        24        25
                           V         V         V         V         V
     Eigenvalues --     0.12552   0.14600   0.16407   0.19493   0.21006
   1 1   C  1S          0.02249  -0.01482   0.05162   0.10640  -0.00809
   2        2S         -0.00776   0.02084  -0.04759  -0.08182  -0.01363
   3        2PX        -0.00610   0.02821  -0.10911  -0.01224   0.21616
   4        2PY        -0.10605  -0.03247   0.08599  -0.19570  -0.03076
   5        2PZ        -0.00369   0.00840  -0.01377  -0.02488  -0.01472
   6        3S         -0.35823  -0.02789  -0.30797  -1.20309   0.24687
   7        3PX        -0.08150   0.06210  -0.30631   0.10822   1.09666
   8        3PY        -0.32815   0.05827   0.03050  -1.04259  -0.28785
   9        3PZ        -0.01807   0.03367  -0.04351  -0.08361  -0.03951
  10 2   C  1S          0.02818   0.10048  -0.03256  -0.02442  -0.10931
  11        2S         -0.02106  -0.07170   0.02543   0.03814   0.07925
  12        2PX         0.07614   0.11455  -0.21071   0.16216  -0.03760
  13        2PY        -0.06505   0.12855   0.05101  -0.03105  -0.09522
  14        2PZ        -0.00347  -0.03239   0.02337   0.00505   0.01708
  15        3S         -0.41372  -1.00389   0.44270  -0.18133   1.30263
  16        3PX         0.14867   0.55891  -0.74654   0.12401  -0.23942
  17        3PY        -0.24317   0.39923   0.15282  -0.10114  -0.10238
  18        3PZ        -0.00699  -0.08694   0.06831   0.03198   0.05430
  19 3   O  1S          0.04484  -0.08991  -0.01064   0.03748  -0.01176
  20        2S         -0.03020   0.06525   0.00692  -0.02387   0.00390
  21        2PX        -0.08364   0.08798  -0.04380   0.00752   0.29910
  22        2PY        -0.09992   0.11412   0.04612  -0.07704  -0.09146
  23        2PZ         0.00411   0.01060  -0.00503   0.00041   0.00004
  24        3S         -0.37384   0.72513   0.09757  -0.33609   0.12726
  25        3PX        -0.12849   0.14636  -0.11969  -0.04791   0.57586
  26        3PY        -0.18816   0.17340   0.08268  -0.13748  -0.15474
  27        3PZ         0.00728   0.01804  -0.00922  -0.00016  -0.00404
  28 4   C  1S          0.01279   0.11131   0.06273   0.00603   0.08467
  29        2S          0.00074  -0.08514  -0.04288  -0.01917  -0.06885
  30        2PX        -0.21357   0.12195  -0.21102  -0.01738   0.16120
  31        2PY         0.05960   0.14797   0.14132  -0.07574   0.11626
  32        2PZ         0.00244  -0.01983  -0.01228   0.00185  -0.01606
  33        3S         -0.39463  -1.00461  -0.70346   0.17558  -0.82701
  34        3PX        -0.40904   0.12593  -0.74912  -0.24178   0.28942
  35        3PY         0.11085   0.50737   0.55965  -0.16433   0.32340
  36        3PZ         0.00013  -0.04269  -0.02942   0.00334  -0.04797
  37 5   C  1S          0.06872  -0.01973  -0.07974  -0.07816   0.05259
  38        2S         -0.04311   0.02463   0.07036   0.05800  -0.00335
  39        2PX        -0.15811   0.03473  -0.05094   0.11157   0.06004
  40        2PY        -0.16006  -0.01108   0.01754   0.08518  -0.12161
  41        2PZ        -0.00717   0.01098   0.00397   0.00393   0.01613
  42        3S         -0.75345   0.04968   0.59254   0.82309  -1.02786
  43        3PX        -0.52960   0.20888   0.01013   0.57602   0.61875
  44        3PY        -0.39409   0.01115   0.29595   0.50629  -0.42403
  45        3PZ        -0.01742   0.02776   0.02597   0.03116   0.06931
  46 6   H  1S          0.12653  -0.03971  -0.01295  -0.02996  -0.04288
  47        2S          1.28050  -0.29304  -0.41957  -1.13262   0.11168
  48 7   H  1S          0.05014   0.06657   0.09104   0.00481  -0.03275
  49        2S          0.66660   0.90688   1.41935  -0.07027   0.43671
  50 8   H  1S          0.02126   0.10025  -0.06498  -0.01292   0.02735
  51        2S          0.37812   1.28014  -1.08501   0.24724  -0.86858
  52 9   H  1S          0.06944  -0.01299  -0.01549   0.06183   0.04503
  53        2S          0.66153  -0.03798  -0.05888   1.81271   0.57872
                          26        27        28        29        30
                           V         V         V         V         V
     Eigenvalues --     0.22854   0.36463   0.41963   0.46871   0.67722
   1 1   C  1S         -0.08891  -0.06784  -0.01327   0.12331  -0.05089
   2        2S          0.03240   0.01968   0.02354  -0.01382   0.08983
   3        2PX        -0.08404   0.02417   0.29019  -0.00986  -0.20733
   4        2PY         0.09571  -0.15352   0.04087   0.22984  -0.20720
   5        2PZ         0.01601  -0.00702   0.00979   0.00649   0.01054
   6        3S          1.64387   1.25179  -0.13797  -3.05930   0.50653
   7        3PX        -0.20180  -0.80864   1.72610  -0.63476   0.12090
   8        3PY         0.24475  -1.39531   0.50344   2.37987  -0.36548
   9        3PZ         0.06796  -0.01486   0.03370  -0.01646   0.00831
  10 2   C  1S         -0.00343   0.08193  -0.01036  -0.10215   0.05148
  11        2S          0.00985  -0.00474   0.00709   0.02954  -0.00011
  12        2PX         0.14882  -0.21251  -0.04230   0.21537  -0.12837
  13        2PY        -0.22779  -0.17482   0.18035  -0.18821   0.13767
  14        2PZ        -0.00664   0.00858  -0.00901  -0.01359   0.03587
  15        3S         -0.26608  -1.66209   0.74887   2.02115  -0.50694
  16        3PX         0.40981  -1.28391   0.07027   1.74465  -0.39596
  17        3PY        -0.91241  -0.78601   1.50736   0.96379  -0.44261
  18        3PZ        -0.02622   0.03348  -0.04036  -0.04025  -0.03260
  19 3   O  1S          0.08489  -0.04737  -0.00597   0.01192  -0.02041
  20        2S         -0.04005   0.02004   0.00152  -0.00300   0.08144
  21        2PX         0.07155   0.06558  -0.25416   0.15465   0.10284
  22        2PY        -0.08781   0.14290   0.08020  -0.05615   0.17957
  23        2PZ         0.00922  -0.00257   0.00893  -0.00109   0.00581
  24        3S         -0.88541   0.59847   0.09113  -0.16780  -0.24569
  25        3PX         0.12872   0.16006  -0.62040   0.21434  -0.08189
  26        3PY        -0.27014   0.44095   0.22578  -0.12370   0.10536
  27        3PZ         0.02145  -0.00784   0.01194   0.00696   0.01215
  28 4   C  1S          0.03834   0.08159   0.01716   0.08940   0.02675
  29        2S         -0.01768  -0.01082   0.00784  -0.01919   0.07894
  30        2PX        -0.17571   0.07791  -0.14255   0.27142   0.49444
  31        2PY        -0.03446  -0.23607  -0.14334   0.03665   0.34962
[...]
     2  C    0.474872   5.041203   0.272969  -0.149421  -0.121624   0.003783
     3  O   -0.071558   0.272969   8.110964   0.306669  -0.086453   0.001676
     4  C   -0.140906  -0.149421   0.306669   5.121904   0.434186  -0.030672
     5  C    0.438035  -0.121624  -0.086453   0.434186   5.259184   0.376287
     6  H   -0.019879   0.003783   0.001676  -0.030672   0.376287   0.479476
     7  H    0.003075   0.003747  -0.026710   0.383702  -0.036012  -0.000570
     8  H   -0.040550   0.384324  -0.027083   0.003915   0.002638  -0.000017
     9  H    0.385273  -0.028095   0.002585   0.006368  -0.031704  -0.000910
               7          8          9
     1  C    0.003075  -0.040550   0.385273
     2  C    0.003747   0.384324  -0.028095
     3  O   -0.026710  -0.027083   0.002585
     4  C    0.383702   0.003915   0.006368
     5  C   -0.036012   0.002638  -0.031704
     6  H   -0.000570  -0.000017  -0.000910
     7  H    0.457782  -0.000049  -0.000040
     8  H   -0.000049   0.458296  -0.000372
     9  H   -0.000040  -0.000372   0.479547
 Mulliken charges:
               1
     1  C   -0.277050
     2  C    0.118243
     3  O   -0.483059
     4  C    0.064256
     5  C   -0.234536
     6  H    0.190827
     7  H    0.215074
     8  H    0.218898
     9  H    0.187348
 Sum of Mulliken charges =   0.00000
 Mulliken charges with hydrogens summed into heavy atoms:
               1
     1  C   -0.089702
     2  C    0.337141
     3  O   -0.483059
     4  C    0.279330
     5  C   -0.043709
 Electronic spatial extent (au):  <R**2>=            291.2449
 Charge=              0.0000 electrons
 Dipole moment (field-independent basis, Debye):
    X=              0.2960    Y=              0.7238    Z=              0.1531  Tot=              0.7968
 Quadrupole moment (field-independent basis, Debye-Ang):
   XX=            -23.7663   YY=            -27.8267   ZZ=            -31.7723
   XY=             -1.1996   XZ=             -0.1303   YZ=              0.1579
 Traceless Quadrupole moment (field-independent basis, Debye-Ang):
   XX=              4.0221   YY=             -0.0382   ZZ=             -3.9839
   XY=             -1.1996   XZ=             -0.1303   YZ=              0.1579
 Octapole moment (field-independent basis, Debye-Ang**2):
  XXX=             -3.8533  YYY=              0.0478  ZZZ=              0.3006  XYY=              3.4205
  XXY=             -2.2015  XXZ=              0.7621  XZZ=             -1.2435  YZZ=             -3.1556
  YYZ=              0.4066  XYZ=             -0.0165
 Hexadecapole moment (field-independent basis, Debye-Ang**3):
 XXXX=           -155.4112 YYYY=           -151.6823 ZZZZ=            -30.8615 XXXY=              4.5479
 XXXZ=             -0.8138 YYYX=             -5.8174 YYYZ=              0.6631 ZZZX=             -0.1910
 ZZZY=              0.0964 XXYY=            -49.5795 XXZZ=            -39.5423 YYZZ=            -34.3277
 XXYZ=              0.1043 YYXZ=             -0.0070 ZZXY=              1.0763
 N-N= 1.605599755493D+02 E-N=-8.537504668422D+02  KE= 2.268893037144D+02
 Orbital energies and kinetic energies (alpha):
                                 1                 2
   1         O               -19.106817         28.829462
   2         O               -10.176396         15.801714
   3         O               -10.174474         15.799165
   4         O               -10.129789         15.805885
   5         O               -10.119916         15.804786
   6         O                -1.115272          2.493939
   7         O                -0.807025          1.820508
   8         O                -0.747639          1.786274
   9         O                -0.601679          1.676363
  10         O                -0.568526          1.438118
  11         O                -0.541441          1.237838
  12         O                -0.443178          1.536114
  13         O                -0.439431          1.547374
  14         O                -0.423948          1.351769
  15         O                -0.396807          1.384921
  16         O                -0.361188          2.318425
  17         O                -0.277441          1.576198
  18         O                -0.235937          1.235800
  19         V                 0.022677          1.815309
  20         V                 0.081211          1.494504
  21         V                 0.125522          1.244957
  22         V                 0.146004          1.764557
  23         V                 0.164073          1.291206
  24         V                 0.194929          1.296879
  25         V                 0.210064          2.084667
  26         V                 0.228537          1.677714
  27         V                 0.364632          1.921920
  28         V                 0.419635          1.927266
  29         V                 0.468713          2.526887
  30         V                 0.677221          2.546781
  31         V                 0.698489          2.524435
  32         V                 0.702833          2.696657
  33         V                 0.755909          2.569481
  34         V                 0.767177          2.493862
  35         V                 0.791297          2.604534
  36         V                 0.804017          2.648802
  37         V                 0.821932          2.607527
  38         V                 0.837940          2.599597
  39         V                 0.924358          2.773658
  40         V                 0.986936          3.261417
  41         V                 1.000267          3.182920
  42         V                 1.047791          3.196413
  43         V                 1.181862          2.727629
  44         V                 1.217966          2.887063
  45         V                 1.322500          2.537071
  46         V                 1.365567          2.918084
  47         V                 1.506626          4.907942
  48         V                 1.556011          3.329006
  49         V                 1.642626          3.901547
  50         V                 1.745398          4.291811
  51         V                 1.954991          4.092523
  52         V                 2.128455          4.253336
  53         V                 3.166429          6.825998
 Total kinetic energy from orbitals= 2.268893037144D+02
 No NMR shielding tensors so no spin-rotation constants.
 Leave Link  601 at Tue Dec 15 16:23:56 2015, MaxMem=    33554432 cpu:         0.1
 (Enter /home/Applications/g09/g09/l701.exe)
 Compute integral first derivatives.
 ... and contract with generalized density number  6.
 Leave Link  701 at Tue Dec 15 16:23:56 2015, MaxMem=    33554432 cpu:         0.1
 (Enter /home/Applications/g09/g09/l702.exe)
 L702 exits ... SP integral derivatives will be done elsewhere.
 Leave Link  702 at Tue Dec 15 16:23:56 2015, MaxMem=    33554432 cpu:         0.0
 (Enter /home/Applications/g09/g09/l703.exe)
 Compute integral first derivatives, UseDBF=F ICtDFT=           0.
 Integral derivatives from FoFJK, PRISM(SPDF).
 Calling FoFJK, ICntrl=  10005127 FMM=F ISym2X=0 I1Cent= 0 IOpClX= 0 NMat=1 NMatS=1 NMatT=0.
 FoFJK:  IHMeth= 1 ICntrl=10005127 DoSepK=F KAlg= 0 I1Cent=   0 FoldK=F
 IRaf=         0 NMat=   1 IRICut=       1 DoRegI=T DoRafI=F ISym2E= 0.
 FoFCou: FMM=F IPFlag=           0 FMFlag=      100000 FMFlg1=         800
         NFxFlg=           0 DoJE=F BraDBF=F KetDBF=F FulRan=T
         wScrn=  0.000000 ICntrl=10005127 IOpCl=  0 I1Cent=           0 NGrid=           0
         NMat0=    1 NMatS0=      1 NMatT0=    0 NMatD0=    1 NMtDS0=    0 NMtDT0=    0
 Symmetry not used in FoFCou.
 Leave Link  703 at Tue Dec 15 16:23:57 2015, MaxMem=    33554432 cpu:         1.3
 (Enter /home/Applications/g09/g09/l716.exe)
 Dipole        =-6.19094291D-01 6.04552138D-01 8.35193788D-02
 ***** Axes restored to original set *****
 -------------------------------------------------------------------
 Center     Atomic                   Forces (Hartrees/Bohr)
 Number     Number              X              Y              Z
 -------------------------------------------------------------------
      1        6           0.043791485    0.044934166   -0.001227389
      2        6          -0.058189142   -0.046032602    0.002591287
      3        8          -0.068163472   -0.046321625   -0.004004068
      4        6          -0.081269152    0.107059749    0.007042151
      5        6           0.135199706    0.004282477   -0.003687560
      6        1          -0.019684787   -0.024055714   -0.000039884
      7        1           0.014289743   -0.013373133    0.000072420
      8        1           0.001105811    0.003762681   -0.000135674
      9        1           0.032919807   -0.030255999   -0.000611284
 -------------------------------------------------------------------
 Cartesian Forces:  Max     0.135199706 RMS     0.045561938
 Z-matrix is all fixed cartesians, so copy forces.
 Force constants in Cartesian coordinates: 
                1             2             3             4             5 
      1  0.974313D+00
      2 -0.506483D-01  0.782788D+00
      3 -0.191158D-01  0.219524D-02  0.207886D+00
      4 -0.507752D+00 -0.103585D+00  0.106575D-02  0.926585D+00
      5 -0.815920D-01 -0.215178D+00 -0.169976D-03  0.926649D-02  0.899955D+00
      6 -0.599252D-02 -0.230623D-02 -0.103630D+00  0.195617D-01  0.136213D-01
      7 -0.841819D-02  0.297247D-01 -0.994133D-03 -0.286657D+00  0.172028D+00
      8 -0.604381D-02  0.213732D-01 -0.263332D-03  0.216224D+00 -0.389965D+00
      9 -0.536430D-03  0.869053D-03  0.585485D-02 -0.102688D-01  0.660352D-02
     10  0.105240D-01 -0.260095D-03 -0.500496D-03  0.234139D-01  0.168242D-01
     11  0.348370D-01 -0.870388D-03 -0.212477D-02 -0.184250D-01 -0.132462D-01
     12 -0.195531D-02  0.455170D-04 -0.208744D-02  0.113762D-02  0.736298D-03
     13 -0.162665D+00  0.419795D-02  0.298411D-02  0.964841D-02 -0.340916D-01
     14 -0.186760D-01 -0.375652D+00  0.115196D-01 -0.228602D-03  0.797873D-03
     15  0.325987D-02  0.131480D-01 -0.758740D-01 -0.726055D-04  0.438372D-03
     16  0.169288D-01 -0.385870D-03  0.835984D-04  0.000000D+00  0.104515D-05
     17 -0.216230D-01  0.515990D-03  0.587011D-03 -0.170454D-05  0.378615D-05
     18  0.158128D-02  0.479701D-03  0.154831D-01 -0.514700D-04  0.114326D-03
     19  0.150589D-04  0.126869D-04  0.391052D-03  0.306096D-05  0.000000D+00
     20  0.189790D-04  0.159894D-04  0.492848D-03  0.000000D+00  0.000000D+00
     21  0.324350D-03  0.273258D-03  0.842274D-02 -0.865370D-04  0.106941D-04
     22  0.746965D-02 -0.263254D-01 -0.240432D-02 -0.160181D+00 -0.100252D+00
     23 -0.367039D-02  0.129807D-01 -0.108885D-02 -0.960681D-01 -0.307711D+00
     24  0.201177D-03 -0.128128D-02  0.287605D-01 -0.113830D-01 -0.204614D-01
     25 -0.330416D+00  0.147270D+00  0.184902D-01 -0.505970D-02  0.178166D-01
     26  0.147398D+00 -0.225973D+00 -0.111478D-01 -0.718048D-02  0.253430D-01
     27  0.222334D-01 -0.134233D-01 -0.848151D-01  0.973458D-04 -0.893129D-03
                6             7             8             9            10 
      6  0.190419D+00
      7 -0.791411D-02  0.524248D+00
      8  0.590013D-02 -0.381783D-01  0.674228D+00
      9 -0.445916D-01  0.124561D-01 -0.172285D-02  0.537088D-01
     10  0.642309D-03 -0.262286D+00 -0.179279D+00 -0.603947D-02  0.988245D+00
     11 -0.668049D-03 -0.135760D+00 -0.311026D+00 -0.528706D-02 -0.754917D-01
     12 -0.126850D-02 -0.440076D-02 -0.452359D-02 -0.457890D-01 -0.630985D-02
     13  0.148359D-02 -0.864689D-02  0.678797D-02  0.699663D-03 -0.586567D+00
     14  0.161085D-03 -0.283808D-01  0.222938D-01  0.959715D-03  0.132996D+00
     15  0.394221D-03 -0.829909D-03  0.444324D-03  0.634938D-02  0.162245D-01
     16  0.310364D-04  0.426493D-05 -0.717911D-05  0.224947D-03 -0.537577D-02
     17  0.112432D-03  0.000000D+00 -0.137780D-05  0.431715D-04  0.695674D-02
     18  0.339497D-02  0.140165D-03 -0.235939D-03  0.739282D-02  0.151258D-02
     19 -0.119256D-03  0.196284D-01 -0.154478D-01  0.914165D-03 -0.167977D+00
     20  0.364182D-04  0.114673D-01 -0.902755D-02  0.690588D-03  0.982446D-01
     21  0.337150D-02  0.586319D-03 -0.546128D-03  0.500658D-02 -0.553791D-02
     22 -0.100952D-01  0.221289D-01  0.159420D-01  0.242263D-02  0.105324D-04
     23 -0.173190D-01 -0.109075D-01 -0.786591D-02 -0.156286D-02  0.482582D-05
     24 -0.757640D-01  0.102729D-02  0.841208D-03  0.479411D-02 -0.126699D-03
     25  0.240243D-02 -0.124040D-05  0.185561D-05  0.127129D-03  0.130976D-04
     26  0.461915D-03  0.578851D-05 -0.865950D-05 -0.593269D-03  0.420041D-05
     27  0.276751D-01 -0.709732D-04  0.106175D-03  0.727409D-02  0.135059D-03
               11            12            13            14            15 
     11  0.810721D+00
     12  0.203462D-02  0.217008D+00
     13  0.108455D+00  0.149113D-01  0.957815D+00
     14 -0.232795D+00 -0.345793D-02 -0.108069D-01  0.758221D+00
     15 -0.435331D-02 -0.119128D+00 -0.224468D-01 -0.120123D-01  0.208911D+00
     16 -0.177989D-01  0.107473D-02 -0.234422D+00 -0.100002D+00  0.479944D-02
     17  0.229078D-01 -0.595989D-04 -0.103530D+00 -0.187046D+00  0.443521D-02
     18  0.220708D-02  0.293906D-01  0.368923D-02  0.322220D-02 -0.792248D-01
     19  0.104174D+00 -0.438753D-02  0.772821D-02  0.255011D-01 -0.627152D-03
     20 -0.275694D+00  0.530362D-02  0.452905D-02  0.148371D-01  0.772889D-03
     21  0.806205D-02 -0.865691D-01  0.678656D-03 -0.118303D-02  0.362257D-01
     22 -0.130158D-05 -0.410345D-03 -0.193544D-05  0.429902D-05  0.127662D-03
     23  0.000000D+00 -0.188015D-03  0.881734D-05 -0.195852D-04 -0.581594D-03
     24  0.156573D-04  0.493623D-02 -0.999292D-04  0.221964D-03  0.659135D-02
     25  0.110345D-04  0.340119D-03  0.171105D-01 -0.407326D-03 -0.434997D-03
     26  0.353877D-05  0.109077D-03  0.244495D-01 -0.637689D-03 -0.229155D-02
     27  0.113785D-03  0.350722D-02 -0.189986D-02  0.568669D-03  0.157545D-01
               16            17            18            19            20 
     16  0.222888D+00
     17  0.118217D+00  0.163629D+00
     18 -0.577421D-02 -0.487261D-02  0.416055D-01
     19 -0.182244D-04 -0.349760D-05 -0.598940D-03  0.140621D+00
     20 -0.229685D-04 -0.440807D-05 -0.754852D-03 -0.114236D+00  0.269873D+00
     21 -0.392531D-03 -0.753337D-04 -0.129004D-01  0.442766D-02 -0.654151D-02
     22  0.000000D+00  0.000000D+00  0.000000D+00  0.000000D+00  0.000000D+00
     23  0.000000D+00  0.000000D+00  0.000000D+00  0.000000D+00  0.000000D+00
     24  0.000000D+00  0.000000D+00  0.000000D+00  0.000000D+00  0.000000D+00
     25 -0.455841D-05 -0.165132D-04 -0.498630D-03  0.000000D+00  0.000000D+00
     26 -0.146189D-05 -0.529580D-05 -0.159911D-03  0.000000D+00  0.000000D+00
     27 -0.470051D-04 -0.170280D-03 -0.514174D-02  0.000000D+00  0.000000D+00
               21            22            23            24            25 
     21  0.464429D-01
     22  0.000000D+00  0.130578D+00
     23  0.000000D+00  0.110615D+00  0.302698D+00
     24  0.000000D+00  0.105814D-01  0.197296D-01  0.421368D-01
     25  0.000000D+00 -0.387746D-05  0.176647D-04 -0.200198D-03  0.318362D+00
     26  0.000000D+00  0.180947D-04 -0.824350D-04  0.934256D-03 -0.164693D+00
     27  0.000000D+00 -0.221860D-03  0.101074D-02 -0.114550D-01 -0.202261D-01
               26            27 
     26  0.201361D+00
     27  0.126873D-01  0.472008D-01
 Leave Link  716 at Tue Dec 15 16:23:57 2015, MaxMem=    33554432 cpu:         0.0
 (Enter /home/Applications/g09/g09/l103.exe)

 GradGradGradGradGradGradGradGradGradGradGradGradGradGradGradGradGradGrad
 Berny optimization.
 Search for a local minimum.
 Step number   1 out of a maximum of    2
 All quantities printed in internal units (Hartrees-Bohrs-Radians)
 Second derivative matrix not updated -- first step.
 ITU=  0
     Eigenvalues ---    0.01868   0.02869   0.06923   0.07238   0.07887
     Eigenvalues ---    0.08315   0.12889   0.13015   0.15685   0.22579
     Eigenvalues ---    0.26424   0.31918   0.40221   0.41636   0.61145
     Eigenvalues ---    0.82860   1.04142   1.29533   1.39641   1.59662
     Eigenvalues ---    1.71150
 Quadratic step=3.592D-01 exceeds max=3.000D-01 adjusted using Lamda=-5.233D-02.
 Angle between NR and scaled steps=   9.13 degrees.
 Angle between quadratic step and forces=  37.79 degrees.
 Linear search not attempted -- first point.
 TrRot= -0.013837  0.006025 -0.001207  0.761106 -0.000831 -0.757965
 Variable       Old X    -DE/DX   Delta X   Delta X   Delta X     New X
                                 (Linear)    (Quad)   (Total)
    X1        1.74938   0.04379   0.00000   0.07536   0.06581   1.81519
    Y1       -1.40705   0.04493   0.00000   0.02519   0.03692  -1.37013
    Z1        0.07373  -0.00123   0.00000  -0.00882  -0.00971   0.06401
    X2       -0.71877  -0.05819   0.00000  -0.04824  -0.05536  -0.77413
    Y2       -2.10610  -0.04603   0.00000  -0.04303  -0.03944  -2.14555
    Z2        0.05985   0.00259   0.00000   0.00766   0.00476   0.06461
    X3       -2.21242  -0.06816   0.00000  -0.13355  -0.14711  -2.35953
    Y3       -0.02596  -0.04632   0.00000  -0.05637  -0.05771  -0.08367
    Z3        0.01491  -0.00400   0.00000  -0.01471  -0.01738  -0.00247
    X4       -0.56980  -0.08127   0.00000  -0.05697  -0.07760  -0.64740
    Y4        2.06330   0.10706   0.00000   0.09002   0.09403   2.15733
    Z4        0.05045   0.00704   0.00000   0.01471   0.01436   0.06481
    X5        1.81244   0.13520   0.00000   0.11274   0.09455   1.90699
    Y5        1.33968   0.00428   0.00000   0.04450   0.05658   1.39625
    Z5       -0.01781  -0.00369   0.00000  -0.00099  -0.00025  -0.01806
    X6        3.48082  -0.01968   0.00000   0.06890   0.04699   3.52781
    Y6        2.64160  -0.02406   0.00000  -0.05981  -0.04261   2.59899
    Z6       -0.07618  -0.00004   0.00000  -0.00958  -0.00717  -0.08335
    X7       -1.61684   0.01429   0.00000   0.01313  -0.01299  -1.62983
    Y7        3.85838  -0.01337   0.00000   0.05705   0.05802   3.91640
    Z7       -0.00598   0.00007   0.00000   0.00645   0.00651   0.00053
    X8       -1.61454   0.00111   0.00000  -0.01381  -0.01509  -1.62963
    Y8       -3.93699   0.00376   0.00000  -0.04108  -0.04011  -3.97710
    Z8       -0.08435  -0.00014   0.00000   0.00779   0.00333  -0.08102
    X9        3.32843   0.03292   0.00000   0.10646   0.10081   3.42923
    Y9       -2.52133  -0.03026   0.00000  -0.08252  -0.06568  -2.58700
    Z9       -0.04475  -0.00061   0.00000   0.00617   0.00555  -0.03920
         Item               Value     Threshold  Converged?
 Maximum Force            0.135200     0.000450     NO 
 RMS     Force            0.045562     0.000300     NO 
 Maximum Displacement     0.147115     0.001800     NO 
 RMS     Displacement     0.056740     0.001200     NO 
 Predicted change in Energy=-3.044189D-02
 GradGradGradGradGradGradGradGradGradGradGradGradGradGradGradGradGradGrad

 Leave Link  103 at Tue Dec 15 16:23:57 2015, MaxMem=    33554432 cpu:         0.0
 (Enter /home/Applications/g09/g09/l9999.exe)
 1\1\GINC-DUSTIN-DESKTOP\Force\RB3LYP-FC\3-21G\C4H4O1\DUSTIN\15-Dec-201
 5\0\\#P B3LYP/3-21G CIS(Singlets,NStates=15) pop(full) force\\FuranDFT
 \\0,1\C,0.925731,-0.744579,0.039015\C,-0.380357,-1.114501,0.031671\O,-
 1.170762,-0.013737,0.007892\C,-0.301526,1.091852,0.026696\C,0.959101,0
 .708926,-0.009426\H,1.84197,1.397872,-0.040313\H,-0.855593,2.041767,-0
 .003163\H,-0.854377,-2.083368,-0.044637\H,1.761327,-1.334228,-0.02368\
 \Version=ES64L-G09RevD.01\State=1-A\HF=-228.7443663\RMSD=8.959e-09\RMS
 F=4.556e-02\Dipole=0.361137,-0.7866754,-0.0803643\PG=C01 [X(C4H4O1)]\\
 @


 THE DIFFICULTY IN SCIENCE IS OFTEN NOT SO MUCH HOW
 TO MAKE A DISCOVERY BUT RATHER TO KNOW ONE HAS MADE IT.

                                                   -- J. D. BERNAL
 Job cpu time:       0 days  0 hours  0 minutes 49.8 seconds.
 File lengths (MBytes):  RWF=     14 Int=      0 D2E=      0 Chk=      3 Scr=      1
 Normal termination of Gaussian 09 at Tue Dec 15 16:23:57 2015.
