 Entering Gaussian System, Link 0=g09
 Input=FuranAM1_62P6.com
 Output=FuranAM1_62P6.log
 Initial command:
 /home/Applications/g09/g09/l1.exe "/home/Applications/g09/scratch/Gau-8252.inp" -scrdir="/home/Applications/g09/scratch/"
 Entering Link 1 = /home/Applications/g09/g09/l1.exe PID=      8254.
  
 Copyright (c) 1988,1990,1992,1993,1995,1998,2003,2009,2013,
            Gaussian, Inc.  All Rights Reserved.
  
 This is part of the Gaussian(R) 09 program.  It is based on
 the Gaussian(R) 03 system (copyright 2003, Gaussian, Inc.),
 the Gaussian(R) 98 system (copyright 1998, Gaussian, Inc.),
 the Gaussian(R) 94 system (copyright 1995, Gaussian, Inc.),
 the Gaussian 92(TM) system (copyright 1992, Gaussian, Inc.),
 the Gaussian 90(TM) system (copyright 1990, Gaussian, Inc.),
 the Gaussian 88(TM) system (copyright 1988, Gaussian, Inc.),
 the Gaussian 86(TM) system (copyright 1986, Carnegie Mellon
 University), and the Gaussian 82(TM) system (copyright 1983,
 Carnegie Mellon University). Gaussian is a federally registered
 trademark of Gaussian, Inc.
  
 This software contains proprietary and confidential information,
 including trade secrets, belonging to Gaussian, Inc.
  
 This software is provided under written license and may be
 used, copied, transmitted, or stored only in accord with that
 written license.
  
 The following legend is applicable only to US Government
 contracts under FAR:
  
                    RESTRICTED RIGHTS LEGEND
  
 Use, reproduction and disclosure by the US Government is
 subject to restrictions as set forth in subparagraphs (a)
 and (c) of the Commercial Computer Software - Restricted
 Rights clause in FAR 52.227-19.
  
 Gaussian, Inc.
 340 Quinnipiac St., Bldg. 40, Wallingford CT 06492
  
  
 ---------------------------------------------------------------
 Warning -- This program may not be used in any manner that
 competes with the business of Gaussian, Inc. or will provide
 assistance to any competitor of Gaussian, Inc.  The licensee
 of this program is prohibited from giving any competitor of
 Gaussian, Inc. access to this program.  By using this program,
 the user acknowledges that Gaussian, Inc. is engaged in the
 business of creating and licensing software in the field of
 computational chemistry and represents and warrants to the
 licensee that it is not a competitor of Gaussian, Inc. and that
 it will not use this program in any manner prohibited above.
 ---------------------------------------------------------------
  

 Cite this work as:
 Gaussian 09, Revision D.01,
 M. J. Frisch, G. W. Trucks, H. B. Schlegel, G. E. Scuseria, 
 M. A. Robb, J. R. Cheeseman, G. Scalmani, V. Barone, B. Mennucci, 
 G. A. Petersson, H. Nakatsuji, M. Caricato, X. Li, H. P. Hratchian, 
 A. F. Izmaylov, J. Bloino, G. Zheng, J. L. Sonnenberg, M. Hada, 
 M. Ehara, K. Toyota, R. Fukuda, J. Hasegawa, M. Ishida, T. Nakajima, 
 Y. Honda, O. Kitao, H. Nakai, T. Vreven, J. A. Montgomery, Jr., 
 J. E. Peralta, F. Ogliaro, M. Bearpark, J. J. Heyd, E. Brothers, 
 K. N. Kudin, V. N. Staroverov, T. Keith, R. Kobayashi, J. Normand, 
 K. Raghavachari, A. Rendell, J. C. Burant, S. S. Iyengar, J. Tomasi, 
 M. Cossi, N. Rega, J. M. Millam, M. Klene, J. E. Knox, J. B. Cross, 
 V. Bakken, C. Adamo, J. Jaramillo, R. Gomperts, R. E. Stratmann, 
 O. Yazyev, A. J. Austin, R. Cammi, C. Pomelli, J. W. Ochterski, 
 R. L. Martin, K. Morokuma, V. G. Zakrzewski, G. A. Voth, 
 P. Salvador, J. J. Dannenberg, S. Dapprich, A. D. Daniels, 
 O. Farkas, J. B. Foresman, J. V. Ortiz, J. Cioslowski, 
 and D. J. Fox, Gaussian, Inc., Wallingford CT, 2013.
 
 ******************************************
 Gaussian 09:  ES64L-G09RevD.01 24-Apr-2013
                15-Dec-2015 
 ******************************************
 ------------------------------------------------------------
 #P AM1(Input,print) CIS(Singlets,NStates=15) pop(full) force
 ------------------------------------------------------------
 1/10=7,30=1,38=1/1,3;
 2/12=2,17=6,18=5,40=1/2;
 3/5=2,16=1,25=1,41=700000,71=1,135=100,136=1/1,2,8,3;
 4/35=1/1;
 5/5=2,35=1,38=5/2;
 8/6=1,10=1,108=15/1;
 9/15=2,41=15,42=1,48=1,49=10/14;
 10/5=4/2;
 6/7=3,18=1/1;
 7/12=6,13=5,29=1/1,2,3,16;
 1/10=7,30=1/3;
 99//99;
 Leave Link    1 at Tue Dec 15 17:06:21 2015, MaxMem=           0 cpu:         0.0
 (Enter /home/Applications/g09/g09/l101.exe)
 -----------------
 AM1-Reparam Input
 -----------------
 Symbolic Z-matrix:
 Charge =  0 Multiplicity = 1
 6                     0.95908  -0.70681   0.03754 
 6                    -0.38261  -1.13498  -0.01595 
 8                    -1.20553  -0.01753  -0.04293 
 6                    -0.35672   1.05928  -0.0175 
 6                     0.98429   0.67029   0.04085 
 1                     1.80986   1.41716   0.03358 
 1                    -0.8009    2.04082  -0.00078 
 1                    -0.83067  -1.9993   -0.04297 
 1                     1.79131  -1.41465  -0.03036 
 
 NAtoms=      9 NQM=        9 NQMF=       0 NMMI=      0 NMMIF=      0
                NMic=       0 NMicF=      0.
                    Isotopes and Nuclear Properties:
 (Nuclear quadrupole moments (NQMom) in fm**2, nuclear magnetic moments (NMagM)
  in nuclear magnetons)

  Atom         1           2           3           4           5           6           7           8           9
 IAtWgt=          12          12          16          12          12           1           1           1           1
 AtmWgt=  12.0000000  12.0000000  15.9949146  12.0000000  12.0000000   1.0078250   1.0078250   1.0078250   1.0078250
 NucSpn=           0           0           0           0           0           1           1           1           1
 AtZEff=   0.0000000   0.0000000   0.0000000   0.0000000   0.0000000   0.0000000   0.0000000   0.0000000   0.0000000
 NQMom=    0.0000000   0.0000000   0.0000000   0.0000000   0.0000000   0.0000000   0.0000000   0.0000000   0.0000000
 NMagM=    0.0000000   0.0000000   0.0000000   0.0000000   0.0000000   2.7928460   2.7928460   2.7928460   2.7928460
 AtZNuc=   6.0000000   6.0000000   8.0000000   6.0000000   6.0000000   1.0000000   1.0000000   1.0000000   1.0000000
 Leave Link  101 at Tue Dec 15 17:06:21 2015, MaxMem=    33554432 cpu:         0.0
 (Enter /home/Applications/g09/g09/l103.exe)

 GradGradGradGradGradGradGradGradGradGradGradGradGradGradGradGradGradGrad
 Berny optimization.
 Initialization pass.
 Trust Radius=3.00D-01 FncErr=1.00D-07 GrdErr=1.00D-07
 Number of steps in this run=      2 maximum allowed number of steps=      2.
 GradGradGradGradGradGradGradGradGradGradGradGradGradGradGradGradGradGrad

 Leave Link  103 at Tue Dec 15 17:06:21 2015, MaxMem=    33554432 cpu:         0.0
 (Enter /home/Applications/g09/g09/l202.exe)
                          Input orientation:                          
 ---------------------------------------------------------------------
 Center     Atomic      Atomic             Coordinates (Angstroms)
 Number     Number       Type             X           Y           Z
 ---------------------------------------------------------------------
      1          6           0        0.959084   -0.706808    0.037541
      2          6           0       -0.382606   -1.134975   -0.015953
      3          8           0       -1.205527   -0.017532   -0.042927
      4          6           0       -0.356718    1.059280   -0.017501
      5          6           0        0.984290    0.670291    0.040849
      6          1           0        1.809862    1.417162    0.033576
      7          1           0       -0.800899    2.040817   -0.000781
      8          1           0       -0.830671   -1.999299   -0.042974
      9          1           0        1.791310   -1.414652   -0.030356
 ---------------------------------------------------------------------
                    Distance matrix (angstroms):
                    1          2          3          4          5
     1  C    0.000000
     2  C    1.409369   0.000000
     3  O    2.273129   1.388022   0.000000
     4  C    2.203050   2.194408   1.371367   0.000000
     5  C    1.377334   2.265086   2.296828   1.397505   0.000000
     6  H    2.288031   3.364933   3.340175   2.196533   1.113301
     7  H    3.263197   3.203257   2.098166   1.077493   2.250994
     8  H    2.209126   0.973934   2.016908   3.095188   3.229214
     9  H    1.094648   2.191880   3.306529   3.276359   2.236814
                    6          7          8          9
     6  H    0.000000
     7  H    2.684436   0.000000
     8  H    4.318620   4.040446   0.000000
     9  H    2.832596   4.319802   2.686402   0.000000
 Stoichiometry    C4H4O
 Framework group  C1[X(C4H4O)]
 Deg. of freedom    21
 Full point group                 C1      NOp   1
 Largest Abelian subgroup         C1      NOp   1
 Largest concise Abelian subgroup C1      NOp   1
                         Standard orientation:                         
 ---------------------------------------------------------------------
 Center     Atomic      Atomic             Coordinates (Angstroms)
 Number     Number       Type             X           Y           Z
 ---------------------------------------------------------------------
      1          6           0        0.284427    1.155142   -0.014745
      2          6           0       -1.009958    0.597668   -0.004234
      3          8           0       -0.898506   -0.785851    0.003526
      4          6           0        0.448782   -1.041636    0.009463
      5          6           0        1.206793    0.132270   -0.010155
      6          1           0        2.319277    0.109767    0.026051
      7          1           0        0.757952   -2.073515   -0.015654
      8          1           0       -1.915603    0.955824    0.004693
      9          1           0        0.446161    2.234072    0.074725
 ---------------------------------------------------------------------
 Rotational constants (GHZ):      9.6411629      8.8409141      4.6127765
 Leave Link  202 at Tue Dec 15 17:06:21 2015, MaxMem=    33554432 cpu:         0.0
 (Enter /home/Applications/g09/g09/l301.exe)

 Semi-emprical parameters in input format:
 Method=8 CoreType=1 PeptideFC=0.0106250000 RIJScale=0.5404210000
 ****
 H       
 PQN=1 NValence=1 F0ss=0.4721550000 ZetaOverlap=1.0856700000 U=-0.4219420000
 Beta=-0.2344680000 CoreKO=1.1349760000 KON=0,0,0,1.0458670000 KON=1,0,1,1.0589200000
 KON=0,1,1,1.0589200000 KON=2,1,1,1.0697690000 EISol=-0.4188110042 EHeat=0.0830298228
 Alpha=1.4609850000
 GCore=0.0079790000,1.5127750000,2.2676710000
 GCore=0.0003530000,1.4368830000,3.4779940000
 GCore=-0.0011950000,0.5600570000,3.5861320000
 ****
 C       
 PQN=2,2 NValence=4 F0ss=0.4494440000 F0sp=0.4215150000 F0pp=0.3497590000 F2pp=0.1878900000
 G1sp=0.2701540000
 ZetaOverlap=1.8086650000,1.3781170000
 U=-1.7687090000,-1.4557970000
 Beta=-0.5453250000,-0.3063130000 DDN=0,1,0.7474020000 DDN=1,1,0.7268010000
 CoreKO=1.1356210000 KON=0,0,0,1.1124280000 KON=1,0,1,0.8998210000 KON=0,1,1,1.1124280000
 KON=2,1,1,0.8516400000 EISol=-4.4398989268 EHeat=0.2723305520 Alpha=1.2789610000
 DipHyp=1.4947180026
 GCore=0.0007260000,1.3361580000,2.6678360000
 GCore=0.0028980000,1.4001430000,3.2840710000
 GCore=-0.0015090000,1.3017660000,3.8739390000
 GCore=-0.0001030000,1.4822700000,4.6744780000
 ****
 O       
 PQN=2,2 NValence=6 F0ss=0.5666750000 F0sp=0.5321300000 F0pp=0.4826590000 F2pp=0.2358080000
 G1sp=0.4216980000
 ZetaOverlap=2.6354490000,2.4967270000
 U=-3.3169990000,-1.9779290000
 Beta=-1.1573400000,-1.2994290000 DDN=0,1,0.4953610000 DDN=1,1,0.4852320000
 CoreKO=0.8515990000 KON=0,0,0,0.8822960000 KON=1,0,1,0.5019540000 KON=0,1,1,0.8682050000
 KON=2,1,1,0.5068780000 EISol=-11.6164441184 EHeat=0.0949133088 Alpha=2.4031680000
 DipHyp=0.9906650029
 GCore=0.0204720000,1.4001430000,1.6023330000
 GCore=0.0051530000,1.9602000000,2.7307880000
 ****
 
 Standard basis: VSTO-6G (5D, 7F)
 Ernie: Thresh=  0.10000D-02 Tol=  0.10000D-05 Strict=F.
  NNHCO=     0 NNPyr=     0 NCTC=     0               EPep=         0.000000000
    EC=        68.029772780  ECS=         2.370007556   EG=         0.334545019
   EHC=         0.000000000  EAt=       -31.051283842  AtH=         1.516354808
 EPDDG=         0.000000000  ECC=        70.734325356 EAtT=        32.567638650
 There are    24 symmetry adapted cartesian basis functions of A   symmetry.
 There are    24 symmetry adapted basis functions of A   symmetry.
    24 basis functions,   144 primitive gaussians,    24 cartesian basis functions
    13 alpha electrons       13 beta electrons
       nuclear repulsion energy       103.3019640062 Hartrees.
 IExCor=    0 DFT=F Ex=HF Corr=None ExCW=0 ScaHFX=  1.000000
 ScaDFX=  1.000000  1.000000  1.000000  1.000000 ScalE2=  1.000000  1.000000
 IRadAn=      0 IRanWt=     -1 IRanGd=            0 ICorTp=0 IEmpDi=  4
 Integral buffers will be    131072 words long.
 Regular integral format.
 Two-electron integral symmetry is turned off.
 Leave Link  301 at Tue Dec 15 17:06:21 2015, MaxMem=    33554432 cpu:         0.0
 (Enter /home/Applications/g09/g09/l302.exe)
 Do NDO integrals.
 NPDir=0 NMtPBC=     1 NCelOv=     1 NCel=       1 NClECP=     1 NCelD=      1
         NCelK=      1 NCelE2=     1 NClLst=     1 CellRange=     0.0.
 One-electron integrals computed using PRISM.
 NBasis=    24 RedAO= F EigKep=  0.00D+00  NBF=    24
 NBsUse=    24 1.00D-04 EigRej=  0.00D+00 NBFU=    24
 Leave Link  302 at Tue Dec 15 17:06:21 2015, MaxMem=    33554432 cpu:         0.0
 (Enter /home/Applications/g09/g09/l308.exe)
 Leave Link  308 at Tue Dec 15 17:06:21 2015, MaxMem=    33554432 cpu:         0.0
 (Enter /home/Applications/g09/g09/l303.exe)
 DipDrv:  MaxL=1.
 Leave Link  303 at Tue Dec 15 17:06:21 2015, MaxMem=    33554432 cpu:         0.0
 (Enter /home/Applications/g09/g09/l401.exe)
 Simple Huckel Guess.
 JPrj=0 DoOrth=F DoCkMO=F.
 Leave Link  401 at Tue Dec 15 17:06:21 2015, MaxMem=    33554432 cpu:         0.0
 (Enter /home/Applications/g09/g09/l502.exe)
 Closed shell SCF:
 Using DIIS extrapolation, IDIIS=  1040.
 Overlap will be assumed to be unity.
 Two-electron integral symmetry not used.
 Keep J ints in memory in canonical form, NReq=888082.
 IVT=       79475 IEndB=       79475 NGot=    33554432 MDV=    33473473
 LenX=    33473473 LenY=    33472456
 Requested convergence on RMS density matrix=1.00D-08 within 128 cycles.
 Requested convergence on MAX density matrix=1.00D-06.
 Requested convergence on             energy=1.00D-06.
 No special actions if energy rises.
 FoFCou: FMM=F IPFlag=           0 FMFlag=           0 FMFlg1=           0
         NFxFlg=           0 DoJE=F BraDBF=F KetDBF=F FulRan=T
         wScrn=  0.000000 ICntrl=     600 IOpCl=  2 I1Cent=           0 NGrid=           0
         NMat0=    1 NMatS0=     54 NMatT0=    0 NMatD0=    1 NMtDS0=    0 NMtDT0=    0
 Symmetry not used in FoFCou.

 Cycle   1  Pass 1  IDiag  1:
 E=  4.79563212270705    
 DIIS: error= 1.59D-01 at cycle   1 NSaved=   1.
 NSaved= 1 IEnMin= 1 EnMin=  4.79563212270705     IErMin= 1 ErrMin= 1.59D-01
 ErrMax= 1.59D-01  0.00D+00 EMaxC= 1.00D-01 BMatC= 4.80D-01 BMatP= 4.80D-01
 IDIUse=3 WtCom= 0.00D+00 WtEn= 1.00D+00
 Coeff-Com:  0.100D+01
 Coeff-En:   0.100D+01
 Coeff:      0.100D+01
 GapD=    2.000 DampG=2.000 DampE=0.250 DampFc=0.5000 IDamp=-1.
 Damping current iteration by 5.00D-01
 RMSDP=6.40D-02 MaxDP=7.06D-01              OVMax= 0.00D+00

 Cycle   2  Pass 1  IDiag  1:
 E=  3.81794968558290     Delta-E=       -0.977682437124 Rises=F Damp=T
 DIIS: error= 9.43D-02 at cycle   2 NSaved=   2.
 NSaved= 2 IEnMin= 2 EnMin=  3.81794968558290     IErMin= 2 ErrMin= 9.43D-02
 ErrMax= 9.43D-02  0.00D+00 EMaxC= 1.00D-01 BMatC= 1.66D-01 BMatP= 4.80D-01
 IDIUse=3 WtCom= 5.70D-02 WtEn= 9.43D-01
 Coeff-Com: -0.114D+01 0.214D+01
 Coeff-En:   0.000D+00 0.100D+01
 Coeff:     -0.649D-01 0.106D+01
 RMSDP=3.60D-02 MaxDP=3.63D-01 DE=-9.78D-01 OVMax= 0.00D+00

 Cycle   3  Pass 1  IDiag  1:
 E=  2.58217342752694     Delta-E=       -1.235776258056 Rises=F Damp=F
 DIIS: error= 2.25D-02 at cycle   3 NSaved=   3.
 NSaved= 3 IEnMin= 3 EnMin=  2.58217342752694     IErMin= 3 ErrMin= 2.25D-02
 ErrMax= 2.25D-02  0.00D+00 EMaxC= 1.00D-01 BMatC= 1.49D-02 BMatP= 1.66D-01
 IDIUse=3 WtCom= 7.75D-01 WtEn= 2.25D-01
 Coeff-Com:  0.411D+00-0.950D+00 0.154D+01
 Coeff-En:   0.000D+00 0.000D+00 0.100D+01
 Coeff:      0.319D+00-0.736D+00 0.142D+01
 RMSDP=1.17D-02 MaxDP=5.45D-02 DE=-1.24D+00 OVMax= 0.00D+00

 Cycle   4  Pass 1  IDiag  1:
 E=  2.52325451963891     Delta-E=       -0.058918907888 Rises=F Damp=F
 DIIS: error= 5.70D-03 at cycle   4 NSaved=   4.
 NSaved= 4 IEnMin= 4 EnMin=  2.52325451963891     IErMin= 4 ErrMin= 5.70D-03
 ErrMax= 5.70D-03  0.00D+00 EMaxC= 1.00D-01 BMatC= 1.12D-03 BMatP= 1.49D-02
 IDIUse=3 WtCom= 9.43D-01 WtEn= 5.70D-02
 Coeff-Com: -0.700D-01 0.137D+00-0.408D+00 0.134D+01
 Coeff-En:   0.000D+00 0.000D+00 0.000D+00 0.100D+01
 Coeff:     -0.660D-01 0.129D+00-0.385D+00 0.132D+01
 RMSDP=3.92D-03 MaxDP=2.25D-02 DE=-5.89D-02 OVMax= 0.00D+00

 Cycle   5  Pass 1  IDiag  3:
 E=  2.51829414219465     Delta-E=       -0.004960377444 Rises=F Damp=F
 DIIS: error= 1.28D-03 at cycle   5 NSaved=   5.
 NSaved= 5 IEnMin= 5 EnMin=  2.51829414219465     IErMin= 5 ErrMin= 1.28D-03
 ErrMax= 1.28D-03  0.00D+00 EMaxC= 1.00D-01 BMatC= 4.42D-05 BMatP= 1.12D-03
 IDIUse=3 WtCom= 9.87D-01 WtEn= 1.28D-02
 Coeff-Com:  0.153D-01-0.264D-01 0.101D+00-0.501D+00 0.141D+01
 Coeff-En:   0.000D+00 0.000D+00 0.000D+00 0.000D+00 0.100D+01
 Coeff:      0.151D-01-0.261D-01 0.994D-01-0.494D+00 0.141D+01
 Gap=     0.422 Goal=   None    Shift=    0.000
 RMSDP=8.69D-04 MaxDP=5.81D-03 DE=-4.96D-03 OVMax= 6.29D-03

 Cycle   6  Pass 1  IDiag  3:
 E=  2.51807649084141     Delta-E=       -0.000217651353 Rises=F Damp=F
 DIIS: error= 2.30D-04 at cycle   6 NSaved=   6.
 NSaved= 6 IEnMin= 6 EnMin=  2.51807649084141     IErMin= 6 ErrMin= 2.30D-04
 ErrMax= 2.30D-04  0.00D+00 EMaxC= 1.00D-01 BMatC= 1.62D-06 BMatP= 4.42D-05
 IDIUse=3 WtCom= 9.98D-01 WtEn= 2.30D-03
 Coeff-Com: -0.175D-02 0.306D-02-0.236D-01 0.141D+00-0.550D+00 0.143D+01
 Coeff-En:   0.000D+00 0.000D+00 0.000D+00 0.000D+00 0.000D+00 0.100D+01
 Coeff:     -0.175D-02 0.305D-02-0.235D-01 0.140D+00-0.549D+00 0.143D+01
 Gap=     0.423 Goal=   None    Shift=    0.000
 RMSDP=1.67D-04 MaxDP=1.17D-03 DE=-2.18D-04 OVMax= 1.06D-03

 Cycle   7  Pass 1  IDiag  3:
 E=  2.51806915758274     Delta-E=       -0.000007333259 Rises=F Damp=F
 DIIS: error= 2.67D-05 at cycle   7 NSaved=   7.
 NSaved= 7 IEnMin= 7 EnMin=  2.51806915758274     IErMin= 7 ErrMin= 2.67D-05
 ErrMax= 2.67D-05  0.00D+00 EMaxC= 1.00D-01 BMatC= 2.82D-08 BMatP= 1.62D-06
 IDIUse=1 WtCom= 1.00D+00 WtEn= 0.00D+00
 Coeff-Com:  0.109D-03-0.124D-03 0.737D-02-0.485D-01 0.200D+00-0.573D+00
 Coeff-Com:  0.141D+01
 Coeff:      0.109D-03-0.124D-03 0.737D-02-0.485D-01 0.200D+00-0.573D+00
 Coeff:      0.141D+01
 Gap=     0.423 Goal=   None    Shift=    0.000
 RMSDP=1.96D-05 MaxDP=1.19D-04 DE=-7.33D-06 OVMax= 1.21D-04

 Cycle   8  Pass 1  IDiag  3:
 E=  2.51806903989223     Delta-E=       -0.000000117691 Rises=F Damp=F
 DIIS: error= 5.28D-06 at cycle   8 NSaved=   8.
 NSaved= 8 IEnMin= 8 EnMin=  2.51806903989223     IErMin= 8 ErrMin= 5.28D-06
 ErrMax= 5.28D-06  0.00D+00 EMaxC= 1.00D-01 BMatC= 5.73D-10 BMatP= 2.82D-08
 IDIUse=1 WtCom= 1.00D+00 WtEn= 0.00D+00
 Coeff-Com:  0.262D-04-0.865D-04-0.856D-03 0.655D-02-0.289D-01 0.840D-01
 Coeff-Com: -0.270D+00 0.121D+01
 Coeff:      0.262D-04-0.865D-04-0.856D-03 0.655D-02-0.289D-01 0.840D-01
 Coeff:     -0.270D+00 0.121D+01
 Gap=     0.423 Goal=   None    Shift=    0.000
 RMSDP=2.57D-06 MaxDP=2.04D-05 DE=-1.18D-07 OVMax= 1.59D-05

 Cycle   9  Pass 1  IDiag  3:
 E=  2.51806903753143     Delta-E=       -0.000000002361 Rises=F Damp=F
 DIIS: error= 1.38D-06 at cycle   9 NSaved=   9.
 NSaved= 9 IEnMin= 9 EnMin=  2.51806903753143     IErMin= 9 ErrMin= 1.38D-06
 ErrMax= 1.38D-06  0.00D+00 EMaxC= 1.00D-01 BMatC= 3.09D-11 BMatP= 5.73D-10
 IDIUse=1 WtCom= 1.00D+00 WtEn= 0.00D+00
 Coeff-Com:  0.215D-06 0.618D-05-0.282D-04 0.844D-04 0.225D-04 0.595D-03
 Coeff-Com:  0.733D-02-0.295D+00 0.129D+01
 Coeff:      0.215D-06 0.618D-05-0.282D-04 0.844D-04 0.225D-04 0.595D-03
 Coeff:      0.733D-02-0.295D+00 0.129D+01
 Gap=     0.423 Goal=   None    Shift=    0.000
 RMSDP=7.13D-07 MaxDP=5.67D-06 DE=-2.36D-09 OVMax= 4.72D-06

 Cycle  10  Pass 1  IDiag  3:
 E=  2.51806903738334     Delta-E=       -0.000000000148 Rises=F Damp=F
 DIIS: error= 2.79D-07 at cycle  10 NSaved=  10.
 NSaved=10 IEnMin=10 EnMin=  2.51806903738334     IErMin=10 ErrMin= 2.79D-07
 ErrMax= 2.79D-07  0.00D+00 EMaxC= 1.00D-01 BMatC= 1.60D-12 BMatP= 3.09D-11
 IDIUse=1 WtCom= 1.00D+00 WtEn= 0.00D+00
 Coeff-Com:  0.605D-06-0.241D-05-0.104D-05 0.126D-04-0.116D-03-0.150D-03
 Coeff-Com: -0.240D-02 0.114D+00-0.581D+00 0.147D+01
 Coeff:      0.605D-06-0.241D-05-0.104D-05 0.126D-04-0.116D-03-0.150D-03
 Coeff:     -0.240D-02 0.114D+00-0.581D+00 0.147D+01
 Gap=     0.423 Goal=   None    Shift=    0.000
 RMSDP=1.78D-07 MaxDP=1.47D-06 DE=-1.48D-10 OVMax= 1.67D-06

 Cycle  11  Pass 1  IDiag  3:
 E=  2.51806903737452     Delta-E=       -0.000000000009 Rises=F Damp=F
 DIIS: error= 8.76D-08 at cycle  11 NSaved=  11.
 NSaved=11 IEnMin=11 EnMin=  2.51806903737452     IErMin=11 ErrMin= 8.76D-08
 ErrMax= 8.76D-08  0.00D+00 EMaxC= 1.00D-01 BMatC= 1.37D-13 BMatP= 1.60D-12
 IDIUse=1 WtCom= 1.00D+00 WtEn= 0.00D+00
 Coeff-Com: -0.516D-06 0.107D-05-0.157D-05 0.203D-04-0.799D-04 0.548D-03
 Coeff-Com: -0.141D-04-0.565D-01 0.308D+00-0.975D+00 0.172D+01
 Coeff:     -0.516D-06 0.107D-05-0.157D-05 0.203D-04-0.799D-04 0.548D-03
 Coeff:     -0.141D-04-0.565D-01 0.308D+00-0.975D+00 0.172D+01
 Gap=     0.423 Goal=   None    Shift=    0.000
 RMSDP=6.86D-08 MaxDP=6.39D-07 DE=-8.82D-12 OVMax= 7.23D-07

 Cycle  12  Pass 1  IDiag  3:
 E=  2.51806903737351     Delta-E=       -0.000000000001 Rises=F Damp=F
 DIIS: error= 1.40D-08 at cycle  12 NSaved=  12.
 NSaved=12 IEnMin=12 EnMin=  2.51806903737351     IErMin=12 ErrMin= 1.40D-08
 ErrMax= 1.40D-08  0.00D+00 EMaxC= 1.00D-01 BMatC= 5.12D-15 BMatP= 1.37D-13
 IDIUse=1 WtCom= 1.00D+00 WtEn= 0.00D+00
 Coeff-Com:  0.433D-07-0.670D-07 0.205D-06-0.849D-05 0.385D-04-0.254D-03
 Coeff-Com:  0.155D-03 0.221D-01-0.123D+00 0.408D+00-0.851D+00 0.155D+01
 Coeff:      0.433D-07-0.670D-07 0.205D-06-0.849D-05 0.385D-04-0.254D-03
 Coeff:      0.155D-03 0.221D-01-0.123D+00 0.408D+00-0.851D+00 0.155D+01
 Gap=     0.423 Goal=   None    Shift=    0.000
 RMSDP=1.24D-08 MaxDP=1.10D-07 DE=-1.01D-12 OVMax= 1.21D-07

 Cycle  13  Pass 1  IDiag  3:
 E=  2.51806903737369     Delta-E=        0.000000000000 Rises=F Damp=F
 DIIS: error= 1.26D-09 at cycle  13 NSaved=  13.
 NSaved=13 IEnMin=12 EnMin=  2.51806903737351     IErMin=13 ErrMin= 1.26D-09
 ErrMax= 1.26D-09  0.00D+00 EMaxC= 1.00D-01 BMatC= 8.65D-17 BMatP= 5.12D-15
 IDIUse=1 WtCom= 1.00D+00 WtEn= 0.00D+00
 Coeff-Com:  0.490D-08-0.662D-08-0.622D-07 0.275D-05-0.121D-04 0.823D-04
 Coeff-Com: -0.550D-04-0.728D-02 0.408D-01-0.135D+00 0.283D+00-0.568D+00
 Coeff-Com:  0.139D+01
 Coeff:      0.490D-08-0.662D-08-0.622D-07 0.275D-05-0.121D-04 0.823D-04
 Coeff:     -0.550D-04-0.728D-02 0.408D-01-0.135D+00 0.283D+00-0.568D+00
 Coeff:      0.139D+01
 Gap=     0.423 Goal=   None    Shift=    0.000
 RMSDP=1.17D-09 MaxDP=6.25D-09 DE= 1.85D-13 OVMax= 6.99D-09

 Cycle  14  Pass 2  IDiag  1:
 SCF Done:  E(RAM1) =   2.51806903737     A.U. after   14 cycles
            NFock= 13  Conv=0.12D-08     -V/T= 1.1677
 KE=-1.501174040881D+01 PE=-1.679152987268D+02 EE= 8.214314416681D+01
 Leave Link  502 at Tue Dec 15 17:06:21 2015, MaxMem=    33554432 cpu:         0.0
 (Enter /home/Applications/g09/g09/l801.exe)
 Range of M.O.s used for correlation:     1    24
 NBasis=    24 NAE=    13 NBE=    13 NFC=     0 NFV=     0
 NROrb=     24 NOA=    13 NOB=    13 NVA=    11 NVB=    11
 Leave Link  801 at Tue Dec 15 17:06:21 2015, MaxMem=    33554432 cpu:         0.0
 (Enter /home/Applications/g09/g09/l914.exe)
 RHF ground state
 MDV=    33554432 DFT=F DoStab=F Mixed=F DoRPA=F DoScal=F NonHer=F
 Making orbital integer symmetry assigments:
 Orbital symmetries:
       Occupied  (A) (A) (A) (A) (A) (A) (A) (A) (A) (A) (A) (A)
                 (A)
       Virtual   (A) (A) (A) (A) (A) (A) (A) (A) (A) (A) (A)
    60 initial guesses have been made.
 Convergence on wavefunction:    0.000001000000000
 Davidson Disk Diagonalization:  ConvIn= 1.00D-06 SkipCon=T Conv= 1.00D-06.
 Max sub-space:   240 roots to seek:    60 dimension of matrix:          286
 Iteration     1 Dimension    60 NMult     0 NNew     60
 CISAX will form    60 AO SS matrices at one time.
 NMat=    60 NSing=    60 JSym2X= 0.
 FoFJK:  IHMeth= 8 ICntrl=       0 DoSepK=F KAlg= 0 I1Cent=   0 FoldK=F
 IRaf=         1 NMat= 120 IRICut=       1 DoRegI=T DoRafI=F ISym2E= 0.
 FoFCou: FMM=F IPFlag=           0 FMFlag=      100000 FMFlg1=           0
         NFxFlg=           0 DoJE=F BraDBF=F KetDBF=F FulRan=T
         wScrn=  0.000000 ICntrl=       0 IOpCl=  0 I1Cent=           0 NGrid=           0
         NMat0=  120 NMatS0=     60 NMatT0=    0 NMatD0=  120 NMtDS0=    0 NMtDT0=    0
 Symmetry not used in FoFCou.
 New state      5 was old state      7
 New state      6 was old state      8
 New state      7 was old state      6
 New state      8 was old state      5
 New state     11 was old state     16
 New state     12 was old state     11
 New state     14 was old state     12
 New state     15 was old state     14
 Excitation Energies [eV] at current iteration:
 Root      1 :     5.746493839763344
 Root      2 :     6.754351190287853
 Root      3 :     7.220816425755158
 Root      4 :     7.320366691937394
 Root      5 :     7.823815493054016
 Root      6 :     8.492889598248428
 Root      7 :     8.686289342855506
 Root      8 :     8.808999808983925
 Root      9 :     9.305949261883894
 Root     10 :     9.715530993353063
 Root     11 :     9.763109985681265
 Root     12 :     9.981214234873216
 Root     13 :    10.082632696549970
 Root     14 :    10.156038439598620
 Root     15 :    10.214183818764320
 Root     16 :    10.434592810539450
 Root     17 :    10.523206031472010
 Root     18 :    10.586695437822690
 Root     19 :    11.101985761515380
 Root     20 :    11.307916875057510
 Root     21 :    11.730460603746470
 Root     22 :    11.813162938046170
 Root     23 :    11.846001137721960
 Root     24 :    12.163801420374350
 Root     25 :    12.243451474180690
 Root     26 :    12.372014795070680
 Root     27 :    12.407168807501690
 Root     28 :    12.676467304399230
 Root     29 :    12.849935433479630
 Root     30 :    12.934283229671120
 Root     31 :    12.970394225471680
 Root     32 :    13.029043486092530
 Root     33 :    13.139377746269490
 Root     34 :    13.275668917704920
 Root     35 :    13.423435195481320
 Root     36 :    13.617729844265420
 Root     37 :    14.085151892656150
 Root     38 :    14.112432043010770
 Root     39 :    14.142526367832920
 Root     40 :    14.289682997249920
 Root     41 :    14.487653534188660
 Root     42 :    14.582529902830490
 Root     43 :    14.945647449055130
 Root     44 :    14.981305038799930
 Root     45 :    15.151007857656600
 Root     46 :    15.306030558763770
 Root     47 :    15.449879345774620
 Root     48 :    15.484351565982700
 Root     49 :    15.965370553387370
 Root     50 :    16.000364646667010
 Root     51 :    16.044334690649560
 Root     52 :    16.110013701665310
 Root     53 :    16.177718498442520
 Root     54 :    16.396420174340860
 Root     55 :    16.542294764860220
 Root     56 :    16.715164556187070
 Root     57 :    17.522634996420400
 Root     58 :    17.554833088859820
 Root     59 :    17.630690699241070
 Root     60 :    18.122219667344450
 Iteration     2 Dimension   120 NMult    60 NNew     60
 CISAX will form    60 AO SS matrices at one time.
 NMat=    60 NSing=    60 JSym2X= 0.
 Root      1 not converged, maximum delta is    0.020580691578637
 Root      2 not converged, maximum delta is    0.037844583546407
 Root      3 not converged, maximum delta is    0.028692640671706
 Root      4 not converged, maximum delta is    0.029992966047890
 Root      5 not converged, maximum delta is    0.016003250040783
 Root      6 not converged, maximum delta is    0.042244699540516
 Root      7 not converged, maximum delta is    0.033300070715427
 Root      8 not converged, maximum delta is    0.015895328507985
 Root      9 not converged, maximum delta is    0.046633825025180
 Root     10 not converged, maximum delta is    0.165297661100390
 Root     11 not converged, maximum delta is    0.115444114473753
 Root     12 not converged, maximum delta is    0.033320223294053
 Root     13 not converged, maximum delta is    0.069139383530169
 Root     14 not converged, maximum delta is    0.113371454934759
 Root     15 not converged, maximum delta is    0.115405060035948
 Excitation Energies [eV] at current iteration:
 Root      1 :     5.684476615817872   Change is   -0.062017223945472
 Root      2 :     6.714342056747091   Change is   -0.040009133540762
 Root      3 :     7.176935362120703   Change is   -0.043881063634455
 Root      4 :     7.284825268165972   Change is   -0.035541423771422
 Root      5 :     7.807025386811114   Change is   -0.016790106242902
 Root      6 :     8.446842142116918   Change is   -0.046047456131511
 Root      7 :     8.660015658051579   Change is   -0.026273684803927
 Root      8 :     8.791334112816916   Change is   -0.017665696167009
 Root      9 :     9.264153442736768   Change is   -0.041795819147126
 Root     10 :     9.445905005975716   Change is   -0.269625987377347
 Root     11 :     9.712929547155808   Change is   -0.050180438525457
 Root     12 :     9.940211347214506   Change is   -0.041002887658710
 Root     13 :    10.016722840066260   Change is   -0.065909856483707
 Root     14 :    10.076967587514910   Change is   -0.079070852083715
 Root     15 :    10.137923013849380   Change is   -0.076260804914940
 Root     16 :    10.330053514143160   Change is   -0.104539296396286
 Root     17 :    10.359592631999630   Change is   -0.227102805823055
 Root     18 :    10.507832929653650   Change is   -0.015373101818358
 Root     19 :    10.840316176689760   Change is   -0.261669584825619
 Root     20 :    11.012292807726010   Change is   -0.295624067331501
 Root     21 :    11.535078388020590   Change is   -0.195382215725873
 Root     22 :    11.659308027887460   Change is   -0.153854910158708
 Root     23 :    11.812117422109470   Change is   -0.033883715612492
 Root     24 :    11.975502195256570   Change is   -0.188299225117784
 Root     25 :    12.126180507403900   Change is   -0.117270966776793
 Root     26 :    12.196746880125150   Change is   -0.175267914945537
 Root     27 :    12.233981038216790   Change is   -0.173187769284896
 Root     28 :    12.558541822862020   Change is   -0.117925481537209
 Root     29 :    12.627728357620970   Change is   -0.306554872050150
 Root     30 :    12.699704711555650   Change is   -0.270689513916026
 Root     31 :    12.799277391224940   Change is   -0.050658042254689
 Root     32 :    12.911684447775550   Change is   -0.117359038316976
 Root     33 :    13.030120432780950   Change is   -0.109257313488536
 Root     34 :    13.086201876989330   Change is   -0.189467040715599
 Root     35 :    13.245635418377570   Change is   -0.177799777103744
 Root     36 :    13.495343805516340   Change is   -0.122386038749078
 Root     37 :    13.901890245998760   Change is   -0.183261646657391
 Root     38 :    13.912933628707010   Change is   -0.229592739125917
 Root     39 :    14.088604724840250   Change is   -0.023827318170520
 Root     40 :    14.219521873883640   Change is   -0.070161123366272
 Root     41 :    14.338843257649700   Change is   -0.148810276538963
 Root     42 :    14.439391717100540   Change is   -0.143138185729954
 Root     43 :    14.768520229018210   Change is   -0.681359116756406
 Root     44 :    14.799544965712960   Change is   -0.146102483342162
 Root     45 :    14.835927775588680   Change is   -0.145377263211250
 Root     46 :    15.008774219076730   Change is   -0.142233638579872
 Root     47 :    15.196002772766930   Change is   -0.110027785996837
 Root     48 :    15.271076594390210   Change is   -0.213274971592485
 Root     49 :    15.754211878222170   Change is   -0.211158675165197
 Root     50 :    15.760490296930850   Change is   -0.283844393718711
 Root     51 :    15.796740093422190   Change is   -0.203624553244818
 Root     52 :    15.942969785512780   Change is   -0.234748712929747
 Root     53 :    15.965104590910070   Change is   -0.144909110755232
 Root     54 :    16.291876335878630   Change is   -0.104543838462232
 Root     55 :    16.308239771314420   Change is   -0.234054993545793
 Root     56 :    16.491088855800020   Change is   -0.224075700387058
 Root     57 :    17.095825948795270
 Root     58 :    17.247567552489270   Change is   -0.307265536370550
 Root     59 :    17.283242392652300
 Root     60 :    17.370266477229750   Change is   -0.152368519190655
 Iteration     3 Dimension   135 NMult   120 NNew     15
 CISAX will form    15 AO SS matrices at one time.
 NMat=    15 NSing=    15 JSym2X= 0.
 Root      1 not converged, maximum delta is    0.001272979736836
 Root      2 not converged, maximum delta is    0.000095821339198
 Root      3 not converged, maximum delta is    0.000052698613969
 Root      4 not converged, maximum delta is    0.000215941878376
 Root      5 not converged, maximum delta is    0.000034877409025
 Root      6 not converged, maximum delta is    0.000120241725397
 Root      7 not converged, maximum delta is    0.000068086139016
 Root      8 not converged, maximum delta is    0.000546547153124
 Root      9 not converged, maximum delta is    0.000231150545166
 Root     10 not converged, maximum delta is    0.003157798680275
 Root     11 not converged, maximum delta is    0.000310648867234
 Root     12 not converged, maximum delta is    0.000678246965361
 Root     13 not converged, maximum delta is    0.001357067799430
 Root     14 not converged, maximum delta is    0.003226532562503
 Root     15 not converged, maximum delta is    0.003070398623051
 Excitation Energies [eV] at current iteration:
 Root      1 :     5.684155338419235   Change is   -0.000321277398637
 Root      2 :     6.714340125440908   Change is   -0.000001931306183
 Root      3 :     7.176934881863115   Change is   -0.000000480257588
 Root      4 :     7.284820837557396   Change is   -0.000004430608576
 Root      5 :     7.807024797303161   Change is   -0.000000589507953
 Root      6 :     8.446837727481707   Change is   -0.000004414635211
 Root      7 :     8.660014219621441   Change is   -0.000001438430138
 Root      8 :     8.791264200822939   Change is   -0.000069911993978
 Root      9 :     9.264145167357549   Change is   -0.000008275379218
 Root     10 :     9.444670113455896   Change is   -0.001234892519820
 Root     11 :     9.712920746251990   Change is   -0.000008800903818
 Root     12 :     9.940091627653104   Change is   -0.000119719561402
 Root     13 :    10.016452926380660   Change is   -0.000269913685601
 Root     14 :    10.076440309226240   Change is   -0.000527278288668
 Root     15 :    10.137573315647260   Change is   -0.000349698202123
 Iteration     4 Dimension   143 NMult   135 NNew      8
 CISAX will form     8 AO SS matrices at one time.
 NMat=     8 NSing=     8 JSym2X= 0.
 Root      1 not converged, maximum delta is    0.000066728111286
 Root      2 not converged, maximum delta is    0.000003313810968
 Root      3 not converged, maximum delta is    0.000001834160220
 Root      4 not converged, maximum delta is    0.000007926888404
 Root      5 not converged, maximum delta is    0.000002479364982
 Root      6 not converged, maximum delta is    0.000005790624845
 Root      7 not converged, maximum delta is    0.000003866544798
 Root      8 not converged, maximum delta is    0.000024145595894
 Root      9 not converged, maximum delta is    0.000008096281406
 Root     10 not converged, maximum delta is    0.000063556773151
 Root     11 not converged, maximum delta is    0.000011803888147
 Root     12 not converged, maximum delta is    0.000035740994053
 Root     13 not converged, maximum delta is    0.000062648641852
 Root     14 not converged, maximum delta is    0.000078352956990
 Root     15 not converged, maximum delta is    0.000067552049702
 Excitation Energies [eV] at current iteration:
 Root      1 :     5.684154446984079   Change is   -0.000000891435156
 Root      2 :     6.714340122717736   Change is   -0.000000002723173
 Root      3 :     7.176934881131135   Change is   -0.000000000731980
 Root      4 :     7.284820826720121   Change is   -0.000000010837275
 Root      5 :     7.807024796146179   Change is   -0.000000001156982
 Root      6 :     8.446837722026828   Change is   -0.000000005454878
 Root      7 :     8.660014216636966   Change is   -0.000000002984476
 Root      8 :     8.791264042331521   Change is   -0.000000158491417
 Root      9 :     9.264145156866077   Change is   -0.000000010491472
 Root     10 :     9.444668565142653   Change is   -0.000001548313242
 Root     11 :     9.712920720964414   Change is   -0.000000025287576
 Root     12 :     9.940091282050323   Change is   -0.000000345602780
 Root     13 :    10.016452308632300   Change is   -0.000000617748364
 Root     14 :    10.076438923492600   Change is   -0.000001385733639
 Root     15 :    10.137572406521590   Change is   -0.000000909125672
 Convergence achieved on expansion vectors.
 ***********************************************************************
 Excited states from <AA,BB:AA,BB> singles matrix:
 ***********************************************************************
 
 1PDM for each excited state written to RWF  633
 Ground to excited state transition densities written to RWF  633
 Ground to excited state transition electric dipole moments (Au):
       state          X           Y           Z        Dip. S.      Osc.
         1         1.0024     -1.1090      0.0147      2.2349      0.3112
         2         0.0392     -0.0531      0.1621      0.0306      0.0050
         3         0.0098     -0.0055      0.1159      0.0136      0.0024
         4         0.0745     -0.0870     -0.0332      0.0142      0.0025
         5        -0.0441      0.0103      0.1379      0.0211      0.0040
         6         0.0274     -0.0382      0.1142      0.0152      0.0032
         7        -0.0275      0.0052     -0.1414      0.0208      0.0044
         8        -0.5549     -0.4022      0.0215      0.4701      0.1013
         9         0.0516     -0.0715      0.0064      0.0078      0.0018
        10        -0.3389      0.4517      0.0143      0.3191      0.0738
        11         0.0164     -0.0489      0.1061      0.0139      0.0033
        12         0.1254     -0.2905     -0.1132      0.1129      0.0275
        13        -0.1360     -0.0308     -0.1042      0.0303      0.0074
        14        -0.3759      0.6289     -0.3407      0.6529      0.1612
        15         0.2856     -0.4450     -0.5281      0.5585      0.1387
 Ground to excited state transition velocity dipole moments (Au):
       state          X           Y           Z        Dip. S.      Osc.
         1        -0.1349      0.1496      0.0065      0.0406      0.1296
         2        -0.0093      0.0042     -0.1818      0.0331      0.0895
         3        -0.0031      0.0020     -0.0858      0.0074      0.0186
         4        -0.0160      0.0214     -0.0251      0.0013      0.0033
         5         0.0081      0.0001      0.0228      0.0006      0.0014
         6        -0.0055      0.0095      0.0058      0.0002      0.0003
         7         0.0026      0.0042     -0.0205      0.0004      0.0009
         8         0.1783      0.1402     -0.0032      0.0514      0.1061
         9        -0.0094      0.0160      0.0139      0.0005      0.0011
        10         0.0236     -0.0348     -0.0042      0.0018      0.0034
        11        -0.0037      0.0100     -0.0064      0.0002      0.0003
        12        -0.0245      0.0401     -0.0758      0.0080      0.0145
        13        -0.0212     -0.0413     -0.0293      0.0030      0.0055
        14         0.0664     -0.0896     -0.0664      0.0168      0.0303
        15        -0.0356      0.0798     -0.0353      0.0089      0.0159
 Ground to excited state transition magnetic dipole moments (Au):
       state          X           Y           Z
         1        -0.0408     -0.0206      0.5988
         2        -0.0906      0.3133      0.0197
         3        -0.4644     -0.0771      0.0140
         4         0.7551      0.3325      0.0845
         5        -0.2654      0.8038     -0.0052
         6        -0.6544     -0.1685      0.0248
         7         0.0445     -0.5916      0.0101
         8         0.0178     -0.0213     -0.0143
         9         0.1523      0.3829      0.0620
        10        -0.0033      0.0017     -0.2245
        11        -0.1621     -0.1437      0.0427
        12         0.2567      0.0891      0.0455
        13        -0.0563     -0.0271     -0.0279
        14         0.0179     -0.0569     -0.1624
        15        -0.1327     -0.1095      0.1102
 Ground to excited state transition velocity quadrupole moments (Au):
       state          XX          YY          ZZ          XY          XZ          YZ
         1        -0.3526      0.3322      0.0008      0.0426     -0.0002      0.0182
         2        -0.0132      0.0366     -0.0017      0.0000     -0.1817      0.0103
         3         0.0080      0.0003     -0.0004     -0.0101      0.1161     -0.2222
         4        -0.0200      0.0734      0.0033      0.0065      0.0898     -0.2199
         5        -0.0118     -0.0315     -0.0025      0.0044      0.1737      0.0529
         6        -0.0009      0.0366     -0.0036      0.0017      0.1786     -0.3747
         7        -0.0114     -0.0058      0.0055      0.0149      0.3517     -0.1375
         8         0.0617     -0.0006     -0.0122      0.2651     -0.0159     -0.0224
         9        -0.0300      0.0727      0.0014      0.0000     -0.0942      0.0065
        10         0.0897     -0.3083     -0.0188     -0.0149      0.0140     -0.0291
        11        -0.0047      0.0621      0.0013      0.0075      0.0977     -0.0964
        12        -0.1623     -0.0188     -0.0274      0.0543     -0.0837      0.2626
        13        -0.2685     -0.2576     -0.0997      0.1086      0.0655     -0.0723
        14         0.3099     -0.0371      0.0201     -0.0567      0.0194      0.0394
        15        -0.0813      0.1686      0.0245      0.0008      0.0570     -0.1178
 <0|del|b> * <b|rxdel|0> + <0|del|b> * <b|delr+rdel|0>
 Rotatory Strengths (R) in cgs (10**-40 erg-esu-cm/Gauss)
       state          XX          YY          ZZ    R(velocity)    E-M Angle
         1         1.8859     11.2856      8.1890      7.1202       87.01
         2        -2.1362     -4.0621      2.1380     -1.3534       91.37
         3        -0.9714      0.0988      1.1177      0.0817       90.00
         4         3.8334    -13.9136     -8.7323     -6.2708      103.56
         5         0.0291     -2.3945     -3.1016     -1.8223       96.20
         6        -3.5822      6.6202      1.8671      1.6351       75.15
         7        -4.9379     -0.1590     -0.5866     -1.8945      101.80
         8        -1.7072      0.0759      2.1337      0.1675       88.14
         9         8.8313     -0.6617      3.3753      3.8483       54.92
        10         1.4596      0.1220      0.0623      0.5480       85.12
        11        -2.7087      0.7366     -0.2116     -0.7279      113.66
        12        -0.6178    -11.6842      0.3522     -3.9833      104.54
        13         1.4062      6.4620     -1.8519      2.0054       33.56
        14        20.4107     10.3342      1.8395     10.8615       40.55
        15       -16.3239      4.8090     -3.4732     -4.9960      114.21
 1/2[<0|r|b>*<b|rxdel|0> + (<0|rxdel|b>*<b|r|0>)*]
 Rotatory Strengths (R) in cgs (10**-40 erg-esu-cm/Gauss)
       state          XX          YY          ZZ     R(length)
         1        28.9136    -16.1919     -6.2257      2.1653
         2         2.5082     11.7549     -2.2565      4.0022
         3         3.2126     -0.3001     -1.1475      0.5883
         4       -39.7705     20.4631      1.9815     -5.7753
         5        -8.2688     -5.8601      0.5077     -4.5404
         6        12.6793     -4.5576     -2.0003      2.0405
         7         0.8647      2.1631      1.0123      1.3467
         8         6.9711     -6.0554      0.2175      0.3777
         9        -5.5551     19.3721     -0.2797      4.5125
        10        -0.7794     -0.5587      2.2729      0.3116
        11         1.8827     -4.9668     -3.1996     -2.0946
        12       -22.7686     18.3070      3.6373     -0.2748
        13        -5.4153     -0.5902     -2.0534     -2.6863
        14         4.7496     25.2955    -39.1336     -3.0295
        15        26.8032    -34.4659     41.1618     11.1663
  1/2[<0|del|b>*<b|r|0> + (<0|r|b>*<b|del|0>)*] (Au)
       state          X           Y           Z        Dip. S.   Osc.(frdel)
         1        -0.1352     -0.1659      0.0001      0.3010      0.2007
         2        -0.0004     -0.0002     -0.0295      0.0301      0.0200
         3         0.0000      0.0000     -0.0099      0.0100      0.0067
         4        -0.0012     -0.0019      0.0008      0.0022      0.0015
         5        -0.0004      0.0000      0.0031     -0.0028     -0.0019
         6        -0.0002     -0.0004      0.0007     -0.0001     -0.0001
         7        -0.0001      0.0000      0.0029     -0.0028     -0.0019
         8        -0.0989     -0.0564     -0.0001      0.1554      0.1036
         9        -0.0005     -0.0011      0.0001      0.0015      0.0010
        10        -0.0080     -0.0157     -0.0001      0.0238      0.0159
        11        -0.0001     -0.0005     -0.0007      0.0012      0.0008
        12        -0.0031     -0.0116      0.0086      0.0061      0.0041
        13         0.0029      0.0013      0.0031     -0.0072     -0.0048
        14        -0.0250     -0.0563      0.0226      0.0587      0.0391
        15        -0.0102     -0.0355      0.0186      0.0270      0.0180

 Excitation energies and oscillator strengths:
 
 Excited State   1:      Singlet-A      5.6842 eV  218.12 nm  f=0.3112  <S**2>=0.000
      13 -> 14         0.68998
 This state for optimization and/or second-order correction.
 Total Energy, E(CIS) =   2.72695787875    
 Copying the excited state density for this state as the 1-particle RhoCI density.
 
 Excited State   2:      Singlet-A      6.7143 eV  184.66 nm  f=0.0050  <S**2>=0.000
      11 -> 15         0.10212
      13 -> 15         0.63978
      13 -> 16         0.16616
      13 -> 17        -0.18250
 
 Excited State   3:      Singlet-A      7.1769 eV  172.75 nm  f=0.0024  <S**2>=0.000
      13 -> 15        -0.15697
      13 -> 16         0.63528
      13 -> 19         0.17581
 
 Excited State   4:      Singlet-A      7.2848 eV  170.20 nm  f=0.0025  <S**2>=0.000
       9 -> 14         0.12235
      12 -> 14         0.68437
 
 Excited State   5:      Singlet-A      7.8070 eV  158.81 nm  f=0.0040  <S**2>=0.000
      10 -> 14         0.59117
      11 -> 14         0.36769
 
 Excited State   6:      Singlet-A      8.4468 eV  146.78 nm  f=0.0032  <S**2>=0.000
      11 -> 15        -0.12941
      13 -> 15        -0.10954
      13 -> 17        -0.37203
      13 -> 18         0.44653
      13 -> 21        -0.33385
 
 Excited State   7:      Singlet-A      8.6600 eV  143.17 nm  f=0.0044  <S**2>=0.000
      11 -> 16        -0.14600
      13 -> 17         0.52003
      13 -> 18         0.35490
      13 -> 21        -0.20459
 
 Excited State   8:      Singlet-A      8.7913 eV  141.03 nm  f=0.1013  <S**2>=0.000
      10 -> 14        -0.37064
      11 -> 14         0.58584
 
 Excited State   9:      Singlet-A      9.2641 eV  133.83 nm  f=0.0018  <S**2>=0.000
      11 -> 15         0.14220
      11 -> 16         0.16393
      13 -> 17        -0.11082
      13 -> 18         0.17687
      13 -> 19         0.58589
      13 -> 21         0.16478
 
 Excited State  10:      Singlet-A      9.4447 eV  131.27 nm  f=0.0738  <S**2>=0.000
       8 -> 15        -0.11471
       9 -> 15         0.13075
       9 -> 16        -0.11050
       9 -> 19        -0.10031
      10 -> 15        -0.25898
      10 -> 16        -0.23688
      10 -> 17         0.21761
      11 -> 15        -0.11629
      11 -> 16        -0.13978
      11 -> 17         0.11236
      12 -> 15         0.31148
      12 -> 17        -0.13470
      12 -> 18         0.22059
      13 -> 14        -0.10931
 
 Excited State  11:      Singlet-A      9.7129 eV  127.65 nm  f=0.0033  <S**2>=0.000
      13 -> 18         0.36170
      13 -> 19        -0.23633
      13 -> 21         0.53325
 
 Excited State  12:      Singlet-A      9.9401 eV  124.73 nm  f=0.0275  <S**2>=0.000
      10 -> 15        -0.13199
      11 -> 15         0.58538
      12 -> 15         0.11332
      13 -> 15        -0.15534
      13 -> 16         0.11316
      13 -> 19        -0.14974
 
 Excited State  13:      Singlet-A     10.0165 eV  123.78 nm  f=0.0074  <S**2>=0.000
       9 -> 15        -0.12191
      10 -> 15         0.34541
      10 -> 19        -0.12772
      11 -> 15         0.12169
      11 -> 16        -0.14606
      12 -> 15         0.23170
      12 -> 16         0.40336
      12 -> 17        -0.13979
      13 -> 20         0.14703
 
 Excited State  14:      Singlet-A     10.0764 eV  123.04 nm  f=0.1612  <S**2>=0.000
       8 -> 15         0.12417
      10 -> 15        -0.33093
      12 -> 15        -0.34115
      12 -> 16         0.28473
      12 -> 19         0.11874
      13 -> 20         0.34934
 
 Excited State  15:      Singlet-A     10.1376 eV  122.30 nm  f=0.1387  <S**2>=0.000
      10 -> 16         0.17216
      11 -> 16        -0.15993
      12 -> 15         0.13584
      12 -> 16        -0.27869
      12 -> 19        -0.11961
      13 -> 20         0.51511
 SavETr:  write IOETrn=   770 NScale= 10 NData=  16 NLR=1 NState=   15 LETran=     280.
 The selected state is a singlet
 CISAX will form     1 AO SS matrices at one time.
 NMat=     1 NSing=     1 JSym2X= 0.
 Leave Link  914 at Tue Dec 15 17:06:21 2015, MaxMem=    33554432 cpu:         0.1
 (Enter /home/Applications/g09/g09/l1002.exe)
 Minotr:  Closed shell wavefunction.
          Computing CIS/TD-HF/TD-KS derivatives.
          Using Z-Vector for PSCF gradient.
          Skipping F1 and S1 gradient terms here.
          IDoAtm=111111111
          Direct CPHF calculation.
          Differentiating once with respect to electric field.
                with respect to dipole field.
          Differentiating once with respect to nuclear coordinates.
          Electric field/nuclear overlap derivatives assumed to be zero.
          Requested convergence is 1.0D-10 RMS, and 1.0D-09 maximum.
          NewPWx=T KeepS1=F KeepF1=F KeepIn=T MapXYZ=F SortEE=F KeepMc=T.
          MDV=      33495423 using IRadAn=       0.
 Keep J ints in memory in canonical form, NReq=871704.
 FoFCou: FMM=F IPFlag=           0 FMFlag=           0 FMFlg1=           0
         NFxFlg=           0 DoJE=F BraDBF=F KetDBF=F FulRan=T
         wScrn=  0.000000 ICntrl=     600 IOpCl=  2 I1Cent=           0 NGrid=           0
         NMat0=    1 NMatS0=     54 NMatT0=    0 NMatD0=    1 NMtDS0=    0 NMtDT0=    0
 Symmetry not used in FoFCou.
          Solving linear equations separately, MaxMat=       0.
          There are     1 degrees of freedom in the 1st order CPHF.  IDoFFX=0 NUNeed=     1.
 LinEq1:  Iter=  0 NonCon=     1 RMS=6.49D-03 Max=4.04D-02 NDo=     1
 AX will form     1 AO Fock derivatives at one time.
 LinEq1:  Iter=  1 NonCon=     1 RMS=5.24D-04 Max=1.87D-03 NDo=     1
 LinEq1:  Iter=  2 NonCon=     1 RMS=4.93D-05 Max=1.37D-04 NDo=     1
 LinEq1:  Iter=  3 NonCon=     1 RMS=4.59D-06 Max=1.68D-05 NDo=     1
 LinEq1:  Iter=  4 NonCon=     1 RMS=7.15D-07 Max=4.41D-06 NDo=     1
 LinEq1:  Iter=  5 NonCon=     1 RMS=9.51D-08 Max=4.16D-07 NDo=     1
 LinEq1:  Iter=  6 NonCon=     1 RMS=1.67D-08 Max=1.03D-07 NDo=     1
 LinEq1:  Iter=  7 NonCon=     1 RMS=2.24D-09 Max=7.67D-09 NDo=     1
 LinEq1:  Iter=  8 NonCon=     1 RMS=2.75D-10 Max=1.14D-09 NDo=     1
 LinEq1:  Iter=  9 NonCon=     0 RMS=2.84D-11 Max=1.22D-10 NDo=     1
 Linear equations converged to 1.000D-10 1.000D-09 after     9 iterations.
 End of Minotr F.D. properties file   721 does not exist.
 End of Minotr F.D. properties file   722 does not exist.
 End of Minotr F.D. properties file   788 does not exist.
 Leave Link 1002 at Tue Dec 15 17:06:21 2015, MaxMem=    33554432 cpu:         0.0
 (Enter /home/Applications/g09/g09/l601.exe)
 Copying SCF densities to generalized density rwf, IOpCl= 0 IROHF=0.

 **********************************************************************

            Population analysis using the SCF density.

 **********************************************************************

 Orbital symmetries:
       Occupied  (A) (A) (A) (A) (A) (A) (A) (A) (A) (A) (A) (A)
                 (A)
       Virtual   (A) (A) (A) (A) (A) (A) (A) (A) (A) (A) (A)
 The electronic state is 1-A.
 Alpha  occ. eigenvalues --   -1.71970  -1.15542  -0.94360  -0.80112  -0.76793
 Alpha  occ. eigenvalues --   -0.67452  -0.63283  -0.54505  -0.50331  -0.43249
 Alpha  occ. eigenvalues --   -0.42739  -0.41577  -0.30125
 Alpha virt. eigenvalues --    0.12143   0.18101   0.20406   0.25229   0.27347
 Alpha virt. eigenvalues --    0.29038   0.30898   0.32608   0.38612   0.48091
 Alpha virt. eigenvalues --    0.52193
     Molecular Orbital Coefficients:
                           1         2         3         4         5
                           O         O         O         O         O
     Eigenvalues --    -1.71970  -1.15542  -0.94360  -0.80112  -0.76793
   1 1   C  1S          0.11410   0.48602   0.21697  -0.29377  -0.13307
   2        1PX        -0.05071   0.04687  -0.22494   0.11042  -0.36457
   3        1PY        -0.12661  -0.18471   0.07343  -0.19329  -0.03921
   4        1PZ         0.00134   0.00518   0.00434  -0.00732  -0.00620
   5 2   C  1S          0.27878   0.19023   0.53023   0.14729   0.36665
   6        1PX         0.07816   0.28784  -0.08946  -0.29722  -0.13438
   7        1PY        -0.27237   0.11859  -0.00337  -0.41044   0.13222
   8        1PZ         0.00150  -0.00052   0.00293  -0.00087  -0.00539
   9 3   O  1S          0.77511  -0.32696  -0.01333  -0.01007  -0.27484
  10        1PX         0.06115   0.09988  -0.15865  -0.17793   0.11530
  11        1PY         0.05319   0.09210   0.18170   0.20050   0.04707
  12        1PZ        -0.00029  -0.00061   0.00034  -0.00276  -0.00310
  13 4   C  1S          0.28347   0.19836  -0.50249  -0.06882   0.42559
  14        1PX        -0.26856   0.16916   0.01675   0.47211   0.00571
  15        1PY         0.11039   0.28185   0.08083   0.18462  -0.19850
  16        1PZ        -0.00238  -0.00311   0.00685  -0.00321  -0.01141
  17 5   C  1S          0.10860   0.48781  -0.22360   0.26802  -0.17148
  18        1PX        -0.13098  -0.18291  -0.03552   0.16645  -0.11208
  19        1PY        -0.03029   0.06274   0.21505  -0.20442  -0.33918
  20        1PZ         0.00075   0.00296  -0.00024   0.00092  -0.00453
  21 6   H  1S          0.00879   0.14778  -0.12269   0.21411  -0.13200
  22 7   H  1S          0.05854   0.02081  -0.26460  -0.02261   0.30823
  23 8   H  1S          0.06949   0.02245   0.30434   0.10717   0.29174
  24 9   H  1S          0.01104   0.15306   0.12179  -0.22966  -0.10717
                           6         7         8         9        10
                           O         O         O         O         O
     Eigenvalues --    -0.67452  -0.63283  -0.54505  -0.50331  -0.43249
   1 1   C  1S         -0.20272  -0.02627   0.14068  -0.04865  -0.07455
   2        1PX        -0.14028  -0.01170  -0.11376  -0.39236  -0.23720
   3        1PY        -0.28282  -0.00997   0.04677   0.07766  -0.18149
   4        1PZ        -0.03304   0.38861   0.01143  -0.00014  -0.10636
   5 2   C  1S         -0.04611  -0.00165   0.07661  -0.10886   0.15344
   6        1PX         0.30118   0.01145   0.44747   0.25204   0.26234
   7        1PY        -0.27147  -0.01750  -0.36969   0.45367   0.06352
   8        1PZ        -0.03539   0.54839   0.00927  -0.00986  -0.32828
   9 3   O  1S         -0.22737  -0.02127   0.03373   0.32556  -0.05921
  10        1PX         0.15521   0.01562  -0.12855  -0.10301   0.08580
  11        1PY         0.15615   0.01332   0.12118  -0.11838   0.00016
  12        1PZ        -0.01355   0.23314   0.00070  -0.00123   0.00188
  13 4   C  1S         -0.05996   0.01348  -0.08859  -0.10301  -0.07982
  14        1PX        -0.19988  -0.01660   0.39580   0.38576  -0.26251
  15        1PY         0.34613   0.03337  -0.43726   0.28212  -0.15213
  16        1PZ        -0.02938   0.57820   0.00579   0.00144   0.32536
  17 5   C  1S         -0.19944  -0.01546  -0.14765  -0.01982   0.06458
  18        1PX        -0.28075  -0.01348  -0.01508   0.04538   0.47374
  19        1PY        -0.09932  -0.01963   0.01229  -0.40127   0.10288
  20        1PZ        -0.02678   0.39280   0.00566   0.00597   0.08979
  21 6   H  1S         -0.27621  -0.01044  -0.08728   0.02439   0.41935
  22 7   H  1S         -0.26260  -0.02046   0.30890  -0.13399  -0.02880
  23 8   H  1S         -0.25804  -0.01042  -0.31565  -0.06695  -0.04289
  24 9   H  1S         -0.29118  -0.00580   0.09557  -0.01407  -0.22098
                          11        12        13        14        15
                           O         O         O         V         V
     Eigenvalues --    -0.42739  -0.41577  -0.30125   0.12143   0.18101
   1 1   C  1S         -0.05220  -0.02305  -0.01183  -0.01626  -0.11035
   2        1PX        -0.13976  -0.05131  -0.00174  -0.00472   0.03093
   3        1PY        -0.02863   0.57123  -0.03837  -0.03580   0.13208
   4        1PZ         0.17269  -0.00205   0.58448   0.67961   0.01710
   5 2   C  1S          0.08748   0.04268  -0.00307  -0.00007  -0.00928
   6        1PX         0.15332   0.01951  -0.00506  -0.00118   0.08281
   7        1PY        -0.00104  -0.31682   0.00906   0.00227   0.07152
   8        1PZ         0.59954  -0.11063  -0.36772  -0.19528  -0.00664
   9 3   O  1S         -0.05161  -0.14987   0.00243  -0.00037   0.02221
  10        1PX         0.06401   0.11699  -0.00213  -0.00058   0.06185
  11        1PY         0.01985   0.14122  -0.00576  -0.00335   0.10072
  12        1PZ         0.00017  -0.01431  -0.19773   0.00275   0.00154
  13 4   C  1S         -0.03215   0.16678  -0.01187  -0.00400  -0.12619
  14        1PX        -0.16475  -0.13474  -0.00177  -0.00471   0.00631
  15        1PY        -0.04161   0.26696  -0.01015  -0.01390   0.52641
  16        1PZ        -0.58324   0.04829  -0.36482   0.18816   0.00654
  17 5   C  1S          0.02524  -0.07998  -0.00293   0.01316  -0.13287
  18        1PX         0.29386   0.22882  -0.01207   0.00955   0.15682
  19        1PY         0.01325  -0.28670   0.01630  -0.01278   0.30323
  20        1PZ        -0.15571   0.03043   0.59027  -0.67935  -0.01549
  21 6   H  1S          0.24772   0.13820   0.00045  -0.00768  -0.07873
  22 7   H  1S         -0.03491  -0.12368   0.00408  -0.01165   0.70222
  23 8   H  1S         -0.03763  -0.10617   0.00258  -0.00045   0.06362
  24 9   H  1S         -0.06206   0.43852  -0.00960   0.02508  -0.10794
                          16        17        18        19        20
                           V         V         V         V         V
     Eigenvalues --     0.20406   0.25229   0.27347   0.29038   0.30898
   1 1   C  1S         -0.13672  -0.02739   0.08845   0.03407   0.37876
   2        1PX         0.41368  -0.09676  -0.07539   0.47967  -0.27899
   3        1PY         0.11409  -0.27913   0.44969   0.15410   0.22994
   4        1PZ         0.00476  -0.02070   0.03416   0.00931   0.01767
   5 2   C  1S         -0.04696  -0.31751  -0.07385   0.39036  -0.27286
   6        1PX         0.53269   0.05784   0.02957   0.04567  -0.06020
   7        1PY        -0.01830  -0.14306  -0.06410   0.19313  -0.23736
   8        1PZ        -0.00547   0.00273  -0.00476  -0.00316  -0.00140
   9 3   O  1S          0.02246  -0.02782   0.00319  -0.00325  -0.04998
  10        1PX         0.09105   0.02974  -0.00998   0.00232  -0.08160
  11        1PY         0.02470   0.01334   0.02079  -0.03611  -0.07209
  12        1PZ        -0.00394   0.00169  -0.00186   0.00198   0.00400
  13 4   C  1S          0.06979  -0.36521   0.09419  -0.33735  -0.19169
  14        1PX         0.09587  -0.17664   0.08739  -0.21406  -0.20182
  15        1PY        -0.07721  -0.02542  -0.01020  -0.05807  -0.04768
  16        1PZ        -0.00108   0.00379   0.00268   0.00329   0.00098
  17 5   C  1S         -0.05768  -0.07389  -0.14822   0.06192   0.39013
  18        1PX         0.14561  -0.30352  -0.45287  -0.13381   0.15028
  19        1PY        -0.06648  -0.28389   0.18125  -0.47632  -0.21117
  20        1PZ         0.00284   0.00265  -0.02488   0.00170   0.00472
  21 6   H  1S         -0.16251   0.37504   0.51206   0.05858  -0.32700
  22 7   H  1S         -0.16904   0.24888  -0.07281   0.17164   0.10156
  23 8   H  1S          0.62376   0.34290   0.08581  -0.25952   0.18139
  24 9   H  1S         -0.09138   0.34854  -0.46913  -0.19987  -0.35698
                          21        22        23        24
                           V         V         V         V
     Eigenvalues --     0.32608   0.38612   0.48091   0.52193
   1 1   C  1S          0.58116  -0.00211   0.06547  -0.02052
   2        1PX         0.19373   0.00118  -0.01205   0.04051
   3        1PY        -0.25658  -0.00096   0.03715  -0.00423
   4        1PZ         0.01069   0.02390   0.00133  -0.00024
   5 2   C  1S         -0.11886   0.00025  -0.14532  -0.15913
   6        1PX        -0.14154   0.00162  -0.15522   0.06798
   7        1PY        -0.04917  -0.00030   0.16743   0.22516
   8        1PZ        -0.00010  -0.21183  -0.00122  -0.00088
   9 3   O  1S          0.00163   0.00028   0.15570  -0.00556
  10        1PX        -0.00809  -0.00360   0.65756  -0.62235
  11        1PY         0.00520   0.00575   0.61774   0.66339
  12        1PZ        -0.00006   0.95186  -0.00084  -0.00643
  13 4   C  1S          0.14242   0.00144  -0.14552   0.17109
  14        1PX         0.07938   0.00169   0.13700  -0.23757
  15        1PY         0.13384  -0.00148  -0.17658  -0.04063
  16        1PZ        -0.00101  -0.21826   0.00106   0.00000
  17 5   C  1S         -0.56236  -0.00210   0.06556   0.02055
  18        1PX         0.28103  -0.00107   0.02646  -0.00393
  19        1PY        -0.20955   0.00170  -0.02021  -0.04069
  20        1PZ        -0.00531   0.02826   0.00070   0.00066
  21 6   H  1S          0.10690   0.00141  -0.03889   0.00302
  22 7   H  1S         -0.01698  -0.00215  -0.03560   0.00973
  23 8   H  1S          0.00498   0.00092  -0.03903  -0.01530
  24 9   H  1S         -0.16341   0.00132  -0.04336  -0.00173
     Density Matrix:
                           1         2         3         4         5
   1 1   C  1S          0.94644
   2        1PX         0.08455   0.93123
   3        1PY         0.07284  -0.00799   1.08855
   4        1PZ        -0.00652  -0.00065  -0.00479   1.07028
   5 2   C  1S          0.31152  -0.50444  -0.14403  -0.00203   1.20809
   6        1PX         0.39197  -0.46202  -0.18474  -0.00126  -0.03297
   7        1PY         0.22546  -0.33948  -0.02290  -0.00138  -0.27238
   8        1PZ        -0.00770   0.00573  -0.00393   0.27638   0.00151
   9 3   O  1S          0.02452  -0.04607  -0.01622  -0.00048   0.00445
  10        1PX         0.00133  -0.05326  -0.03305   0.00086  -0.02811
  11        1PY         0.02331  -0.06745  -0.03706   0.00150   0.39647
  12        1PZ         0.00053   0.00185   0.00268  -0.04924  -0.00167
  13 4   C  1S         -0.01683   0.03767   0.00600  -0.00205  -0.00902
  14        1PX         0.04985  -0.01622  -0.01375   0.00085  -0.05008
  15        1PY         0.00099   0.00101  -0.00617   0.00170  -0.02825
  16        1PZ         0.00614   0.00173   0.00921  -0.24564   0.00099
  17 5   C  1S          0.32364   0.39551  -0.35051  -0.00872  -0.02021
  18        1PX        -0.29677  -0.15281   0.27823  -0.01020   0.01669
  19        1PY         0.43767   0.43164  -0.24980   0.00425   0.03388
  20        1PZ        -0.01765  -0.00809  -0.02676   0.92426  -0.00173
  21 6   H  1S         -0.00741   0.00778  -0.00373   0.00344   0.08794
  22 7   H  1S          0.07106   0.03044  -0.04894   0.00248   0.05458
  23 8   H  1S          0.06717  -0.09217  -0.04303  -0.00079   0.57675
  24 9   H  1S          0.53367   0.13420   0.81279   0.03684   0.05070
                           6         7         8         9        10
   6        1PX         1.30140
   7        1PY        -0.01078   1.59037
   8        1PZ         0.00695   0.00303   1.83376
   9 3   O  1S          0.01925  -0.08185   0.00091   1.94287
  10        1PX         0.16634   0.02136   0.00011  -0.22491   0.32091
  11        1PY         0.05187  -0.53236   0.00510  -0.19743  -0.01548
  12        1PZ         0.00168   0.00475   0.40430   0.00028   0.00099
  13 4   C  1S         -0.03718  -0.04680  -0.00166   0.00694   0.40343
  14        1PX         0.00462   0.01908  -0.00017  -0.08210  -0.51251
  15        1PY        -0.01325   0.00373  -0.00085   0.02768   0.12654
  16        1PZ         0.00048  -0.00179  -0.01887   0.00001  -0.00340
  17 5   C  1S          0.00048   0.05147   0.00242   0.02638   0.02202
  18        1PX        -0.00056  -0.01848   0.00398  -0.02255  -0.04690
  19        1PY         0.00071  -0.01552  -0.00146  -0.04513  -0.06462
  20        1PZ        -0.00195   0.00351  -0.25375   0.00063   0.00074
  21 6   H  1S          0.08554   0.02261  -0.00301   0.00789   0.03025
  22 7   H  1S          0.01865  -0.05693   0.00125   0.01322   0.00207
  23 8   H  1S         -0.68290   0.32964   0.00558   0.01610  -0.07695
  24 9   H  1S          0.01851  -0.04146  -0.00085   0.00834  -0.00516
                          11        12        13        14        15
  11        1PY         0.32075
  12        1PZ        -0.00074   0.18773
  13 4   C  1S         -0.07294   0.00465   1.23131
  14        1PX         0.09559  -0.00189  -0.28057   1.56769
  15        1PY         0.15841   0.00052  -0.00620  -0.03545   1.31920
  16        1PZ         0.00139   0.41442   0.00939   0.00518  -0.00110
  17 5   C  1S         -0.00384   0.00051   0.31217   0.27773   0.34431
  18        1PX        -0.03018   0.00134  -0.22072  -0.10825  -0.23444
  19        1PY        -0.04159   0.00001  -0.49040  -0.39287  -0.37041
  20        1PZ        -0.00182  -0.05012   0.00124   0.00204  -0.00007
  21 6   H  1S         -0.00746  -0.00067   0.05157  -0.03671   0.02062
  22 7   H  1S         -0.07848  -0.00188   0.54213   0.25564  -0.73219
  23 8   H  1S          0.01953   0.00144   0.05019  -0.04951   0.01932
  24 9   H  1S          0.02828  -0.00243   0.09147   0.03158   0.07941
                          16        17        18        19        20
  16        1PZ         1.83375
  17 5   C  1S         -0.00535   0.94881
  18        1PX         0.00002   0.09119   1.07342
  19        1PY         0.00578   0.07743  -0.02914   0.94514
  20        1PZ         0.26828  -0.00275  -0.00187   0.00431   1.07351
  21 6   H  1S         -0.00085   0.54085   0.81958   0.01443   0.01553
  22 7   H  1S         -0.00889   0.06726  -0.05875  -0.08229   0.00038
  23 8   H  1S         -0.00053   0.06693  -0.04055   0.03657  -0.00049
  24 9   H  1S         -0.00599  -0.00219  -0.00541   0.01035   0.00836
                          21        22        23        24
  21 6   H  1S          0.88234
  22 7   H  1S         -0.00954   0.73900
  23 8   H  1S          0.01269   0.01327   0.75980
  24 9   H  1S         -0.00578   0.01201  -0.00681   0.88367
    Full Mulliken population analysis:
                           1         2         3         4         5
   1 1   C  1S          0.94644
   2        1PX         0.00000   0.93123
   3        1PY         0.00000   0.00000   1.08855
   4        1PZ         0.00000   0.00000   0.00000   1.07028
   5 2   C  1S          0.00000   0.00000   0.00000   0.00000   1.20809
   6        1PX         0.00000   0.00000   0.00000   0.00000   0.00000
   7        1PY         0.00000   0.00000   0.00000   0.00000   0.00000
   8        1PZ         0.00000   0.00000   0.00000   0.00000   0.00000
   9 3   O  1S          0.00000   0.00000   0.00000   0.00000   0.00000
  10        1PX         0.00000   0.00000   0.00000   0.00000   0.00000
  11        1PY         0.00000   0.00000   0.00000   0.00000   0.00000
  12        1PZ         0.00000   0.00000   0.00000   0.00000   0.00000
  13 4   C  1S          0.00000   0.00000   0.00000   0.00000   0.00000
  14        1PX         0.00000   0.00000   0.00000   0.00000   0.00000
  15        1PY         0.00000   0.00000   0.00000   0.00000   0.00000
  16        1PZ         0.00000   0.00000   0.00000   0.00000   0.00000
  17 5   C  1S          0.00000   0.00000   0.00000   0.00000   0.00000
  18        1PX         0.00000   0.00000   0.00000   0.00000   0.00000
  19        1PY         0.00000   0.00000   0.00000   0.00000   0.00000
  20        1PZ         0.00000   0.00000   0.00000   0.00000   0.00000
  21 6   H  1S          0.00000   0.00000   0.00000   0.00000   0.00000
  22 7   H  1S          0.00000   0.00000   0.00000   0.00000   0.00000
  23 8   H  1S          0.00000   0.00000   0.00000   0.00000   0.00000
  24 9   H  1S          0.00000   0.00000   0.00000   0.00000   0.00000
                           6         7         8         9        10
   6        1PX         1.30140
   7        1PY         0.00000   1.59037
   8        1PZ         0.00000   0.00000   1.83376
   9 3   O  1S          0.00000   0.00000   0.00000   1.94287
  10        1PX         0.00000   0.00000   0.00000   0.00000   0.32091
  11        1PY         0.00000   0.00000   0.00000   0.00000   0.00000
  12        1PZ         0.00000   0.00000   0.00000   0.00000   0.00000
  13 4   C  1S          0.00000   0.00000   0.00000   0.00000   0.00000
  14        1PX         0.00000   0.00000   0.00000   0.00000   0.00000
  15        1PY         0.00000   0.00000   0.00000   0.00000   0.00000
  16        1PZ         0.00000   0.00000   0.00000   0.00000   0.00000
  17 5   C  1S          0.00000   0.00000   0.00000   0.00000   0.00000
  18        1PX         0.00000   0.00000   0.00000   0.00000   0.00000
  19        1PY         0.00000   0.00000   0.00000   0.00000   0.00000
  20        1PZ         0.00000   0.00000   0.00000   0.00000   0.00000
  21 6   H  1S          0.00000   0.00000   0.00000   0.00000   0.00000
  22 7   H  1S          0.00000   0.00000   0.00000   0.00000   0.00000
  23 8   H  1S          0.00000   0.00000   0.00000   0.00000   0.00000
  24 9   H  1S          0.00000   0.00000   0.00000   0.00000   0.00000
                          11        12        13        14        15
  11        1PY         0.32075
  12        1PZ         0.00000   0.18773
  13 4   C  1S          0.00000   0.00000   1.23131
  14        1PX         0.00000   0.00000   0.00000   1.56769
  15        1PY         0.00000   0.00000   0.00000   0.00000   1.31920
  16        1PZ         0.00000   0.00000   0.00000   0.00000   0.00000
  17 5   C  1S          0.00000   0.00000   0.00000   0.00000   0.00000
  18        1PX         0.00000   0.00000   0.00000   0.00000   0.00000
  19        1PY         0.00000   0.00000   0.00000   0.00000   0.00000
  20        1PZ         0.00000   0.00000   0.00000   0.00000   0.00000
  21 6   H  1S          0.00000   0.00000   0.00000   0.00000   0.00000
  22 7   H  1S          0.00000   0.00000   0.00000   0.00000   0.00000
  23 8   H  1S          0.00000   0.00000   0.00000   0.00000   0.00000
  24 9   H  1S          0.00000   0.00000   0.00000   0.00000   0.00000
                          16        17        18        19        20
  16        1PZ         1.83375
  17 5   C  1S          0.00000   0.94881
  18        1PX         0.00000   0.00000   1.07342
  19        1PY         0.00000   0.00000   0.00000   0.94514
  20        1PZ         0.00000   0.00000   0.00000   0.00000   1.07351
  21 6   H  1S          0.00000   0.00000   0.00000   0.00000   0.00000
  22 7   H  1S          0.00000   0.00000   0.00000   0.00000   0.00000
  23 8   H  1S          0.00000   0.00000   0.00000   0.00000   0.00000
  24 9   H  1S          0.00000   0.00000   0.00000   0.00000   0.00000
                          21        22        23        24
  21 6   H  1S          0.88234
  22 7   H  1S          0.00000   0.73900
  23 8   H  1S          0.00000   0.00000   0.75980
  24 9   H  1S          0.00000   0.00000   0.00000   0.88367
     Gross orbital populations:
                           1
   1 1   C  1S          0.94644
   2        1PX         0.93123
   3        1PY         1.08855
   4        1PZ         1.07028
   5 2   C  1S          1.20809
   6        1PX         1.30140
   7        1PY         1.59037
   8        1PZ         1.83376
   9 3   O  1S          1.94287
  10        1PX         0.32091
  11        1PY         0.32075
  12        1PZ         0.18773
  13 4   C  1S          1.23131
  14        1PX         1.56769
  15        1PY         1.31920
  16        1PZ         1.83375
  17 5   C  1S          0.94881
  18        1PX         1.07342
  19        1PY         0.94514
  20        1PZ         1.07351
  21 6   H  1S          0.88234
  22 7   H  1S          0.73900
  23 8   H  1S          0.75980
  24 9   H  1S          0.88367
          Condensed to atoms (all electrons):
               1          2          3          4          5          6
     1  C    4.036492   0.000000   0.000000   0.000000   0.000000   0.000000
     2  C    0.000000   5.933620   0.000000   0.000000   0.000000   0.000000
     3  O    0.000000   0.000000   2.772255   0.000000   0.000000   0.000000
     4  C    0.000000   0.000000   0.000000   5.951944   0.000000   0.000000
     5  C    0.000000   0.000000   0.000000   0.000000   4.040887   0.000000
     6  H    0.000000   0.000000   0.000000   0.000000   0.000000   0.882335
     7  H    0.000000   0.000000   0.000000   0.000000   0.000000   0.000000
     8  H    0.000000   0.000000   0.000000   0.000000   0.000000   0.000000
     9  H    0.000000   0.000000   0.000000   0.000000   0.000000   0.000000
               7          8          9
     1  C    0.000000   0.000000   0.000000
     2  C    0.000000   0.000000   0.000000
     3  O    0.000000   0.000000   0.000000
     4  C    0.000000   0.000000   0.000000
     5  C    0.000000   0.000000   0.000000
     6  H    0.000000   0.000000   0.000000
     7  H    0.739002   0.000000   0.000000
     8  H    0.000000   0.759798   0.000000
     9  H    0.000000   0.000000   0.883667
 Mulliken charges:
               1
     1  C   -0.036492
     2  C   -1.933620
     3  O    3.227745
     4  C   -1.951944
     5  C   -0.040887
     6  H    0.117665
     7  H    0.260998
     8  H    0.240202
     9  H    0.116333
 Sum of Mulliken charges =   0.00000
 Mulliken charges with hydrogens summed into heavy atoms:
               1
     1  C    0.079841
     2  C   -1.693418
     3  O    3.227745
     4  C   -1.690946
     5  C    0.076778
 Charge=              0.0000 electrons
 Dipole moment (field-independent basis, Debye):
    X=             -7.6544    Y=             -7.3985    Z=              0.0452  Tot=             10.6456
 N-N= 1.033019640062D+02 E-N=-1.679152987263D+02  KE=-1.501174040881D+01
 Orbital energies and kinetic energies (alpha):
                                 1                 2
   1         O                -1.719700         -1.208895
   2         O                -1.155422         -1.018644
   3         O                -0.943604         -0.862663
   4         O                -0.801117         -0.623341
   5         O                -0.767932         -0.681899
   6         O                -0.674516         -0.577411
   7         O                -0.632832         -0.517440
   8         O                -0.545046         -0.388308
   9         O                -0.503308         -0.275353
  10         O                -0.432494         -0.394558
  11         O                -0.427386         -0.335133
  12         O                -0.415767         -0.344535
  13         O                -0.301251         -0.277690
  14         V                 0.121433         -0.172906
  15         V                 0.181013         -0.183897
  16         V                 0.204064         -0.162650
  17         V                 0.252294         -0.173526
  18         V                 0.273474         -0.177331
  19         V                 0.290377         -0.095034
  20         V                 0.308979         -0.125871
  21         V                 0.326078         -0.092699
  22         V                 0.386118          0.510211
  23         V                 0.480908          0.545969
  24         V                 0.521934          0.605834
 Total kinetic energy from orbitals=-1.501174040881D+01
 Leave Link  601 at Tue Dec 15 17:06:21 2015, MaxMem=    33554432 cpu:         0.0
 (Enter /home/Applications/g09/g09/l701.exe)
 Compute integral first derivatives.
 ... and contract with generalized density number  6.
 Leave Link  701 at Tue Dec 15 17:06:21 2015, MaxMem=    33554432 cpu:         0.0
 (Enter /home/Applications/g09/g09/l702.exe)
 L702 exits ... SP integral derivatives will be done elsewhere.
 Leave Link  702 at Tue Dec 15 17:06:21 2015, MaxMem=    33554432 cpu:         0.0
 (Enter /home/Applications/g09/g09/l703.exe)
 Compute integral first derivatives, UseDBF=F ICtDFT=           0.
 Integral derivatives from FoFJK, PRISM(SPDF).
 Calling FoFJK, ICntrl=  10005127 FMM=F ISym2X=0 I1Cent= 0 IOpClX= 0 NMat=1 NMatS=1 NMatT=0.
 FoFJK:  IHMeth= 8 ICntrl=10005127 DoSepK=F KAlg= 0 I1Cent=   0 FoldK=F
 IRaf=         0 NMat=   1 IRICut=       1 DoRegI=T DoRafI=F ISym2E= 0.
 FoFCou: FMM=F IPFlag=           0 FMFlag=      100000 FMFlg1=         800
         NFxFlg=           0 DoJE=F BraDBF=F KetDBF=F FulRan=T
         wScrn=  0.000000 ICntrl=10005127 IOpCl=  0 I1Cent=           0 NGrid=           0
         NMat0=    1 NMatS0=      1 NMatT0=    0 NMatD0=    1 NMtDS0=    0 NMtDT0=    0
 Symmetry not used in FoFCou.
 Leave Link  703 at Tue Dec 15 17:06:21 2015, MaxMem=    33554432 cpu:         0.0
 (Enter /home/Applications/g09/g09/l716.exe)
 Dipole        =-3.32563252D+00-3.19771227D+00 3.72373047D-02
 ***** Axes restored to original set *****
 -------------------------------------------------------------------
 Center     Atomic                   Forces (Hartrees/Bohr)
 Number     Number              X              Y              Z
 -------------------------------------------------------------------
      1        6           0.125058244   -0.127887911    0.003422684
      2        6          -0.203157401    0.078069031   -0.001319837
      3        8           0.186951063   -0.011659664    0.005063456
      4        6          -0.256482406    0.038524499   -0.010797895
      5        6           0.133051415    0.126196337    0.008159128
      6        1           0.024981317    0.014263020    0.001963861
      7        1          -0.001657039    0.055757855   -0.000183751
      8        1          -0.043857325   -0.146319295   -0.003632522
      9        1           0.035112133   -0.026943871   -0.002675124
 -------------------------------------------------------------------
 Cartesian Forces:  Max     0.256482406 RMS     0.095223346
 Z-matrix is all fixed cartesians, so copy forces.
 Force constants in Cartesian coordinates: 
                1             2             3             4             5 
      1  0.809661D+00
      2 -0.319601D-01  0.870044D+00
      3  0.231882D-02  0.179185D-01  0.204955D+00
      4 -0.415691D+00 -0.870732D-01 -0.120611D-01  0.873255D+00
      5 -0.666186D-01 -0.201497D+00 -0.512510D-02  0.824638D-01  0.973287D+00
      6 -0.154780D-01 -0.610983D-02 -0.886681D-01  0.277655D-01  0.105862D-01
      7 -0.872610D-02  0.274028D-01 -0.488665D-03 -0.267796D+00  0.149462D+00
      8 -0.644397D-02  0.202219D-01 -0.230917D-03  0.189063D+00 -0.340335D+00
      9 -0.831341D-03  0.172054D-02  0.748597D-02 -0.794484D-02  0.457403D-02
     10  0.101373D-01 -0.187098D-03  0.547440D-03  0.232247D-01  0.171202D-01
     11  0.348757D-01 -0.643200D-03  0.202042D-02 -0.183313D-01 -0.135092D-01
     12 -0.448868D-03  0.154279D-04  0.873341D-04  0.947577D-03  0.591519D-03
     13 -0.180846D+00  0.542301D-02 -0.734930D-03  0.109479D-01 -0.343311D-01
     14 -0.195242D-01 -0.495778D+00 -0.317069D-02 -0.200624D-03  0.632003D-03
     15 -0.137967D-02  0.288589D-02 -0.993542D-01  0.549268D-03 -0.152108D-02
     16  0.196163D-01 -0.358745D-03 -0.126917D-03 -0.270945D-05  0.000000D+00
     17 -0.216726D-01  0.395749D-03  0.391132D-03  0.000000D+00  0.000000D+00
     18  0.110215D-02 -0.820506D-04  0.257591D-01 -0.242614D-03 -0.103759D-04
     19  0.133159D-04  0.000000D+00 -0.302804D-03  0.000000D+00  0.000000D+00
     20  0.100928D-04  0.000000D+00 -0.229511D-03  0.275455D-05  0.000000D+00
     21 -0.238744D-03 -0.867149D-05  0.542905D-02 -0.141742D-03  0.486514D-05
     22  0.882544D-02 -0.275352D-01 -0.959896D-03 -0.218160D+00 -0.165957D+00
     23 -0.456697D-02  0.143445D-01 -0.269197D-03 -0.159246D+00 -0.439454D+00
     24 -0.260171D-03 -0.224919D-02  0.245279D-01 -0.766352D-02 -0.103761D-01
     25 -0.242990D+00  0.114288D+00  0.118081D-01 -0.577917D-02  0.178611D-01
     26  0.115901D+00 -0.207088D+00 -0.113047D-01 -0.667876D-02  0.208772D-01
     27  0.152159D-01 -0.140906D-01 -0.802225D-01 -0.120849D-02  0.127597D-02
                6             7             8             9            10 
      6  0.181669D+00
      7 -0.772938D-02  0.530944D+00
      8  0.581396D-02  0.157928D-01  0.666017D+00
      9 -0.413410D-01  0.152449D-01  0.437937D-03  0.475888D-01
     10  0.674415D-03 -0.291812D+00 -0.205047D+00 -0.594831D-02  0.856073D+00
     11 -0.392134D-03 -0.162699D+00 -0.350839D+00 -0.390495D-02  0.674770D-03
     12 -0.392078D-02 -0.722973D-02 -0.641834D-02 -0.429657D-01  0.220812D-01
     13  0.231313D-03 -0.796420D-02  0.629719D-02 -0.877206D-03 -0.437328D+00
     14 -0.331732D-04 -0.275066D-01  0.217206D-01 -0.161871D-02  0.873544D-01
     15 -0.234683D-02 -0.324812D-03  0.781041D-04  0.902546D-02 -0.167139D-01
     16  0.688835D-04  0.621559D-05 -0.131894D-05 -0.151640D-03 -0.537926D-02
     17 -0.160775D-04 -0.883516D-05  0.187480D-05  0.215549D-03  0.593372D-02
     18  0.616809D-02 -0.201747D-03  0.428103D-04  0.492197D-02 -0.127068D-02
     19 -0.239925D-04  0.217020D-01 -0.170967D-01 -0.427276D-03 -0.154903D+00
     20 -0.879523D-04  0.981656D-02 -0.773143D-02 -0.278884D-03  0.941492D-01
     21  0.452580D-02  0.255748D-03 -0.320147D-03  0.502073D-02  0.102616D-02
     22 -0.749645D-02  0.236449D-01  0.174362D-01  0.965761D-03  0.618902D-05
     23 -0.101703D-01 -0.122777D-01 -0.905816D-02 -0.681961D-03  0.117399D-05
     24 -0.761835D-01  0.645645D-03  0.615471D-03  0.579962D-02 -0.140180D-03
     25  0.198778D-02  0.115791D-05  0.000000D+00 -0.300593D-04 -0.200633D-04
     26  0.409307D-03  0.178563D-04  0.196038D-05 -0.463548D-03  0.000000D+00
     27  0.200974D-01 -0.171964D-03 -0.188793D-04  0.446417D-02 -0.256163D-03
               11            12            13            14            15 
     11  0.860160D+00
     12  0.661299D-02  0.168003D+00
     13  0.655018D-01 -0.163744D-01  0.812575D+00
     14 -0.197305D+00  0.419133D-02  0.399023D-01  0.865160D+00
     15  0.385166D-02 -0.862868D-01  0.167508D-01 -0.441666D-02  0.207991D+00
     16 -0.185103D-01  0.228521D-03 -0.224098D+00 -0.105634D+00  0.668062D-03
     17  0.204448D-01 -0.745512D-04 -0.108787D+00 -0.205735D+00  0.160837D-02
     18 -0.163785D-02  0.182842D-01  0.176045D-02  0.314474D-02 -0.815327D-01
     19  0.984888D-01  0.537135D-03  0.750505D-02  0.259598D-01  0.578510D-03
     20 -0.318308D+00 -0.485855D-02  0.340226D-02  0.117142D-01 -0.989647D-04
     21 -0.654564D-02 -0.635019D-01 -0.349788D-03  0.197097D-02  0.211783D-01
     22  0.000000D+00 -0.197615D-03  0.863578D-05  0.000000D+00 -0.219551D-03
     23  0.000000D+00 -0.374854D-04  0.306031D-05  0.000000D+00 -0.778036D-04
     24  0.481151D-05  0.447592D-02 -0.241090D-03 -0.103108D-04  0.612933D-02
     25  0.000000D+00  0.456240D-03  0.191993D-01 -0.351637D-03  0.913019D-04
     26  0.000000D+00 -0.223438D-04  0.225888D-01 -0.407911D-03 -0.230951D-02
     27 -0.930417D-05  0.582516D-02 -0.165078D-03 -0.575039D-04  0.251964D-01
               16            17            18            19            20 
     16  0.209879D+00
     17  0.124514D+00  0.184878D+00
     18 -0.813243D-03 -0.181628D-02  0.437023D-01
     19 -0.130818D-04  0.185952D-04  0.424613D-03  0.125695D+00
     20 -0.991541D-05  0.140943D-04  0.321836D-03 -0.107371D+00  0.314311D+00
     21  0.234548D-03 -0.333398D-03 -0.761300D-02 -0.786186D-03  0.523202D-02
     22  0.000000D+00  0.000000D+00  0.000000D+00  0.000000D+00  0.000000D+00
     23  0.000000D+00  0.000000D+00  0.000000D+00  0.000000D+00  0.000000D+00
     24  0.000000D+00  0.000000D+00  0.000000D+00  0.000000D+00  0.000000D+00
     25 -0.847557D-05  0.197821D-05 -0.758934D-03  0.000000D+00  0.000000D+00
     26  0.000000D+00  0.000000D+00  0.371679D-04  0.000000D+00  0.000000D+00
     27 -0.108214D-03  0.252573D-04 -0.968988D-02  0.000000D+00  0.000000D+00
               21            22            23            24            25 
     21  0.349610D-01
     22  0.000000D+00  0.185677D+00
     23  0.000000D+00  0.176088D+00  0.434179D+00
     24  0.000000D+00  0.760180D-02  0.111284D-01  0.437920D-01
     25  0.000000D+00 -0.206009D-05  0.000000D+00  0.575127D-04  0.229600D+00
     26  0.000000D+00 -0.317689D-04 -0.112581D-04  0.886911D-03 -0.131798D+00
     27  0.000000D+00  0.305949D-03  0.108421D-03 -0.854134D-02 -0.136119D-01
               26            27 
     26  0.186628D+00
     27  0.127667D-01  0.428706D-01
 Leave Link  716 at Tue Dec 15 17:06:21 2015, MaxMem=    33554432 cpu:         0.0
 (Enter /home/Applications/g09/g09/l103.exe)

 GradGradGradGradGradGradGradGradGradGradGradGradGradGradGradGradGradGrad
 Berny optimization.
 Search for a local minimum.
 Step number   1 out of a maximum of    2
 All quantities printed in internal units (Hartrees-Bohrs-Radians)
 Second derivative matrix not updated -- first step.
 ITU=  0
     Eigenvalues ---    0.01853   0.02828   0.06894   0.07488   0.07532
     Eigenvalues ---    0.08479   0.12909   0.15066   0.16526   0.24104
     Eigenvalues ---    0.25057   0.27465   0.38418   0.46363   0.63250
     Eigenvalues ---    0.82245   1.13856   1.33060   1.41536   1.47661
     Eigenvalues ---    1.58218
 Quadratic step=1.229D+00 exceeds max=3.000D-01 adjusted using Lamda=-8.061D-01.
 Angle between NR and scaled steps=  30.02 degrees.
 Angle between quadratic step and forces=  20.27 degrees.
 Linear search not attempted -- first point.
 TrRot=  0.001948  0.003983  0.000411 -0.597448 -0.000141  0.597566
 MatCor failed.
 Variable       Old X    -DE/DX   Delta X   Delta X   Delta X     New X
                                 (Linear)    (Quad)   (Total)
    X1        1.81241   0.12506   0.00000   0.06405   0.06616   1.87856
    Y1       -1.33567  -0.12789   0.00000  -0.07353  -0.06932  -1.40499
    Z1        0.07094   0.00342   0.00000   0.00166   0.00240   0.07334
    X2       -0.72302  -0.20316   0.00000  -0.11121  -0.10901  -0.83203
    Y2       -2.14479   0.07807   0.00000  -0.00097   0.00291  -2.14188
    Z2       -0.03015  -0.00132   0.00000   0.00061   0.00110  -0.02905
    X3       -2.27812   0.18695   0.00000   0.09617   0.09813  -2.17998
    Y3       -0.03313  -0.01166   0.00000  -0.00498  -0.00126  -0.03439
    Z3       -0.08112   0.00506   0.00000   0.00211   0.00227  -0.07885
    X4       -0.67410  -0.25648   0.00000  -0.13243  -0.13071  -0.80481
    Y4        2.00175   0.03852   0.00000   0.04742   0.05130   2.05305
    Z4       -0.03307  -0.01080   0.00000  -0.00609  -0.00594  -0.03901
    X5        1.86004   0.13305   0.00000   0.05776   0.05954   1.91958
    Y5        1.26667   0.12620   0.00000   0.07057   0.07479   1.34145
    Z5        0.07719   0.00816   0.00000   0.00490   0.00543   0.08262
    X6        3.42014   0.02498   0.00000   0.03936   0.04098   3.46113
    Y6        2.67805   0.01426   0.00000   0.02922   0.03361   2.71166
    Z6        0.06345   0.00196   0.00000   0.00226   0.00286   0.06631
    X7       -1.51348  -0.00166   0.00000  -0.02621  -0.02472  -1.53820
    Y7        3.85659   0.05576   0.00000   0.06842   0.07223   3.92881
    Z7       -0.00148  -0.00018   0.00000  -0.00062  -0.00070  -0.00218
    X8       -1.56974  -0.04386   0.00000  -0.05299  -0.05058  -1.62032
    Y8       -3.77813  -0.14632   0.00000  -0.12447  -0.12068  -3.89881
    Z8       -0.08121  -0.00363   0.00000  -0.00411  -0.00358  -0.08479
    X9        3.38509   0.03511   0.00000   0.04794   0.05021   3.43530
    Y9       -2.67330  -0.02694   0.00000  -0.04795  -0.04357  -2.71688
    Z9       -0.05736  -0.00268   0.00000  -0.00487  -0.00384  -0.06121
         Item               Value     Threshold  Converged?
 Maximum Force            0.256482     0.000450     NO 
 RMS     Force            0.095223     0.000300     NO 
 Maximum Displacement     0.130715     0.001800     NO 
 RMS     Displacement     0.057688     0.001200     NO 
 Predicted change in Energy=-1.059295D-01
 GradGradGradGradGradGradGradGradGradGradGradGradGradGradGradGradGradGrad

 Leave Link  103 at Tue Dec 15 17:06:21 2015, MaxMem=    33554432 cpu:         0.0
 (Enter /home/Applications/g09/g09/l9999.exe)
 1\1\GINC-DUSTIN-DESKTOP\Force\RAM1-FC\STO-3G\C4H4O1\DUSTIN\15-Dec-2015
 \0\\#P AM1(Input,print) CIS(Singlets,NStates=15) pop(full) force\\AM1-
 Reparam Input\\0,1\C,0.959084,-0.706808,0.037541\C,-0.382606,-1.134975
 ,-0.015953\O,-1.205527,-0.017532,-0.042927\C,-0.356718,1.05928,-0.0175
 01\C,0.98429,0.670291,0.040849\H,1.809862,1.417162,0.033576\H,-0.80089
 9,2.040817,-0.000781\H,-0.830671,-1.999299,-0.042974\H,1.79131,-1.4146
 52,-0.030356\\Version=ES64L-G09RevD.01\State=1-A\HF=2.518069\RMSD=1.16
 9e-09\RMSF=9.522e-02\Dipole=-4.6045152,0.2325286,-0.1759318\PG=C01 [X(
 C4H4O1)]\\@


 FROM THE ASHES OF OUR DESPAIR GROW THE FLOWERS OF TOMORROW.
 Job cpu time:       0 days  0 hours  0 minutes  0.7 seconds.
 File lengths (MBytes):  RWF=      7 Int=      0 D2E=      0 Chk=      2 Scr=      1
 Normal termination of Gaussian 09 at Tue Dec 15 17:06:21 2015.
