 Entering Gaussian System, Link 0=g09
 Input=FuranAM1_41P4.com
 Output=FuranAM1_41P4.log
 Initial command:
 /home/Applications/g09/g09/l1.exe "/home/Applications/g09/scratch/Gau-7550.inp" -scrdir="/home/Applications/g09/scratch/"
 Entering Link 1 = /home/Applications/g09/g09/l1.exe PID=      7553.
  
 Copyright (c) 1988,1990,1992,1993,1995,1998,2003,2009,2013,
            Gaussian, Inc.  All Rights Reserved.
  
 This is part of the Gaussian(R) 09 program.  It is based on
 the Gaussian(R) 03 system (copyright 2003, Gaussian, Inc.),
 the Gaussian(R) 98 system (copyright 1998, Gaussian, Inc.),
 the Gaussian(R) 94 system (copyright 1995, Gaussian, Inc.),
 the Gaussian 92(TM) system (copyright 1992, Gaussian, Inc.),
 the Gaussian 90(TM) system (copyright 1990, Gaussian, Inc.),
 the Gaussian 88(TM) system (copyright 1988, Gaussian, Inc.),
 the Gaussian 86(TM) system (copyright 1986, Carnegie Mellon
 University), and the Gaussian 82(TM) system (copyright 1983,
 Carnegie Mellon University). Gaussian is a federally registered
 trademark of Gaussian, Inc.
  
 This software contains proprietary and confidential information,
 including trade secrets, belonging to Gaussian, Inc.
  
 This software is provided under written license and may be
 used, copied, transmitted, or stored only in accord with that
 written license.
  
 The following legend is applicable only to US Government
 contracts under FAR:
  
                    RESTRICTED RIGHTS LEGEND
  
 Use, reproduction and disclosure by the US Government is
 subject to restrictions as set forth in subparagraphs (a)
 and (c) of the Commercial Computer Software - Restricted
 Rights clause in FAR 52.227-19.
  
 Gaussian, Inc.
 340 Quinnipiac St., Bldg. 40, Wallingford CT 06492
  
  
 ---------------------------------------------------------------
 Warning -- This program may not be used in any manner that
 competes with the business of Gaussian, Inc. or will provide
 assistance to any competitor of Gaussian, Inc.  The licensee
 of this program is prohibited from giving any competitor of
 Gaussian, Inc. access to this program.  By using this program,
 the user acknowledges that Gaussian, Inc. is engaged in the
 business of creating and licensing software in the field of
 computational chemistry and represents and warrants to the
 licensee that it is not a competitor of Gaussian, Inc. and that
 it will not use this program in any manner prohibited above.
 ---------------------------------------------------------------
  

 Cite this work as:
 Gaussian 09, Revision D.01,
 M. J. Frisch, G. W. Trucks, H. B. Schlegel, G. E. Scuseria, 
 M. A. Robb, J. R. Cheeseman, G. Scalmani, V. Barone, B. Mennucci, 
 G. A. Petersson, H. Nakatsuji, M. Caricato, X. Li, H. P. Hratchian, 
 A. F. Izmaylov, J. Bloino, G. Zheng, J. L. Sonnenberg, M. Hada, 
 M. Ehara, K. Toyota, R. Fukuda, J. Hasegawa, M. Ishida, T. Nakajima, 
 Y. Honda, O. Kitao, H. Nakai, T. Vreven, J. A. Montgomery, Jr., 
 J. E. Peralta, F. Ogliaro, M. Bearpark, J. J. Heyd, E. Brothers, 
 K. N. Kudin, V. N. Staroverov, T. Keith, R. Kobayashi, J. Normand, 
 K. Raghavachari, A. Rendell, J. C. Burant, S. S. Iyengar, J. Tomasi, 
 M. Cossi, N. Rega, J. M. Millam, M. Klene, J. E. Knox, J. B. Cross, 
 V. Bakken, C. Adamo, J. Jaramillo, R. Gomperts, R. E. Stratmann, 
 O. Yazyev, A. J. Austin, R. Cammi, C. Pomelli, J. W. Ochterski, 
 R. L. Martin, K. Morokuma, V. G. Zakrzewski, G. A. Voth, 
 P. Salvador, J. J. Dannenberg, S. Dapprich, A. D. Daniels, 
 O. Farkas, J. B. Foresman, J. V. Ortiz, J. Cioslowski, 
 and D. J. Fox, Gaussian, Inc., Wallingford CT, 2013.
 
 ******************************************
 Gaussian 09:  ES64L-G09RevD.01 24-Apr-2013
                15-Dec-2015 
 ******************************************
 ------------------------------------------------------------
 #P AM1(Input,print) CIS(Singlets,NStates=15) pop(full) force
 ------------------------------------------------------------
 1/10=7,30=1,38=1/1,3;
 2/12=2,17=6,18=5,40=1/2;
 3/5=2,16=1,25=1,41=700000,71=1,135=100,136=1/1,2,8,3;
 4/35=1/1;
 5/5=2,35=1,38=5/2;
 8/6=1,10=1,108=15/1;
 9/15=2,41=15,42=1,48=1,49=10/14;
 10/5=4/2;
 6/7=3,18=1/1;
 7/12=6,13=5,29=1/1,2,3,16;
 1/10=7,30=1/3;
 99//99;
 Leave Link    1 at Tue Dec 15 17:05:36 2015, MaxMem=           0 cpu:         0.0
 (Enter /home/Applications/g09/g09/l101.exe)
 -----------------
 AM1-Reparam Input
 -----------------
 Symbolic Z-matrix:
 Charge =  0 Multiplicity = 1
 6                     0.94834  -0.73215  -0.00965 
 6                    -0.37038  -1.14023  -0.00899 
 8                    -1.13204   0.00132  -0.02748 
 6                    -0.32331   1.11987  -0.03173 
 6                     0.91894   0.70638  -0.00289 
 1                     1.78588   1.32233  -0.01345 
 1                    -0.86994   2.05109  -0.01902 
 1                    -0.8649   -2.06847   0.03474 
 1                     1.78923  -1.40972   0.03058 
 
 NAtoms=      9 NQM=        9 NQMF=       0 NMMI=      0 NMMIF=      0
                NMic=       0 NMicF=      0.
                    Isotopes and Nuclear Properties:
 (Nuclear quadrupole moments (NQMom) in fm**2, nuclear magnetic moments (NMagM)
  in nuclear magnetons)

  Atom         1           2           3           4           5           6           7           8           9
 IAtWgt=          12          12          16          12          12           1           1           1           1
 AtmWgt=  12.0000000  12.0000000  15.9949146  12.0000000  12.0000000   1.0078250   1.0078250   1.0078250   1.0078250
 NucSpn=           0           0           0           0           0           1           1           1           1
 AtZEff=   0.0000000   0.0000000   0.0000000   0.0000000   0.0000000   0.0000000   0.0000000   0.0000000   0.0000000
 NQMom=    0.0000000   0.0000000   0.0000000   0.0000000   0.0000000   0.0000000   0.0000000   0.0000000   0.0000000
 NMagM=    0.0000000   0.0000000   0.0000000   0.0000000   0.0000000   2.7928460   2.7928460   2.7928460   2.7928460
 AtZNuc=   6.0000000   6.0000000   8.0000000   6.0000000   6.0000000   1.0000000   1.0000000   1.0000000   1.0000000
 Leave Link  101 at Tue Dec 15 17:05:36 2015, MaxMem=    33554432 cpu:         0.0
 (Enter /home/Applications/g09/g09/l103.exe)

 GradGradGradGradGradGradGradGradGradGradGradGradGradGradGradGradGradGrad
 Berny optimization.
 Initialization pass.
 Trust Radius=3.00D-01 FncErr=1.00D-07 GrdErr=1.00D-07
 Number of steps in this run=      2 maximum allowed number of steps=      2.
 GradGradGradGradGradGradGradGradGradGradGradGradGradGradGradGradGradGrad

 Leave Link  103 at Tue Dec 15 17:05:36 2015, MaxMem=    33554432 cpu:         0.0
 (Enter /home/Applications/g09/g09/l202.exe)
                          Input orientation:                          
 ---------------------------------------------------------------------
 Center     Atomic      Atomic             Coordinates (Angstroms)
 Number     Number       Type             X           Y           Z
 ---------------------------------------------------------------------
      1          6           0        0.948337   -0.732153   -0.009651
      2          6           0       -0.370382   -1.140231   -0.008986
      3          8           0       -1.132037    0.001318   -0.027477
      4          6           0       -0.323307    1.119870   -0.031727
      5          6           0        0.918939    0.706384   -0.002893
      6          1           0        1.785880    1.322327   -0.013450
      7          1           0       -0.869935    2.051088   -0.019024
      8          1           0       -0.864904   -2.068469    0.034737
      9          1           0        1.789228   -1.409724    0.030576
 ---------------------------------------------------------------------
                    Distance matrix (angstroms):
                    1          2          3          4          5
     1  C    0.000000
     2  C    1.380416   0.000000
     3  O    2.205959   1.372441   0.000000
     4  C    2.246676   2.260706   1.380297   0.000000
     5  C    1.438853   2.252193   2.168923   1.309571   0.000000
     6  H    2.218644   3.273175   3.203046   2.118960   1.063524
     7  H    3.324550   3.230197   2.066477   1.079875   2.237981
     8  H    2.252899   1.052658   2.087881   3.234695   3.298988
     9  H    1.080656   2.176719   3.244719   3.296291   2.288326
                    6          7          8          9
     6  H    0.000000
     7  H    2.753993   0.000000
     8  H    4.304239   4.119911   0.000000
     9  H    2.732408   4.364725   2.734662   0.000000
 Stoichiometry    C4H4O
 Framework group  C1[X(C4H4O)]
 Deg. of freedom    21
 Full point group                 C1      NOp   1
 Largest Abelian subgroup         C1      NOp   1
 Largest concise Abelian subgroup C1      NOp   1
                         Standard orientation:                         
 ---------------------------------------------------------------------
 Center     Atomic      Atomic             Coordinates (Angstroms)
 Number     Number       Type             X           Y           Z
 ---------------------------------------------------------------------
      1          6           0        0.742803    0.936896   -0.010631
      2          6           0        1.121547   -0.390514   -0.001570
      3          8           0       -0.036720   -1.126727   -0.003046
      4          6           0       -1.137069   -0.293390   -0.004775
      5          6           0       -0.695913    0.939560    0.009100
      6          1           0       -1.292563    1.819857   -0.003905
      7          1           0       -2.080019   -0.819037    0.021126
      8          1           0        2.038956   -0.905150    0.038451
      9          1           0        1.439177    1.762834    0.015956
 ---------------------------------------------------------------------
 Rotational constants (GHZ):      9.6776411      9.1239213      4.6967374
 Leave Link  202 at Tue Dec 15 17:05:36 2015, MaxMem=    33554432 cpu:         0.0
 (Enter /home/Applications/g09/g09/l301.exe)

 Semi-emprical parameters in input format:
 Method=8 CoreType=1 PeptideFC=0.0108360000 RIJScale=0.5404210000
 ****
 H       
 PQN=1 NValence=1 F0ss=0.4721550000 ZetaOverlap=1.0856700000 U=-0.4188110000
 Beta=-0.2268830000 CoreKO=1.0354420000 KON=0,0,0,1.0458670000 KON=1,0,1,1.0589200000
 KON=0,1,1,1.0589200000 KON=2,1,1,1.0697690000 EISol=-0.4188110042 EHeat=0.0830298228
 Alpha=1.4609850000
 GCore=0.0085280000,1.4001430000,2.2676710000
 GCore=0.0003530000,1.4368830000,3.4779940000
 GCore=-0.0011900000,0.5600570000,3.5861320000
 ****
 C       
 PQN=2,2 NValence=4 F0ss=0.4494440000 F0sp=0.4261420000 F0pp=0.3497590000 F2pp=0.1878900000
 G1sp=0.2503010000
 ZetaOverlap=1.8632470000,1.4040900000
 U=-1.7215630000,-1.4557970000
 Beta=-0.5453250000,-0.3063130000 DDN=0,1,0.7474020000 DDN=1,1,0.7268010000
 CoreKO=1.0436360000 KON=0,0,0,1.1124280000 KON=1,0,1,0.8998210000 KON=0,1,1,1.1124280000
 KON=2,1,1,0.8516400000 EISol=-4.4398989268 EHeat=0.2723305520 Alpha=1.4989150000
 DipHyp=1.4947180026
 GCore=0.0007890000,1.3361580000,2.6678360000
 GCore=0.0028980000,1.4001430000,3.7217330000
 GCore=-0.0013930000,1.3827320000,3.8739390000
 GCore=-0.0001030000,1.4001430000,4.6088130000
 ****
 O       
 PQN=2,2 NValence=6 F0ss=0.5666750000 F0sp=0.5772260000 F0pp=0.4958710000 F2pp=0.2358080000
 G1sp=0.4210010000
 ZetaOverlap=2.6354490000,2.5240390000
 U=-3.5951870000,-2.4766000000
 Beta=-1.1573400000,-1.2994290000 DDN=0,1,0.4953610000 DDN=1,1,0.4852320000
 CoreKO=0.8515990000 KON=0,0,0,0.9256950000 KON=1,0,1,0.5019540000 KON=0,1,1,0.8593090000
 KON=2,1,1,0.5515580000 EISol=-11.6164441184 EHeat=0.0949133088 Alpha=2.4031680000
 DipHyp=0.9906650029
 GCore=0.0204720000,1.2640290000,1.6023330000
 GCore=0.0047010000,1.8659010000,2.7307880000
 ****
 
 Standard basis: VSTO-6G (5D, 7F)
 Ernie: Thresh=  0.10000D-02 Tol=  0.10000D-05 Strict=F.
  NNHCO=     0 NNPyr=     0 NCTC=     0               EPep=         0.000000000
    EC=        69.857960007  ECS=         1.568074085   EG=         0.346521983
   EHC=         0.000000000  EAt=       -31.051283842  AtH=         1.516354808
 EPDDG=         0.000000000  ECC=        71.772556075 EAtT=        32.567638650
 There are    24 symmetry adapted cartesian basis functions of A   symmetry.
 There are    24 symmetry adapted basis functions of A   symmetry.
    24 basis functions,   144 primitive gaussians,    24 cartesian basis functions
    13 alpha electrons       13 beta electrons
       nuclear repulsion energy       104.3401947256 Hartrees.
 IExCor=    0 DFT=F Ex=HF Corr=None ExCW=0 ScaHFX=  1.000000
 ScaDFX=  1.000000  1.000000  1.000000  1.000000 ScalE2=  1.000000  1.000000
 IRadAn=      0 IRanWt=     -1 IRanGd=            0 ICorTp=0 IEmpDi=  4
 Integral buffers will be    131072 words long.
 Regular integral format.
 Two-electron integral symmetry is turned off.
 Leave Link  301 at Tue Dec 15 17:05:36 2015, MaxMem=    33554432 cpu:         0.0
 (Enter /home/Applications/g09/g09/l302.exe)
 Do NDO integrals.
 NPDir=0 NMtPBC=     1 NCelOv=     1 NCel=       1 NClECP=     1 NCelD=      1
         NCelK=      1 NCelE2=     1 NClLst=     1 CellRange=     0.0.
 One-electron integrals computed using PRISM.
 NBasis=    24 RedAO= F EigKep=  0.00D+00  NBF=    24
 NBsUse=    24 1.00D-04 EigRej=  0.00D+00 NBFU=    24
 Leave Link  302 at Tue Dec 15 17:05:36 2015, MaxMem=    33554432 cpu:         0.0
 (Enter /home/Applications/g09/g09/l308.exe)
 Leave Link  308 at Tue Dec 15 17:05:36 2015, MaxMem=    33554432 cpu:         0.0
 (Enter /home/Applications/g09/g09/l303.exe)
 DipDrv:  MaxL=1.
 Leave Link  303 at Tue Dec 15 17:05:36 2015, MaxMem=    33554432 cpu:         0.0
 (Enter /home/Applications/g09/g09/l401.exe)
 Simple Huckel Guess.
 JPrj=0 DoOrth=F DoCkMO=F.
 Leave Link  401 at Tue Dec 15 17:05:36 2015, MaxMem=    33554432 cpu:         0.0
 (Enter /home/Applications/g09/g09/l502.exe)
 Closed shell SCF:
 Using DIIS extrapolation, IDIIS=  1040.
 Overlap will be assumed to be unity.
 Two-electron integral symmetry not used.
 Keep J ints in memory in canonical form, NReq=888082.
 IVT=       79475 IEndB=       79475 NGot=    33554432 MDV=    33473473
 LenX=    33473473 LenY=    33472456
 Requested convergence on RMS density matrix=1.00D-08 within 128 cycles.
 Requested convergence on MAX density matrix=1.00D-06.
 Requested convergence on             energy=1.00D-06.
 No special actions if energy rises.
 FoFCou: FMM=F IPFlag=           0 FMFlag=           0 FMFlg1=           0
         NFxFlg=           0 DoJE=F BraDBF=F KetDBF=F FulRan=T
         wScrn=  0.000000 ICntrl=     600 IOpCl=  2 I1Cent=           0 NGrid=           0
         NMat0=    1 NMatS0=     54 NMatT0=    0 NMatD0=    1 NMtDS0=    0 NMtDT0=    0
 Symmetry not used in FoFCou.

 Cycle   1  Pass 1  IDiag  1:
 E=  2.02364314814125    
 DIIS: error= 7.08D-02 at cycle   1 NSaved=   1.
 NSaved= 1 IEnMin= 1 EnMin=  2.02364314814125     IErMin= 1 ErrMin= 7.08D-02
 ErrMax= 7.08D-02  0.00D+00 EMaxC= 1.00D-01 BMatC= 1.77D-01 BMatP= 1.77D-01
 IDIUse=3 WtCom= 2.92D-01 WtEn= 7.08D-01
 Coeff-Com:  0.100D+01
 Coeff-En:   0.100D+01
 Coeff:      0.100D+01
 GapD=    2.000 DampG=2.000 DampE=0.500 DampFc=1.0000 IDamp=-1.
 RMSDP=4.26D-02 MaxDP=4.74D-01              OVMax= 0.00D+00

 Cycle   2  Pass 1  IDiag  1:
 E=  1.25320452941251     Delta-E=       -0.770438618729 Rises=F Damp=F
 DIIS: error= 4.26D-02 at cycle   2 NSaved=   2.
 NSaved= 2 IEnMin= 2 EnMin=  1.25320452941251     IErMin= 2 ErrMin= 4.26D-02
 ErrMax= 4.26D-02  0.00D+00 EMaxC= 1.00D-01 BMatC= 2.79D-02 BMatP= 1.77D-01
 IDIUse=3 WtCom= 5.74D-01 WtEn= 4.26D-01
 Coeff-Com: -0.724D-01 0.107D+01
 Coeff-En:   0.000D+00 0.100D+01
 Coeff:     -0.416D-01 0.104D+01
 RMSDP=1.45D-02 MaxDP=1.31D-01 DE=-7.70D-01 OVMax= 0.00D+00

 Cycle   3  Pass 1  IDiag  1:
 E=  1.14275511366643     Delta-E=       -0.110449415746 Rises=F Damp=F
 DIIS: error= 1.40D-02 at cycle   3 NSaved=   3.
 NSaved= 3 IEnMin= 3 EnMin=  1.14275511366643     IErMin= 3 ErrMin= 1.40D-02
 ErrMax= 1.40D-02  0.00D+00 EMaxC= 1.00D-01 BMatC= 4.71D-03 BMatP= 2.79D-02
 IDIUse=3 WtCom= 8.60D-01 WtEn= 1.40D-01
 Coeff-Com: -0.571D-01-0.361D+00 0.142D+01
 Coeff-En:   0.000D+00 0.000D+00 0.100D+01
 Coeff:     -0.491D-01-0.310D+00 0.136D+01
 RMSDP=8.75D-03 MaxDP=8.75D-02 DE=-1.10D-01 OVMax= 0.00D+00

 Cycle   4  Pass 1  IDiag  3:
 E=  1.11812449547239     Delta-E=       -0.024630618194 Rises=F Damp=F
 DIIS: error= 3.01D-03 at cycle   4 NSaved=   4.
 NSaved= 4 IEnMin= 4 EnMin=  1.11812449547239     IErMin= 4 ErrMin= 3.01D-03
 ErrMax= 3.01D-03  0.00D+00 EMaxC= 1.00D-01 BMatC= 3.36D-04 BMatP= 4.71D-03
 IDIUse=3 WtCom= 9.70D-01 WtEn= 3.01D-02
 Coeff-Com:  0.334D-01 0.137D+00-0.733D+00 0.156D+01
 Coeff-En:   0.000D+00 0.000D+00 0.000D+00 0.100D+01
 Coeff:      0.324D-01 0.133D+00-0.711D+00 0.155D+01
 Gap=     0.410 Goal=   None    Shift=    0.000
 RMSDP=2.66D-03 MaxDP=2.26D-02 DE=-2.46D-02 OVMax= 2.24D-02

 Cycle   5  Pass 1  IDiag  3:
 E=  1.11627600541654     Delta-E=       -0.001848490056 Rises=F Damp=F
 DIIS: error= 6.17D-04 at cycle   5 NSaved=   5.
 NSaved= 5 IEnMin= 5 EnMin=  1.11627600541654     IErMin= 5 ErrMin= 6.17D-04
 ErrMax= 6.17D-04  0.00D+00 EMaxC= 1.00D-01 BMatC= 1.19D-05 BMatP= 3.36D-04
 IDIUse=3 WtCom= 9.94D-01 WtEn= 6.17D-03
 Coeff-Com: -0.380D-02-0.229D-01 0.656D-01-0.225D+00 0.119D+01
 Coeff-En:   0.000D+00 0.000D+00 0.000D+00 0.000D+00 0.100D+01
 Coeff:     -0.378D-02-0.228D-01 0.652D-01-0.224D+00 0.119D+01
 Gap=     0.413 Goal=   None    Shift=    0.000
 RMSDP=5.39D-04 MaxDP=4.19D-03 DE=-1.85D-03 OVMax= 4.83D-03

 Cycle   6  Pass 1  IDiag  3:
 E=  1.11621339590418     Delta-E=       -0.000062609512 Rises=F Damp=F
 DIIS: error= 1.47D-04 at cycle   6 NSaved=   6.
 NSaved= 6 IEnMin= 6 EnMin=  1.11621339590418     IErMin= 6 ErrMin= 1.47D-04
 ErrMax= 1.47D-04  0.00D+00 EMaxC= 1.00D-01 BMatC= 7.14D-07 BMatP= 1.19D-05
 IDIUse=3 WtCom= 9.99D-01 WtEn= 1.47D-03
 Coeff-Com: -0.819D-03 0.134D-02 0.265D-01-0.334D-01-0.404D+00 0.141D+01
 Coeff-En:   0.000D+00 0.000D+00 0.000D+00 0.000D+00 0.000D+00 0.100D+01
 Coeff:     -0.817D-03 0.134D-02 0.265D-01-0.334D-01-0.403D+00 0.141D+01
 Gap=     0.413 Goal=   None    Shift=    0.000
 RMSDP=1.05D-04 MaxDP=8.28D-04 DE=-6.26D-05 OVMax= 7.20D-04

 Cycle   7  Pass 1  IDiag  3:
 E=  1.11621022027865     Delta-E=       -0.000003175626 Rises=F Damp=F
 DIIS: error= 2.26D-05 at cycle   7 NSaved=   7.
 NSaved= 7 IEnMin= 7 EnMin=  1.11621022027865     IErMin= 7 ErrMin= 2.26D-05
 ErrMax= 2.26D-05  0.00D+00 EMaxC= 1.00D-01 BMatC= 2.03D-08 BMatP= 7.14D-07
 IDIUse=1 WtCom= 1.00D+00 WtEn= 0.00D+00
 Coeff-Com:  0.318D-03 0.585D-03-0.139D-01 0.221D-01 0.127D+00-0.566D+00
 Coeff-Com:  0.143D+01
 Coeff:      0.318D-03 0.585D-03-0.139D-01 0.221D-01 0.127D+00-0.566D+00
 Coeff:      0.143D+01
 Gap=     0.413 Goal=   None    Shift=    0.000
 RMSDP=1.81D-05 MaxDP=1.18D-04 DE=-3.18D-06 OVMax= 1.08D-04

 Cycle   8  Pass 1  IDiag  3:
 E=  1.11621012992049     Delta-E=       -0.000000090358 Rises=F Damp=F
 DIIS: error= 5.12D-06 at cycle   8 NSaved=   8.
 NSaved= 8 IEnMin= 8 EnMin=  1.11621012992049     IErMin= 8 ErrMin= 5.12D-06
 ErrMax= 5.12D-06  0.00D+00 EMaxC= 1.00D-01 BMatC= 8.49D-10 BMatP= 2.03D-08
 IDIUse=1 WtCom= 1.00D+00 WtEn= 0.00D+00
 Coeff-Com: -0.648D-04-0.484D-03 0.422D-02-0.684D-02-0.256D-01 0.121D+00
 Coeff-Com: -0.371D+00 0.128D+01
 Coeff:     -0.648D-04-0.484D-03 0.422D-02-0.684D-02-0.256D-01 0.121D+00
 Coeff:     -0.371D+00 0.128D+01
 Gap=     0.413 Goal=   None    Shift=    0.000
 RMSDP=3.18D-06 MaxDP=2.05D-05 DE=-9.04D-08 OVMax= 2.33D-05

 Cycle   9  Pass 1  IDiag  3:
 E=  1.11621012628302     Delta-E=       -0.000000003637 Rises=F Damp=F
 DIIS: error= 1.33D-06 at cycle   9 NSaved=   9.
 NSaved= 9 IEnMin= 9 EnMin=  1.11621012628302     IErMin= 9 ErrMin= 1.33D-06
 ErrMax= 1.33D-06  0.00D+00 EMaxC= 1.00D-01 BMatC= 6.70D-11 BMatP= 8.49D-10
 IDIUse=1 WtCom= 1.00D+00 WtEn= 0.00D+00
 Coeff-Com:  0.484D-05 0.134D-03-0.109D-02 0.161D-02 0.806D-02-0.331D-01
 Coeff-Com:  0.915D-01-0.576D+00 0.151D+01
 Coeff:      0.484D-05 0.134D-03-0.109D-02 0.161D-02 0.806D-02-0.331D-01
 Coeff:      0.915D-01-0.576D+00 0.151D+01
 Gap=     0.413 Goal=   None    Shift=    0.000
 RMSDP=1.44D-06 MaxDP=9.85D-06 DE=-3.64D-09 OVMax= 1.14D-05

 Cycle  10  Pass 1  IDiag  3:
 E=  1.11621012581588     Delta-E=       -0.000000000467 Rises=F Damp=F
 DIIS: error= 4.01D-07 at cycle  10 NSaved=  10.
 NSaved=10 IEnMin=10 EnMin=  1.11621012581588     IErMin=10 ErrMin= 4.01D-07
 ErrMax= 4.01D-07  0.00D+00 EMaxC= 1.00D-01 BMatC= 5.07D-12 BMatP= 6.70D-11
 IDIUse=1 WtCom= 1.00D+00 WtEn= 0.00D+00
 Coeff-Com:  0.140D-05-0.335D-04 0.254D-03-0.335D-03-0.222D-02 0.783D-02
 Coeff-Com: -0.161D-01 0.202D+00-0.817D+00 0.163D+01
 Coeff:      0.140D-05-0.335D-04 0.254D-03-0.335D-03-0.222D-02 0.783D-02
 Coeff:     -0.161D-01 0.202D+00-0.817D+00 0.163D+01
 Gap=     0.413 Goal=   None    Shift=    0.000
 RMSDP=4.70D-07 MaxDP=4.09D-06 DE=-4.67D-10 OVMax= 4.70D-06

 Cycle  11  Pass 1  IDiag  3:
 E=  1.11621012577807     Delta-E=       -0.000000000038 Rises=F Damp=F
 DIIS: error= 8.14D-08 at cycle  11 NSaved=  11.
 NSaved=11 IEnMin=11 EnMin=  1.11621012577807     IErMin=11 ErrMin= 8.14D-08
 ErrMax= 8.14D-08  0.00D+00 EMaxC= 1.00D-01 BMatC= 2.44D-13 BMatP= 5.07D-12
 IDIUse=1 WtCom= 1.00D+00 WtEn= 0.00D+00
 Coeff-Com: -0.389D-06 0.293D-05-0.206D-04 0.226D-04 0.187D-03-0.422D-03
 Coeff-Com: -0.902D-03-0.402D-01 0.223D+00-0.600D+00 0.142D+01
 Coeff:     -0.389D-06 0.293D-05-0.206D-04 0.226D-04 0.187D-03-0.422D-03
 Coeff:     -0.902D-03-0.402D-01 0.223D+00-0.600D+00 0.142D+01
 Gap=     0.413 Goal=   None    Shift=    0.000
 RMSDP=8.37D-08 MaxDP=9.10D-07 DE=-3.78D-11 OVMax= 8.84D-07

 Cycle  12  Pass 1  IDiag  3:
 E=  1.11621012577641     Delta-E=       -0.000000000002 Rises=F Damp=F
 DIIS: error= 2.17D-08 at cycle  12 NSaved=  12.
 NSaved=12 IEnMin=12 EnMin=  1.11621012577641     IErMin=12 ErrMin= 2.17D-08
 ErrMax= 2.17D-08  0.00D+00 EMaxC= 1.00D-01 BMatC= 1.77D-14 BMatP= 2.44D-13
 IDIUse=1 WtCom= 1.00D+00 WtEn= 0.00D+00
 Coeff-Com: -0.231D-07-0.273D-06 0.463D-05-0.630D-05-0.280D-04 0.327D-04
 Coeff-Com:  0.633D-03 0.143D-01-0.837D-01 0.233D+00-0.740D+00 0.158D+01
 Coeff:     -0.231D-07-0.273D-06 0.463D-05-0.630D-05-0.280D-04 0.327D-04
 Coeff:      0.633D-03 0.143D-01-0.837D-01 0.233D+00-0.740D+00 0.158D+01
 Gap=     0.413 Goal=   None    Shift=    0.000
 RMSDP=2.56D-08 MaxDP=2.44D-07 DE=-1.66D-12 OVMax= 2.73D-07

 Cycle  13  Pass 1  IDiag  3:
 E=  1.11621012577655     Delta-E=        0.000000000000 Rises=F Damp=F
 DIIS: error= 5.07D-09 at cycle  13 NSaved=  13.
 NSaved=13 IEnMin=12 EnMin=  1.11621012577641     IErMin=13 ErrMin= 5.07D-09
 ErrMax= 5.07D-09  0.00D+00 EMaxC= 1.00D-01 BMatC= 8.94D-16 BMatP= 1.77D-14
 IDIUse=1 WtCom= 1.00D+00 WtEn= 0.00D+00
 Coeff-Com:  0.199D-07 0.367D-07-0.214D-06 0.669D-06-0.133D-04 0.770D-04
 Coeff-Com: -0.466D-03-0.518D-02 0.326D-01-0.913D-01 0.313D+00-0.828D+00
 Coeff-Com:  0.158D+01
 Coeff:      0.199D-07 0.367D-07-0.214D-06 0.669D-06-0.133D-04 0.770D-04
 Coeff:     -0.466D-03-0.518D-02 0.326D-01-0.913D-01 0.313D+00-0.828D+00
 Coeff:      0.158D+01
 Gap=     0.413 Goal=   None    Shift=    0.000
 RMSDP=5.82D-09 MaxDP=4.54D-08 DE= 1.42D-13 OVMax= 4.53D-08

 Cycle  14  Pass 2  IDiag  1:
 SCF Done:  E(RAM1) =   1.11621012578     A.U. after   14 cycles
            NFock= 13  Conv=0.58D-08     -V/T= 1.0746
 KE=-1.496867193620D+01 PE=-1.710459703650D+02 EE= 8.279065770137D+01
 Leave Link  502 at Tue Dec 15 17:05:36 2015, MaxMem=    33554432 cpu:         0.0
 (Enter /home/Applications/g09/g09/l801.exe)
 Range of M.O.s used for correlation:     1    24
 NBasis=    24 NAE=    13 NBE=    13 NFC=     0 NFV=     0
 NROrb=     24 NOA=    13 NOB=    13 NVA=    11 NVB=    11
 Leave Link  801 at Tue Dec 15 17:05:36 2015, MaxMem=    33554432 cpu:         0.0
 (Enter /home/Applications/g09/g09/l914.exe)
 RHF ground state
 MDV=    33554432 DFT=F DoStab=F Mixed=F DoRPA=F DoScal=F NonHer=F
 Making orbital integer symmetry assigments:
 Orbital symmetries:
       Occupied  (A) (A) (A) (A) (A) (A) (A) (A) (A) (A) (A) (A)
                 (A)
       Virtual   (A) (A) (A) (A) (A) (A) (A) (A) (A) (A) (A)
    60 initial guesses have been made.
 Convergence on wavefunction:    0.000001000000000
 Davidson Disk Diagonalization:  ConvIn= 1.00D-06 SkipCon=T Conv= 1.00D-06.
 Max sub-space:   240 roots to seek:    60 dimension of matrix:          286
 Iteration     1 Dimension    60 NMult     0 NNew     60
 CISAX will form    60 AO SS matrices at one time.
 NMat=    60 NSing=    60 JSym2X= 0.
 FoFJK:  IHMeth= 8 ICntrl=       0 DoSepK=F KAlg= 0 I1Cent=   0 FoldK=F
 IRaf=         1 NMat= 120 IRICut=       1 DoRegI=T DoRafI=F ISym2E= 0.
 FoFCou: FMM=F IPFlag=           0 FMFlag=      100000 FMFlg1=           0
         NFxFlg=           0 DoJE=F BraDBF=F KetDBF=F FulRan=T
         wScrn=  0.000000 ICntrl=       0 IOpCl=  0 I1Cent=           0 NGrid=           0
         NMat0=  120 NMatS0=     60 NMatT0=    0 NMatD0=  120 NMtDS0=    0 NMtDT0=    0
 Symmetry not used in FoFCou.
 New state      2 was old state      3
 New state      3 was old state      2
 New state      5 was old state      6
 New state      6 was old state      7
 New state      7 was old state      5
 New state      9 was old state     10
 New state     10 was old state     13
 New state     11 was old state     12
 New state     12 was old state      9
 New state     13 was old state     14
 New state     14 was old state     11
 New state     15 was old state     16
 Excitation Energies [eV] at current iteration:
 Root      1 :     5.496159908662664
 Root      2 :     6.432742980572452
 Root      3 :     6.827296997544204
 Root      4 :     6.969410617979951
 Root      5 :     7.216264130949321
 Root      6 :     7.812623251051821
 Root      7 :     8.075525833668465
 Root      8 :     8.119238475543247
 Root      9 :     8.335013351574675
 Root     10 :     8.421480198669483
 Root     11 :     8.785456899082575
 Root     12 :     8.932952025462271
 Root     13 :     9.166234562339115
 Root     14 :     9.332112735195908
 Root     15 :     9.533861697946380
 Root     16 :     9.656993959054230
 Root     17 :     9.842283614905163
 Root     18 :     9.858468476131163
 Root     19 :     9.870475026960662
 Root     20 :    10.641997717675890
 Root     21 :    10.762394971067150
 Root     22 :    10.777475933626270
 Root     23 :    10.793588537812480
 Root     24 :    10.911921849583600
 Root     25 :    10.997243976295840
 Root     26 :    11.055263547400120
 Root     27 :    11.176342965017860
 Root     28 :    11.226622684995340
 Root     29 :    11.444756666181390
 Root     30 :    11.522127281380860
 Root     31 :    11.667833117329480
 Root     32 :    11.921800891635510
 Root     33 :    12.020025446721190
 Root     34 :    12.125929969032930
 Root     35 :    12.197999686420100
 Root     36 :    12.250256179109740
 Root     37 :    12.312478172218510
 Root     38 :    12.433577666101500
 Root     39 :    12.597216934769290
 Root     40 :    12.845115539730720
 Root     41 :    13.151354928240550
 Root     42 :    13.236830543320870
 Root     43 :    13.306227550875510
 Root     44 :    13.447846879855060
 Root     45 :    13.696645550413030
 Root     46 :    13.825826251110780
 Root     47 :    13.941591548979090
 Root     48 :    13.991441116264860
 Root     49 :    14.015430442699780
 Root     50 :    14.112571713329960
 Root     51 :    14.184608535370920
 Root     52 :    14.204578780615500
 Root     53 :    14.692979239621000
 Root     54 :    14.740176259462860
 Root     55 :    14.868795091588120
 Root     56 :    14.963208807360600
 Root     57 :    15.285283427549120
 Root     58 :    15.411973509556160
 Root     59 :    15.801240350597020
 Root     60 :    15.917594080928620
 Iteration     2 Dimension   120 NMult    60 NNew     60
 CISAX will form    60 AO SS matrices at one time.
 NMat=    60 NSing=    60 JSym2X= 0.
 Root      1 not converged, maximum delta is    0.030544477235202
 Root      2 not converged, maximum delta is    0.046279187473870
 Root      3 not converged, maximum delta is    0.030223745213234
 Root      4 not converged, maximum delta is    0.031995330756111
 Root      5 not converged, maximum delta is    0.022136481609180
 Root      6 not converged, maximum delta is    0.070668873022647
 Root      7 not converged, maximum delta is    0.039736325710378
 Root      8 not converged, maximum delta is    0.051447872828534
 New state      9 was old state     10
 Root      9 not converged, maximum delta is    0.293925041458342
 New state     10 was old state      9
 Root     10 not converged, maximum delta is    0.243787189534683
 Root     11 not converged, maximum delta is    0.066363253862319
 Root     12 not converged, maximum delta is    0.039545952413109
 Root     13 not converged, maximum delta is    0.049230001053643
 Root     14 not converged, maximum delta is    0.102560134100462
 Root     15 not converged, maximum delta is    0.088804973212901
 Excitation Energies [eV] at current iteration:
 Root      1 :     5.423331667415840   Change is   -0.072828241246824
 Root      2 :     6.332042232519576   Change is   -0.100700748052876
 Root      3 :     6.744247753454862   Change is   -0.083049244089343
 Root      4 :     6.908254681204107   Change is   -0.061155936775844
 Root      5 :     7.189717865390167   Change is   -0.026546265559154
 Root      6 :     7.776120460923509   Change is   -0.036502790128313
 Root      7 :     7.976942049313165   Change is   -0.098583784355299
 Root      8 :     8.044887954880627   Change is   -0.074350520662618
 Root      9 :     8.192590525027468   Change is   -0.228889673642015
 Root     10 :     8.226455577176395   Change is   -0.108557774398281
 Root     11 :     8.642085649506136   Change is   -0.143371249576439
 Root     12 :     8.812798983161999   Change is   -0.120153042300272
 Root     13 :     9.013198006587176   Change is   -0.153036555751940
 Root     14 :     9.118348590478737   Change is   -0.213764144717172
 Root     15 :     9.402228408812475   Change is   -0.131633289133906
 Root     16 :     9.500293627512121   Change is   -0.341989987393041
 Root     17 :     9.542486914282769   Change is   -0.114507044771461
 Root     18 :     9.744205159496593   Change is   -0.114263316634569
 Root     19 :     9.796019727273722   Change is   -0.074455299686941
 Root     20 :    10.452848852209150   Change is   -0.459072997374453
 Root     21 :    10.555559829958600   Change is   -0.086437887717289
 Root     22 :    10.592481271863020   Change is   -0.169913699204131
 Root     23 :    10.664375738993890   Change is   -0.113100194632374
 Root     24 :    10.716764422579340   Change is   -0.076824115233144
 Root     25 :    10.835788726649930   Change is   -0.390833958345406
 Root     26 :    10.886251789617420   Change is   -0.110992186678422
 Root     27 :    10.975412178967920   Change is   -0.079851368432198
 Root     28 :    11.124752816732250   Change is   -0.051590148285610
 Root     29 :    11.276130065864910   Change is   -0.245997215515950
 Root     30 :    11.380243592094730   Change is   -0.064513074086657
 Root     31 :    11.607710189956980   Change is   -0.060122927372502
 Root     32 :    11.658975777290790   Change is   -0.361049669430400
 Root     33 :    11.745492980785810   Change is   -0.176307910849698
 Root     34 :    11.817843264382930   Change is   -0.432412914726809
 Root     35 :    11.893036293649170   Change is   -0.232893675383763
 Root     36 :    12.014837209639940   Change is   -0.183162476780159
 Root     37 :    12.085465479523460   Change is   -0.227012692695055
 Root     38 :    12.121839191827220   Change is   -0.311738474274285
 Root     39 :    12.352638223357000   Change is   -0.244578711412283
 Root     40 :    12.613378238708120   Change is   -0.231737301022602
 Root     41 :    12.783249900882370   Change is   -0.368105027358177
 Root     42 :    12.903398993630920   Change is   -0.544447886224138
 Root     43 :    12.976840766562680   Change is   -0.329386784312831
 Root     44 :    13.123735022047340   Change is   -0.113095521273532
 Root     45 :    13.333106335535630   Change is   -0.779465377794333
 Root     46 :    13.477957938804930   Change is   -0.218687611608100
 Root     47 :    13.557881946256650   Change is   -0.267944304854128
 Root     48 :    13.765263520977670   Change is   -0.226177595287183
 Root     49 :    13.806881094487590   Change is   -0.208549348212188
 Root     50 :    13.913100840179210   Change is   -0.028490708799881
 Root     51 :    13.984313652940660   Change is   -0.220265127674842
 Root     52 :    14.039197776965720   Change is   -0.145410758405201
 Root     53 :    14.152725765356670   Change is   -0.540253474264325
 Root     54 :    14.413523537379880   Change is   -0.455271554208241
 Root     55 :    14.601625594067490   Change is   -0.138550665395367
 Root     56 :    14.689026492193090   Change is   -0.274182315167512
 Root     57 :    14.906525976362790   Change is   -0.505447533193371
 Root     58 :    15.152572050602770   Change is   -0.132711376946348
 Root     59 :    15.164274224839180   Change is   -0.636966125757836
 Root     60 :    15.518135898212230
 Iteration     3 Dimension   135 NMult   120 NNew     15
 CISAX will form    15 AO SS matrices at one time.
 NMat=    15 NSing=    15 JSym2X= 0.
 Root      1 not converged, maximum delta is    0.001250594422803
 Root      2 not converged, maximum delta is    0.000076985196919
 Root      3 not converged, maximum delta is    0.000768782553250
 Root      4 not converged, maximum delta is    0.000061227441780
 Root      5 not converged, maximum delta is    0.000038843232534
 Root      6 not converged, maximum delta is    0.000123433939404
 Root      7 not converged, maximum delta is    0.001222587202410
 Root      8 not converged, maximum delta is    0.000097972812889
 Root      9 not converged, maximum delta is    0.000107231191110
 Root     10 not converged, maximum delta is    0.000111212250751
 Root     11 not converged, maximum delta is    0.000435738344435
 Root     12 not converged, maximum delta is    0.002777089469973
 Root     13 not converged, maximum delta is    0.001585246611164
 Root     14 not converged, maximum delta is    0.000232139783036
 Root     15 not converged, maximum delta is    0.000737512621711
 Excitation Energies [eV] at current iteration:
 Root      1 :     5.423009861251267   Change is   -0.000321806164573
 Root      2 :     6.332040748795790   Change is   -0.000001483723786
 Root      3 :     6.744080619281190   Change is   -0.000167134173671
 Root      4 :     6.908253505736791   Change is   -0.000001175467315
 Root      5 :     7.189717427697920   Change is   -0.000000437692247
 Root      6 :     7.776117954781189   Change is   -0.000002506142320
 Root      7 :     7.976531521032400   Change is   -0.000410528280766
 Root      8 :     8.044887113265181   Change is   -0.000000841615447
 Root      9 :     8.192588203705316   Change is   -0.000002321322152
 Root     10 :     8.226453422719652   Change is   -0.000002154456743
 Root     11 :     8.642062909531631   Change is   -0.000022739974505
 Root     12 :     8.812016821547594   Change is   -0.000782161614405
 Root     13 :     9.012685631562873   Change is   -0.000512375024303
 Root     14 :     9.118341502906452   Change is   -0.000007087572286
 Root     15 :     9.402210521209241   Change is   -0.000017887603233
 Iteration     4 Dimension   143 NMult   135 NNew      8
 CISAX will form     8 AO SS matrices at one time.
 NMat=     8 NSing=     8 JSym2X= 0.
 Root      1 not converged, maximum delta is    0.000043087205390
 Root      2 not converged, maximum delta is    0.000003187540238
 Root      3 not converged, maximum delta is    0.000037028980892
 Root      4 not converged, maximum delta is    0.000002524857528
 Root      5 not converged, maximum delta is    0.000002295824912
 Root      6 not converged, maximum delta is    0.000004160212066
 Root      7 not converged, maximum delta is    0.000052840584118
 Root      8 not converged, maximum delta is    0.000003632413235
 Root      9 not converged, maximum delta is    0.000003032437095
 Root     10 not converged, maximum delta is    0.000003405755084
 Root     11 not converged, maximum delta is    0.000017593259787
 Root     12 not converged, maximum delta is    0.000108180752779
 Root     13 not converged, maximum delta is    0.000043622487299
 Root     14 not converged, maximum delta is    0.000009109291764
 Root     15 not converged, maximum delta is    0.000013180141107
 Excitation Energies [eV] at current iteration:
 Root      1 :     5.423009067657159   Change is   -0.000000793594108
 Root      2 :     6.332040744522188   Change is   -0.000000004273602
 Root      3 :     6.744080239254858   Change is   -0.000000380026332
 Root      4 :     6.908253503213285   Change is   -0.000000002523506
 Root      5 :     7.189717426080570   Change is   -0.000000001617350
 Root      6 :     7.776117948906759   Change is   -0.000000005874429
 Root      7 :     7.976530437718985   Change is   -0.000001083313415
 Root      8 :     8.044887110331356   Change is   -0.000000002933825
 Root      9 :     8.192588200487505   Change is   -0.000000003217812
 Root     10 :     8.226453419545438   Change is   -0.000000003174215
 Root     11 :     8.642062852199883   Change is   -0.000000057331747
 Root     12 :     8.812014933750252   Change is   -0.000001887797342
 Root     13 :     9.012684681595092   Change is   -0.000000949967780
 Root     14 :     9.118341473881381   Change is   -0.000000029025069
 Root     15 :     9.402210472095515   Change is   -0.000000049113726
 Convergence achieved on expansion vectors.
 ***********************************************************************
 Excited states from <AA,BB:AA,BB> singles matrix:
 ***********************************************************************
 
 1PDM for each excited state written to RWF  633
 Ground to excited state transition densities written to RWF  633
 Ground to excited state transition electric dipole moments (Au):
       state          X           Y           Z        Dip. S.      Osc.
         1         1.2272      0.0924     -0.0330      1.5157      0.2014
         2        -0.0239      0.0216      0.1409      0.0209      0.0032
         3        -0.0031     -0.3758      0.0142      0.1414      0.0234
         4         0.0035      0.0228      0.0077      0.0006      0.0001
         5         0.0033      0.0226     -0.0351      0.0018      0.0003
         6         0.0155     -0.0358     -0.0015      0.0015      0.0003
         7        -0.0596      1.0733      0.0104      1.1556      0.2258
         8         0.0055      0.0220     -0.0109      0.0006      0.0001
         9        -0.0038     -0.0159      0.3183      0.1016      0.0204
        10        -0.0011     -0.0002      0.0414      0.0017      0.0003
        11        -0.1611     -0.0200      0.0082      0.0264      0.0056
        12         1.0497     -0.0491     -0.0005      1.1042      0.2384
        13         0.0465      0.5550      0.0069      0.3103      0.0685
        14        -0.0438      0.0031     -0.1276      0.0182      0.0041
        15         0.0050      0.0121      0.0096      0.0003      0.0001
 Ground to excited state transition velocity dipole moments (Au):
       state          X           Y           Z        Dip. S.      Osc.
         1        -0.1412     -0.0158      0.0032      0.0202      0.0676
         2         0.0039     -0.0013     -0.1499      0.0225      0.0644
         3        -0.0002      0.0319     -0.0102      0.0011      0.0030
         4        -0.0024      0.0011     -0.0292      0.0009      0.0023
         5        -0.0024     -0.0057      0.0043      0.0001      0.0001
         6        -0.0044      0.0065     -0.0482      0.0024      0.0056
         7         0.0085     -0.2768     -0.0019      0.0767      0.1744
         8         0.0003     -0.0083      0.0361      0.0014      0.0031
         9         0.0004      0.0029     -0.0442      0.0020      0.0044
        10        -0.0015     -0.0007      0.1141      0.0130      0.0287
        11         0.0254      0.0054      0.0436      0.0026      0.0054
        12        -0.1847      0.0008     -0.0027      0.0341      0.0702
        13        -0.0044     -0.0918      0.0015      0.0084      0.0170
        14         0.0087     -0.0020     -0.1348      0.0183      0.0363
        15        -0.0062      0.0006     -0.0187      0.0004      0.0008
 Ground to excited state transition magnetic dipole moments (Au):
       state          X           Y           Z
         1         0.0134     -0.0026      0.4258
         2         0.0475     -0.0222     -0.0091
         3         0.0017     -0.0055      0.0146
         4         0.0369     -0.1861      0.0001
         5         0.1865      0.7597      0.0077
         6        -1.2754      0.1255      0.0024
         7        -0.0593     -0.0175      0.0097
         8         0.0713      0.6151      0.0055
         9         0.1335      0.1611     -0.0033
        10         0.5338     -0.1102      0.0050
        11        -0.0954     -0.0566      0.0028
        12         0.0120     -0.0321     -0.0994
        13         0.0180     -0.0036      0.0598
        14         0.5588     -0.0840     -0.0021
        15         0.0128      0.8354      0.0100
 Ground to excited state transition velocity quadrupole moments (Au):
       state          XX          YY          ZZ          XY          XZ          YZ
         1        -0.0045     -0.0141      0.0034     -0.4281     -0.0037      0.0082
         2         0.0050      0.0174     -0.0061      0.0053      0.0094     -0.0122
         3         0.1724     -0.3605      0.0925      0.0007      0.0176      0.0001
         4        -0.0220      0.0370     -0.0039     -0.0045      0.1217      0.0024
         5        -0.0101     -0.0092     -0.0068     -0.0069      0.2140     -0.0255
         6        -0.0201     -0.0011      0.0000     -0.0075      0.0491      0.1553
         7         0.3516     -0.1015     -0.0122     -0.0238      0.0254     -0.0067
         8         0.0037     -0.0032      0.0043      0.0041     -0.5186      0.1083
         9         0.0137      0.0015      0.0027     -0.0030     -0.0672     -0.2090
        10         0.0038     -0.0014     -0.0012     -0.0079      0.1335      0.3240
        11        -0.0073     -0.0033      0.0068     -0.0405      0.1948     -0.0463
        12         0.0469      0.0546     -0.0027      0.2980      0.0366      0.0059
        13        -0.3349     -0.3450     -0.0362      0.0432      0.0074     -0.0092
        14         0.0238     -0.0019     -0.0013     -0.0237      0.0203      0.2995
        15        -0.0073     -0.0053     -0.0043      0.0231      0.0886      0.0249
 <0|del|b> * <b|rxdel|0> + <0|del|b> * <b|delr+rdel|0>
 Rotatory Strengths (R) in cgs (10**-40 erg-esu-cm/Gauss)
       state          XX          YY          ZZ    R(velocity)    E-M Angle
         1        -0.0442     -0.5456     -1.1520     -0.5806       90.46
         2         0.9288      3.4874      0.3768      1.5977       78.61
         3        -1.2746     -0.2020      0.5528     -0.3079      128.06
         4        -0.3052     -0.3163     -0.2163     -0.2793       93.10
         5        -4.1730     -0.4395     -8.1448     -4.2525      143.72
         6         0.9159      5.5639      9.2641      5.2480       84.17
         7        14.3732     -0.7565     -3.1645      3.4841       75.52
         8       -10.8281      0.1314     -0.9724     -3.8897      102.27
         9         1.1187     -0.0178      0.4809      0.5273       85.84
        10        -0.1903      0.2563     -0.3762     -0.1034       90.12
        11        -3.3301     -1.8993     -0.5601     -1.9298      117.52
        12        -0.6539     -2.4357     -1.2214     -1.4370       95.84
        13         1.2507     -0.0143     -0.5002      0.2454       86.56
        14         3.8880      4.7739      2.5054      3.7224       86.03
        15        -0.1490      0.0137      0.6783      0.1810       89.08
 1/2[<0|r|b>*<b|rxdel|0> + (<0|rxdel|b>*<b|r|0>)*]
 Rotatory Strengths (R) in cgs (10**-40 erg-esu-cm/Gauss)
       state          XX          YY          ZZ     R(length)
         1       -11.6718      0.1670      9.9323     -0.5242
         2         0.8029      0.3394      0.9069      0.6831
         3         0.0036     -1.4593     -0.1464     -0.5340
         4        -0.0914      2.9967     -0.0005      0.9683
         5        -0.4375    -12.1344      0.1921     -4.1266
         6        13.9873      3.1815      0.0025      5.7238
         7        -2.4992     13.3168     -0.0712      3.5822
         8        -0.2788     -9.5856      0.0421     -3.2741
         9         0.3611      1.8156      0.7503      0.9757
        10         0.4168     -0.0158     -0.1468      0.0847
        11       -10.8665     -0.8002     -0.0165     -3.8944
        12        -8.9155     -1.1134     -0.0384     -3.3557
        13        -0.5930      1.4226     -0.2902      0.1798
        14        17.2970      0.1850     -0.1885      5.7645
        15        -0.0448     -7.1262     -0.0681     -2.4131
  1/2[<0|del|b>*<b|r|0> + (<0|r|b>*<b|del|0>)*] (Au)
       state          X           Y           Z        Dip. S.   Osc.(frdel)
         1        -0.1733     -0.0015     -0.0001      0.1749      0.1166
         2        -0.0001      0.0000     -0.0211      0.0212      0.0142
         3         0.0000     -0.0120     -0.0001      0.0121      0.0081
         4         0.0000      0.0000     -0.0002      0.0002      0.0001
         5         0.0000     -0.0001     -0.0002      0.0003      0.0002
         6        -0.0001     -0.0002      0.0001      0.0002      0.0002
         7        -0.0005     -0.2971      0.0000      0.2976      0.1984
         8         0.0000     -0.0002     -0.0004      0.0006      0.0004
         9         0.0000      0.0000     -0.0141      0.0141      0.0094
        10         0.0000      0.0000      0.0047     -0.0047     -0.0032
        11        -0.0041     -0.0001      0.0004      0.0038      0.0026
        12        -0.1939      0.0000      0.0000      0.1939      0.1293
        13        -0.0002     -0.0509      0.0000      0.0511      0.0341
        14        -0.0004      0.0000      0.0172     -0.0168     -0.0112
        15         0.0000      0.0000     -0.0002      0.0002      0.0001

 Excitation energies and oscillator strengths:
 
 Excited State   1:      Singlet-A      5.4230 eV  228.63 nm  f=0.2014  <S**2>=0.000
      12 -> 15        -0.14331
      13 -> 14         0.67951
 This state for optimization and/or second-order correction.
 Total Energy, E(CIS) =   1.31550205064    
 Copying the excited state density for this state as the 1-particle RhoCI density.
 
 Excited State   2:      Singlet-A      6.3320 eV  195.80 nm  f=0.0032  <S**2>=0.000
      13 -> 16         0.67026
      13 -> 19         0.12168
      13 -> 20        -0.11122
 
 Excited State   3:      Singlet-A      6.7441 eV  183.84 nm  f=0.0234  <S**2>=0.000
      12 -> 14         0.32201
      13 -> 15         0.60681
 
 Excited State   4:      Singlet-A      6.9083 eV  179.47 nm  f=0.0001  <S**2>=0.000
      13 -> 17         0.65038
      13 -> 18         0.17284
      13 -> 21         0.15503
 
 Excited State   5:      Singlet-A      7.1897 eV  172.45 nm  f=0.0003  <S**2>=0.000
       9 -> 14         0.15481
      11 -> 14         0.68120
 
 Excited State   6:      Singlet-A      7.7761 eV  159.44 nm  f=0.0003  <S**2>=0.000
       9 -> 15         0.10714
      10 -> 14         0.59344
      11 -> 15        -0.33036
 
 Excited State   7:      Singlet-A      7.9765 eV  155.44 nm  f=0.2258  <S**2>=0.000
      11 -> 16        -0.12282
      12 -> 14         0.60794
      13 -> 15        -0.28977
 
 Excited State   8:      Singlet-A      8.0449 eV  154.12 nm  f=0.0001  <S**2>=0.000
      12 -> 16        -0.15738
      13 -> 17        -0.15002
      13 -> 18         0.63856
      13 -> 24         0.14190
 
 Excited State   9:      Singlet-A      8.1926 eV  151.34 nm  f=0.0204  <S**2>=0.000
       9 -> 15        -0.15852
      10 -> 14         0.30446
      11 -> 15         0.55079
      13 -> 19        -0.22978
 
 Excited State  10:      Singlet-A      8.2265 eV  150.71 nm  f=0.0003  <S**2>=0.000
      10 -> 14         0.20099
      11 -> 15         0.15227
      13 -> 19         0.61866
      13 -> 20         0.11741
      13 -> 22         0.10823
 
 Excited State  11:      Singlet-A      8.6421 eV  143.47 nm  f=0.0056  <S**2>=0.000
      12 -> 15        -0.15356
      12 -> 16         0.62945
      12 -> 17        -0.11859
      12 -> 19         0.11051
      13 -> 18         0.13064
 
 Excited State  12:      Singlet-A      8.8120 eV  140.70 nm  f=0.2384  <S**2>=0.000
       9 -> 17         0.13126
      12 -> 15         0.62654
      12 -> 16         0.15562
      13 -> 14         0.13495
 
 Excited State  13:      Singlet-A      9.0127 eV  137.57 nm  f=0.0685  <S**2>=0.000
       9 -> 16        -0.21075
      10 -> 16         0.10543
      10 -> 17        -0.17971
      11 -> 16         0.56878
      11 -> 19         0.17603
      13 -> 15        -0.12740
 
 Excited State  14:      Singlet-A      9.1183 eV  135.97 nm  f=0.0041  <S**2>=0.000
       7 -> 16        -0.10258
      12 -> 17         0.50434
      13 -> 20         0.44682
 
 Excited State  15:      Singlet-A      9.4022 eV  131.87 nm  f=0.0001  <S**2>=0.000
       9 -> 14         0.64370
      10 -> 15         0.11406
      11 -> 14        -0.14623
      13 -> 21         0.15527
 SavETr:  write IOETrn=   770 NScale= 10 NData=  16 NLR=1 NState=   15 LETran=     280.
 The selected state is a singlet
 CISAX will form     1 AO SS matrices at one time.
 NMat=     1 NSing=     1 JSym2X= 0.
 Leave Link  914 at Tue Dec 15 17:05:37 2015, MaxMem=    33554432 cpu:         0.1
 (Enter /home/Applications/g09/g09/l1002.exe)
 Minotr:  Closed shell wavefunction.
          Computing CIS/TD-HF/TD-KS derivatives.
          Using Z-Vector for PSCF gradient.
          Skipping F1 and S1 gradient terms here.
          IDoAtm=111111111
          Direct CPHF calculation.
          Differentiating once with respect to electric field.
                with respect to dipole field.
          Differentiating once with respect to nuclear coordinates.
          Electric field/nuclear overlap derivatives assumed to be zero.
          Requested convergence is 1.0D-10 RMS, and 1.0D-09 maximum.
          NewPWx=T KeepS1=F KeepF1=F KeepIn=T MapXYZ=F SortEE=F KeepMc=T.
          MDV=      33495423 using IRadAn=       0.
 Keep J ints in memory in canonical form, NReq=871704.
 FoFCou: FMM=F IPFlag=           0 FMFlag=           0 FMFlg1=           0
         NFxFlg=           0 DoJE=F BraDBF=F KetDBF=F FulRan=T
         wScrn=  0.000000 ICntrl=     600 IOpCl=  2 I1Cent=           0 NGrid=           0
         NMat0=    1 NMatS0=     54 NMatT0=    0 NMatD0=    1 NMtDS0=    0 NMtDT0=    0
 Symmetry not used in FoFCou.
          Solving linear equations separately, MaxMat=       0.
          There are     1 degrees of freedom in the 1st order CPHF.  IDoFFX=0 NUNeed=     1.
 LinEq1:  Iter=  0 NonCon=     1 RMS=1.07D-02 Max=1.03D-01 NDo=     1
 AX will form     1 AO Fock derivatives at one time.
 LinEq1:  Iter=  1 NonCon=     1 RMS=1.58D-03 Max=1.30D-02 NDo=     1
 LinEq1:  Iter=  2 NonCon=     1 RMS=1.85D-04 Max=9.33D-04 NDo=     1
 LinEq1:  Iter=  3 NonCon=     1 RMS=1.78D-05 Max=9.26D-05 NDo=     1
 LinEq1:  Iter=  4 NonCon=     1 RMS=2.21D-06 Max=1.06D-05 NDo=     1
 LinEq1:  Iter=  5 NonCon=     1 RMS=2.51D-07 Max=1.24D-06 NDo=     1
 LinEq1:  Iter=  6 NonCon=     1 RMS=4.35D-08 Max=3.14D-07 NDo=     1
 LinEq1:  Iter=  7 NonCon=     1 RMS=5.48D-09 Max=2.70D-08 NDo=     1
 LinEq1:  Iter=  8 NonCon=     1 RMS=8.31D-10 Max=4.32D-09 NDo=     1
 LinEq1:  Iter=  9 NonCon=     1 RMS=1.16D-10 Max=3.67D-10 NDo=     1
 LinEq1:  Iter= 10 NonCon=     0 RMS=1.66D-11 Max=5.70D-11 NDo=     1
 Linear equations converged to 1.000D-10 1.000D-09 after    10 iterations.
 End of Minotr F.D. properties file   721 does not exist.
 End of Minotr F.D. properties file   722 does not exist.
 End of Minotr F.D. properties file   788 does not exist.
 Leave Link 1002 at Tue Dec 15 17:05:37 2015, MaxMem=    33554432 cpu:         0.0
 (Enter /home/Applications/g09/g09/l601.exe)
 Copying SCF densities to generalized density rwf, IOpCl= 0 IROHF=0.

 **********************************************************************

            Population analysis using the SCF density.

 **********************************************************************

 Orbital symmetries:
       Occupied  (A) (A) (A) (A) (A) (A) (A) (A) (A) (A) (A) (A)
                 (A)
       Virtual   (A) (A) (A) (A) (A) (A) (A) (A) (A) (A) (A)
 The electronic state is 1-A.
 Alpha  occ. eigenvalues --   -1.82298  -1.18934  -1.00078  -0.87643  -0.81058
 Alpha  occ. eigenvalues --   -0.73932  -0.71502  -0.62229  -0.56566  -0.52063
 Alpha  occ. eigenvalues --   -0.49266  -0.47892  -0.38204
 Alpha virt. eigenvalues --    0.03082   0.08748   0.09989   0.11384   0.17886
 Alpha virt. eigenvalues --    0.18617   0.19132   0.21538   0.26469   0.26925
 Alpha virt. eigenvalues --    0.27317
     Molecular Orbital Coefficients:
                           1         2         3         4         5
                           O         O         O         O         O
     Eigenvalues --    -1.82298  -1.18934  -1.00078  -0.87643  -0.81058
   1 1   C  1S          0.09990   0.43922   0.25007  -0.27946  -0.17202
   2        1PX        -0.06683  -0.18121   0.16497  -0.22900   0.22664
   3        1PY        -0.11909  -0.11373  -0.14976   0.01974  -0.36131
   4        1PZ         0.00091   0.00413   0.00327  -0.00316   0.00384
   5 2   C  1S          0.24383   0.17878   0.49546   0.05308   0.36873
   6        1PX        -0.25729  -0.10338  -0.02659  -0.15929   0.14533
   7        1PY        -0.09436   0.29941  -0.03289  -0.46540  -0.05724
   8        1PZ        -0.00003   0.00009   0.00285   0.00113   0.01223
   9 3   O  1S          0.80746  -0.33202  -0.00976   0.01939  -0.21789
  10        1PX         0.00418  -0.00202   0.35767   0.37077   0.02431
  11        1PY         0.11125   0.19218  -0.00194  -0.03348   0.14898
  12        1PZ         0.00021   0.00038   0.00026   0.00085   0.00821
  13 4   C  1S          0.24657   0.22922  -0.49244  -0.06160   0.33563
  14        1PX         0.24807   0.13271   0.00721  -0.15240  -0.14539
  15        1PY        -0.11202   0.31369   0.06176   0.47254  -0.02617
  16        1PZ         0.00092   0.00180  -0.00444   0.00050   0.01491
  17 5   C  1S          0.10708   0.48106  -0.20472   0.27284  -0.16114
  18        1PX         0.06172   0.15030   0.21636  -0.24980  -0.24319
  19        1PY        -0.12871  -0.12862   0.15150   0.03196  -0.36701
  20        1PZ        -0.00109  -0.00422   0.00159  -0.00289   0.00918
  21 6   H  1S          0.00867   0.15775  -0.10290   0.22115  -0.17288
  22 7   H  1S          0.05434   0.01665  -0.25905  -0.05642   0.25682
  23 8   H  1S          0.05131   0.00721   0.24864   0.04944   0.28718
  24 9   H  1S          0.00727   0.13223   0.12217  -0.20637  -0.15731
                           6         7         8         9        10
                           O         O         O         O         O
     Eigenvalues --    -0.73932  -0.71502  -0.62229  -0.56566  -0.52063
   1 1   C  1S          0.21908  -0.02493  -0.12497  -0.02216   0.09546
   2        1PX         0.16833  -0.02643  -0.04156   0.43694   0.15296
   3        1PY         0.21971  -0.00889   0.05796  -0.12397   0.50285
   4        1PZ         0.04248   0.37082  -0.00119  -0.00042   0.00199
   5 2   C  1S          0.11701  -0.02323  -0.02106  -0.11465  -0.09413
   6        1PX         0.38100  -0.04301   0.55655   0.00072  -0.06429
   7        1PY        -0.01872  -0.00275  -0.14752   0.41407  -0.33828
   8        1PZ         0.05918   0.51130   0.01133  -0.00952  -0.00052
   9 3   O  1S          0.19768  -0.01880   0.01096   0.24139  -0.04874
  10        1PX        -0.02484   0.00108  -0.22036   0.00267   0.12636
  11        1PY        -0.28275   0.02859  -0.00377  -0.14237   0.04779
  12        1PZ         0.03966   0.37115  -0.00317   0.00359  -0.00432
  13 4   C  1S          0.11115  -0.02099   0.00297  -0.09476   0.13428
  14        1PX        -0.36219   0.04685   0.55503   0.02803   0.01898
  15        1PY        -0.02116   0.00142   0.10998   0.45964   0.19901
  16        1PZ         0.05754   0.54193  -0.01595   0.01575  -0.00967
  17 5   C  1S          0.19595  -0.01392   0.11291  -0.04497  -0.08054
  18        1PX        -0.14740   0.02753  -0.01118  -0.40612   0.13161
  19        1PY         0.23806  -0.02145  -0.05907  -0.19057  -0.40893
  20        1PZ         0.03981   0.39629  -0.00914   0.01127  -0.00660
  21 6   H  1S          0.28648  -0.03138   0.03517   0.01219  -0.36300
  22 7   H  1S          0.27221  -0.03342  -0.36190  -0.22529   0.01796
  23 8   H  1S          0.28350  -0.02822   0.35489  -0.20688  -0.00088
  24 9   H  1S          0.29573  -0.02581  -0.05912   0.10761   0.43047
                          11        12        13        14        15
                           O         O         O         V         V
     Eigenvalues --    -0.49266  -0.47892  -0.38204   0.03082   0.08748
   1 1   C  1S         -0.07728  -0.00438  -0.00652   0.00618   0.01125
   2        1PX         0.33813   0.00596  -0.00149  -0.00122   0.01039
   3        1PY         0.18241  -0.00599  -0.00653   0.00967  -0.02916
   4        1PZ         0.00180   0.24063   0.60439  -0.65299   0.10297
   5 2   C  1S          0.13557  -0.00466   0.00056  -0.00181   0.00810
   6        1PX        -0.27257  -0.01708   0.00456  -0.00773   0.01428
   7        1PY        -0.13109   0.01740  -0.00335   0.00642  -0.03619
   8        1PZ        -0.00228   0.68193  -0.23859   0.26433  -0.37524
   9 3   O  1S         -0.20228   0.00360   0.00005   0.00064  -0.00947
  10        1PX        -0.00715   0.00015   0.00041  -0.00100   0.00001
  11        1PY         0.38492   0.00067  -0.00258   0.00084  -0.02815
  12        1PZ        -0.00151   0.03835  -0.42599  -0.03583   0.81981
  13 4   C  1S          0.10907   0.00235   0.00288   0.00165   0.01148
  14        1PX         0.30112  -0.01156  -0.00262  -0.00367  -0.00290
  15        1PY        -0.21486   0.00462  -0.00025   0.00072  -0.02316
  16        1PZ         0.00086  -0.62888  -0.30077  -0.25987  -0.38432
  17 5   C  1S         -0.05011  -0.00613   0.00748   0.00568   0.01374
  18        1PX        -0.36294  -0.01086   0.00274  -0.00048   0.00395
  19        1PY         0.30293  -0.00021  -0.00162  -0.00105  -0.01648
  20        1PZ         0.00611  -0.28114   0.55285   0.65916   0.14699
  21 6   H  1S          0.33349   0.00224  -0.00084  -0.00367   0.01381
  22 7   H  1S         -0.07247  -0.00094  -0.00021  -0.00188  -0.02388
  23 8   H  1S         -0.04889  -0.00532  -0.00170   0.01001  -0.03999
  24 9   H  1S          0.23192  -0.00056  -0.00004  -0.00470   0.01184
                          16        17        18        19        20
                           V         V         V         V         V
     Eigenvalues --     0.09989   0.11384   0.17886   0.18617   0.19132
   1 1   C  1S         -0.15714  -0.00630  -0.13281  -0.07029  -0.05417
   2        1PX        -0.05638   0.29511   0.43183  -0.20943  -0.07358
   3        1PY         0.30615  -0.22258   0.19207  -0.23677  -0.28656
   4        1PZ         0.01446  -0.00988   0.00093  -0.00711  -0.00160
   5 2   C  1S         -0.06783  -0.00435  -0.07850  -0.11833  -0.34749
   6        1PX        -0.02673   0.27198  -0.04070   0.36426  -0.25101
   7        1PY         0.35643  -0.23503   0.07023  -0.06487  -0.03192
   8        1PZ        -0.03922   0.02010  -0.00245   0.00662  -0.00738
   9 3   O  1S          0.12790  -0.01099   0.03419   0.16000  -0.05526
  10        1PX         0.01713   0.14168   0.05306   0.00834  -0.02402
  11        1PY         0.40565  -0.04484   0.13073   0.62362  -0.13544
  12        1PZ         0.06282  -0.01591  -0.00126  -0.00445   0.00516
  13 4   C  1S         -0.09196  -0.04239  -0.01053  -0.11477  -0.35094
  14        1PX         0.07108   0.34558  -0.17819  -0.30967   0.20147
  15        1PY         0.35377   0.19959  -0.06208   0.02640  -0.06238
  16        1PZ        -0.03011   0.00056   0.00133   0.00199  -0.00590
  17 5   C  1S         -0.15122   0.00975   0.07449  -0.10327  -0.04557
  18        1PX         0.05143   0.27910   0.48225   0.03841  -0.03506
  19        1PY         0.27247   0.15887  -0.30777  -0.08602  -0.28607
  20        1PZ         0.00972   0.00148  -0.00319   0.00346   0.00122
  21 6   H  1S         -0.16814   0.05664   0.47586   0.16238   0.27388
  22 7   H  1S          0.38510   0.50278  -0.12422  -0.11326   0.32822
  23 8   H  1S          0.34406  -0.43600   0.10492  -0.18446   0.39942
  24 9   H  1S         -0.15740  -0.02738  -0.32204   0.35641   0.32805
                          21        22        23        24
                           V         V         V         V
     Eigenvalues --     0.21538   0.26469   0.26925   0.27317
   1 1   C  1S         -0.02239   0.67192   0.18934  -0.09371
   2        1PX         0.26588   0.07467   0.05318   0.25885
   3        1PY        -0.37900   0.00837  -0.05491  -0.01527
   4        1PZ        -0.00258   0.00863   0.00246  -0.00084
   5 2   C  1S         -0.33233  -0.20549  -0.41348  -0.00135
   6        1PX        -0.19905  -0.00771   0.16816  -0.01267
   7        1PY        -0.19250  -0.31936   0.13397  -0.06477
   8        1PZ        -0.00163   0.00050  -0.00052   0.00018
   9 3   O  1S         -0.00001   0.02861   0.02211   0.03166
  10        1PX        -0.16440  -0.24291   0.72857  -0.16767
  11        1PY         0.01293   0.18707   0.08818   0.20308
  12        1PZ        -0.00106  -0.00057   0.00143   0.00012
  13 4   C  1S          0.32215  -0.14931   0.17193  -0.41658
  14        1PX        -0.16318  -0.05227   0.11168  -0.09205
  15        1PY         0.20293   0.09756  -0.28886  -0.20868
  16        1PZ         0.00477  -0.00065  -0.00002  -0.00217
  17 5   C  1S          0.04477  -0.19424   0.11908   0.67599
  18        1PX         0.25756  -0.23605  -0.14095  -0.10385
  19        1PY         0.40381  -0.06232   0.02697  -0.03000
  20        1PZ        -0.00175   0.00197  -0.00156  -0.00754
  21 6   H  1S         -0.19004   0.05151  -0.11748  -0.38229
  22 7   H  1S         -0.21863   0.04938  -0.05527   0.08402
  23 8   H  1S          0.26274   0.03566   0.11473  -0.00521
  24 9   H  1S          0.12198  -0.40678  -0.10848  -0.04202
     Density Matrix:
                           1         2         3         4         5
   1 1   C  1S          0.90597
   2        1PX         0.00301   1.05554
   3        1PY         0.07034   0.07333   1.06753
   4        1PZ        -0.00356  -0.00003  -0.00111   1.12512
   5 2   C  1S          0.32092   0.21394  -0.47884  -0.00094   1.06152
   6        1PX        -0.05660   0.08260   0.05001  -0.00416  -0.09259
   7        1PY         0.47354   0.25650  -0.52893   0.00348  -0.12818
   8        1PZ        -0.00793  -0.00328   0.00451   0.42408  -0.00336
   9 3   O  1S          0.02496   0.02746  -0.04990   0.00035   0.05236
  10        1PX         0.03160   0.00545  -0.02326   0.00043   0.39011
  11        1PY        -0.01087   0.05184  -0.07998  -0.00078   0.28803
  12        1PZ         0.00134  -0.00024   0.00366  -0.21779  -0.00244
  13 4   C  1S         -0.01478  -0.02784   0.03949   0.00157   0.00807
  14        1PX        -0.03883  -0.01172   0.03413  -0.00350   0.01360
  15        1PY         0.04293  -0.00565  -0.01443   0.00015  -0.06121
  16        1PZ         0.00308   0.00113   0.00190  -0.25932   0.00066
  17 5   C  1S          0.29718  -0.49480   0.06490   0.01154  -0.01482
  18        1PX         0.51196  -0.59753   0.08636   0.00805   0.02711
  19        1PY         0.04918  -0.06777   0.12567  -0.00130   0.03612
  20        1PZ        -0.01216   0.00786  -0.00766   0.83033   0.00084
  21 6   H  1S          0.02162  -0.05159   0.01062  -0.00129   0.07760
  22 7   H  1S          0.07511  -0.07343  -0.00119  -0.00064   0.06829
  23 8   H  1S          0.06805   0.03334  -0.09503   0.00137   0.57812
  24 9   H  1S          0.53539   0.50302   0.65154   0.01027   0.06404
                           6         7         8         9        10
   6        1PX         1.31917
   7        1PY         0.05672   1.29004
   8        1PZ        -0.00742   0.00744   1.57454
   9 3   O  1S         -0.13462  -0.06816   0.00025   1.90260
  10        1PX        -0.40846  -0.38889  -0.00350  -0.01793   0.66243
  11        1PY        -0.48125  -0.13125   0.00231  -0.35621   0.00277
  12        1PZ        -0.00713   0.00633   0.63989   0.00119   0.00005
  13 4   C  1S         -0.01802  -0.06074   0.00006   0.04879  -0.35549
  14        1PX         0.02242  -0.02874  -0.00268   0.12678  -0.33926
  15        1PY         0.02957   0.03892   0.00073  -0.07724   0.39952
  16        1PZ         0.00258  -0.00192  -0.15351  -0.00043   0.00045
  17 5   C  1S          0.03664   0.03536  -0.00367   0.02511  -0.03240
  18        1PX        -0.01185   0.00253  -0.00166  -0.02977   0.00621
  19        1PY        -0.02743  -0.00238   0.00000  -0.04528   0.01914
  20        1PZ         0.00320  -0.00305  -0.23751  -0.00083   0.00103
  21 6   H  1S         -0.02735   0.06094   0.00040   0.01675  -0.04483
  22 7   H  1S         -0.08064  -0.04312  -0.00205  -0.01261  -0.06401
  23 8   H  1S          0.66673  -0.37388   0.01900  -0.00915   0.05771
  24 9   H  1S         -0.03740   0.02344  -0.00062   0.01485   0.04360
                          11        12        13        14        15
  11        1PY         0.64827
  12        1PZ         0.00105   0.64475
  13 4   C  1S          0.30870  -0.00580   1.04800
  14        1PX         0.50202   0.00057   0.08346   1.31392
  15        1PY        -0.21006   0.00207  -0.13267  -0.06648   1.29670
  16        1PZ        -0.00015   0.61540  -0.00454   0.00493   0.00025
  17 5   C  1S         -0.00274  -0.00370   0.35397   0.08798   0.48340
  18        1PX        -0.05127  -0.00147  -0.24709   0.08132  -0.27740
  19        1PY        -0.07717  -0.00009  -0.47610  -0.08261  -0.47499
  20        1PZ        -0.00109  -0.19494  -0.00608   0.00240  -0.00576
  21 6   H  1S          0.05115  -0.00008   0.07281   0.04383   0.02133
  22 7   H  1S         -0.04324   0.00165   0.56038  -0.68745  -0.36053
  23 8   H  1S         -0.04794   0.00395   0.06500   0.07737  -0.04815
  24 9   H  1S          0.03969  -0.00176   0.07598   0.02890   0.05462
                          16        17        18        19        20
  16        1PZ         1.56758
  17 5   C  1S          0.00634   0.89531
  18        1PX         0.00051   0.00212   1.06293
  19        1PY        -0.00327   0.05556  -0.06924   1.09543
  20        1PZ         0.45616   0.00417   0.00036   0.00109   1.08743
  21 6   H  1S          0.00006   0.51716  -0.45699   0.69493  -0.00189
  22 7   H  1S          0.01046   0.07069  -0.03076  -0.08782  -0.00015
  23 8   H  1S         -0.00163   0.06627   0.06204  -0.00313  -0.00481
  24 9   H  1S         -0.00135   0.01785   0.04341  -0.00027   0.00159
                          21        22        23        24
  21 6   H  1S          0.88356
  22 7   H  1S          0.01149   0.80399
  23 8   H  1S          0.02670   0.01857   0.80353
  24 9   H  1S         -0.00849   0.02326   0.01186   0.88416
    Full Mulliken population analysis:
                           1         2         3         4         5
   1 1   C  1S          0.90597
   2        1PX         0.00000   1.05554
   3        1PY         0.00000   0.00000   1.06753
   4        1PZ         0.00000   0.00000   0.00000   1.12512
   5 2   C  1S          0.00000   0.00000   0.00000   0.00000   1.06152
   6        1PX         0.00000   0.00000   0.00000   0.00000   0.00000
   7        1PY         0.00000   0.00000   0.00000   0.00000   0.00000
   8        1PZ         0.00000   0.00000   0.00000   0.00000   0.00000
   9 3   O  1S          0.00000   0.00000   0.00000   0.00000   0.00000
  10        1PX         0.00000   0.00000   0.00000   0.00000   0.00000
  11        1PY         0.00000   0.00000   0.00000   0.00000   0.00000
  12        1PZ         0.00000   0.00000   0.00000   0.00000   0.00000
  13 4   C  1S          0.00000   0.00000   0.00000   0.00000   0.00000
  14        1PX         0.00000   0.00000   0.00000   0.00000   0.00000
  15        1PY         0.00000   0.00000   0.00000   0.00000   0.00000
  16        1PZ         0.00000   0.00000   0.00000   0.00000   0.00000
  17 5   C  1S          0.00000   0.00000   0.00000   0.00000   0.00000
  18        1PX         0.00000   0.00000   0.00000   0.00000   0.00000
  19        1PY         0.00000   0.00000   0.00000   0.00000   0.00000
  20        1PZ         0.00000   0.00000   0.00000   0.00000   0.00000
  21 6   H  1S          0.00000   0.00000   0.00000   0.00000   0.00000
  22 7   H  1S          0.00000   0.00000   0.00000   0.00000   0.00000
  23 8   H  1S          0.00000   0.00000   0.00000   0.00000   0.00000
  24 9   H  1S          0.00000   0.00000   0.00000   0.00000   0.00000
                           6         7         8         9        10
   6        1PX         1.31917
   7        1PY         0.00000   1.29004
   8        1PZ         0.00000   0.00000   1.57454
   9 3   O  1S          0.00000   0.00000   0.00000   1.90260
  10        1PX         0.00000   0.00000   0.00000   0.00000   0.66243
  11        1PY         0.00000   0.00000   0.00000   0.00000   0.00000
  12        1PZ         0.00000   0.00000   0.00000   0.00000   0.00000
  13 4   C  1S          0.00000   0.00000   0.00000   0.00000   0.00000
  14        1PX         0.00000   0.00000   0.00000   0.00000   0.00000
  15        1PY         0.00000   0.00000   0.00000   0.00000   0.00000
  16        1PZ         0.00000   0.00000   0.00000   0.00000   0.00000
  17 5   C  1S          0.00000   0.00000   0.00000   0.00000   0.00000
  18        1PX         0.00000   0.00000   0.00000   0.00000   0.00000
  19        1PY         0.00000   0.00000   0.00000   0.00000   0.00000
  20        1PZ         0.00000   0.00000   0.00000   0.00000   0.00000
  21 6   H  1S          0.00000   0.00000   0.00000   0.00000   0.00000
  22 7   H  1S          0.00000   0.00000   0.00000   0.00000   0.00000
  23 8   H  1S          0.00000   0.00000   0.00000   0.00000   0.00000
  24 9   H  1S          0.00000   0.00000   0.00000   0.00000   0.00000
                          11        12        13        14        15
  11        1PY         0.64827
  12        1PZ         0.00000   0.64475
  13 4   C  1S          0.00000   0.00000   1.04800
  14        1PX         0.00000   0.00000   0.00000   1.31392
  15        1PY         0.00000   0.00000   0.00000   0.00000   1.29670
  16        1PZ         0.00000   0.00000   0.00000   0.00000   0.00000
  17 5   C  1S          0.00000   0.00000   0.00000   0.00000   0.00000
  18        1PX         0.00000   0.00000   0.00000   0.00000   0.00000
  19        1PY         0.00000   0.00000   0.00000   0.00000   0.00000
  20        1PZ         0.00000   0.00000   0.00000   0.00000   0.00000
  21 6   H  1S          0.00000   0.00000   0.00000   0.00000   0.00000
  22 7   H  1S          0.00000   0.00000   0.00000   0.00000   0.00000
  23 8   H  1S          0.00000   0.00000   0.00000   0.00000   0.00000
  24 9   H  1S          0.00000   0.00000   0.00000   0.00000   0.00000
                          16        17        18        19        20
  16        1PZ         1.56758
  17 5   C  1S          0.00000   0.89531
  18        1PX         0.00000   0.00000   1.06293
  19        1PY         0.00000   0.00000   0.00000   1.09543
  20        1PZ         0.00000   0.00000   0.00000   0.00000   1.08743
  21 6   H  1S          0.00000   0.00000   0.00000   0.00000   0.00000
  22 7   H  1S          0.00000   0.00000   0.00000   0.00000   0.00000
  23 8   H  1S          0.00000   0.00000   0.00000   0.00000   0.00000
  24 9   H  1S          0.00000   0.00000   0.00000   0.00000   0.00000
                          21        22        23        24
  21 6   H  1S          0.88356
  22 7   H  1S          0.00000   0.80399
  23 8   H  1S          0.00000   0.00000   0.80353
  24 9   H  1S          0.00000   0.00000   0.00000   0.88416
     Gross orbital populations:
                           1
   1 1   C  1S          0.90597
   2        1PX         1.05554
   3        1PY         1.06753
   4        1PZ         1.12512
   5 2   C  1S          1.06152
   6        1PX         1.31917
   7        1PY         1.29004
   8        1PZ         1.57454
   9 3   O  1S          1.90260
  10        1PX         0.66243
  11        1PY         0.64827
  12        1PZ         0.64475
  13 4   C  1S          1.04800
  14        1PX         1.31392
  15        1PY         1.29670
  16        1PZ         1.56758
  17 5   C  1S          0.89531
  18        1PX         1.06293
  19        1PY         1.09543
  20        1PZ         1.08743
  21 6   H  1S          0.88356
  22 7   H  1S          0.80399
  23 8   H  1S          0.80353
  24 9   H  1S          0.88416
          Condensed to atoms (all electrons):
               1          2          3          4          5          6
     1  C    4.154154   0.000000   0.000000   0.000000   0.000000   0.000000
     2  C    0.000000   5.245270   0.000000   0.000000   0.000000   0.000000
     3  O    0.000000   0.000000   3.858052   0.000000   0.000000   0.000000
     4  C    0.000000   0.000000   0.000000   5.226196   0.000000   0.000000
     5  C    0.000000   0.000000   0.000000   0.000000   4.141101   0.000000
     6  H    0.000000   0.000000   0.000000   0.000000   0.000000   0.883556
     7  H    0.000000   0.000000   0.000000   0.000000   0.000000   0.000000
     8  H    0.000000   0.000000   0.000000   0.000000   0.000000   0.000000
     9  H    0.000000   0.000000   0.000000   0.000000   0.000000   0.000000
               7          8          9
     1  C    0.000000   0.000000   0.000000
     2  C    0.000000   0.000000   0.000000
     3  O    0.000000   0.000000   0.000000
     4  C    0.000000   0.000000   0.000000
     5  C    0.000000   0.000000   0.000000
     6  H    0.000000   0.000000   0.000000
     7  H    0.803986   0.000000   0.000000
     8  H    0.000000   0.803526   0.000000
     9  H    0.000000   0.000000   0.884160
 Mulliken charges:
               1
     1  C   -0.154154
     2  C   -1.245270
     3  O    2.141948
     4  C   -1.226196
     5  C   -0.141101
     6  H    0.116444
     7  H    0.196014
     8  H    0.196474
     9  H    0.115840
 Sum of Mulliken charges =   0.00000
 Mulliken charges with hydrogens summed into heavy atoms:
               1
     1  C   -0.038314
     2  C   -1.048796
     3  O    2.141948
     4  C   -1.030183
     5  C   -0.024657
 Charge=              0.0000 electrons
 Dipole moment (field-independent basis, Debye):
    X=             -0.3634    Y=             -7.0757    Z=              0.0954  Tot=              7.0857
 N-N= 1.043401947256D+02 E-N=-1.710459703491D+02  KE=-1.496867193620D+01
 Orbital energies and kinetic energies (alpha):
                                 1                 2
   1         O                -1.822983         -1.235894
   2         O                -1.189339         -0.959044
   3         O                -1.000780         -0.821722
   4         O                -0.876430         -0.631050
   5         O                -0.810579         -0.677670
   6         O                -0.739325         -0.595458
   7         O                -0.715020         -0.512438
   8         O                -0.622291         -0.428667
   9         O                -0.565659         -0.350894
  10         O                -0.520629         -0.427865
  11         O                -0.492663         -0.270575
  12         O                -0.478922         -0.326497
  13         O                -0.382044         -0.246562
  14         V                 0.030825         -0.162144
  15         V                 0.087484          0.134683
  16         V                 0.099889         -0.088832
  17         V                 0.113839         -0.161610
  18         V                 0.178859         -0.125491
  19         V                 0.186171          0.076816
  20         V                 0.191315         -0.150100
  21         V                 0.215383         -0.067712
  22         V                 0.264693         -0.047422
  23         V                 0.269252          0.226520
  24         V                 0.273166         -0.052698
 Total kinetic energy from orbitals=-1.496867193620D+01
 Leave Link  601 at Tue Dec 15 17:05:37 2015, MaxMem=    33554432 cpu:         0.0
 (Enter /home/Applications/g09/g09/l701.exe)
 Compute integral first derivatives.
 ... and contract with generalized density number  6.
 Leave Link  701 at Tue Dec 15 17:05:37 2015, MaxMem=    33554432 cpu:         0.0
 (Enter /home/Applications/g09/g09/l702.exe)
 L702 exits ... SP integral derivatives will be done elsewhere.
 Leave Link  702 at Tue Dec 15 17:05:37 2015, MaxMem=    33554432 cpu:         0.0
 (Enter /home/Applications/g09/g09/l703.exe)
 Compute integral first derivatives, UseDBF=F ICtDFT=           0.
 Integral derivatives from FoFJK, PRISM(SPDF).
 Calling FoFJK, ICntrl=  10005127 FMM=F ISym2X=0 I1Cent= 0 IOpClX= 0 NMat=1 NMatS=1 NMatT=0.
 FoFJK:  IHMeth= 8 ICntrl=10005127 DoSepK=F KAlg= 0 I1Cent=   0 FoldK=F
 IRaf=         0 NMat=   1 IRICut=       1 DoRegI=T DoRafI=F ISym2E= 0.
 FoFCou: FMM=F IPFlag=           0 FMFlag=      100000 FMFlg1=         800
         NFxFlg=           0 DoJE=F BraDBF=F KetDBF=F FulRan=T
         wScrn=  0.000000 ICntrl=10005127 IOpCl=  0 I1Cent=           0 NGrid=           0
         NMat0=    1 NMatS0=      1 NMatT0=    0 NMatD0=    1 NMtDS0=    0 NMtDT0=    0
 Symmetry not used in FoFCou.
 Leave Link  703 at Tue Dec 15 17:05:37 2015, MaxMem=    33554432 cpu:         0.0
 (Enter /home/Applications/g09/g09/l716.exe)
 Dipole        =-1.38470197D-01-3.10475734D+00 3.64648386D-02
 ***** Axes restored to original set *****
 -------------------------------------------------------------------
 Center     Atomic                   Forces (Hartrees/Bohr)
 Number     Number              X              Y              Z
 -------------------------------------------------------------------
      1        6          -0.036983091    0.032859723    0.004317384
      2        6          -0.052304875    0.174320275   -0.003462925
      3        8           0.133518917   -0.015613844   -0.000067418
      4        6          -0.138364890   -0.126155044    0.003972402
      5        6           0.043255939   -0.063991046   -0.004642908
      6        1           0.037381867    0.024168712    0.000794654
      7        1           0.000289857    0.030943850   -0.001160259
      8        1          -0.010489521   -0.045011661    0.000565800
      9        1           0.023695797   -0.011520966   -0.000316729
 -------------------------------------------------------------------
 Cartesian Forces:  Max     0.174320275 RMS     0.061012337
 Z-matrix is all fixed cartesians, so copy forces.
 Force constants in Cartesian coordinates: 
                1             2             3             4             5 
      1  0.862323D+00
      2 -0.387979D-01  0.781934D+00
      3  0.102315D-01 -0.651204D-02  0.193279D+00
      4 -0.461744D+00 -0.101142D+00 -0.130832D-02  0.874996D+00
      5 -0.784209D-01 -0.207815D+00  0.140381D-02  0.428324D-01  0.908232D+00
      6  0.128747D-02  0.209339D-02 -0.955082D-01 -0.342585D-02 -0.194475D-01
      7 -0.908930D-02  0.293639D-01 -0.331873D-03 -0.262030D+00  0.154018D+00
      8 -0.605954D-02  0.195888D-01 -0.190915D-03  0.196784D+00 -0.379154D+00
      9  0.208896D-03 -0.215357D-03  0.576031D-02 -0.206670D-02  0.480237D-02
     10  0.117023D-01  0.237166D-03  0.540144D-03  0.249132D-01  0.166200D-01
     11  0.352165D-01  0.711851D-03  0.153205D-02 -0.180118D-01 -0.120163D-01
     12  0.850297D-03 -0.312494D-04 -0.287746D-02  0.186397D-03  0.160062D-03
     13 -0.168053D+00  0.165297D-01 -0.153947D-02  0.104170D-01 -0.336646D-01
     14 -0.608715D-02 -0.397293D+00 -0.321983D-02  0.212878D-03 -0.686908D-03
     15 -0.121831D-02 -0.286562D-02 -0.795865D-01  0.140588D-03 -0.386998D-03
     16  0.169417D-01  0.346701D-03 -0.101834D-03  0.000000D+00  0.000000D+00
     17 -0.238600D-01 -0.489657D-03  0.436945D-03  0.000000D+00  0.000000D+00
     18 -0.844937D-03 -0.977445D-04  0.171307D-01  0.735255D-05 -0.176021D-04
     19  0.819145D-05  0.171010D-05 -0.328387D-03  0.000000D+00  0.000000D+00
     20  0.804817D-05  0.168019D-05 -0.322643D-03  0.000000D+00  0.000000D+00
     21 -0.237497D-03 -0.495816D-04  0.952101D-02 -0.383365D-04  0.440506D-04
     22  0.803852D-02 -0.259746D-01  0.134822D-02 -0.180986D+00 -0.119367D+00
     23 -0.428773D-02  0.138569D-01  0.577509D-03 -0.113762D+00 -0.330902D+00
     24 -0.109942D-03  0.400109D-03  0.275093D-01  0.662839D-02  0.130041D-01
     25 -0.260127D+00  0.119435D+00 -0.850999D-02 -0.556530D-02  0.179823D-01
     26  0.122289D+00 -0.210495D+00  0.629511D-02 -0.691408D-02  0.223427D-01
     27 -0.101675D-01  0.727810D-02 -0.752287D-01 -0.123525D-03  0.437633D-03
                6             7             8             9            10 
      6  0.185699D+00
      7 -0.242730D-02  0.505337D+00
      8  0.587626D-02 -0.243273D-02  0.711012D+00
      9 -0.434887D-01  0.283094D-02 -0.713029D-02  0.550049D-01
     10 -0.557716D-04 -0.268069D+00 -0.195432D+00  0.141822D-02  0.101558D+01
     11  0.107522D-03 -0.151388D+00 -0.355976D+00  0.268954D-02 -0.846908D-01
     12 -0.147915D-02 -0.213281D-04  0.121096D-02 -0.472798D-01  0.884696D-02
     13 -0.396921D-03 -0.991250D-02  0.716437D-02 -0.649933D-03 -0.599216D+00
     14 -0.777269D-04 -0.297624D-01  0.215144D-01 -0.115486D-02  0.148764D+00
     15 -0.854747D-03  0.273342D-03 -0.195981D-03  0.728323D-02 -0.120778D-01
     16  0.577896D-04  0.171424D-05 -0.160763D-05 -0.969077D-04 -0.588331D-02
     17 -0.165713D-04 -0.487742D-05  0.457408D-05  0.275726D-03  0.825805D-02
     18  0.377884D-02 -0.143797D-03  0.134854D-03  0.812901D-02 -0.132584D-02
     19  0.572288D-04  0.210036D-01 -0.151876D-01 -0.450796D-03 -0.179034D+00
     20 -0.250446D-04  0.123315D-01 -0.891707D-02 -0.324482D-03  0.106245D+00
     21  0.429858D-02 -0.167790D-03  0.137988D-03  0.438838D-02  0.280432D-02
     22  0.621582D-02  0.227578D-01  0.151661D-01 -0.112187D-02 -0.110159D-05
     23  0.117174D-01 -0.121239D-01 -0.807598D-02  0.816112D-03 -0.142782D-05
     24 -0.760437D-01  0.860128D-05  0.808539D-04  0.463726D-02 -0.427720D-04
     25 -0.131247D-02  0.000000D+00  0.000000D+00 -0.718473D-04  0.564149D-05
     26 -0.227808D-03  0.000000D+00  0.330628D-05  0.241247D-03  0.000000D+00
     27  0.235983D-01 -0.207962D-04  0.762730D-04  0.556535D-02 -0.107481D-03
               11            12            13            14            15 
     11  0.883346D+00
     12 -0.336091D-02  0.236477D+00
     13  0.123607D+00 -0.122473D-01  0.103067D+01
     14 -0.247142D+00  0.391592D-02 -0.144090D-01  0.812639D+00
     15  0.463987D-02 -0.132052D+00  0.102471D-01 -0.380465D-02  0.231074D+00
     16 -0.176583D-01  0.245022D-03 -0.290538D+00 -0.124972D+00  0.247854D-02
     17  0.248272D-01  0.248866D-03 -0.126701D+00 -0.204657D+00  0.149033D-02
     18 -0.156758D-02  0.346412D-01  0.414076D-02  0.295589D-02 -0.901162D-01
     19  0.112923D+00  0.224257D-02  0.861528D-02  0.258866D-01  0.498865D-04
     20 -0.293752D+00 -0.227888D-02  0.506335D-02  0.151753D-01 -0.524871D-03
     21 -0.406721D-02 -0.965350D-01 -0.450983D-03  0.147793D-02  0.406234D-01
     22  0.126578D-05  0.123519D-03  0.000000D+00  0.000000D+00 -0.107795D-03
     23  0.164064D-05  0.160098D-03  0.000000D+00 -0.167117D-05  0.358769D-03
     24  0.491472D-04  0.479593D-02  0.124476D-04 -0.297998D-04  0.639745D-02
     25  0.117776D-05 -0.226161D-03  0.180142D-01  0.367132D-03  0.214467D-03
     26  0.000000D+00 -0.248638D-04  0.224088D-01  0.451891D-03  0.128915D-02
     27 -0.224385D-04  0.430880D-02  0.884310D-03 -0.628758D-04  0.172308D-01
               16            17            18            19            20 
     16  0.279479D+00
     17  0.142291D+00  0.180298D+00
     18 -0.266931D-02 -0.195203D-02  0.475128D-01
     19 -0.617976D-05  0.175829D-04  0.518383D-03  0.149413D+00
     20 -0.607167D-05  0.172753D-04  0.509316D-03 -0.123642D+00  0.287475D+00
     21  0.179172D-03 -0.509786D-03 -0.150296D-01 -0.208889D-02  0.296661D-02
     22  0.000000D+00  0.000000D+00  0.000000D+00  0.000000D+00  0.000000D+00
     23  0.000000D+00  0.000000D+00  0.000000D+00  0.000000D+00  0.000000D+00
     24  0.000000D+00  0.000000D+00  0.000000D+00  0.000000D+00  0.000000D+00
     25  0.485373D-05 -0.139182D-05  0.317383D-03  0.000000D+00  0.000000D+00
     26  0.000000D+00  0.000000D+00  0.348926D-04  0.000000D+00  0.000000D+00
     27 -0.924726D-04  0.265168D-04 -0.604674D-02  0.000000D+00  0.000000D+00
               21            22            23            24            25 
     21  0.527333D-01
     22  0.000000D+00  0.150194D+00
     23  0.000000D+00  0.130167D+00  0.325145D+00
     24  0.000000D+00 -0.662396D-02 -0.130772D-01  0.425594D-01
     25  0.000000D+00 -0.214386D-05  0.713529D-05  0.127234D-03  0.247670D+00
     26  0.000000D+00  0.719857D-05 -0.239586D-04 -0.427223D-03 -0.137791D+00
     27  0.000000D+00  0.166065D-03 -0.552705D-03 -0.985567D-02  0.946138D-02
               26            27 
     26  0.187721D+00
     27 -0.718050D-02  0.404278D-01
 Leave Link  716 at Tue Dec 15 17:05:37 2015, MaxMem=    33554432 cpu:         0.0
 (Enter /home/Applications/g09/g09/l103.exe)

 GradGradGradGradGradGradGradGradGradGradGradGradGradGradGradGradGradGrad
 Berny optimization.
 Search for a local minimum.
 Step number   1 out of a maximum of    2
 All quantities printed in internal units (Hartrees-Bohrs-Radians)
 Second derivative matrix not updated -- first step.
 ITU=  0
     Eigenvalues ---    0.01877   0.03263   0.07162   0.07571   0.08006
     Eigenvalues ---    0.08711   0.13110   0.14944   0.16639   0.24625
     Eigenvalues ---    0.26399   0.31920   0.43136   0.45393   0.64104
     Eigenvalues ---    0.85015   1.05560   1.33327   1.42983   1.50059
     Eigenvalues ---    1.78191
 Quadratic step=3.674D-01 exceeds max=3.000D-01 adjusted using Lamda=-7.352D-02.
 Angle between NR and scaled steps=  14.51 degrees.
 Angle between quadratic step and forces=  23.75 degrees.
 Linear search not attempted -- first point.
 TrRot= -0.003815 -0.002369  0.001320 -1.442536 -0.000365  1.443058
 Variable       Old X    -DE/DX   Delta X   Delta X   Delta X     New X
                                 (Linear)    (Quad)   (Total)
    X1        1.79210  -0.03698   0.00000  -0.02621  -0.02933   1.76277
    Y1       -1.38357   0.03286   0.00000   0.04108   0.03963  -1.34394
    Z1       -0.01824   0.00432   0.00000   0.01600   0.01789  -0.00035
    X2       -0.69992  -0.05230   0.00000  -0.04558  -0.04836  -0.74828
    Y2       -2.15472   0.17432   0.00000   0.17511   0.17235  -1.98238
    Z2       -0.01698  -0.00346   0.00000  -0.00004   0.00197  -0.01501
    X3       -2.13924   0.13352   0.00000   0.07375   0.06994  -2.06930
    Y3        0.00249  -0.01561   0.00000  -0.01806  -0.02153  -0.01904
    Z3       -0.05192  -0.00007   0.00000  -0.00227  -0.00105  -0.05297
    X4       -0.61096  -0.13836   0.00000  -0.10061  -0.10545  -0.71641
    Y4        2.11625  -0.12616   0.00000  -0.15375  -0.15651   1.95973
    Z4       -0.05996   0.00397   0.00000   0.01161   0.01218  -0.04777
    X5        1.73654   0.04326   0.00000   0.03131   0.02683   1.76338
    Y5        1.33487  -0.06399   0.00000  -0.05575  -0.05720   1.27767
    Z5       -0.00547  -0.00464   0.00000  -0.01213  -0.01119  -0.01666
    X6        3.37482   0.03738   0.00000   0.09236   0.08723   3.46205
    Y6        2.49884   0.02417   0.00000   0.03008   0.02950   2.52834
    Z6       -0.02542   0.00079   0.00000  -0.00835  -0.00778  -0.03320
    X7       -1.64394   0.00029   0.00000  -0.01123  -0.01706  -1.66100
    Y7        3.87599   0.03094   0.00000  -0.01420  -0.01745   3.85855
    Z7       -0.03595  -0.00116   0.00000  -0.00016  -0.00032  -0.03627
    X8       -1.63443  -0.01049   0.00000  -0.00305  -0.00484  -1.63927
    Y8       -3.90884  -0.04501   0.00000   0.02046   0.01725  -3.89159
    Z8        0.06564   0.00057   0.00000  -0.01510  -0.01245   0.05319
    X9        3.38115   0.02370   0.00000   0.02346   0.02103   3.40219
    Y9       -2.66399  -0.01152   0.00000  -0.00548  -0.00605  -2.67004
    Z9        0.05778  -0.00032   0.00000  -0.00169   0.00075   0.05853
         Item               Value     Threshold  Converged?
 Maximum Force            0.174320     0.000450     NO 
 RMS     Force            0.061012     0.000300     NO 
 Maximum Displacement     0.172349     0.001800     NO 
 RMS     Displacement     0.057776     0.001200     NO 
 Predicted change in Energy=-4.693259D-02
 GradGradGradGradGradGradGradGradGradGradGradGradGradGradGradGradGradGrad

 Leave Link  103 at Tue Dec 15 17:05:37 2015, MaxMem=    33554432 cpu:         0.0
 (Enter /home/Applications/g09/g09/l9999.exe)
 1\1\GINC-DUSTIN-DESKTOP\Force\RAM1-FC\STO-3G\C4H4O1\DUSTIN\15-Dec-2015
 \0\\#P AM1(Input,print) CIS(Singlets,NStates=15) pop(full) force\\AM1-
 Reparam Input\\0,1\C,0.948337,-0.732153,-0.009651\C,-0.370382,-1.14023
 1,-0.008986\O,-1.132037,0.001318,-0.027477\C,-0.323307,1.11987,-0.0317
 27\C,0.918939,0.706384,-0.002893\H,1.78588,1.322327,-0.01345\H,-0.8699
 35,2.051088,-0.019024\H,-0.864904,-2.068469,0.034737\H,1.789228,-1.409
 724,0.030576\\Version=ES64L-G09RevD.01\State=1-A\HF=1.1162101\RMSD=5.8
 21e-09\RMSF=6.101e-02\Dipole=-3.1072667,0.0697019,0.0075746\PG=C01 [X(
 C4H4O1)]\\@


 "WOULD YOU TELL ME PLEASE, WHICH WAY I OUGHT TO WALK FROM HERE?"
 "THAT DEPENDS A GREAT DEAL ON WHERE YOU WANT TO GO," SAID THE CAT.
 "I DON'T MUCH CARE WHERE -- ", SAID ALICE.
 "THEN IT DOESN'T MATTER WHICH WAY YOU WALK," SAID THE CAT.

                                      -- LEWIS CARROLL
 Job cpu time:       0 days  0 hours  0 minutes  0.7 seconds.
 File lengths (MBytes):  RWF=      7 Int=      0 D2E=      0 Chk=      2 Scr=      1
 Normal termination of Gaussian 09 at Tue Dec 15 17:05:37 2015.
