 Entering Gaussian System, Link 0=g09
 Input=FuranAM1_79.com
 Output=FuranAM1_79.log
 Initial command:
 /home/Applications/g09/g09/l1.exe "/home/Applications/g09/scratch/Gau-6256.inp" -scrdir="/home/Applications/g09/scratch/"
 Entering Link 1 = /home/Applications/g09/g09/l1.exe PID=      6258.
  
 Copyright (c) 1988,1990,1992,1993,1995,1998,2003,2009,2013,
            Gaussian, Inc.  All Rights Reserved.
  
 This is part of the Gaussian(R) 09 program.  It is based on
 the Gaussian(R) 03 system (copyright 2003, Gaussian, Inc.),
 the Gaussian(R) 98 system (copyright 1998, Gaussian, Inc.),
 the Gaussian(R) 94 system (copyright 1995, Gaussian, Inc.),
 the Gaussian 92(TM) system (copyright 1992, Gaussian, Inc.),
 the Gaussian 90(TM) system (copyright 1990, Gaussian, Inc.),
 the Gaussian 88(TM) system (copyright 1988, Gaussian, Inc.),
 the Gaussian 86(TM) system (copyright 1986, Carnegie Mellon
 University), and the Gaussian 82(TM) system (copyright 1983,
 Carnegie Mellon University). Gaussian is a federally registered
 trademark of Gaussian, Inc.
  
 This software contains proprietary and confidential information,
 including trade secrets, belonging to Gaussian, Inc.
  
 This software is provided under written license and may be
 used, copied, transmitted, or stored only in accord with that
 written license.
  
 The following legend is applicable only to US Government
 contracts under FAR:
  
                    RESTRICTED RIGHTS LEGEND
  
 Use, reproduction and disclosure by the US Government is
 subject to restrictions as set forth in subparagraphs (a)
 and (c) of the Commercial Computer Software - Restricted
 Rights clause in FAR 52.227-19.
  
 Gaussian, Inc.
 340 Quinnipiac St., Bldg. 40, Wallingford CT 06492
  
  
 ---------------------------------------------------------------
 Warning -- This program may not be used in any manner that
 competes with the business of Gaussian, Inc. or will provide
 assistance to any competitor of Gaussian, Inc.  The licensee
 of this program is prohibited from giving any competitor of
 Gaussian, Inc. access to this program.  By using this program,
 the user acknowledges that Gaussian, Inc. is engaged in the
 business of creating and licensing software in the field of
 computational chemistry and represents and warrants to the
 licensee that it is not a competitor of Gaussian, Inc. and that
 it will not use this program in any manner prohibited above.
 ---------------------------------------------------------------
  

 Cite this work as:
 Gaussian 09, Revision D.01,
 M. J. Frisch, G. W. Trucks, H. B. Schlegel, G. E. Scuseria, 
 M. A. Robb, J. R. Cheeseman, G. Scalmani, V. Barone, B. Mennucci, 
 G. A. Petersson, H. Nakatsuji, M. Caricato, X. Li, H. P. Hratchian, 
 A. F. Izmaylov, J. Bloino, G. Zheng, J. L. Sonnenberg, M. Hada, 
 M. Ehara, K. Toyota, R. Fukuda, J. Hasegawa, M. Ishida, T. Nakajima, 
 Y. Honda, O. Kitao, H. Nakai, T. Vreven, J. A. Montgomery, Jr., 
 J. E. Peralta, F. Ogliaro, M. Bearpark, J. J. Heyd, E. Brothers, 
 K. N. Kudin, V. N. Staroverov, T. Keith, R. Kobayashi, J. Normand, 
 K. Raghavachari, A. Rendell, J. C. Burant, S. S. Iyengar, J. Tomasi, 
 M. Cossi, N. Rega, J. M. Millam, M. Klene, J. E. Knox, J. B. Cross, 
 V. Bakken, C. Adamo, J. Jaramillo, R. Gomperts, R. E. Stratmann, 
 O. Yazyev, A. J. Austin, R. Cammi, C. Pomelli, J. W. Ochterski, 
 R. L. Martin, K. Morokuma, V. G. Zakrzewski, G. A. Voth, 
 P. Salvador, J. J. Dannenberg, S. Dapprich, A. D. Daniels, 
 O. Farkas, J. B. Foresman, J. V. Ortiz, J. Cioslowski, 
 and D. J. Fox, Gaussian, Inc., Wallingford CT, 2013.
 
 ******************************************
 Gaussian 09:  ES64L-G09RevD.01 24-Apr-2013
                15-Dec-2015 
 ******************************************
 ------------------------------------------------------------
 #P AM1(Input,print) CIS(Singlets,NStates=15) pop(full) force
 ------------------------------------------------------------
 1/10=7,30=1,38=1/1,3;
 2/12=2,17=6,18=5,40=1/2;
 3/5=2,16=1,25=1,41=700000,71=1,135=100,136=1/1,2,8,3;
 4/35=1/1;
 5/5=2,35=1,38=5/2;
 8/6=1,10=1,108=15/1;
 9/15=2,41=15,42=1,48=1,49=10/14;
 10/5=4/2;
 6/7=3,18=1/1;
 7/12=6,13=5,29=1/1,2,3,16;
 1/10=7,30=1/3;
 99//99;
 Leave Link    1 at Tue Dec 15 16:26:30 2015, MaxMem=           0 cpu:         0.0
 (Enter /home/Applications/g09/g09/l101.exe)
 -----------------
 AM1-Reparam Input
 -----------------
 Symbolic Z-matrix:
 Charge =  0 Multiplicity = 1
 6                     0.96174  -0.73974  -0.04764 
 6                    -0.30969  -1.13741  -0.03456 
 8                    -1.12084  -0.00306  -0.02416 
 6                    -0.30378   1.08572   0.02117 
 6                     0.99024   0.7323   -0.01492 
 1                     1.772     1.33465  -0.04995 
 1                    -0.87845   2.04182  -0.03267 
 1                    -0.85896  -2.06266   0.01858 
 1                     1.82322  -1.37677  -0.03425 
 
 NAtoms=      9 NQM=        9 NQMF=       0 NMMI=      0 NMMIF=      0
                NMic=       0 NMicF=      0.
                    Isotopes and Nuclear Properties:
 (Nuclear quadrupole moments (NQMom) in fm**2, nuclear magnetic moments (NMagM)
  in nuclear magnetons)

  Atom         1           2           3           4           5           6           7           8           9
 IAtWgt=          12          12          16          12          12           1           1           1           1
 AtmWgt=  12.0000000  12.0000000  15.9949146  12.0000000  12.0000000   1.0078250   1.0078250   1.0078250   1.0078250
 NucSpn=           0           0           0           0           0           1           1           1           1
 AtZEff=   0.0000000   0.0000000   0.0000000   0.0000000   0.0000000   0.0000000   0.0000000   0.0000000   0.0000000
 NQMom=    0.0000000   0.0000000   0.0000000   0.0000000   0.0000000   0.0000000   0.0000000   0.0000000   0.0000000
 NMagM=    0.0000000   0.0000000   0.0000000   0.0000000   0.0000000   2.7928460   2.7928460   2.7928460   2.7928460
 AtZNuc=   6.0000000   6.0000000   8.0000000   6.0000000   6.0000000   1.0000000   1.0000000   1.0000000   1.0000000
 Leave Link  101 at Tue Dec 15 16:26:30 2015, MaxMem=    33554432 cpu:         0.0
 (Enter /home/Applications/g09/g09/l103.exe)

 GradGradGradGradGradGradGradGradGradGradGradGradGradGradGradGradGradGrad
 Berny optimization.
 Initialization pass.
 Trust Radius=3.00D-01 FncErr=1.00D-07 GrdErr=1.00D-07
 Number of steps in this run=      2 maximum allowed number of steps=      2.
 GradGradGradGradGradGradGradGradGradGradGradGradGradGradGradGradGradGrad

 Leave Link  103 at Tue Dec 15 16:26:30 2015, MaxMem=    33554432 cpu:         0.0
 (Enter /home/Applications/g09/g09/l202.exe)
                          Input orientation:                          
 ---------------------------------------------------------------------
 Center     Atomic      Atomic             Coordinates (Angstroms)
 Number     Number       Type             X           Y           Z
 ---------------------------------------------------------------------
      1          6           0        0.961744   -0.739741   -0.047639
      2          6           0       -0.309693   -1.137412   -0.034563
      3          8           0       -1.120840   -0.003057   -0.024161
      4          6           0       -0.303778    1.085716    0.021170
      5          6           0        0.990237    0.732298   -0.014916
      6          1           0        1.772004    1.334650   -0.049947
      7          1           0       -0.878447    2.041822   -0.032670
      8          1           0       -0.858963   -2.062664    0.018581
      9          1           0        1.823216   -1.376771   -0.034245
 ---------------------------------------------------------------------
                    Distance matrix (angstroms):
                    1          2          3          4          5
     1  C    0.000000
     2  C    1.332241   0.000000
     3  O    2.209165   1.394571   0.000000
     4  C    2.222290   2.223834   1.362010   0.000000
     5  C    1.472678   2.277283   2.235504   1.341895   0.000000
     6  H    2.227021   3.231840   3.187267   2.091864   0.987530
     7  H    3.335209   3.229708   2.059213   1.116818   2.281918
     8  H    2.251552   1.077318   2.076629   3.196957   3.351489
     9  H    1.071504   2.146298   3.248793   3.254384   2.267686
                    6          7          8          9
     6  H    0.000000
     7  H    2.743225   0.000000
     8  H    4.297491   4.104852   0.000000
     9  H    2.711950   4.357266   2.768993   0.000000
 Stoichiometry    C4H4O
 Framework group  C1[X(C4H4O)]
 Deg. of freedom    21
 Full point group                 C1      NOp   1
 Largest Abelian subgroup         C1      NOp   1
 Largest concise Abelian subgroup C1      NOp   1
                         Standard orientation:                         
 ---------------------------------------------------------------------
 Center     Atomic      Atomic             Coordinates (Angstroms)
 Number     Number       Type             X           Y           Z
 ---------------------------------------------------------------------
      1          6           0        0.699464    0.957538   -0.011056
      2          6           0        1.134713   -0.301575   -0.003416
      3          8           0        0.025016   -1.146156   -0.012566
      4          6           0       -1.088091   -0.362235    0.026599
      5          6           0       -0.773046    0.941971    0.004832
      6          1           0       -1.398015    1.705741   -0.031000
      7          1           0       -2.025956   -0.964620   -0.042853
      8          1           0        2.075277   -0.823505    0.056105
      9          1           0        1.310319    1.837434    0.016522
 ---------------------------------------------------------------------
 Rotational constants (GHZ):      9.4966710      9.1973480      4.6738506
 Leave Link  202 at Tue Dec 15 16:26:30 2015, MaxMem=    33554432 cpu:         0.0
 (Enter /home/Applications/g09/g09/l301.exe)

 Semi-emprical parameters in input format:
 Method=8 CoreType=1 PeptideFC=0.0114510000 RIJScale=0.5291770000
 ****
 H       
 PQN=1 NValence=1 F0ss=0.4721550000 ZetaOverlap=1.1880780000 U=-0.4188110000
 Beta=-0.2268830000 CoreKO=1.0589200000 KON=0,0,0,1.0589200000 KON=1,0,1,1.0589200000
 KON=0,1,1,1.0589200000 KON=2,1,1,1.0589200000 EISol=-0.4188110042 EHeat=0.0830298228
 Alpha=1.5252600000
 GCore=0.0085280000,1.4001430000,2.2676710000
 GCore=0.0003530000,1.4001430000,3.4015070000
 GCore=-0.0012730000,0.5600570000,3.9684250000
 ****
 C       
 PQN=2,2 NValence=4 F0ss=0.4494440000 F0sp=0.4215150000 F0pp=0.3768030000 F2pp=0.1898720000
 G1sp=0.2679030000
 ZetaOverlap=1.8086650000,1.6851160000
 U=-1.9120180000,-1.4557970000
 Beta=-0.5775440000,-0.2836780000 DDN=0,1,0.8236740000 DDN=1,1,0.7268010000
 CoreKO=1.1124280000 KON=0,0,0,1.1124280000 KON=1,0,1,0.8219700000 KON=0,1,1,1.1124280000
 KON=2,1,1,0.7783930000 EISol=-4.4398989268 EHeat=0.2723305520 Alpha=1.4014060000
 DipHyp=1.6472532266
 GCore=0.0007890000,1.4001430000,3.0235620000
 GCore=0.0031890000,1.4001430000,3.4959930000
 GCore=-0.0013930000,1.4001430000,3.8739390000
 GCore=-0.0000880000,1.4001430000,5.0077740000
 ****
 O       
 PQN=2,2 NValence=6 F0ss=0.5666750000 F0sp=0.5321300000 F0pp=0.4958710000 F2pp=0.2358080000
 G1sp=0.4343770000
 ZetaOverlap=3.1080320000,2.5240390000
 U=-3.5951870000,-2.8760900000
 Beta=-1.0757550000,-1.0757550000 DDN=0,1,0.4988900000 DDN=1,1,0.4852320000
 CoreKO=0.8822960000 KON=0,0,0,0.8822960000 KON=1,0,1,0.5019540000 KON=0,1,1,0.8822960000
 KON=2,1,1,0.5515580000 EISol=-11.6164441184 EHeat=0.0949133088 Alpha=2.3576810000
 DipHyp=0.9977225968
 GCore=0.0195120000,1.4001430000,1.6023330000
 GCore=0.0056550000,1.9602000000,2.7307880000
 ****
 
 Standard basis: VSTO-6G (5D, 7F)
 Ernie: Thresh=  0.10000D-02 Tol=  0.10000D-05 Strict=F.
  NNHCO=     0 NNPyr=     0 NCTC=     0               EPep=         0.000000000
    EC=        68.690631703  ECS=         1.843542134   EG=         0.346706861
   EHC=         0.000000000  EAt=       -31.051283842  AtH=         1.516354808
 EPDDG=         0.000000000  ECC=        70.880880697 EAtT=        32.567638650
 There are    24 symmetry adapted cartesian basis functions of A   symmetry.
 There are    24 symmetry adapted basis functions of A   symmetry.
    24 basis functions,   144 primitive gaussians,    24 cartesian basis functions
    13 alpha electrons       13 beta electrons
       nuclear repulsion energy       103.4485193471 Hartrees.
 IExCor=    0 DFT=F Ex=HF Corr=None ExCW=0 ScaHFX=  1.000000
 ScaDFX=  1.000000  1.000000  1.000000  1.000000 ScalE2=  1.000000  1.000000
 IRadAn=      0 IRanWt=     -1 IRanGd=            0 ICorTp=0 IEmpDi=  4
 Integral buffers will be    131072 words long.
 Regular integral format.
 Two-electron integral symmetry is turned off.
 Leave Link  301 at Tue Dec 15 16:26:30 2015, MaxMem=    33554432 cpu:         0.0
 (Enter /home/Applications/g09/g09/l302.exe)
 Do NDO integrals.
 NPDir=0 NMtPBC=     1 NCelOv=     1 NCel=       1 NClECP=     1 NCelD=      1
         NCelK=      1 NCelE2=     1 NClLst=     1 CellRange=     0.0.
 One-electron integrals computed using PRISM.
 NBasis=    24 RedAO= F EigKep=  0.00D+00  NBF=    24
 NBsUse=    24 1.00D-04 EigRej=  0.00D+00 NBFU=    24
 Leave Link  302 at Tue Dec 15 16:26:30 2015, MaxMem=    33554432 cpu:         0.0
 (Enter /home/Applications/g09/g09/l308.exe)
 Leave Link  308 at Tue Dec 15 16:26:30 2015, MaxMem=    33554432 cpu:         0.0
 (Enter /home/Applications/g09/g09/l303.exe)
 DipDrv:  MaxL=1.
 Leave Link  303 at Tue Dec 15 16:26:30 2015, MaxMem=    33554432 cpu:         0.0
 (Enter /home/Applications/g09/g09/l401.exe)
 Simple Huckel Guess.
 JPrj=0 DoOrth=F DoCkMO=F.
 Leave Link  401 at Tue Dec 15 16:26:30 2015, MaxMem=    33554432 cpu:         0.0
 (Enter /home/Applications/g09/g09/l502.exe)
 Closed shell SCF:
 Using DIIS extrapolation, IDIIS=  1040.
 Overlap will be assumed to be unity.
 Two-electron integral symmetry not used.
 Keep J ints in memory in canonical form, NReq=888082.
 IVT=       79475 IEndB=       79475 NGot=    33554432 MDV=    33473473
 LenX=    33473473 LenY=    33472456
 Requested convergence on RMS density matrix=1.00D-08 within 128 cycles.
 Requested convergence on MAX density matrix=1.00D-06.
 Requested convergence on             energy=1.00D-06.
 No special actions if energy rises.
 FoFCou: FMM=F IPFlag=           0 FMFlag=           0 FMFlg1=           0
         NFxFlg=           0 DoJE=F BraDBF=F KetDBF=F FulRan=T
         wScrn=  0.000000 ICntrl=     600 IOpCl=  2 I1Cent=           0 NGrid=           0
         NMat0=    1 NMatS0=     54 NMatT0=    0 NMatD0=    1 NMtDS0=    0 NMtDT0=    0
 Symmetry not used in FoFCou.

 Cycle   1  Pass 1  IDiag  1:
 E= 0.332986305806514    
 DIIS: error= 5.67D-02 at cycle   1 NSaved=   1.
 NSaved= 1 IEnMin= 1 EnMin= 0.332986305806514     IErMin= 1 ErrMin= 5.67D-02
 ErrMax= 5.67D-02  0.00D+00 EMaxC= 1.00D-01 BMatC= 1.11D-01 BMatP= 1.11D-01
 IDIUse=3 WtCom= 4.33D-01 WtEn= 5.67D-01
 Coeff-Com:  0.100D+01
 Coeff-En:   0.100D+01
 Coeff:      0.100D+01
 GapD=    2.000 DampG=2.000 DampE=0.500 DampFc=1.0000 IDamp=-1.
 RMSDP=1.94D-02 MaxDP=1.61D-01              OVMax= 0.00D+00

 Cycle   2  Pass 1  IDiag  1:
 E= 0.541729090762573E-01 Delta-E=       -0.278813396730 Rises=F Damp=F
 DIIS: error= 2.02D-02 at cycle   2 NSaved=   2.
 NSaved= 2 IEnMin= 2 EnMin= 0.541729090762573E-01 IErMin= 2 ErrMin= 2.02D-02
 ErrMax= 2.02D-02  0.00D+00 EMaxC= 1.00D-01 BMatC= 9.60D-03 BMatP= 1.11D-01
 IDIUse=3 WtCom= 7.98D-01 WtEn= 2.02D-01
 Coeff-Com: -0.359D+00 0.136D+01
 Coeff-En:   0.000D+00 0.100D+01
 Coeff:     -0.287D+00 0.129D+01
 RMSDP=8.23D-03 MaxDP=7.67D-02 DE=-2.79D-01 OVMax= 0.00D+00

 Cycle   3  Pass 1  IDiag  1:
 E= 0.234061195294117E-01 Delta-E=       -0.030766789547 Rises=F Damp=F
 DIIS: error= 3.50D-03 at cycle   3 NSaved=   3.
 NSaved= 3 IEnMin= 3 EnMin= 0.234061195294117E-01 IErMin= 3 ErrMin= 3.50D-03
 ErrMax= 3.50D-03  0.00D+00 EMaxC= 1.00D-01 BMatC= 3.78D-04 BMatP= 9.60D-03
 IDIUse=3 WtCom= 9.65D-01 WtEn= 3.50D-02
 Coeff-Com:  0.136D+00-0.607D+00 0.147D+01
 Coeff-En:   0.000D+00 0.000D+00 0.100D+01
 Coeff:      0.131D+00-0.585D+00 0.145D+01
 RMSDP=2.56D-03 MaxDP=3.09D-02 DE=-3.08D-02 OVMax= 0.00D+00

 Cycle   4  Pass 1  IDiag  3:
 E= 0.213314935289333E-01 Delta-E=       -0.002074626000 Rises=F Damp=F
 DIIS: error= 1.15D-03 at cycle   4 NSaved=   4.
 NSaved= 4 IEnMin= 4 EnMin= 0.213314935289333E-01 IErMin= 4 ErrMin= 1.15D-03
 ErrMax= 1.15D-03  0.00D+00 EMaxC= 1.00D-01 BMatC= 2.87D-05 BMatP= 3.78D-04
 IDIUse=3 WtCom= 9.89D-01 WtEn= 1.15D-02
 Coeff-Com:  0.155D-01-0.548D-01-0.195D+00 0.123D+01
 Coeff-En:   0.000D+00 0.000D+00 0.000D+00 0.100D+01
 Coeff:      0.153D-01-0.541D-01-0.192D+00 0.123D+01
 Gap=     0.387 Goal=   None    Shift=    0.000
 RMSDP=8.39D-04 MaxDP=1.08D-02 DE=-2.07D-03 OVMax= 1.12D-02

 Cycle   5  Pass 1  IDiag  3:
 E= 0.211533443985559E-01 Delta-E=       -0.000178149130 Rises=F Damp=F
 DIIS: error= 2.14D-04 at cycle   5 NSaved=   5.
 NSaved= 5 IEnMin= 5 EnMin= 0.211533443985559E-01 IErMin= 5 ErrMin= 2.14D-04
 ErrMax= 2.14D-04  0.00D+00 EMaxC= 1.00D-01 BMatC= 1.85D-06 BMatP= 2.87D-05
 IDIUse=3 WtCom= 9.98D-01 WtEn= 2.14D-03
 Coeff-Com: -0.860D-02 0.343D-01 0.175D-01-0.473D+00 0.143D+01
 Coeff-En:   0.000D+00 0.000D+00 0.000D+00 0.000D+00 0.100D+01
 Coeff:     -0.858D-02 0.343D-01 0.174D-01-0.472D+00 0.143D+01
 Gap=     0.387 Goal=   None    Shift=    0.000
 RMSDP=2.47D-04 MaxDP=2.13D-03 DE=-1.78D-04 OVMax= 2.66D-03

 Cycle   6  Pass 1  IDiag  3:
 E= 0.211396636546795E-01 Delta-E=       -0.000013680744 Rises=F Damp=F
 DIIS: error= 9.11D-05 at cycle   6 NSaved=   6.
 NSaved= 6 IEnMin= 6 EnMin= 0.211396636546795E-01 IErMin= 6 ErrMin= 9.11D-05
 ErrMax= 9.11D-05  0.00D+00 EMaxC= 1.00D-01 BMatC= 1.85D-07 BMatP= 1.85D-06
 IDIUse=1 WtCom= 1.00D+00 WtEn= 0.00D+00
 Coeff-Com:  0.319D-02-0.126D-01 0.353D-02 0.152D+00-0.711D+00 0.157D+01
 Coeff:      0.319D-02-0.126D-01 0.353D-02 0.152D+00-0.711D+00 0.157D+01
 Gap=     0.387 Goal=   None    Shift=    0.000
 RMSDP=9.48D-05 MaxDP=8.01D-04 DE=-1.37D-05 OVMax= 1.27D-03

 Cycle   7  Pass 1  IDiag  3:
 E= 0.211380113335338E-01 Delta-E=       -0.000001652321 Rises=F Damp=F
 DIIS: error= 3.10D-05 at cycle   7 NSaved=   7.
 NSaved= 7 IEnMin= 7 EnMin= 0.211380113335338E-01 IErMin= 7 ErrMin= 3.10D-05
 ErrMax= 3.10D-05  0.00D+00 EMaxC= 1.00D-01 BMatC= 1.46D-08 BMatP= 1.85D-07
 IDIUse=1 WtCom= 1.00D+00 WtEn= 0.00D+00
 Coeff-Com: -0.485D-03 0.142D-02 0.962D-03-0.331D-01 0.174D+00-0.636D+00
 Coeff-Com:  0.149D+01
 Coeff:     -0.485D-03 0.142D-02 0.962D-03-0.331D-01 0.174D+00-0.636D+00
 Coeff:      0.149D+01
 Gap=     0.387 Goal=   None    Shift=    0.000
 RMSDP=3.09D-05 MaxDP=2.94D-04 DE=-1.65D-06 OVMax= 3.81D-04

 Cycle   8  Pass 1  IDiag  3:
 E= 0.211378742713464E-01 Delta-E=       -0.000000137062 Rises=F Damp=F
 DIIS: error= 6.04D-06 at cycle   8 NSaved=   8.
 NSaved= 8 IEnMin= 8 EnMin= 0.211378742713464E-01 IErMin= 8 ErrMin= 6.04D-06
 ErrMax= 6.04D-06  0.00D+00 EMaxC= 1.00D-01 BMatC= 6.30D-10 BMatP= 1.46D-08
 IDIUse=1 WtCom= 1.00D+00 WtEn= 0.00D+00
 Coeff-Com:  0.186D-04 0.227D-03-0.150D-02 0.103D-01-0.500D-01 0.218D+00
 Coeff-Com: -0.685D+00 0.151D+01
 Coeff:      0.186D-04 0.227D-03-0.150D-02 0.103D-01-0.500D-01 0.218D+00
 Coeff:     -0.685D+00 0.151D+01
 Gap=     0.387 Goal=   None    Shift=    0.000
 RMSDP=5.94D-06 MaxDP=5.78D-05 DE=-1.37D-07 OVMax= 7.21D-05

 Cycle   9  Pass 1  IDiag  3:
 E= 0.211378690272568E-01 Delta-E=       -0.000000005244 Rises=F Damp=F
 DIIS: error= 8.57D-07 at cycle   9 NSaved=   9.
 NSaved= 9 IEnMin= 9 EnMin= 0.211378690272568E-01 IErMin= 9 ErrMin= 8.57D-07
 ErrMax= 8.57D-07  0.00D+00 EMaxC= 1.00D-01 BMatC= 2.30D-11 BMatP= 6.30D-10
 IDIUse=1 WtCom= 1.00D+00 WtEn= 0.00D+00
 Coeff-Com:  0.227D-04-0.209D-03 0.612D-03-0.275D-02 0.135D-01-0.691D-01
 Coeff-Com:  0.240D+00-0.650D+00 0.147D+01
 Coeff:      0.227D-04-0.209D-03 0.612D-03-0.275D-02 0.135D-01-0.691D-01
 Coeff:      0.240D+00-0.650D+00 0.147D+01
 Gap=     0.387 Goal=   None    Shift=    0.000
 RMSDP=9.68D-07 MaxDP=8.25D-06 DE=-5.24D-09 OVMax= 1.29D-05

 Cycle  10  Pass 1  IDiag  3:
 E= 0.211378688707526E-01 Delta-E=       -0.000000000157 Rises=F Damp=F
 DIIS: error= 1.31D-07 at cycle  10 NSaved=  10.
 NSaved=10 IEnMin=10 EnMin= 0.211378688707526E-01 IErMin=10 ErrMin= 1.31D-07
 ErrMax= 1.31D-07  0.00D+00 EMaxC= 1.00D-01 BMatC= 9.28D-13 BMatP= 2.30D-11
 IDIUse=1 WtCom= 1.00D+00 WtEn= 0.00D+00
 Coeff-Com: -0.130D-04 0.102D-03-0.273D-03 0.109D-02-0.510D-02 0.270D-01
 Coeff-Com: -0.956D-01 0.267D+00-0.712D+00 0.152D+01
 Coeff:     -0.130D-04 0.102D-03-0.273D-03 0.109D-02-0.510D-02 0.270D-01
 Coeff:     -0.956D-01 0.267D+00-0.712D+00 0.152D+01
 Gap=     0.387 Goal=   None    Shift=    0.000
 RMSDP=1.66D-07 MaxDP=1.29D-06 DE=-1.57D-10 OVMax= 1.58D-06

 Cycle  11  Pass 1  IDiag  3:
 E= 0.211378688651394E-01 Delta-E=       -0.000000000006 Rises=F Damp=F
 DIIS: error= 2.17D-08 at cycle  11 NSaved=  11.
 NSaved=11 IEnMin=11 EnMin= 0.211378688651394E-01 IErMin=11 ErrMin= 2.17D-08
 ErrMax= 2.17D-08  0.00D+00 EMaxC= 1.00D-01 BMatC= 3.75D-14 BMatP= 9.28D-13
 IDIUse=1 WtCom= 1.00D+00 WtEn= 0.00D+00
 Coeff-Com:  0.400D-05-0.319D-04 0.847D-04-0.344D-03 0.156D-02-0.834D-02
 Coeff-Com:  0.294D-01-0.817D-01 0.228D+00-0.601D+00 0.143D+01
 Coeff:      0.400D-05-0.319D-04 0.847D-04-0.344D-03 0.156D-02-0.834D-02
 Coeff:      0.294D-01-0.817D-01 0.228D+00-0.601D+00 0.143D+01
 Gap=     0.387 Goal=   None    Shift=    0.000
 RMSDP=3.13D-08 MaxDP=2.24D-07 DE=-5.61D-12 OVMax= 2.09D-07

 Cycle  12  Pass 1  IDiag  3:
 E= 0.211378688646420E-01 Delta-E=        0.000000000000 Rises=F Damp=F
 DIIS: error= 5.09D-09 at cycle  12 NSaved=  12.
 NSaved=12 IEnMin=12 EnMin= 0.211378688646420E-01 IErMin=12 ErrMin= 5.09D-09
 ErrMax= 5.09D-09  0.00D+00 EMaxC= 1.00D-01 BMatC= 2.09D-15 BMatP= 3.75D-14
 IDIUse=1 WtCom= 1.00D+00 WtEn= 0.00D+00
 Coeff-Com: -0.824D-06 0.682D-05-0.175D-04 0.735D-04-0.324D-03 0.176D-02
 Coeff-Com: -0.618D-02 0.168D-01-0.483D-01 0.144D+00-0.525D+00 0.142D+01
 Coeff:     -0.824D-06 0.682D-05-0.175D-04 0.735D-04-0.324D-03 0.176D-02
 Coeff:     -0.618D-02 0.168D-01-0.483D-01 0.144D+00-0.525D+00 0.142D+01
 Gap=     0.387 Goal=   None    Shift=    0.000
 RMSDP=8.22D-09 MaxDP=4.94D-08 DE=-4.97D-13 OVMax= 6.34D-08

 Cycle  13  Pass 2  IDiag  1:
 SCF Done:  E(RAM1) =  0.211378688646E-01 A.U. after   13 cycles
            NFock= 12  Conv=0.82D-08     -V/T= 1.0013
 KE=-1.655793907902D+01 PE=-1.710180548463D+02 EE= 8.414861244709D+01
 Leave Link  502 at Tue Dec 15 16:26:30 2015, MaxMem=    33554432 cpu:         0.0
 (Enter /home/Applications/g09/g09/l801.exe)
 Range of M.O.s used for correlation:     1    24
 NBasis=    24 NAE=    13 NBE=    13 NFC=     0 NFV=     0
 NROrb=     24 NOA=    13 NOB=    13 NVA=    11 NVB=    11
 Leave Link  801 at Tue Dec 15 16:26:30 2015, MaxMem=    33554432 cpu:         0.0
 (Enter /home/Applications/g09/g09/l914.exe)
 RHF ground state
 MDV=    33554432 DFT=F DoStab=F Mixed=F DoRPA=F DoScal=F NonHer=F
 Making orbital integer symmetry assigments:
 Orbital symmetries:
       Occupied  (A) (A) (A) (A) (A) (A) (A) (A) (A) (A) (A) (A)
                 (A)
       Virtual   (A) (A) (A) (A) (A) (A) (A) (A) (A) (A) (A)
    60 initial guesses have been made.
 Convergence on wavefunction:    0.000001000000000
 Davidson Disk Diagonalization:  ConvIn= 1.00D-06 SkipCon=T Conv= 1.00D-06.
 Max sub-space:   240 roots to seek:    60 dimension of matrix:          286
 Iteration     1 Dimension    60 NMult     0 NNew     60
 CISAX will form    60 AO SS matrices at one time.
 NMat=    60 NSing=    60 JSym2X= 0.
 FoFJK:  IHMeth= 8 ICntrl=       0 DoSepK=F KAlg= 0 I1Cent=   0 FoldK=F
 IRaf=         1 NMat= 120 IRICut=       1 DoRegI=T DoRafI=F ISym2E= 0.
 FoFCou: FMM=F IPFlag=           0 FMFlag=      100000 FMFlg1=           0
         NFxFlg=           0 DoJE=F BraDBF=F KetDBF=F FulRan=T
         wScrn=  0.000000 ICntrl=       0 IOpCl=  0 I1Cent=           0 NGrid=           0
         NMat0=  120 NMatS0=     60 NMatT0=    0 NMatD0=  120 NMtDS0=    0 NMtDT0=    0
 Symmetry not used in FoFCou.
 New state      3 was old state      4
 New state      4 was old state      7
 New state      5 was old state      8
 New state      7 was old state      5
 New state      8 was old state      3
 New state     11 was old state     13
 New state     12 was old state     11
 New state     13 was old state     15
 New state     15 was old state     19
 Excitation Energies [eV] at current iteration:
 Root      1 :     4.713522909099668
 Root      2 :     5.211095875301392
 Root      3 :     5.335703142861074
 Root      4 :     5.942032442418586
 Root      5 :     6.230524128129181
 Root      6 :     6.320771721856033
 Root      7 :     6.385351662513347
 Root      8 :     6.423630675023041
 Root      9 :     6.503260439377994
 Root     10 :     6.990486449807258
 Root     11 :     7.255618013321953
 Root     12 :     7.554877316023017
 Root     13 :     7.568101026923449
 Root     14 :     7.755674340323751
 Root     15 :     7.840227345887223
 Root     16 :     7.889139074992095
 Root     17 :     7.930418645708667
 Root     18 :     8.102430421457951
 Root     19 :     8.452865910907253
 Root     20 :     8.613796762211178
 Root     21 :     8.756408560335094
 Root     22 :     9.009259922128583
 Root     23 :     9.023549629710724
 Root     24 :     9.205266712749337
 Root     25 :     9.444210978363644
 Root     26 :     9.472481836234669
 Root     27 :     9.572473505449590
 Root     28 :     9.638507316547157
 Root     29 :     9.781506906800717
 Root     30 :     9.844233654348580
 Root     31 :     9.913739368713015
 Root     32 :     9.998018446729379
 Root     33 :    10.265408369629850
 Root     34 :    10.305165041515310
 Root     35 :    10.340919668822010
 Root     36 :    10.488251543329040
 Root     37 :    10.545545443537480
 Root     38 :    10.628133512002210
 Root     39 :    10.863409180678410
 Root     40 :    10.961715203789870
 Root     41 :    11.065926398224640
 Root     42 :    11.132309652919550
 Root     43 :    11.147180173650870
 Root     44 :    11.407789135537550
 Root     45 :    11.594679774787060
 Root     46 :    11.654461242152500
 Root     47 :    11.732256115361260
 Root     48 :    11.962623354022160
 Root     49 :    12.035680031487650
 Root     50 :    12.151478205088230
 Root     51 :    12.435334758234940
 Root     52 :    12.499539152274630
 Root     53 :    12.613172756660480
 Root     54 :    13.088556834764070
 Root     55 :    13.115556604709640
 Root     56 :    13.308237614159100
 Root     57 :    13.446107977608980
 Root     58 :    13.580610875395620
 Root     59 :    13.660396418798330
 Root     60 :    13.860980342681620
 Iteration     2 Dimension   120 NMult    60 NNew     60
 CISAX will form    60 AO SS matrices at one time.
 NMat=    60 NSing=    60 JSym2X= 0.
 Root      1 not converged, maximum delta is    0.047558863265192
 Root      2 not converged, maximum delta is    0.019904307725441
 Root      3 not converged, maximum delta is    0.031651246639488
 Root      4 not converged, maximum delta is    0.054278035186553
 Root      5 not converged, maximum delta is    0.045920876640134
 Root      6 not converged, maximum delta is    0.075041078246932
 New state      7 was old state      8
 Root      7 not converged, maximum delta is    0.107123139149234
 New state      8 was old state      7
 Root      8 not converged, maximum delta is    0.091353540595229
 Root      9 not converged, maximum delta is    0.048746893704249
 Root     10 not converged, maximum delta is    0.066477364363468
 Root     11 not converged, maximum delta is    0.052867566150006
 Root     12 not converged, maximum delta is    0.056951238731136
 Root     13 not converged, maximum delta is    0.090488142394120
 Root     14 not converged, maximum delta is    0.224803797113018
 Root     15 not converged, maximum delta is    0.307603043449966
 Excitation Energies [eV] at current iteration:
 Root      1 :     4.632332107956204   Change is   -0.081190801143464
 Root      2 :     5.191199964056239   Change is   -0.019895911245152
 Root      3 :     5.307048391417125   Change is   -0.028654751443948
 Root      4 :     5.868122845331363   Change is   -0.073909597087224
 Root      5 :     6.099169805750744   Change is   -0.131354322378437
 Root      6 :     6.196429872083906   Change is   -0.124341849772127
 Root      7 :     6.267555996856428   Change is   -0.156074678166613
 Root      8 :     6.330968737286055   Change is   -0.054382925227293
 Root      9 :     6.446691172150735   Change is   -0.056569267227260
 Root     10 :     6.877676937043285   Change is   -0.112809512763973
 Root     11 :     7.214143413000414   Change is   -0.041474600321538
 Root     12 :     7.459905875516592   Change is   -0.094971440506426
 Root     13 :     7.469480048699942   Change is   -0.098620978223507
 Root     14 :     7.669392250803662   Change is   -0.086282089520090
 Root     15 :     7.728991531509613   Change is   -0.111235814377611
 Root     16 :     7.775771342258949   Change is   -0.113367732733146
 Root     17 :     7.844240603902469   Change is   -0.086178041806198
 Root     18 :     7.980516356616373   Change is   -0.121914064841578
 Root     19 :     8.257082511234206   Change is   -0.195783399673048
 Root     20 :     8.464539503468080   Change is   -0.291869056867015
 Root     21 :     8.471857172319227   Change is   -0.141939589891951
 Root     22 :     8.950281368240407   Change is   -0.058978553888176
 Root     23 :     8.971850297268711   Change is   -0.051699332442013
 Root     24 :     9.017908056444535   Change is   -0.454573779790136
 Root     25 :     9.068152457256033   Change is   -0.137114255493303
 Root     26 :     9.260788396359469   Change is   -0.183422582004174
 Root     27 :     9.287938188686617   Change is   -0.350569127860541
 Root     28 :     9.481893877505653   Change is   -0.516124569223726
 Root     29 :     9.522561128403916   Change is   -0.049912377045675
 Root     30 :     9.641708177427034   Change is   -0.202525476921546
 Root     31 :     9.688415721406727   Change is   -0.093091185393989
 Root     32 :     9.727742667963055   Change is   -0.577422373552261
 Root     33 :     9.770880288078851   Change is   -0.142859080634163
 Root     34 :     9.828849494970356   Change is   -0.436558874659497
 Root     35 :    10.021535280408870   Change is   -0.524010163128611
 Root     36 :    10.079936362901490   Change is   -0.408315180427548
 Root     37 :    10.259535300531700   Change is   -0.081384368290314
 Root     38 :    10.284425622722750   Change is   -0.677289581067121
 Root     39 :    10.505412172172120   Change is   -0.641768001478755
 Root     40 :    10.553875699174220   Change is   -0.074257812827991
 Root     41 :    10.693916282733850   Change is   -0.372010115490786
 Root     42 :    10.783137845381280   Change is   -0.080271335297125
 Root     43 :    10.837782654729190   Change is   -0.294526998190360
 Root     44 :    10.901983051671240   Change is   -0.505806083866304
 Root     45 :    11.017563871820580   Change is   -0.577115902966477
 Root     46 :    11.237121550007330   Change is   -0.417339692145170
 Root     47 :    11.415170212081860   Change is   -0.547453141940308
 Root     48 :    11.533240683869020   Change is   -0.199015431492233
 Root     49 :    11.753728024787310   Change is   -0.745811127487321
 Root     50 :    11.831901642434380   Change is   -0.203778389053268
 Root     51 :    11.977518045220340   Change is   -0.457816713014603
 Root     52 :    12.070184342080550   Change is   -0.081293863007676
 Root     53 :    12.142168263776620   Change is   -0.471004492883856
 Root     54 :    12.427186542554950   Change is   -1.018921435054036
 Root     55 :    12.700116228584280   Change is   -0.388440606179792
 Root     56 :    12.912402485307500   Change is   -0.395835128851595
 Root     57 :    12.961999746380040   Change is   -0.698396672418294
 Root     58 :    13.066630809243240   Change is   -0.048925795466399
 Root     59 :    13.095461848973690   Change is   -0.485149026421938
 Root     60 :    13.150936118168620   Change is   -0.710044224512994
 Iteration     3 Dimension   135 NMult   120 NNew     15
 CISAX will form    15 AO SS matrices at one time.
 NMat=    15 NSing=    15 JSym2X= 0.
 Root      1 not converged, maximum delta is    0.001269063305972
 Root      2 not converged, maximum delta is    0.000302604854709
 Root      3 not converged, maximum delta is    0.000194068110519
 Root      4 not converged, maximum delta is    0.000298846956384
 Root      5 not converged, maximum delta is    0.000245745380986
 Root      6 not converged, maximum delta is    0.001375912022564
 Root      7 not converged, maximum delta is    0.002095579717344
 Root      8 not converged, maximum delta is    0.002889695577929
 Root      9 not converged, maximum delta is    0.000809187628456
 Root     10 not converged, maximum delta is    0.000113252056866
 Root     11 not converged, maximum delta is    0.000247629186579
 Root     12 not converged, maximum delta is    0.002160746890997
 Root     13 not converged, maximum delta is    0.003279095822120
 Root     14 not converged, maximum delta is    0.000516638955573
 Root     15 not converged, maximum delta is    0.000203811277214
 Excitation Energies [eV] at current iteration:
 Root      1 :     4.632020672925887   Change is   -0.000311435030317
 Root      2 :     5.191168854674855   Change is   -0.000031109381385
 Root      3 :     5.307034485965963   Change is   -0.000013905451162
 Root      4 :     5.868115039402528   Change is   -0.000007805928835
 Root      5 :     6.099153924629733   Change is   -0.000015881121011
 Root      6 :     6.196365133126255   Change is   -0.000064738957651
 Root      7 :     6.266700939976695   Change is   -0.000855056879734
 Root      8 :     6.330577170205503   Change is   -0.000391567080551
 Root      9 :     6.446658704829046   Change is   -0.000032467321688
 Root     10 :     6.877671616877285   Change is   -0.000005320166000
 Root     11 :     7.214130236997930   Change is   -0.000013176002484
 Root     12 :     7.459836488993972   Change is   -0.000069386522620
 Root     13 :     7.469399130616282   Change is   -0.000080918083659
 Root     14 :     7.669330957530229   Change is   -0.000061293273432
 Root     15 :     7.728978281872282   Change is   -0.000013249637331
 Iteration     4 Dimension   143 NMult   135 NNew      8
 CISAX will form     8 AO SS matrices at one time.
 NMat=     8 NSing=     8 JSym2X= 0.
 Root      1 not converged, maximum delta is    0.000025174404880
 Root      2 not converged, maximum delta is    0.000017023881017
 Root      3 not converged, maximum delta is    0.000012108152091
 Root      4 not converged, maximum delta is    0.000006136722549
 Root      5 not converged, maximum delta is    0.000016150307671
 Root      6 not converged, maximum delta is    0.000031954155708
 Root      7 not converged, maximum delta is    0.000135385062673
 Root      8 not converged, maximum delta is    0.000054938789167
 Root      9 not converged, maximum delta is    0.000017952671084
 Root     10 not converged, maximum delta is    0.000008531318471
 Root     11 not converged, maximum delta is    0.000015883405904
 Root     12 not converged, maximum delta is    0.000022294198162
 Root     13 not converged, maximum delta is    0.000025572427363
 Root     14 not converged, maximum delta is    0.000040620368201
 Root     15 not converged, maximum delta is    0.000017571431785
 Excitation Energies [eV] at current iteration:
 Root      1 :     4.632020358581624   Change is   -0.000000314344264
 Root      2 :     5.191168786417102   Change is   -0.000000068257752
 Root      3 :     5.307034448930224   Change is   -0.000000037035738
 Root      4 :     5.868115028138424   Change is   -0.000000011264104
 Root      5 :     6.099153876123213   Change is   -0.000000048506519
 Root      6 :     6.196364954377382   Change is   -0.000000178748874
 Root      7 :     6.266697351330563   Change is   -0.000003588646132
 Root      8 :     6.330576646001104   Change is   -0.000000524204399
 Root      9 :     6.446658635246246   Change is   -0.000000069582800
 Root     10 :     6.877671595386567   Change is   -0.000000021490717
 Root     11 :     7.214130210786276   Change is   -0.000000026211653
 Root     12 :     7.459836358619789   Change is   -0.000000130374182
 Root     13 :     7.469398982335188   Change is   -0.000000148281094
 Root     14 :     7.669330732671264   Change is   -0.000000224858965
 Root     15 :     7.728978215480070   Change is   -0.000000066392211
 Convergence achieved on expansion vectors.
 ***********************************************************************
 Excited states from <AA,BB:AA,BB> singles matrix:
 ***********************************************************************
 
 1PDM for each excited state written to RWF  633
 Ground to excited state transition densities written to RWF  633
 Ground to excited state transition electric dipole moments (Au):
       state          X           Y           Z        Dip. S.      Osc.
         1         0.7920      0.0937     -0.0357      0.6373      0.0723
         2        -0.0101      0.1403     -0.0138      0.0200      0.0025
         3        -0.0200      0.0250     -0.0174      0.0013      0.0002
         4         0.1192     -0.0158      0.0991      0.0243      0.0035
         5         0.0303      0.1687     -0.0617      0.0332      0.0050
         6        -0.1264      0.3267      0.0224      0.1232      0.0187
         7        -0.2225      1.5544     -0.0250      2.4663      0.3787
         8        -0.7850     -0.2321      0.0181      0.6704      0.1040
         9         0.1953     -0.0477     -0.0979      0.0500      0.0079
        10         0.0222      0.0565      0.0105      0.0038      0.0006
        11        -0.0093     -0.0951     -0.1004      0.0192      0.0034
        12         0.0264      0.0693     -0.0200      0.0059      0.0011
        13         0.0185      0.0337      0.1109      0.0138      0.0025
        14         0.0049      0.0077     -0.1265      0.0161      0.0030
        15         0.0397     -0.0212     -0.0173      0.0023      0.0004
 Ground to excited state transition velocity dipole moments (Au):
       state          X           Y           Z        Dip. S.      Osc.
         1        -0.0529     -0.0121     -0.0026      0.0029      0.0116
         2         0.0099      0.0005      0.0033      0.0001      0.0004
         3         0.0034      0.0030      0.0063      0.0001      0.0002
         4        -0.0186      0.0045     -0.0843      0.0075      0.0231
         5        -0.0050     -0.0392      0.0153      0.0018      0.0053
         6         0.0227     -0.0682      0.0363      0.0065      0.0190
         7         0.0378     -0.3138      0.0036      0.0999      0.2893
         8         0.1408      0.0451      0.0199      0.0223      0.0638
         9        -0.0319      0.0113      0.1643      0.0281      0.0792
        10        -0.0037     -0.0134     -0.0433      0.0021      0.0054
        11        -0.0016      0.0232      0.0041      0.0006      0.0014
        12        -0.0016     -0.0127      0.0438      0.0021      0.0051
        13        -0.0033     -0.0136      0.0199      0.0006      0.0014
        14        -0.0028      0.0012     -0.0118      0.0001      0.0004
        15        -0.0073      0.0152      0.0800      0.0067      0.0157
 Ground to excited state transition magnetic dipole moments (Au):
       state          X           Y           Z
         1        -0.0358      0.0063      0.7494
         2        -0.0245      0.3313      0.0053
         3         0.0916     -0.5746      0.0197
         4         0.1791      0.0828      0.0127
         5        -0.2778      0.0339     -0.0139
         6         0.2533      0.0674     -0.0023
         7        -0.0900     -0.0161     -0.0259
         8        -0.0305      0.0871     -0.0192
         9         0.0575      0.2036      0.0272
        10        -0.1476      0.7095     -0.0202
        11        -1.7102      0.2311     -0.0578
        12        -0.1346     -0.6805      0.0177
        13         0.1567      0.0425      0.0411
        14        -0.1898     -0.2954     -0.0267
        15         0.5401      0.0315     -0.0067
 Ground to excited state transition velocity quadrupole moments (Au):
       state          XX          YY          ZZ          XY          XZ          YZ
         1        -0.0274      0.0216     -0.0068      0.5142     -0.0097      0.0083
         2         0.0531     -0.1049      0.0698      0.0604      0.0656     -0.0048
         3         0.0331     -0.0723      0.0332      0.0315     -0.1331      0.0028
         4        -0.0009     -0.0156      0.0095     -0.0439      0.0045      0.1726
         5         0.0594     -0.0439      0.0135     -0.0296     -0.0847     -0.2182
         6         0.0988     -0.0574     -0.0045      0.0552     -0.1001      0.1777
         7         0.4566     -0.2716     -0.0368      0.0543      0.0441     -0.0008
         8        -0.1189      0.0712      0.0021      0.4689     -0.0116     -0.0278
         9        -0.0174      0.0189     -0.0024     -0.0787     -0.0178     -0.1288
        10         0.0306      0.0095     -0.0122     -0.0298     -0.3129     -0.0121
        11        -0.0407      0.0070     -0.0031     -0.0515      0.0579      0.0860
        12         0.0469      0.0175      0.0091      0.0124     -0.1533      0.0440
        13         0.0224     -0.0068     -0.0286      0.0154      0.0745     -0.1182
        14        -0.0022     -0.0061     -0.0042     -0.0038      0.0842     -0.0612
        15        -0.0321      0.0136      0.0058     -0.0271      0.0693      0.2307
 <0|del|b> * <b|rxdel|0> + <0|del|b> * <b|delr+rdel|0>
 Rotatory Strengths (R) in cgs (10**-40 erg-esu-cm/Gauss)
       state          XX          YY          ZZ    R(velocity)    E-M Angle
         1        -7.2164      1.7555      4.9318     -0.1764       90.18
         2         0.6262     -0.8707     -0.0205     -0.0883       90.00
         3        -1.8423      0.4438     -3.3418     -1.5801      106.88
         4         4.8752    -18.5766      0.4409     -4.4202      103.69
         5        -8.3903      4.2725      3.6169     -0.1669       90.77
         6       -14.7542     11.9134      6.1212      1.0934       87.13
         7        29.1505     -5.7135    -18.6747      1.5874       87.04
         8        20.3651    -27.2428      4.6068     -0.7570       93.05
         9        -8.9014     29.3551     -5.7525      4.9004       82.09
        10       -16.1626      0.2471     -6.7420     -7.5525      104.23
        11         4.7491      3.5348     12.8825      7.0554       78.77
        12        10.3136      0.4872     14.0065      8.2691       72.30
        13         2.0051      0.4971     -3.1972     -0.2317       93.80
        14        -0.0987      1.2185      0.1436      0.4211       83.27
        15        -4.0841     -5.0212     -0.9192     -3.3415       95.22
 1/2[<0|r|b>*<b|rxdel|0> + (<0|rxdel|b>*<b|r|0>)*]
 Rotatory Strengths (R) in cgs (10**-40 erg-esu-cm/Gauss)
       state          XX          YY          ZZ     R(length)
         1        20.0713     -0.4198     18.9053     12.8523
         2        -0.1739    -32.8715      0.0515    -10.9980
         3         1.2988     10.1460      0.2422      3.8957
         4       -15.0929      0.9228     -0.8932     -5.0211
         5         5.9613     -4.0396     -0.6063      0.4385
         6        22.6450    -15.5708      0.0362      2.3701
         7       -14.1645     17.6718     -0.4571      1.0167
         8       -16.9417     14.2939      0.2466     -0.8004
         9        -7.9417      6.8717      1.8831      0.2711
        10         2.3212    -28.3732      0.1494     -8.6342
        11       -11.2065     15.5450     -4.1073      0.0771
        12         2.5123     33.3403      0.2499     12.0342
        13        -2.0519     -1.0119     -3.2222     -2.0953
        14         0.6561      1.6142     -2.3877     -0.0391
        15       -15.1643      0.4723     -0.0824     -4.9248
  1/2[<0|del|b>*<b|r|0> + (<0|r|b>*<b|del|0>)*] (Au)
       state          X           Y           Z        Dip. S.   Osc.(frdel)
         1        -0.0419     -0.0011      0.0001      0.0429      0.0286
         2        -0.0001      0.0001      0.0000      0.0001      0.0001
         3        -0.0001      0.0001     -0.0001      0.0001      0.0001
         4        -0.0022     -0.0001     -0.0084      0.0106      0.0071
         5        -0.0002     -0.0066     -0.0009      0.0077      0.0051
         6        -0.0029     -0.0223      0.0008      0.0243      0.0162
         7        -0.0084     -0.4878     -0.0001      0.4963      0.3309
         8        -0.1105     -0.0105      0.0004      0.1206      0.0804
         9        -0.0062     -0.0005     -0.0161      0.0229      0.0152
        10        -0.0001     -0.0008     -0.0005      0.0013      0.0009
        11         0.0000     -0.0022     -0.0004      0.0026      0.0017
        12         0.0000     -0.0009     -0.0009      0.0018      0.0012
        13        -0.0001     -0.0005      0.0022     -0.0017     -0.0011
        14         0.0000      0.0000      0.0015     -0.0015     -0.0010
        15        -0.0003     -0.0003     -0.0014      0.0020      0.0013

 Excitation energies and oscillator strengths:
 
 Excited State   1:      Singlet-A      4.6320 eV  267.67 nm  f=0.0723  <S**2>=0.000
      12 -> 15         0.22867
      13 -> 14         0.66154
 This state for optimization and/or second-order correction.
 Total Energy, E(CIS) =  0.191361492269    
 Copying the excited state density for this state as the 1-particle RhoCI density.
 
 Excited State   2:      Singlet-A      5.1912 eV  238.84 nm  f=0.0025  <S**2>=0.000
      12 -> 14        -0.40134
      13 -> 15         0.50059
      13 -> 16        -0.27563
 
 Excited State   3:      Singlet-A      5.3070 eV  233.62 nm  f=0.0002  <S**2>=0.000
      12 -> 14        -0.21690
      13 -> 15         0.19120
      13 -> 16         0.62412
 
 Excited State   4:      Singlet-A      5.8681 eV  211.28 nm  f=0.0035  <S**2>=0.000
       7 -> 16        -0.18063
      12 -> 15        -0.12962
      12 -> 16         0.63317
      12 -> 22         0.13955
 
 Excited State   5:      Singlet-A      6.0992 eV  203.28 nm  f=0.0050  <S**2>=0.000
      12 -> 18         0.22012
      12 -> 21        -0.14860
      13 -> 17        -0.14041
      13 -> 18         0.43814
      13 -> 19        -0.18414
      13 -> 21        -0.27877
      13 -> 22        -0.11688
      13 -> 23         0.17443
 
 Excited State   6:      Singlet-A      6.1964 eV  200.09 nm  f=0.0187  <S**2>=0.000
      12 -> 14         0.10769
      12 -> 19        -0.26329
      12 -> 23         0.13018
      13 -> 15         0.10088
      13 -> 17         0.29083
      13 -> 18         0.16978
      13 -> 19         0.35044
      13 -> 21        -0.13281
      13 -> 22        -0.19718
      13 -> 23        -0.20083
 
 Excited State   7:      Singlet-A      6.2667 eV  197.85 nm  f=0.3787  <S**2>=0.000
      11 -> 16        -0.10242
      12 -> 14         0.48285
      13 -> 15         0.42087
 
 Excited State   8:      Singlet-A      6.3306 eV  195.85 nm  f=0.1040  <S**2>=0.000
      12 -> 15         0.62724
      12 -> 16         0.14003
      13 -> 14        -0.20559
      13 -> 19        -0.11466
 
 Excited State   9:      Singlet-A      6.4467 eV  192.32 nm  f=0.0079  <S**2>=0.000
      12 -> 15        -0.13019
      12 -> 17         0.10563
      13 -> 17         0.54983
      13 -> 19        -0.33900
 
 Excited State  10:      Singlet-A      6.8777 eV  180.27 nm  f=0.0006  <S**2>=0.000
      12 -> 17         0.51328
      12 -> 18         0.24144
      12 -> 19        -0.23985
      12 -> 20         0.18845
      12 -> 21         0.10817
      13 -> 18        -0.17905
 
 Excited State  11:      Singlet-A      7.2141 eV  171.86 nm  f=0.0034  <S**2>=0.000
       9 -> 15        -0.21009
      10 -> 14         0.60556
      11 -> 15        -0.22226
 
 Excited State  12:      Singlet-A      7.4598 eV  166.20 nm  f=0.0011  <S**2>=0.000
       9 -> 14         0.26429
       9 -> 15        -0.10132
      10 -> 14         0.11601
      10 -> 15        -0.22708
      11 -> 14         0.43456
      11 -> 15         0.24099
      12 -> 19         0.10345
      12 -> 20         0.10653
      13 -> 18         0.12350
      13 -> 21         0.10457
      13 -> 22         0.10755
 
 Excited State  13:      Singlet-A      7.4694 eV  165.99 nm  f=0.0025  <S**2>=0.000
      10 -> 15        -0.12447
      11 -> 14         0.29691
      12 -> 17        -0.11347
      12 -> 19        -0.22687
      12 -> 20        -0.22346
      12 -> 23         0.11619
      13 -> 18        -0.28868
      13 -> 19        -0.19562
      13 -> 20        -0.15331
      13 -> 21        -0.22334
 
 Excited State  14:      Singlet-A      7.6693 eV  161.66 nm  f=0.0030  <S**2>=0.000
       9 -> 14         0.16229
      10 -> 15        -0.10256
      12 -> 17        -0.15945
      12 -> 18         0.34930
      12 -> 19        -0.12934
      12 -> 20        -0.13230
      12 -> 24         0.11862
      13 -> 19         0.10309
      13 -> 20         0.35315
      13 -> 21         0.14590
      13 -> 22         0.19257
      13 -> 24        -0.13035
 
 Excited State  15:      Singlet-A      7.7290 eV  160.41 nm  f=0.0004  <S**2>=0.000
       9 -> 14        -0.11330
      11 -> 15        -0.17744
      12 -> 19        -0.29685
      12 -> 20         0.13066
      12 -> 22         0.15909
      13 -> 18         0.21661
      13 -> 21         0.11055
      13 -> 22         0.37597
      13 -> 24         0.17840
 SavETr:  write IOETrn=   770 NScale= 10 NData=  16 NLR=1 NState=   15 LETran=     280.
 The selected state is a singlet
 CISAX will form     1 AO SS matrices at one time.
 NMat=     1 NSing=     1 JSym2X= 0.
 Leave Link  914 at Tue Dec 15 16:26:30 2015, MaxMem=    33554432 cpu:         0.1
 (Enter /home/Applications/g09/g09/l1002.exe)
 Minotr:  Closed shell wavefunction.
          Computing CIS/TD-HF/TD-KS derivatives.
          Using Z-Vector for PSCF gradient.
          Skipping F1 and S1 gradient terms here.
          IDoAtm=111111111
          Direct CPHF calculation.
          Differentiating once with respect to electric field.
                with respect to dipole field.
          Differentiating once with respect to nuclear coordinates.
          Electric field/nuclear overlap derivatives assumed to be zero.
          Requested convergence is 1.0D-10 RMS, and 1.0D-09 maximum.
          NewPWx=T KeepS1=F KeepF1=F KeepIn=T MapXYZ=F SortEE=F KeepMc=T.
          MDV=      33495423 using IRadAn=       0.
 Keep J ints in memory in canonical form, NReq=871704.
 FoFCou: FMM=F IPFlag=           0 FMFlag=           0 FMFlg1=           0
         NFxFlg=           0 DoJE=F BraDBF=F KetDBF=F FulRan=T
         wScrn=  0.000000 ICntrl=     600 IOpCl=  2 I1Cent=           0 NGrid=           0
         NMat0=    1 NMatS0=     54 NMatT0=    0 NMatD0=    1 NMtDS0=    0 NMtDT0=    0
 Symmetry not used in FoFCou.
          Solving linear equations separately, MaxMat=       0.
          There are     1 degrees of freedom in the 1st order CPHF.  IDoFFX=0 NUNeed=     1.
 LinEq1:  Iter=  0 NonCon=     1 RMS=1.07D-02 Max=8.00D-02 NDo=     1
 AX will form     1 AO Fock derivatives at one time.
 LinEq1:  Iter=  1 NonCon=     1 RMS=2.01D-03 Max=1.24D-02 NDo=     1
 LinEq1:  Iter=  2 NonCon=     1 RMS=2.89D-04 Max=1.74D-03 NDo=     1
 LinEq1:  Iter=  3 NonCon=     1 RMS=3.68D-05 Max=1.99D-04 NDo=     1
 LinEq1:  Iter=  4 NonCon=     1 RMS=3.57D-06 Max=1.50D-05 NDo=     1
 LinEq1:  Iter=  5 NonCon=     1 RMS=4.50D-07 Max=2.07D-06 NDo=     1
 LinEq1:  Iter=  6 NonCon=     1 RMS=6.29D-08 Max=3.49D-07 NDo=     1
 LinEq1:  Iter=  7 NonCon=     1 RMS=7.78D-09 Max=2.96D-08 NDo=     1
 LinEq1:  Iter=  8 NonCon=     1 RMS=1.13D-09 Max=5.33D-09 NDo=     1
 LinEq1:  Iter=  9 NonCon=     1 RMS=1.36D-10 Max=4.34D-10 NDo=     1
 LinEq1:  Iter= 10 NonCon=     0 RMS=1.25D-11 Max=5.01D-11 NDo=     1
 Linear equations converged to 1.000D-10 1.000D-09 after    10 iterations.
 End of Minotr F.D. properties file   721 does not exist.
 End of Minotr F.D. properties file   722 does not exist.
 End of Minotr F.D. properties file   788 does not exist.
 Leave Link 1002 at Tue Dec 15 16:26:30 2015, MaxMem=    33554432 cpu:         0.0
 (Enter /home/Applications/g09/g09/l601.exe)
 Copying SCF densities to generalized density rwf, IOpCl= 0 IROHF=0.

 **********************************************************************

            Population analysis using the SCF density.

 **********************************************************************

 Orbital symmetries:
       Occupied  (A) (A) (A) (A) (A) (A) (A) (A) (A) (A) (A) (A)
                 (A)
       Virtual   (A) (A) (A) (A) (A) (A) (A) (A) (A) (A) (A)
 The electronic state is 1-A.
 Alpha  occ. eigenvalues --   -1.55493  -1.23175  -1.10986  -0.82922  -0.80801
 Alpha  occ. eigenvalues --   -0.68387  -0.59592  -0.56248  -0.51824  -0.50308
 Alpha  occ. eigenvalues --   -0.49532  -0.39270  -0.35399
 Alpha virt. eigenvalues --    0.03311   0.06224   0.09908   0.13138   0.14766
 Alpha virt. eigenvalues --    0.15524   0.17737   0.19072   0.19115   0.21038
 Alpha virt. eigenvalues --    0.22357
     Molecular Orbital Coefficients:
                           1         2         3         4         5
                           O         O         O         O         O
     Eigenvalues --    -1.55493  -1.23175  -1.10986  -0.82922  -0.80801
   1 1   C  1S          0.29334  -0.45464   0.30951  -0.28821  -0.31951
   2        1PX        -0.06093   0.07726   0.16705  -0.20246   0.14887
   3        1PY        -0.11625   0.03248  -0.12928   0.01557  -0.28001
   4        1PZ         0.00185  -0.00285   0.00151  -0.00220   0.00015
   5 2   C  1S          0.36052  -0.12577   0.52177   0.06604   0.39956
   6        1PX        -0.17719  -0.04375   0.00199  -0.08201   0.11798
   7        1PY        -0.00579  -0.22678   0.04569  -0.35674  -0.08875
   8        1PZ         0.00026  -0.00091   0.00107  -0.00083   0.00758
   9 3   O  1S          0.63100   0.60453   0.00023   0.08491  -0.28696
  10        1PX        -0.01195  -0.01050   0.30764   0.50102   0.08345
  11        1PY         0.19653  -0.02274   0.00897  -0.03645   0.17826
  12        1PZ         0.00460   0.00204  -0.00145  -0.00575   0.00676
  13 4   C  1S          0.37573  -0.11419  -0.49631  -0.21884   0.36766
  14        1PX         0.18319   0.06650   0.01110  -0.06626  -0.14276
  15        1PY        -0.00269  -0.24308  -0.04156   0.34270   0.05687
  16        1PZ        -0.00716  -0.00102   0.00788   0.00691  -0.00074
  17 5   C  1S          0.29099  -0.46603  -0.31669   0.37170  -0.16960
  18        1PX         0.06649  -0.07411   0.14685  -0.15371  -0.21399
  19        1PY        -0.11175   0.03010   0.12193   0.09632  -0.28355
  20        1PZ        -0.00050   0.00077  -0.00044  -0.00151   0.00676
  21 6   H  1S          0.07201  -0.16712  -0.13536   0.26862  -0.13184
  22 7   H  1S          0.07956  -0.01811  -0.18370  -0.16076   0.21137
  23 8   H  1S          0.07928  -0.02460   0.19872   0.08128   0.26233
  24 9   H  1S          0.06470  -0.14838   0.11831  -0.17971  -0.22369
                           6         7         8         9        10
                           O         O         O         O         O
     Eigenvalues --    -0.68387  -0.59592  -0.56248  -0.51824  -0.50308
   1 1   C  1S         -0.06847  -0.01159   0.17258   0.01613  -0.01610
   2        1PX        -0.21655  -0.01055   0.05550  -0.13425  -0.07816
   3        1PY        -0.21687   0.01853   0.17612   0.37905   0.34160
   4        1PZ        -0.00135   0.23201   0.02006  -0.00344  -0.00654
   5 2   C  1S         -0.10669   0.00226  -0.14981  -0.05297   0.04345
   6        1PX        -0.38048   0.03674  -0.33481   0.34801  -0.11093
   7        1PY         0.06462  -0.01746  -0.09491  -0.33825  -0.35276
   8        1PZ        -0.00702   0.37422   0.01534  -0.00959   0.00137
   9 3   O  1S         -0.17690  -0.00723   0.03578  -0.01101  -0.21293
  10        1PX         0.03267  -0.02697   0.46553  -0.04335   0.04682
  11        1PY         0.45746  -0.00591  -0.08705  -0.05517   0.57319
  12        1PZ         0.00612   0.76688   0.04823  -0.06076   0.00601
  13 4   C  1S         -0.08668   0.00266   0.15677   0.06989   0.06545
  14        1PX         0.34545   0.05072  -0.40340   0.22607   0.01715
  15        1PY         0.13294  -0.00679   0.13150   0.20789  -0.35348
  16        1PZ         0.00543   0.39313   0.03606  -0.02323  -0.02066
  17 5   C  1S         -0.07261   0.01371  -0.15483   0.01297  -0.05412
  18        1PX         0.22208   0.01071   0.06870   0.26579   0.06580
  19        1PY        -0.22577   0.00742  -0.23258  -0.34431   0.34665
  20        1PZ         0.00542   0.23283   0.03057   0.00027  -0.02353
  21 6   H  1S         -0.23734   0.00278  -0.26341  -0.33646   0.15673
  22 7   H  1S         -0.26138  -0.03878   0.28411  -0.18874   0.18791
  23 8   H  1S         -0.27635   0.04127  -0.26732   0.33674   0.09292
  24 9   H  1S         -0.21948   0.00330   0.22991   0.19883   0.18896
                          11        12        13        14        15
                           O         O         O         V         V
     Eigenvalues --    -0.49532  -0.39270  -0.35399   0.03311   0.06224
   1 1   C  1S         -0.03537  -0.00853   0.00168   0.01286  -0.01121
   2        1PX         0.54403  -0.00566  -0.00467  -0.00764  -0.00603
   3        1PY         0.18348  -0.00698   0.00544   0.00202  -0.00807
   4        1PZ         0.00361   0.59573  -0.35446  -0.34518   0.58599
   5 2   C  1S         -0.04846   0.00183   0.00992  -0.01317   0.02533
   6        1PX        -0.05139  -0.00920   0.01513  -0.02189  -0.00346
   7        1PY         0.06612   0.00648  -0.01110   0.00696  -0.02869
   8        1PZ        -0.00801   0.23136  -0.57800   0.55300  -0.40366
   9 3   O  1S          0.02040   0.00119  -0.00451   0.00148  -0.01902
  10        1PX        -0.00330  -0.00914  -0.00344   0.00035   0.00704
  11        1PY         0.23847   0.01875   0.00236   0.00297  -0.03991
  12        1PZ        -0.00867  -0.52613  -0.04648  -0.35480  -0.00914
  13 4   C  1S          0.01313  -0.00068   0.02124   0.02692   0.04044
  14        1PX         0.21790  -0.00932   0.00451  -0.01582   0.01456
  15        1PY         0.26538  -0.01028  -0.01803  -0.00801  -0.03700
  16        1PZ         0.00637   0.13459   0.58158   0.57257   0.39106
  17 5   C  1S         -0.04816   0.00309   0.00209  -0.01728  -0.01035
  18        1PX        -0.48993   0.00465   0.00772  -0.00618   0.00734
  19        1PY        -0.12013   0.02829   0.02302  -0.00138  -0.01289
  20        1PZ         0.01166   0.54295   0.44481  -0.34291  -0.57446
  21 6   H  1S          0.13874   0.00593   0.00233   0.00922   0.01848
  22 7   H  1S         -0.26976   0.00795  -0.00756  -0.03008  -0.04288
  23 8   H  1S         -0.10573   0.00123  -0.00014   0.01976  -0.03015
  24 9   H  1S          0.35225  -0.00364  -0.00494  -0.00532   0.01807
                          16        17        18        19        20
                           V         V         V         V         V
     Eigenvalues --     0.09908   0.13138   0.14766   0.15524   0.17737
   1 1   C  1S          0.04026  -0.29765   0.02064  -0.23309  -0.40314
   2        1PX         0.04066   0.29333   0.17180  -0.35171   0.15203
   3        1PY         0.03489   0.00426   0.22901   0.24243  -0.33855
   4        1PZ         0.04449  -0.01853  -0.00097  -0.00412  -0.01118
   5 2   C  1S         -0.27792   0.22135   0.09736   0.42000  -0.15150
   6        1PX         0.27665   0.22467   0.32496   0.01265  -0.11955
   7        1PY         0.34052  -0.02865   0.13278   0.16142   0.16234
   8        1PZ        -0.03762   0.03272   0.01271   0.00457  -0.00628
   9 3   O  1S          0.22956  -0.02909   0.05567   0.06403   0.02443
  10        1PX         0.03547   0.07656   0.19554  -0.30640   0.06141
  11        1PY         0.48506  -0.06400   0.09590   0.11156   0.03691
  12        1PZ         0.01288  -0.01782   0.00415   0.00767   0.00495
  13 4   C  1S         -0.27931  -0.18113   0.41159  -0.15681   0.13796
  14        1PX        -0.19208   0.33947  -0.14135  -0.36282  -0.20758
  15        1PY         0.30609   0.00630   0.13195   0.03626  -0.06276
  16        1PZ         0.05907   0.03144  -0.02928   0.01027  -0.01426
  17 5   C  1S          0.05788   0.26463  -0.10260   0.14612   0.20154
  18        1PX         0.03271   0.30673   0.26556  -0.22079   0.35158
  19        1PY         0.02607  -0.01407   0.34857   0.00467   0.17564
  20        1PZ        -0.05380  -0.01517   0.00026  -0.00678  -0.00006
  21 6   H  1S         -0.10017  -0.05238  -0.02308  -0.30481  -0.10311
  22 7   H  1S          0.34259   0.44464  -0.36452  -0.12957  -0.24890
  23 8   H  1S          0.25635  -0.43134  -0.29334  -0.27070   0.25567
  24 9   H  1S         -0.14063   0.11132  -0.32330   0.19813   0.48057
                          21        22        23        24
                           V         V         V         V
     Eigenvalues --     0.19072   0.19115   0.21038   0.22357
   1 1   C  1S          0.17504   0.11419   0.18394  -0.06739
   2        1PX         0.41180  -0.13452  -0.13816  -0.24110
   3        1PY        -0.00278  -0.35518  -0.38878   0.11450
   4        1PZ         0.00566  -0.01027   0.00112  -0.00337
   5 2   C  1S         -0.10108  -0.09580  -0.12707  -0.07456
   6        1PX        -0.02619   0.47384   0.19735   0.19938
   7        1PY        -0.24056  -0.22606  -0.26779   0.43134
   8        1PZ         0.00082   0.01769   0.00744   0.00353
   9 3   O  1S         -0.01084   0.07812  -0.00647  -0.01835
  10        1PX        -0.04484   0.05720   0.02631   0.52479
  11        1PY         0.07868   0.22703  -0.00142  -0.01599
  12        1PZ        -0.00084   0.00305  -0.00336  -0.00923
  13 4   C  1S         -0.14434  -0.07811   0.11643   0.08832
  14        1PX        -0.20417  -0.24529   0.17553   0.27117
  15        1PY        -0.38846  -0.18070   0.18607  -0.45657
  16        1PZ         0.00283  -0.00501   0.00324  -0.01229
  17 5   C  1S          0.47957  -0.08612   0.00116   0.11119
  18        1PX        -0.09161   0.03159  -0.32463  -0.27742
  19        1PY        -0.10637  -0.34362   0.47881  -0.10190
  20        1PZ        -0.00466   0.01905  -0.01504   0.00772
  21 6   H  1S         -0.36740   0.32004  -0.45035  -0.13689
  22 7   H  1S         -0.17600  -0.15524   0.09114  -0.04352
  23 8   H  1S          0.00208  -0.31578  -0.12477   0.04902
  24 9   H  1S         -0.30582   0.21099   0.16661   0.06333
     Density Matrix:
                           1         2         3         4         5
   1 1   C  1S          1.22031
   2        1PX         0.02782   0.94197
   3        1PY         0.07064   0.04389   0.96489
   4        1PZ        -0.00399   0.00114  -0.00284   1.06971
   5 2   C  1S          0.31864   0.18731  -0.48319  -0.00662   1.24604
   6        1PX        -0.13673   0.07862   0.18715  -0.01835   0.10917
   7        1PY         0.44787   0.27874  -0.52210   0.01388  -0.00435
   8        1PZ        -0.01082  -0.00395  -0.00115   0.85970  -0.00263
   9 3   O  1S         -0.00316   0.03598  -0.00148   0.00461   0.09265
  10        1PX         0.00515  -0.03645   0.03823  -0.00395   0.31023
  11        1PY        -0.08135   0.02014   0.05729   0.00889   0.25551
  12        1PZ         0.00426   0.00247  -0.00007  -0.23583  -0.00140
  13 4   C  1S         -0.02654   0.00882   0.01652  -0.00772   0.01558
  14        1PX        -0.01292  -0.04572   0.00993  -0.00751   0.00797
  15        1PY        -0.01338   0.07268  -0.02376   0.00718  -0.04010
  16        1PZ        -0.00019   0.00314   0.00017  -0.06763   0.00554
  17 5   C  1S          0.25427  -0.44780   0.02314   0.00392  -0.02928
  18        1PX         0.45676  -0.67559   0.05177   0.00269  -0.01419
  19        1PY         0.04451  -0.08560   0.10607   0.00834   0.02191
  20        1PZ        -0.00813   0.00479  -0.00084   0.44121   0.00254
  21 6   H  1S         -0.04446   0.06236   0.00272  -0.00237   0.04829
  22 7   H  1S          0.04856  -0.07251   0.00257   0.00645   0.05072
  23 8   H  1S         -0.06265  -0.03272   0.09139   0.00720   0.61298
  24 9   H  1S          0.57744   0.43582   0.64981   0.01139  -0.05599
                           6         7         8         9        10
   6        1PX         0.89707
   7        1PY        -0.09166   0.89114
   8        1PZ        -0.00342   0.00316   1.05631
   9 3   O  1S         -0.21070  -0.16004  -0.00203   1.86339
  10        1PX        -0.43483  -0.42666  -0.00448   0.01259   1.15113
  11        1PY        -0.50019  -0.25628  -0.00584  -0.28909   0.00021
  12        1PZ        -0.01434  -0.00342   0.38706  -0.00881   0.01410
  13 4   C  1S         -0.00788  -0.04028  -0.01294   0.10049  -0.32988
  14        1PX         0.04891   0.02435   0.00137   0.22701  -0.46420
  15        1PY        -0.01496  -0.01155   0.00462  -0.15236   0.41142
  16        1PZ         0.00484  -0.00345  -0.31449  -0.00904   0.01814
  17 5   C  1S          0.02134  -0.01348   0.00306  -0.00071  -0.00345
  18        1PX        -0.03509  -0.08193   0.00066  -0.03665  -0.03530
  19        1PY        -0.02120  -0.03257  -0.00677  -0.00744  -0.04302
  20        1PZ         0.00215   0.00138  -0.08801   0.00084   0.00031
  21 6   H  1S         -0.01267   0.04898  -0.00035   0.02145  -0.05243
  22 7   H  1S         -0.09100  -0.05896   0.00739  -0.04360   0.04482
  23 8   H  1S          0.64034  -0.36990   0.02714  -0.03960  -0.04287
  24 9   H  1S          0.04071  -0.04801   0.00516   0.02378   0.05472
                          11        12        13        14        15
  11        1PY         1.35605
  12        1PZ        -0.01783   1.74669
  13 4   C  1S          0.25804   0.02085   1.25099
  14        1PX         0.50712   0.02221  -0.11084   0.89300
  15        1PY        -0.19870  -0.02179  -0.00628   0.08672   0.91107
  16        1PZ        -0.01964   0.41310   0.01465   0.00556  -0.00530
  17 5   C  1S         -0.08361  -0.00450   0.30972   0.09589   0.44454
  18        1PX        -0.02920  -0.00410  -0.15264   0.10723  -0.22567
  19        1PY         0.06188  -0.00384  -0.50124  -0.13009  -0.56510
  20        1PZ         0.00019  -0.25297   0.03083  -0.00083   0.00145
  21 6   H  1S          0.07878   0.00536  -0.05208  -0.03436  -0.04845
  22 7   H  1S         -0.06443  -0.00718   0.59705  -0.62679  -0.41113
  23 8   H  1S         -0.06437  -0.00246   0.04602   0.08278  -0.04559
  24 9   H  1S          0.08929  -0.00047   0.05097   0.00739   0.05169
                          16        17        18        19        20
  16        1PZ         1.02680
  17 5   C  1S          0.00029   1.20789
  18        1PX         0.00441  -0.03313   0.94027
  19        1PY         0.02635   0.06787  -0.04292   0.95508
  20        1PZ         0.84994  -0.00136   0.00640   0.01460   1.09713
  21 6   H  1S         -0.00307   0.60493  -0.46720   0.60456  -0.01600
  22 7   H  1S         -0.02846  -0.06199   0.02906   0.09595  -0.01345
  23 8   H  1S         -0.00770   0.04755   0.07154   0.00389  -0.00255
  24 9   H  1S         -0.00340  -0.04520  -0.06419  -0.00107   0.00142
                          21        22        23        24
  21 6   H  1S          0.84752
  22 7   H  1S          0.01043   0.81059
  23 8   H  1S         -0.01423  -0.02050   0.80909
  24 9   H  1S         -0.00449  -0.01353   0.01120   0.84587
    Full Mulliken population analysis:
                           1         2         3         4         5
   1 1   C  1S          1.22031
   2        1PX         0.00000   0.94197
   3        1PY         0.00000   0.00000   0.96489
   4        1PZ         0.00000   0.00000   0.00000   1.06971
   5 2   C  1S          0.00000   0.00000   0.00000   0.00000   1.24604
   6        1PX         0.00000   0.00000   0.00000   0.00000   0.00000
   7        1PY         0.00000   0.00000   0.00000   0.00000   0.00000
   8        1PZ         0.00000   0.00000   0.00000   0.00000   0.00000
   9 3   O  1S          0.00000   0.00000   0.00000   0.00000   0.00000
  10        1PX         0.00000   0.00000   0.00000   0.00000   0.00000
  11        1PY         0.00000   0.00000   0.00000   0.00000   0.00000
  12        1PZ         0.00000   0.00000   0.00000   0.00000   0.00000
  13 4   C  1S          0.00000   0.00000   0.00000   0.00000   0.00000
  14        1PX         0.00000   0.00000   0.00000   0.00000   0.00000
  15        1PY         0.00000   0.00000   0.00000   0.00000   0.00000
  16        1PZ         0.00000   0.00000   0.00000   0.00000   0.00000
  17 5   C  1S          0.00000   0.00000   0.00000   0.00000   0.00000
  18        1PX         0.00000   0.00000   0.00000   0.00000   0.00000
  19        1PY         0.00000   0.00000   0.00000   0.00000   0.00000
  20        1PZ         0.00000   0.00000   0.00000   0.00000   0.00000
  21 6   H  1S          0.00000   0.00000   0.00000   0.00000   0.00000
  22 7   H  1S          0.00000   0.00000   0.00000   0.00000   0.00000
  23 8   H  1S          0.00000   0.00000   0.00000   0.00000   0.00000
  24 9   H  1S          0.00000   0.00000   0.00000   0.00000   0.00000
                           6         7         8         9        10
   6        1PX         0.89707
   7        1PY         0.00000   0.89114
   8        1PZ         0.00000   0.00000   1.05631
   9 3   O  1S          0.00000   0.00000   0.00000   1.86339
  10        1PX         0.00000   0.00000   0.00000   0.00000   1.15113
  11        1PY         0.00000   0.00000   0.00000   0.00000   0.00000
  12        1PZ         0.00000   0.00000   0.00000   0.00000   0.00000
  13 4   C  1S          0.00000   0.00000   0.00000   0.00000   0.00000
  14        1PX         0.00000   0.00000   0.00000   0.00000   0.00000
  15        1PY         0.00000   0.00000   0.00000   0.00000   0.00000
  16        1PZ         0.00000   0.00000   0.00000   0.00000   0.00000
  17 5   C  1S          0.00000   0.00000   0.00000   0.00000   0.00000
  18        1PX         0.00000   0.00000   0.00000   0.00000   0.00000
  19        1PY         0.00000   0.00000   0.00000   0.00000   0.00000
  20        1PZ         0.00000   0.00000   0.00000   0.00000   0.00000
  21 6   H  1S          0.00000   0.00000   0.00000   0.00000   0.00000
  22 7   H  1S          0.00000   0.00000   0.00000   0.00000   0.00000
  23 8   H  1S          0.00000   0.00000   0.00000   0.00000   0.00000
  24 9   H  1S          0.00000   0.00000   0.00000   0.00000   0.00000
                          11        12        13        14        15
  11        1PY         1.35605
  12        1PZ         0.00000   1.74669
  13 4   C  1S          0.00000   0.00000   1.25099
  14        1PX         0.00000   0.00000   0.00000   0.89300
  15        1PY         0.00000   0.00000   0.00000   0.00000   0.91107
  16        1PZ         0.00000   0.00000   0.00000   0.00000   0.00000
  17 5   C  1S          0.00000   0.00000   0.00000   0.00000   0.00000
  18        1PX         0.00000   0.00000   0.00000   0.00000   0.00000
  19        1PY         0.00000   0.00000   0.00000   0.00000   0.00000
  20        1PZ         0.00000   0.00000   0.00000   0.00000   0.00000
  21 6   H  1S          0.00000   0.00000   0.00000   0.00000   0.00000
  22 7   H  1S          0.00000   0.00000   0.00000   0.00000   0.00000
  23 8   H  1S          0.00000   0.00000   0.00000   0.00000   0.00000
  24 9   H  1S          0.00000   0.00000   0.00000   0.00000   0.00000
                          16        17        18        19        20
  16        1PZ         1.02680
  17 5   C  1S          0.00000   1.20789
  18        1PX         0.00000   0.00000   0.94027
  19        1PY         0.00000   0.00000   0.00000   0.95508
  20        1PZ         0.00000   0.00000   0.00000   0.00000   1.09713
  21 6   H  1S          0.00000   0.00000   0.00000   0.00000   0.00000
  22 7   H  1S          0.00000   0.00000   0.00000   0.00000   0.00000
  23 8   H  1S          0.00000   0.00000   0.00000   0.00000   0.00000
  24 9   H  1S          0.00000   0.00000   0.00000   0.00000   0.00000
                          21        22        23        24
  21 6   H  1S          0.84752
  22 7   H  1S          0.00000   0.81059
  23 8   H  1S          0.00000   0.00000   0.80909
  24 9   H  1S          0.00000   0.00000   0.00000   0.84587
     Gross orbital populations:
                           1
   1 1   C  1S          1.22031
   2        1PX         0.94197
   3        1PY         0.96489
   4        1PZ         1.06971
   5 2   C  1S          1.24604
   6        1PX         0.89707
   7        1PY         0.89114
   8        1PZ         1.05631
   9 3   O  1S          1.86339
  10        1PX         1.15113
  11        1PY         1.35605
  12        1PZ         1.74669
  13 4   C  1S          1.25099
  14        1PX         0.89300
  15        1PY         0.91107
  16        1PZ         1.02680
  17 5   C  1S          1.20789
  18        1PX         0.94027
  19        1PY         0.95508
  20        1PZ         1.09713
  21 6   H  1S          0.84752
  22 7   H  1S          0.81059
  23 8   H  1S          0.80909
  24 9   H  1S          0.84587
          Condensed to atoms (all electrons):
               1          2          3          4          5          6
     1  C    4.196876   0.000000   0.000000   0.000000   0.000000   0.000000
     2  C    0.000000   4.090556   0.000000   0.000000   0.000000   0.000000
     3  O    0.000000   0.000000   6.117259   0.000000   0.000000   0.000000
     4  C    0.000000   0.000000   0.000000   4.081867   0.000000   0.000000
     5  C    0.000000   0.000000   0.000000   0.000000   4.200377   0.000000
     6  H    0.000000   0.000000   0.000000   0.000000   0.000000   0.847518
     7  H    0.000000   0.000000   0.000000   0.000000   0.000000   0.000000
     8  H    0.000000   0.000000   0.000000   0.000000   0.000000   0.000000
     9  H    0.000000   0.000000   0.000000   0.000000   0.000000   0.000000
               7          8          9
     1  C    0.000000   0.000000   0.000000
     2  C    0.000000   0.000000   0.000000
     3  O    0.000000   0.000000   0.000000
     4  C    0.000000   0.000000   0.000000
     5  C    0.000000   0.000000   0.000000
     6  H    0.000000   0.000000   0.000000
     7  H    0.810591   0.000000   0.000000
     8  H    0.000000   0.809085   0.000000
     9  H    0.000000   0.000000   0.845871
 Mulliken charges:
               1
     1  C   -0.196876
     2  C   -0.090556
     3  O   -0.117259
     4  C   -0.081867
     5  C   -0.200377
     6  H    0.152482
     7  H    0.189409
     8  H    0.190915
     9  H    0.154129
 Sum of Mulliken charges =   0.00000
 Mulliken charges with hydrogens summed into heavy atoms:
               1
     1  C   -0.042747
     2  C    0.100359
     3  O   -0.117259
     4  C    0.107542
     5  C   -0.047895
 Charge=              0.0000 electrons
 Dipole moment (field-independent basis, Debye):
    X=              0.0061    Y=              0.2816    Z=              0.0003  Tot=              0.2817
 N-N= 1.034485193471D+02 E-N=-1.710180547516D+02  KE=-1.655793907902D+01
 Orbital energies and kinetic energies (alpha):
                                 1                 2
   1         O                -1.554930         -1.309986
   2         O                -1.231750         -1.045899
   3         O                -1.109864         -0.968842
   4         O                -0.829218         -0.712732
   5         O                -0.808014         -0.722192
   6         O                -0.683872         -0.603923
   7         O                -0.595924         -0.485453
   8         O                -0.562479         -0.500595
   9         O                -0.518238         -0.443090
  10         O                -0.503080         -0.404619
  11         O                -0.495324         -0.425095
  12         O                -0.392700         -0.338914
  13         O                -0.353991         -0.317629
  14         V                 0.033107         -0.194788
  15         V                 0.062240         -0.191972
  16         V                 0.099083         -0.191225
  17         V                 0.131380         -0.226200
  18         V                 0.147659         -0.189099
  19         V                 0.155237         -0.169475
  20         V                 0.177375         -0.195612
  21         V                 0.190721         -0.161680
  22         V                 0.191146         -0.140978
  23         V                 0.210380         -0.134563
  24         V                 0.223573         -0.050907
 Total kinetic energy from orbitals=-1.655793907902D+01
 Leave Link  601 at Tue Dec 15 16:26:30 2015, MaxMem=    33554432 cpu:         0.0
 (Enter /home/Applications/g09/g09/l701.exe)
 Compute integral first derivatives.
 ... and contract with generalized density number  6.
 Leave Link  701 at Tue Dec 15 16:26:30 2015, MaxMem=    33554432 cpu:         0.0
 (Enter /home/Applications/g09/g09/l702.exe)
 L702 exits ... SP integral derivatives will be done elsewhere.
 Leave Link  702 at Tue Dec 15 16:26:30 2015, MaxMem=    33554432 cpu:         0.0
 (Enter /home/Applications/g09/g09/l703.exe)
 Compute integral first derivatives, UseDBF=F ICtDFT=           0.
 Integral derivatives from FoFJK, PRISM(SPDF).
 Calling FoFJK, ICntrl=  10005127 FMM=F ISym2X=0 I1Cent= 0 IOpClX= 0 NMat=1 NMatS=1 NMatT=0.
 FoFJK:  IHMeth= 8 ICntrl=10005127 DoSepK=F KAlg= 0 I1Cent=   0 FoldK=F
 IRaf=         0 NMat=   1 IRICut=       1 DoRegI=T DoRafI=F ISym2E= 0.
 FoFCou: FMM=F IPFlag=           0 FMFlag=      100000 FMFlg1=         800
         NFxFlg=           0 DoJE=F BraDBF=F KetDBF=F FulRan=T
         wScrn=  0.000000 ICntrl=10005127 IOpCl=  0 I1Cent=           0 NGrid=           0
         NMat0=    1 NMatS0=      1 NMatT0=    0 NMatD0=    1 NMtDS0=    0 NMtDT0=    0
 Symmetry not used in FoFCou.
 Leave Link  703 at Tue Dec 15 16:26:30 2015, MaxMem=    33554432 cpu:         0.0
 (Enter /home/Applications/g09/g09/l716.exe)
 Dipole        =-4.32319838D-02 1.99972186D-01-7.04843532D-04
 ***** Axes restored to original set *****
 -------------------------------------------------------------------
 Center     Atomic                   Forces (Hartrees/Bohr)
 Number     Number              X              Y              Z
 -------------------------------------------------------------------
      1        6           0.118168067    0.057457501    0.000849503
      2        6          -0.077771218   -0.036680014    0.003653896
      3        8          -0.079523703   -0.008880066    0.000480524
      4        6          -0.092112621    0.076432618   -0.004241552
      5        6           0.036099489   -0.113084573   -0.000464821
      6        1           0.073535270    0.048257947   -0.001476869
      7        1           0.010905944   -0.012123719    0.003736920
      8        1          -0.002459349   -0.006820925   -0.000938523
      9        1           0.013158119   -0.004558768   -0.001599079
 -------------------------------------------------------------------
 Cartesian Forces:  Max     0.118168067 RMS     0.050103769
 Z-matrix is all fixed cartesians, so copy forces.
 Force constants in Cartesian coordinates: 
                1             2             3             4             5 
      1  0.965392D+00
      2 -0.524709D-02  0.754230D+00
      3 -0.267431D-02  0.399478D-02  0.205016D+00
      4 -0.552648D+00 -0.127102D+00  0.291433D-02  0.959777D+00
      5 -0.103652D+00 -0.231240D+00  0.297718D-04  0.760435D-01  0.853006D+00
      6  0.633968D-02  0.148460D-02 -0.117650D+00 -0.150132D-01 -0.101899D-01
      7 -0.914758D-02  0.292517D-01  0.178414D-03 -0.255866D+00  0.141220D+00
      8 -0.653786D-02  0.209162D-01  0.308398D-03  0.184870D+00 -0.339207D+00
      9  0.185844D-03 -0.471748D-03  0.558324D-02  0.345710D-02 -0.319771D-02
     10  0.934342D-02 -0.169204D-03 -0.461284D-03  0.239643D-01  0.171249D-01
     11  0.341156D-01 -0.612138D-03 -0.209785D-02 -0.179752D-01 -0.128448D-01
     12  0.877122D-03 -0.654877D-04 -0.648494D-03 -0.235208D-03 -0.118982D-03
     13 -0.161395D+00  0.692968D-02  0.176530D-02  0.106367D-01 -0.340441D-01
     14 -0.140783D-01 -0.353972D+00 -0.678417D-02 -0.212559D-03  0.661262D-03
     15  0.141086D-02 -0.751000D-02 -0.723084D-01  0.191871D-03 -0.225799D-03
     16  0.186979D-01 -0.354403D-03 -0.338121D-03  0.352143D-05 -0.458201D-05
     17 -0.243511D-01  0.441392D-03  0.134736D-02 -0.131316D-05  0.170866D-05
     18 -0.144213D-02 -0.319357D-03  0.156220D-01  0.560062D-04 -0.728741D-04
     19  0.808175D-05 -0.843515D-05  0.372417D-03  0.713998D-05  0.806117D-05
     20  0.136493D-04 -0.142462D-04  0.628977D-03 -0.125630D-05 -0.141839D-05
     21  0.156127D-03 -0.162954D-03  0.719451D-02 -0.985193D-04 -0.111230D-03
     22  0.802028D-02 -0.255872D-01  0.168147D-02 -0.180297D+00 -0.114508D+00
     23 -0.475608D-02  0.152425D-01  0.110385D-02 -0.108082D+00 -0.294483D+00
     24  0.888441D-04  0.919318D-03  0.365973D-01  0.870112D-02  0.129482D-01
     25 -0.278271D+00  0.122287D+00 -0.343822D-02 -0.557627D-02  0.178121D-01
     26  0.124493D+00 -0.204991D+00  0.146888D-02 -0.754037D-02  0.241076D-01
     27 -0.494204D-02  0.213086D-02 -0.794069D-01  0.264795D-04  0.938487D-03
                6             7             8             9            10 
      6  0.216066D+00
      7  0.126207D-02  0.520898D+00
      8 -0.137121D-02  0.281314D-01  0.685922D+00
      9 -0.453992D-01  0.909677D-02  0.145311D-01  0.560130D-01
     10  0.134753D-02 -0.288644D+00 -0.212284D+00 -0.137594D-01  0.963996D+00
     11 -0.108020D-02 -0.168837D+00 -0.371746D+00 -0.143386D-01 -0.142328D-01
     12  0.308592D-04 -0.975735D-02 -0.126446D-01 -0.466847D-01  0.463077D-02
     13 -0.130419D-02 -0.811077D-02  0.606582D-02  0.410125D-03 -0.539454D+00
     14  0.193426D-03 -0.295177D-01  0.221232D-01  0.794388D-03  0.109820D+00
     15 -0.267466D-02 -0.176313D-02  0.846577D-03  0.621733D-02  0.157195D-01
     16  0.203055D-03  0.354583D-05 -0.134319D-04  0.258699D-03 -0.536724D-02
     17 -0.757204D-04  0.177928D-05 -0.674005D-05  0.129814D-03  0.705889D-02
     18  0.322946D-02  0.109725D-03 -0.415645D-03  0.800538D-02  0.159879D-02
     19 -0.322309D-03  0.200584D-01 -0.151244D-01  0.172409D-02 -0.163833D+00
     20  0.567112D-04  0.121176D-01 -0.914613D-02  0.126282D-02  0.926858D-01
     21  0.444731D-02  0.109140D-02 -0.986542D-03  0.402323D-02 -0.905081D-02
     22  0.798432D-02  0.208082D-01  0.148922D-01 -0.139221D-02 -0.433632D-05
     23  0.110001D-01 -0.123697D-01 -0.885541D-02  0.111097D-02 -0.231950D-05
     24 -0.891668D-01 -0.296250D-03 -0.257259D-03  0.495300D-02 -0.852012D-04
     25 -0.496985D-03  0.000000D+00  0.000000D+00  0.189940D-04 -0.189759D-05
     26 -0.178448D-04  0.192332D-05  0.000000D+00  0.178938D-03 -0.130094D-05
     27  0.311162D-01  0.783439D-04 -0.108162D-04  0.728877D-02  0.601747D-04
               11            12            13            14            15 
     11  0.837776D+00
     12  0.783544D-02  0.203598D+00
     13  0.874486D-01  0.100111D-01  0.103531D+01
     14 -0.219991D+00 -0.382438D-02  0.862724D-01  0.806656D+00
     15 -0.602136D-02 -0.114207D+00 -0.269304D-01  0.334115D-02  0.216008D+00
     16 -0.198190D-01  0.163833D-02 -0.360528D+00 -0.176639D+00  0.126485D-01
     17  0.258799D-01 -0.335822D-03 -0.179555D+00 -0.269809D+00  0.740515D-02
     18  0.271029D-02  0.307873D-01  0.139011D-01  0.750583D-02 -0.898985D-01
     19  0.993023D-01 -0.727310D-02  0.670275D-02  0.246838D-01 -0.139181D-02
     20 -0.258461D+00  0.910906D-02  0.407135D-02  0.147974D-01  0.107283D-02
     21  0.131512D-01 -0.794954D-01  0.757382D-03 -0.689039D-03  0.339074D-01
     22 -0.489579D-05  0.195748D-03 -0.135511D-05  0.176324D-05 -0.781393D-04
     23 -0.261876D-05  0.104705D-03  0.905689D-05 -0.117846D-04  0.522244D-03
     24 -0.961938D-04  0.384611D-02  0.143677D-03 -0.186950D-03  0.828480D-02
     25  0.198056D-05 -0.874431D-04  0.168419D-01 -0.330280D-03  0.192811D-03
     26  0.135783D-05 -0.599488D-04  0.228019D-01 -0.454010D-03  0.569214D-03
     27 -0.628061D-04  0.277293D-02  0.124587D-02 -0.350250D-03  0.146711D-01
               16            17            18            19            20 
     16  0.347202D+00
     17  0.196861D+00  0.243513D+00
     18 -0.136954D-01 -0.836868D-02  0.499672D-01
     19 -0.218219D-04 -0.109501D-04 -0.675273D-03  0.137079D+00
     20 -0.368552D-04 -0.184938D-04 -0.114047D-02 -0.108850D+00  0.252844D+00
     21 -0.421565D-03 -0.211540D-03 -0.130452D-01  0.756599D-02 -0.109899D-01
     22  0.000000D+00  0.000000D+00  0.000000D+00  0.000000D+00  0.000000D+00
     23  0.000000D+00  0.000000D+00  0.000000D+00  0.000000D+00  0.000000D+00
     24  0.000000D+00  0.000000D+00  0.000000D+00  0.000000D+00  0.000000D+00
     25  0.925470D-05 -0.345113D-05  0.147190D-03  0.000000D+00  0.000000D+00
     26  0.634479D-05 -0.236601D-05  0.100910D-03  0.000000D+00  0.000000D+00
     27 -0.293478D-03  0.109440D-03 -0.466758D-02  0.000000D+00  0.000000D+00
               21            22            23            24            25 
     21  0.429681D-01
     22  0.000000D+00  0.151474D+00
     23  0.000000D+00  0.125203D+00  0.288131D+00
     24  0.000000D+00 -0.851734D-02 -0.129988D-01  0.488607D-01
     25  0.000000D+00  0.000000D+00 -0.219710D-05 -0.348544D-04  0.266998D+00
     26  0.000000D+00  0.309692D-05 -0.206983D-04 -0.328354D-03 -0.139765D+00
     27  0.000000D+00  0.126149D-03 -0.843114D-03 -0.133751D-01  0.369851D-02
               26            27 
     26  0.181359D+00
     27 -0.191180D-02  0.416005D-01
 Leave Link  716 at Tue Dec 15 16:26:30 2015, MaxMem=    33554432 cpu:         0.0
 (Enter /home/Applications/g09/g09/l103.exe)

 GradGradGradGradGradGradGradGradGradGradGradGradGradGradGradGradGradGrad
 Berny optimization.
 Search for a local minimum.
 Step number   1 out of a maximum of    2
 All quantities printed in internal units (Hartrees-Bohrs-Radians)
 Second derivative matrix not updated -- first step.
 ITU=  0
     Eigenvalues ---    0.01803   0.03093   0.07095   0.07531   0.08301
     Eigenvalues ---    0.09191   0.12986   0.13876   0.16300   0.24435
     Eigenvalues ---    0.27913   0.34121   0.40746   0.44479   0.63174
     Eigenvalues ---    0.87640   1.07927   1.34383   1.36197   1.62529
     Eigenvalues ---    1.73361
 Quadratic step=4.982D-01 exceeds max=3.000D-01 adjusted using Lamda=-1.679D-01.
 Angle between NR and scaled steps=  18.26 degrees.
 Angle between quadratic step and forces=  34.88 degrees.
 Linear search not attempted -- first point.
 TrRot= -0.017782 -0.001317 -0.000102 -1.521650 -0.000924  1.522218
 Variable       Old X    -DE/DX   Delta X   Delta X   Delta X     New X
                                 (Linear)    (Quad)   (Total)
    X1        1.81743   0.11817   0.00000   0.11646   0.09946   1.91690
    Y1       -1.39791   0.05746   0.00000   0.02274   0.02244  -1.37546
    Z1       -0.09002   0.00085   0.00000   0.00202   0.00328  -0.08675
    X2       -0.58523  -0.07777   0.00000  -0.04259  -0.05915  -0.64438
    Y2       -2.14940  -0.03668   0.00000  -0.00034  -0.00207  -2.15147
    Z2       -0.06531   0.00365   0.00000   0.00724   0.00909  -0.05622
    X3       -2.11808  -0.07952   0.00000  -0.15232  -0.17009  -2.28817
    Y3       -0.00578  -0.00888   0.00000  -0.00002  -0.00267  -0.00844
    Z3       -0.04566   0.00048   0.00000   0.00444   0.00424  -0.04142
    X4       -0.57406  -0.09211   0.00000  -0.07835  -0.09731  -0.67137
    Y4        2.05171   0.07643   0.00000   0.03096   0.02929   2.08100
    Z4        0.04001  -0.00424   0.00000  -0.01517  -0.01723   0.02278
    X5        1.87128   0.03610   0.00000   0.06537   0.04683   1.91811
    Y5        1.38384  -0.11308   0.00000  -0.06321  -0.06345   1.32039
    Z5       -0.02819  -0.00046   0.00000  -0.00105  -0.00228  -0.03047
    X6        3.34860   0.07354   0.00000   0.15292   0.13368   3.48229
    Y6        2.52212   0.04826   0.00000   0.03736   0.03794   2.56007
    Z6       -0.09439  -0.00148   0.00000   0.00650   0.00419  -0.09020
    X7       -1.66002   0.01091   0.00000   0.00981  -0.01017  -1.67019
    Y7        3.85848  -0.01212   0.00000   0.01719   0.01489   3.87337
    Z7       -0.06174   0.00374   0.00000   0.01044   0.00668  -0.05505
    X8       -1.62320  -0.00246   0.00000  -0.00797  -0.02352  -1.64672
    Y8       -3.89787  -0.00682   0.00000  -0.02658  -0.02879  -3.92666
    Z8        0.03511  -0.00094   0.00000  -0.00478  -0.00133   0.03378
    X9        3.44538   0.01316   0.00000   0.09655   0.08026   3.52564
    Y9       -2.60172  -0.00456   0.00000  -0.00822  -0.00759  -2.60931
    Z9       -0.06471  -0.00160   0.00000  -0.00911  -0.00665  -0.07136
         Item               Value     Threshold  Converged?
 Maximum Force            0.118168     0.000450     NO 
 RMS     Force            0.050104     0.000300     NO 
 Maximum Displacement     0.170092     0.001800     NO 
 RMS     Displacement     0.056903     0.001200     NO 
 Predicted change in Energy=-3.968487D-02
 GradGradGradGradGradGradGradGradGradGradGradGradGradGradGradGradGradGrad

 Leave Link  103 at Tue Dec 15 16:26:30 2015, MaxMem=    33554432 cpu:         0.0
 (Enter /home/Applications/g09/g09/l9999.exe)
 1\1\GINC-DUSTIN-DESKTOP\Force\RAM1-FC\STO-3G\C4H4O1\DUSTIN\15-Dec-2015
 \0\\#P AM1(Input,print) CIS(Singlets,NStates=15) pop(full) force\\AM1-
 Reparam Input\\0,1\C,0.961744,-0.739741,-0.047639\C,-0.309693,-1.13741
 2,-0.034563\O,-1.12084,-0.003057,-0.024161\C,-0.303778,1.085716,0.0211
 7\C,0.990237,0.732298,-0.014916\H,1.772004,1.33465,-0.049947\H,-0.8784
 47,2.041822,-0.03267\H,-0.858963,-2.062664,0.018581\H,1.823216,-1.3767
 71,-0.034245\\Version=ES64L-G09RevD.01\State=1-A\HF=0.0211379\RMSD=8.2
 19e-09\RMSF=5.010e-02\Dipole=0.2011611,0.0372712,-0.0018621\PG=C01 [X(
 C4H4O1)]\\@


 EVERYBODY NEEDS BEAUTY AS WELL AS BREAD, PLACES TO PLAY IN AND PRAY IN,
 WHERE NATURE MAY HEAL AND CHEER AND GIVE STRENGTH TO BODY AND SOUL ALIKE.

                                    -- JOHN MUIR
 Job cpu time:       0 days  0 hours  0 minutes  0.4 seconds.
 File lengths (MBytes):  RWF=      7 Int=      0 D2E=      0 Chk=      2 Scr=      1
 Normal termination of Gaussian 09 at Tue Dec 15 16:26:30 2015.
