 Entering Gaussian System, Link 0=g09
 Input=FuranDFT_87.com
 Output=FuranDFT_87.log
 Initial command:
 /home/Applications/g09/g09/l1.exe "/home/Applications/g09/scratch/Gau-6342.inp" -scrdir="/home/Applications/g09/scratch/"
 Entering Link 1 = /home/Applications/g09/g09/l1.exe PID=      6344.
  
 Copyright (c) 1988,1990,1992,1993,1995,1998,2003,2009,2013,
            Gaussian, Inc.  All Rights Reserved.
  
 This is part of the Gaussian(R) 09 program.  It is based on
 the Gaussian(R) 03 system (copyright 2003, Gaussian, Inc.),
 the Gaussian(R) 98 system (copyright 1998, Gaussian, Inc.),
 the Gaussian(R) 94 system (copyright 1995, Gaussian, Inc.),
 the Gaussian 92(TM) system (copyright 1992, Gaussian, Inc.),
 the Gaussian 90(TM) system (copyright 1990, Gaussian, Inc.),
 the Gaussian 88(TM) system (copyright 1988, Gaussian, Inc.),
 the Gaussian 86(TM) system (copyright 1986, Carnegie Mellon
 University), and the Gaussian 82(TM) system (copyright 1983,
 Carnegie Mellon University). Gaussian is a federally registered
 trademark of Gaussian, Inc.
  
 This software contains proprietary and confidential information,
 including trade secrets, belonging to Gaussian, Inc.
  
 This software is provided under written license and may be
 used, copied, transmitted, or stored only in accord with that
 written license.
  
 The following legend is applicable only to US Government
 contracts under FAR:
  
                    RESTRICTED RIGHTS LEGEND
  
 Use, reproduction and disclosure by the US Government is
 subject to restrictions as set forth in subparagraphs (a)
 and (c) of the Commercial Computer Software - Restricted
 Rights clause in FAR 52.227-19.
  
 Gaussian, Inc.
 340 Quinnipiac St., Bldg. 40, Wallingford CT 06492
  
  
 ---------------------------------------------------------------
 Warning -- This program may not be used in any manner that
 competes with the business of Gaussian, Inc. or will provide
 assistance to any competitor of Gaussian, Inc.  The licensee
 of this program is prohibited from giving any competitor of
 Gaussian, Inc. access to this program.  By using this program,
 the user acknowledges that Gaussian, Inc. is engaged in the
 business of creating and licensing software in the field of
 computational chemistry and represents and warrants to the
 licensee that it is not a competitor of Gaussian, Inc. and that
 it will not use this program in any manner prohibited above.
 ---------------------------------------------------------------
  

 Cite this work as:
 Gaussian 09, Revision D.01,
 M. J. Frisch, G. W. Trucks, H. B. Schlegel, G. E. Scuseria, 
 M. A. Robb, J. R. Cheeseman, G. Scalmani, V. Barone, B. Mennucci, 
 G. A. Petersson, H. Nakatsuji, M. Caricato, X. Li, H. P. Hratchian, 
 A. F. Izmaylov, J. Bloino, G. Zheng, J. L. Sonnenberg, M. Hada, 
 M. Ehara, K. Toyota, R. Fukuda, J. Hasegawa, M. Ishida, T. Nakajima, 
 Y. Honda, O. Kitao, H. Nakai, T. Vreven, J. A. Montgomery, Jr., 
 J. E. Peralta, F. Ogliaro, M. Bearpark, J. J. Heyd, E. Brothers, 
 K. N. Kudin, V. N. Staroverov, T. Keith, R. Kobayashi, J. Normand, 
 K. Raghavachari, A. Rendell, J. C. Burant, S. S. Iyengar, J. Tomasi, 
 M. Cossi, N. Rega, J. M. Millam, M. Klene, J. E. Knox, J. B. Cross, 
 V. Bakken, C. Adamo, J. Jaramillo, R. Gomperts, R. E. Stratmann, 
 O. Yazyev, A. J. Austin, R. Cammi, C. Pomelli, J. W. Ochterski, 
 R. L. Martin, K. Morokuma, V. G. Zakrzewski, G. A. Voth, 
 P. Salvador, J. J. Dannenberg, S. Dapprich, A. D. Daniels, 
 O. Farkas, J. B. Foresman, J. V. Ortiz, J. Cioslowski, 
 and D. J. Fox, Gaussian, Inc., Wallingford CT, 2013.
 
 ******************************************
 Gaussian 09:  ES64L-G09RevD.01 24-Apr-2013
                15-Dec-2015 
 ******************************************
 -------------------------------------------------------
 #P B3LYP/3-21G CIS(Singlets,NStates=15) pop(full) force
 -------------------------------------------------------
 1/10=7,30=1,38=1/1,3;
 2/12=2,17=6,18=5,40=1/2;
 3/5=5,11=9,16=1,25=1,30=1,71=1,74=-5/1,2,8,3;
 4//1;
 5/5=2,38=5/2;
 8/6=1,10=1,108=15/1;
 9/15=2,41=15,42=1,48=1/14;
 10/5=4/2;
 6/7=3,18=1/1;
 7/12=6,13=5,29=1/1,2,3,16;
 1/10=7,30=1/3;
 99//99;
 Leave Link    1 at Tue Dec 15 16:28:10 2015, MaxMem=           0 cpu:         0.0
 (Enter /home/Applications/g09/g09/l101.exe)
 --------
 FuranDFT
 --------
 Symbolic Z-matrix:
 Charge =  0 Multiplicity = 1
 6                     0.97826  -0.70583  -0.00908 
 6                    -0.35414  -1.11234  -0.00831 
 8                    -1.20392   0.01429   0.04205 
 6                    -0.36852   1.12285  -0.03852 
 6                     0.94237   0.70304  -0.04166 
 1                     1.77769   1.3723   -0.04782 
 1                    -0.7942    2.07137  -0.04614 
 1                    -0.7957   -2.0482   -0.00459 
 1                     1.78096  -1.38465   0.02654 
 
 NAtoms=      9 NQM=        9 NQMF=       0 NMMI=      0 NMMIF=      0
                NMic=       0 NMicF=      0.
                    Isotopes and Nuclear Properties:
 (Nuclear quadrupole moments (NQMom) in fm**2, nuclear magnetic moments (NMagM)
  in nuclear magnetons)

  Atom         1           2           3           4           5           6           7           8           9
 IAtWgt=          12          12          16          12          12           1           1           1           1
 AtmWgt=  12.0000000  12.0000000  15.9949146  12.0000000  12.0000000   1.0078250   1.0078250   1.0078250   1.0078250
 NucSpn=           0           0           0           0           0           1           1           1           1
 AtZEff=   0.0000000   0.0000000   0.0000000   0.0000000   0.0000000   0.0000000   0.0000000   0.0000000   0.0000000
 NQMom=    0.0000000   0.0000000   0.0000000   0.0000000   0.0000000   0.0000000   0.0000000   0.0000000   0.0000000
 NMagM=    0.0000000   0.0000000   0.0000000   0.0000000   0.0000000   2.7928460   2.7928460   2.7928460   2.7928460
 AtZNuc=   6.0000000   6.0000000   8.0000000   6.0000000   6.0000000   1.0000000   1.0000000   1.0000000   1.0000000
 Leave Link  101 at Tue Dec 15 16:28:10 2015, MaxMem=    33554432 cpu:         0.0
 (Enter /home/Applications/g09/g09/l103.exe)

 GradGradGradGradGradGradGradGradGradGradGradGradGradGradGradGradGradGrad
 Berny optimization.
 Initialization pass.
 Trust Radius=3.00D-01 FncErr=1.00D-07 GrdErr=1.00D-07
 Number of steps in this run=      2 maximum allowed number of steps=      2.
 GradGradGradGradGradGradGradGradGradGradGradGradGradGradGradGradGradGrad

 Leave Link  103 at Tue Dec 15 16:28:10 2015, MaxMem=    33554432 cpu:         0.0
 (Enter /home/Applications/g09/g09/l202.exe)
                          Input orientation:                          
 ---------------------------------------------------------------------
 Center     Atomic      Atomic             Coordinates (Angstroms)
 Number     Number       Type             X           Y           Z
 ---------------------------------------------------------------------
      1          6           0        0.978262   -0.705825   -0.009082
      2          6           0       -0.354144   -1.112340   -0.008307
      3          8           0       -1.203918    0.014285    0.042050
      4          6           0       -0.368524    1.122852   -0.038515
      5          6           0        0.942373    0.703036   -0.041664
      6          1           0        1.777688    1.372301   -0.047821
      7          1           0       -0.794196    2.071371   -0.046138
      8          1           0       -0.795699   -2.048205   -0.004593
      9          1           0        1.780957   -1.384647    0.026536
 ---------------------------------------------------------------------
                    Distance matrix (angstroms):
                    1          2          3          4          5
     1  C    0.000000
     2  C    1.393040   0.000000
     3  O    2.298496   1.412068   0.000000
     4  C    2.271290   2.235442   1.390430   0.000000
     5  C    1.409695   2.231067   2.255649   1.376483   0.000000
     6  H    2.226924   3.274097   3.277538   2.160680   1.070376
     7  H    3.294814   3.214202   2.099346   1.039684   2.210890
     8  H    2.224622   1.034808   2.103018   3.199880   3.254473
     9  H    1.051849   2.152678   3.296472   3.303339   2.250843
                    6          7          8          9
     6  H    0.000000
     7  H    2.665200   0.000000
     8  H    4.280660   4.119786   0.000000
     9  H    2.757952   4.310540   2.660909   0.000000
 Stoichiometry    C4H4O
 Framework group  C1[X(C4H4O)]
 Deg. of freedom    21
 Full point group                 C1      NOp   1
 Largest Abelian subgroup         C1      NOp   1
 Largest concise Abelian subgroup C1      NOp   1
                         Standard orientation:                         
 ---------------------------------------------------------------------
 Center     Atomic      Atomic             Coordinates (Angstroms)
 Number     Number       Type             X           Y           Z
 ---------------------------------------------------------------------
      1          6           0        0.962296    0.749562    0.007155
      2          6           0        0.974707   -0.643081   -0.023719
      3          8           0       -0.345927   -1.140192    0.028641
      4          6           0       -1.173187   -0.023624   -0.018379
      5          6           0       -0.399275    1.114596   -0.003523
      6          1           0       -0.804527    2.105082    0.016803
      7          1           0       -2.203463   -0.163177   -0.018833
      8          1           0        1.747143   -1.331401   -0.043330
      9          1           0        1.841019    1.326315    0.047029
 ---------------------------------------------------------------------
 Rotational constants (GHZ):      9.3657175      8.9608016      4.5817998
 Leave Link  202 at Tue Dec 15 16:28:10 2015, MaxMem=    33554432 cpu:         0.0
 (Enter /home/Applications/g09/g09/l301.exe)
 Standard basis: 3-21G (6D, 7F)
 Ernie: Thresh=  0.10000D-02 Tol=  0.10000D-05 Strict=F.
 There are    53 symmetry adapted cartesian basis functions of A   symmetry.
 There are    53 symmetry adapted basis functions of A   symmetry.
    53 basis functions,    87 primitive gaussians,    53 cartesian basis functions
    18 alpha electrons       18 beta electrons
       nuclear repulsion energy       159.2162066747 Hartrees.
 IExCor=  402 DFT=T Ex+Corr=B3LYP ExCW=0 ScaHFX=  0.200000
 ScaDFX=  0.800000  0.720000  1.000000  0.810000 ScalE2=  1.000000  1.000000
 IRadAn=      0 IRanWt=     -1 IRanGd=            0 ICorTp=0 IEmpDi=  4
 NAtoms=    9 NActive=    9 NUniq=    9 SFac= 1.00D+00 NAtFMM=   60 NAOKFM=F Big=F
 Integral buffers will be    131072 words long.
 Regular integral format.
 Two-electron integral symmetry is turned on.
 Leave Link  301 at Tue Dec 15 16:28:10 2015, MaxMem=    33554432 cpu:         0.0
 (Enter /home/Applications/g09/g09/l302.exe)
 NPDir=0 NMtPBC=     1 NCelOv=     1 NCel=       1 NClECP=     1 NCelD=      1
         NCelK=      1 NCelE2=     1 NClLst=     1 CellRange=     0.0.
 One-electron integrals computed using PRISM.
 NBasis=    53 RedAO= T EigKep=  3.43D-03  NBF=    53
 NBsUse=    53 1.00D-06 EigRej= -1.00D+00 NBFU=    53
 Precomputing XC quadrature grid using
 IXCGrd= 4 IRadAn=           0 IRanWt=          -1 IRanGd=           0 AccXCQ= 0.00D+00.
 Generated NRdTot=       0 NPtTot=           0 NUsed=           0 NTot=          32
 NSgBfM=    53    53    53    53    53 MxSgAt=     9 MxSgA2=     9.
 Leave Link  302 at Tue Dec 15 16:28:10 2015, MaxMem=    33554432 cpu:         0.1
 (Enter /home/Applications/g09/g09/l308.exe)
 Leave Link  308 at Tue Dec 15 16:28:10 2015, MaxMem=    33554432 cpu:         0.0
 (Enter /home/Applications/g09/g09/l303.exe)
 DipDrv:  MaxL=1.
 Leave Link  303 at Tue Dec 15 16:28:10 2015, MaxMem=    33554432 cpu:         0.0
 (Enter /home/Applications/g09/g09/l401.exe)
 ExpMin= 1.83D-01 ExpMax= 3.22D+02 ExpMxC= 3.22D+02 IAcc=1 IRadAn=         1 AccDes= 0.00D+00
 Harris functional with IExCor=  402 and IRadAn=       1 diagonalized for initial guess.
 HarFok:  IExCor=  402 AccDes= 0.00D+00 IRadAn=         1 IDoV= 1 UseB2=F ITyADJ=14
 ICtDFT=  3500011 ScaDFX=  1.000000  1.000000  1.000000  1.000000
 FoFCou: FMM=F IPFlag=           0 FMFlag=      100000 FMFlg1=           0
         NFxFlg=           0 DoJE=T BraDBF=F KetDBF=T FulRan=T
         wScrn=  0.000000 ICntrl=     500 IOpCl=  0 I1Cent=   200000004 NGrid=           0
         NMat0=    1 NMatS0=      1 NMatT0=    0 NMatD0=    1 NMtDS0=    0 NMtDT0=    0
 Petite list used in FoFCou.
 Harris En= -228.739663084520    
 JPrj=0 DoOrth=F DoCkMO=F.
 Leave Link  401 at Tue Dec 15 16:28:10 2015, MaxMem=    33554432 cpu:         0.2
 (Enter /home/Applications/g09/g09/l502.exe)
 Closed shell SCF:
 Using DIIS extrapolation, IDIIS=  1040.
 Integral symmetry usage will be decided dynamically.
 Keep R1 ints in memory in canonical form, NReq=1925595.
 IVT=       27707 IEndB=       27707 NGot=    33554432 MDV=    32502130
 LenX=    32502130 LenY=    32498880
 Requested convergence on RMS density matrix=1.00D-08 within 128 cycles.
 Requested convergence on MAX density matrix=1.00D-06.
 Requested convergence on             energy=1.00D-06.
 No special actions if energy rises.
 FoFCou: FMM=F IPFlag=           0 FMFlag=           0 FMFlg1=           0
         NFxFlg=           0 DoJE=F BraDBF=F KetDBF=F FulRan=T
         wScrn=  0.000000 ICntrl=     600 IOpCl=  0 I1Cent=           0 NGrid=           0
         NMat0=    1 NMatS0=   1431 NMatT0=    0 NMatD0=    1 NMtDS0=    0 NMtDT0=    0
 Symmetry not used in FoFCou.
 Integral accuracy reduced to 1.0D-05 until final iterations.

 Cycle   1  Pass 0  IDiag  1:
 E= -228.667986419605    
 DIIS: error= 3.25D-02 at cycle   1 NSaved=   1.
 NSaved= 1 IEnMin= 1 EnMin= -228.667986419605     IErMin= 1 ErrMin= 3.25D-02
 ErrMax= 3.25D-02  0.00D+00 EMaxC= 1.00D-01 BMatC= 7.54D-02 BMatP= 7.54D-02
 IDIUse=3 WtCom= 6.75D-01 WtEn= 3.25D-01
 Coeff-Com:  0.100D+01
 Coeff-En:   0.100D+01
 Coeff:      0.100D+01
 Gap=     0.211 Goal=   None    Shift=    0.000
 GapD=    0.211 DampG=1.000 DampE=0.500 DampFc=0.5000 IDamp=-1.
 Damping current iteration by 5.00D-01
 RMSDP=1.20D-02 MaxDP=1.06D-01              OVMax= 2.20D-01

 Cycle   2  Pass 0  IDiag  1:
 E= -228.695222176912     Delta-E=       -0.027235757307 Rises=F Damp=T
 DIIS: error= 1.58D-02 at cycle   2 NSaved=   2.
 NSaved= 2 IEnMin= 2 EnMin= -228.695222176912     IErMin= 2 ErrMin= 1.58D-02
 ErrMax= 1.58D-02  0.00D+00 EMaxC= 1.00D-01 BMatC= 1.10D-02 BMatP= 7.54D-02
 IDIUse=3 WtCom= 8.42D-01 WtEn= 1.58D-01
 Coeff-Com:  0.152D+00 0.848D+00
 Coeff-En:   0.259D+00 0.741D+00
 Coeff:      0.169D+00 0.831D+00
 Gap=     0.226 Goal=   None    Shift=    0.000
 RMSDP=4.46D-03 MaxDP=3.49D-02 DE=-2.72D-02 OVMax= 1.89D-01

 Cycle   3  Pass 0  IDiag  1:
 E= -228.736436404167     Delta-E=       -0.041214227255 Rises=F Damp=F
 DIIS: error= 1.97D-02 at cycle   3 NSaved=   3.
 NSaved= 3 IEnMin= 3 EnMin= -228.736436404167     IErMin= 2 ErrMin= 1.58D-02
 ErrMax= 1.97D-02  0.00D+00 EMaxC= 1.00D-01 BMatC= 1.19D-02 BMatP= 1.10D-02
 IDIUse=3 WtCom= 8.03D-01 WtEn= 1.97D-01
 Coeff-Com: -0.199D-02 0.512D+00 0.490D+00
 Coeff-En:   0.000D+00 0.000D+00 0.100D+01
 Coeff:     -0.160D-02 0.411D+00 0.590D+00
 Gap=     0.231 Goal=   None    Shift=    0.000
 RMSDP=2.89D-03 MaxDP=2.50D-02 DE=-4.12D-02 OVMax= 6.14D-02

 Cycle   4  Pass 0  IDiag  1:
 E= -228.744837823345     Delta-E=       -0.008401419178 Rises=F Damp=F
 DIIS: error= 1.05D-02 at cycle   4 NSaved=   4.
 NSaved= 4 IEnMin= 4 EnMin= -228.744837823345     IErMin= 4 ErrMin= 1.05D-02
 ErrMax= 1.05D-02  0.00D+00 EMaxC= 1.00D-01 BMatC= 2.88D-03 BMatP= 1.10D-02
 IDIUse=3 WtCom= 8.95D-01 WtEn= 1.05D-01
 Coeff-Com:  0.938D-02 0.702D-01 0.335D+00 0.585D+00
 Coeff-En:   0.000D+00 0.000D+00 0.220D+00 0.780D+00
 Coeff:      0.839D-02 0.628D-01 0.323D+00 0.606D+00
 Gap=     0.237 Goal=   None    Shift=    0.000
 RMSDP=9.52D-04 MaxDP=1.01D-02 DE=-8.40D-03 OVMax= 2.15D-02

 Cycle   5  Pass 0  IDiag  1:
 E= -228.747126126478     Delta-E=       -0.002288303133 Rises=F Damp=F
 DIIS: error= 2.11D-03 at cycle   5 NSaved=   5.
 NSaved= 5 IEnMin= 5 EnMin= -228.747126126478     IErMin= 5 ErrMin= 2.11D-03
 ErrMax= 2.11D-03  0.00D+00 EMaxC= 1.00D-01 BMatC= 1.52D-04 BMatP= 2.88D-03
 IDIUse=3 WtCom= 9.79D-01 WtEn= 2.11D-02
 Coeff-Com:  0.669D-02 0.293D-02 0.160D+00 0.377D+00 0.453D+00
 Coeff-En:   0.000D+00 0.000D+00 0.000D+00 0.000D+00 0.100D+01
 Coeff:      0.655D-02 0.287D-02 0.156D+00 0.369D+00 0.465D+00
 Gap=     0.236 Goal=   None    Shift=    0.000
 RMSDP=1.74D-04 MaxDP=1.82D-03 DE=-2.29D-03 OVMax= 3.53D-03

 Cycle   6  Pass 0  IDiag  1:
 E= -228.747243047707     Delta-E=       -0.000116921229 Rises=F Damp=F
 DIIS: error= 1.09D-04 at cycle   6 NSaved=   6.
 NSaved= 6 IEnMin= 6 EnMin= -228.747243047707     IErMin= 6 ErrMin= 1.09D-04
 ErrMax= 1.09D-04  0.00D+00 EMaxC= 1.00D-01 BMatC= 9.93D-07 BMatP= 1.52D-04
 IDIUse=3 WtCom= 9.99D-01 WtEn= 1.09D-03
 Coeff-Com:  0.151D-02-0.447D-02 0.118D-01 0.436D-01 0.112D+00 0.835D+00
 Coeff-En:   0.000D+00 0.000D+00 0.000D+00 0.000D+00 0.000D+00 0.100D+01
 Coeff:      0.151D-02-0.447D-02 0.118D-01 0.435D-01 0.112D+00 0.836D+00
 Gap=     0.236 Goal=   None    Shift=    0.000
 RMSDP=2.70D-05 MaxDP=2.89D-04 DE=-1.17D-04 OVMax= 5.51D-04

 Cycle   7  Pass 0  IDiag  1:
 E= -228.747243886613     Delta-E=       -0.000000838906 Rises=F Damp=F
 DIIS: error= 7.72D-05 at cycle   7 NSaved=   7.
 NSaved= 7 IEnMin= 7 EnMin= -228.747243886613     IErMin= 7 ErrMin= 7.72D-05
 ErrMax= 7.72D-05  0.00D+00 EMaxC= 1.00D-01 BMatC= 1.68D-07 BMatP= 9.93D-07
 IDIUse=1 WtCom= 1.00D+00 WtEn= 0.00D+00
 Coeff-Com:  0.829D-03-0.272D-02 0.468D-02 0.201D-01 0.592D-01 0.497D+00
 Coeff-Com:  0.420D+00
 Coeff:      0.829D-03-0.272D-02 0.468D-02 0.201D-01 0.592D-01 0.497D+00
 Coeff:      0.420D+00
 Gap=     0.236 Goal=   None    Shift=    0.000
 RMSDP=7.63D-06 MaxDP=8.50D-05 DE=-8.39D-07 OVMax= 2.53D-04

 Initial convergence to 1.0D-05 achieved.  Increase integral accuracy.
 Cycle   8  Pass 1  IDiag  1:
 E= -228.747249115888     Delta-E=       -0.000005229275 Rises=F Damp=F
 DIIS: error= 1.86D-05 at cycle   1 NSaved=   1.
 NSaved= 1 IEnMin= 1 EnMin= -228.747249115888     IErMin= 1 ErrMin= 1.86D-05
 ErrMax= 1.86D-05  0.00D+00 EMaxC= 1.00D-01 BMatC= 1.53D-08 BMatP= 1.53D-08
 IDIUse=1 WtCom= 1.00D+00 WtEn= 0.00D+00
 Coeff-Com:  0.100D+01
 Coeff:      0.100D+01
 Gap=     0.236 Goal=   None    Shift=    0.000
 RMSDP=7.63D-06 MaxDP=8.50D-05 DE=-5.23D-06 OVMax= 9.58D-05

 Cycle   9  Pass 1  IDiag  1:
 E= -228.747249122368     Delta-E=       -0.000000006480 Rises=F Damp=F
 DIIS: error= 1.93D-05 at cycle   2 NSaved=   2.
 NSaved= 2 IEnMin= 2 EnMin= -228.747249122368     IErMin= 1 ErrMin= 1.86D-05
 ErrMax= 1.93D-05  0.00D+00 EMaxC= 1.00D-01 BMatC= 1.21D-08 BMatP= 1.53D-08
 IDIUse=1 WtCom= 1.00D+00 WtEn= 0.00D+00
 Coeff-Com:  0.460D+00 0.540D+00
 Coeff:      0.460D+00 0.540D+00
 Gap=     0.236 Goal=   None    Shift=    0.000
 RMSDP=3.34D-06 MaxDP=3.79D-05 DE=-6.48D-09 OVMax= 1.02D-04

 Cycle  10  Pass 1  IDiag  1:
 E= -228.747249131901     Delta-E=       -0.000000009533 Rises=F Damp=F
 DIIS: error= 9.84D-06 at cycle   3 NSaved=   3.
 NSaved= 3 IEnMin= 3 EnMin= -228.747249131901     IErMin= 3 ErrMin= 9.84D-06
 ErrMax= 9.84D-06  0.00D+00 EMaxC= 1.00D-01 BMatC= 3.62D-09 BMatP= 1.21D-08
 IDIUse=1 WtCom= 1.00D+00 WtEn= 0.00D+00
 Coeff-Com: -0.101D-01 0.352D+00 0.658D+00
 Coeff:     -0.101D-01 0.352D+00 0.658D+00
 Gap=     0.236 Goal=   None    Shift=    0.000
 RMSDP=1.16D-06 MaxDP=1.20D-05 DE=-9.53D-09 OVMax= 3.44D-05

 Cycle  11  Pass 1  IDiag  1:
 E= -228.747249135722     Delta-E=       -0.000000003821 Rises=F Damp=F
 DIIS: error= 1.98D-06 at cycle   4 NSaved=   4.
 NSaved= 4 IEnMin= 4 EnMin= -228.747249135722     IErMin= 4 ErrMin= 1.98D-06
 ErrMax= 1.98D-06  0.00D+00 EMaxC= 1.00D-01 BMatC= 1.46D-10 BMatP= 3.62D-09
 IDIUse=1 WtCom= 1.00D+00 WtEn= 0.00D+00
 Coeff-Com: -0.177D-01 0.203D+00 0.398D+00 0.416D+00
 Coeff:     -0.177D-01 0.203D+00 0.398D+00 0.416D+00
 Gap=     0.236 Goal=   None    Shift=    0.000
 RMSDP=2.18D-07 MaxDP=2.67D-06 DE=-3.82D-09 OVMax= 4.41D-06

 Cycle  12  Pass 1  IDiag  1:
 E= -228.747249135834     Delta-E=       -0.000000000112 Rises=F Damp=F
 DIIS: error= 4.68D-07 at cycle   5 NSaved=   5.
 NSaved= 5 IEnMin= 5 EnMin= -228.747249135834     IErMin= 5 ErrMin= 4.68D-07
 ErrMax= 4.68D-07  0.00D+00 EMaxC= 1.00D-01 BMatC= 6.69D-12 BMatP= 1.46D-10
 IDIUse=1 WtCom= 1.00D+00 WtEn= 0.00D+00
 Coeff-Com: -0.661D-02 0.683D-01 0.135D+00 0.222D+00 0.581D+00
 Coeff:     -0.661D-02 0.683D-01 0.135D+00 0.222D+00 0.581D+00
 Gap=     0.236 Goal=   None    Shift=    0.000
 RMSDP=5.70D-08 MaxDP=5.38D-07 DE=-1.12D-10 OVMax= 1.33D-06

 Cycle  13  Pass 1  IDiag  1:
 E= -228.747249135839     Delta-E=       -0.000000000005 Rises=F Damp=F
 DIIS: error= 1.26D-07 at cycle   6 NSaved=   6.
 NSaved= 6 IEnMin= 6 EnMin= -228.747249135839     IErMin= 6 ErrMin= 1.26D-07
 ErrMax= 1.26D-07  0.00D+00 EMaxC= 1.00D-01 BMatC= 9.48D-13 BMatP= 6.69D-12
 IDIUse=1 WtCom= 1.00D+00 WtEn= 0.00D+00
 Coeff-Com: -0.170D-02 0.108D-01 0.221D-01 0.738D-01 0.333D+00 0.562D+00
 Coeff:     -0.170D-02 0.108D-01 0.221D-01 0.738D-01 0.333D+00 0.562D+00
 Gap=     0.236 Goal=   None    Shift=    0.000
 RMSDP=2.15D-08 MaxDP=2.66D-07 DE=-5.00D-12 OVMax= 4.28D-07

 Cycle  14  Pass 1  IDiag  1:
 E= -228.747249135840     Delta-E=       -0.000000000001 Rises=F Damp=F
 DIIS: error= 3.03D-08 at cycle   7 NSaved=   7.
 NSaved= 7 IEnMin= 7 EnMin= -228.747249135840     IErMin= 7 ErrMin= 3.03D-08
 ErrMax= 3.03D-08  0.00D+00 EMaxC= 1.00D-01 BMatC= 5.26D-14 BMatP= 9.48D-13
 IDIUse=1 WtCom= 1.00D+00 WtEn= 0.00D+00
 Coeff-Com: -0.382D-03 0.696D-03 0.155D-02 0.217D-01 0.128D+00 0.284D+00
 Coeff-Com:  0.565D+00
 Coeff:     -0.382D-03 0.696D-03 0.155D-02 0.217D-01 0.128D+00 0.284D+00
 Coeff:      0.565D+00
 Gap=     0.236 Goal=   None    Shift=    0.000
 RMSDP=5.58D-09 MaxDP=6.29D-08 DE=-1.02D-12 OVMax= 9.81D-08

 SCF Done:  E(RB3LYP) =  -228.747249136     A.U. after   14 cycles
            NFock= 14  Conv=0.56D-08     -V/T= 2.0086
 KE= 2.268003781978D+02 PE=-8.510068212785D+02 EE= 2.362429872702D+02
 Leave Link  502 at Tue Dec 15 16:28:13 2015, MaxMem=    33554432 cpu:         3.2
 (Enter /home/Applications/g09/g09/l801.exe)
 DoSCS=F DFT=T ScalE2(SS,OS)=  1.000000  1.000000
 ExpMin= 1.83D-01 ExpMax= 3.22D+02 ExpMxC= 3.22D+02 IAcc=3 IRadAn=         5 AccDes= 0.00D+00
 HarFok:  IExCor=  205 AccDes= 0.00D+00 IRadAn=         5 IDoV=-2 UseB2=F ITyADJ=14
 ICtDFT= 12500011 ScaDFX=  1.000000  1.000000  1.000000  1.000000
 Largest valence mixing into a core orbital is  1.90D-04
 Largest core mixing into a valence orbital is  4.86D-05
 Range of M.O.s used for correlation:     6    53
 NBasis=    53 NAE=    18 NBE=    18 NFC=     5 NFV=     0
 NROrb=     48 NOA=    13 NOB=    13 NVA=    35 NVB=    35
 Leave Link  801 at Tue Dec 15 16:28:14 2015, MaxMem=    33554432 cpu:         0.2
 (Enter /home/Applications/g09/g09/l914.exe)
 RHF ground state
 MDV=    33554432 DFT=T DoStab=F Mixed=T DoRPA=F DoScal=F NonHer=F
 Keep R1, R2, and R3 ints in memory in canonical form, NReq=5596273.
 FoFCou: FMM=F IPFlag=           0 FMFlag=           0 FMFlg1=           0
         NFxFlg=           0 DoJE=F BraDBF=F KetDBF=F FulRan=T
         wScrn=  0.000000 ICntrl=     600 IOpCl=  0 I1Cent=           0 NGrid=           0
         NMat0=    1 NMatS0=   1431 NMatT0=    0 NMatD0=    1 NMtDS0=    0 NMtDT0=    0
 Symmetry not used in FoFCou.
 Making orbital integer symmetry assigments:
 Orbital symmetries:
       Occupied  (A) (A) (A) (A) (A) (A) (A) (A) (A) (A) (A) (A)
                 (A) (A) (A) (A) (A) (A)
       Virtual   (A) (A) (A) (A) (A) (A) (A) (A) (A) (A) (A) (A)
                 (A) (A) (A) (A) (A) (A) (A) (A) (A) (A) (A) (A)
                 (A) (A) (A) (A) (A) (A) (A) (A) (A) (A) (A)
    60 initial guesses have been made.
 Convergence on wavefunction:    0.000001000000000
 Davidson Disk Diagonalization:  ConvIn= 1.00D-06 SkipCon=T Conv= 1.00D-06.
 Max sub-space:   240 roots to seek:    60 dimension of matrix:          910
 Iteration     1 Dimension    60 NMult     0 NNew     60
 CISAX will form    60 AO SS matrices at one time.
 NMat=    60 NSing=    60 JSym2X= 0.
 New state      1 was old state      2
 New state      2 was old state      1
 New state      3 was old state      6
 New state      4 was old state      5
 New state      5 was old state      7
 New state      6 was old state      8
 New state      7 was old state      9
 New state      8 was old state     10
 New state      9 was old state      4
 New state     10 was old state     13
 New state     13 was old state     15
 New state     15 was old state      3
 Excitation Energies [eV] at current iteration:
 Root      1 :     7.144849472607148
 Root      2 :     7.691685560765245
 Root      3 :     8.438022758318411
 Root      4 :     8.490886960577312
 Root      5 :     9.114457946503727
 Root      6 :     9.737486020916014
 Root      7 :     9.874628306808024
 Root      8 :    10.004449040832920
 Root      9 :    10.153275830629100
 Root     10 :    10.200391249049150
 Root     11 :    10.359960426688740
 Root     12 :    10.441427506320470
 Root     13 :    10.618976705470460
 Root     14 :    10.628804156136140
 Root     15 :    10.882335233811010
 Root     16 :    10.928005857274330
 Root     17 :    11.117694117662100
 Root     18 :    11.473893933153880
 Root     19 :    11.500705548639520
 Root     20 :    11.613717264199940
 Root     21 :    11.716381373166120
 Root     22 :    11.837683161079220
 Root     23 :    11.955289242743010
 Root     24 :    12.403406821131310
 Root     25 :    12.718429907222680
 Root     26 :    13.239205356269140
 Root     27 :    13.415067098667430
 Root     28 :    13.654585680513560
 Root     29 :    13.691448949704390
 Root     30 :    13.730012129848420
 Root     31 :    13.907978179739680
 Root     32 :    13.945460680142130
 Root     33 :    14.042569667758530
 Root     34 :    14.119535800705920
 Root     35 :    14.145317474465780
 Root     36 :    14.317777417672540
 Root     37 :    14.410157176239810
 Root     38 :    14.547145458654460
 Root     39 :    14.601458417796330
 Root     40 :    14.809780144811060
 Root     41 :    14.892855308318810
 Root     42 :    15.063199843533700
 Root     43 :    15.230144790747570
 Root     44 :    15.242936767512100
 Root     45 :    15.448717450945950
 Root     46 :    15.479385295374410
 Root     47 :    15.579406632557020
 Root     48 :    15.636709793488610
 Root     49 :    15.689106441682660
 Root     50 :    15.711998503659430
 Root     51 :    15.822180697756780
 Root     52 :    15.901126685057570
 Root     53 :    15.946057577451730
 Root     54 :    15.963960245455870
 Root     55 :    16.105854588741760
 Root     56 :    16.419153525910700
 Root     57 :    16.914453380686650
 Root     58 :    17.286800513598290
 Root     59 :    17.421002072399240
 Root     60 :    17.966854043102330
 Iteration     2 Dimension   120 NMult    60 NNew     60
 CISAX will form    60 AO SS matrices at one time.
 NMat=    60 NSing=    60 JSym2X= 0.
 New state      1 was old state      2
 Root      1 not converged, maximum delta is    0.288632353353002
 New state      2 was old state      1
 Root      2 not converged, maximum delta is    0.385887100703264
 Root      3 not converged, maximum delta is    0.020705106484567
 Root      4 not converged, maximum delta is    0.014568044456059
 Root      5 not converged, maximum delta is    0.022961433646800
 New state      6 was old state     15
 Root      6 not converged, maximum delta is    0.460041523384432
 New state      7 was old state      9
 Root      7 not converged, maximum delta is    0.319733052896882
 New state      8 was old state      6
 Root      8 not converged, maximum delta is    0.250375034158335
 New state      9 was old state      7
 Root      9 not converged, maximum delta is    0.141134828045511
 New state     10 was old state      8
 Root     10 not converged, maximum delta is    0.290910829548560
 New state     11 was old state     10
 Root     11 not converged, maximum delta is    0.378232551982088
 New state     12 was old state     11
 Root     12 not converged, maximum delta is    0.052212719878930
 New state     13 was old state     12
 Root     13 not converged, maximum delta is    0.083987430469179
 Root     14 not converged, maximum delta is    0.328424514744592
 New state     15 was old state     13
 Root     15 not converged, maximum delta is    0.390371535502446
 Excitation Energies [eV] at current iteration:
 Root      1 :     6.858263215622483   Change is   -0.833422345142762
 Root      2 :     7.037044732911019   Change is   -0.107804739696130
 Root      3 :     8.410094747997507   Change is   -0.027928010320903
 Root      4 :     8.478307196858523   Change is   -0.012579763718788
 Root      5 :     9.086888912899184   Change is   -0.027569033604542
 Root      6 :     9.455035350687069   Change is   -1.427299883123946
 Root      7 :     9.574020255682125   Change is   -0.579255574946971
 Root      8 :     9.740075854750982   Change is    0.002589833834966
 Root      9 :     9.892926831111506   Change is    0.018298524303482
 Root     10 :    10.010598660251110   Change is    0.006149619418180
 Root     11 :    10.169527773957700   Change is   -0.030863475091446
 Root     12 :    10.339081994763500   Change is   -0.020878431925239
 Root     13 :    10.441839390110210   Change is    0.000411883789740
 Root     14 :    10.593545576804450   Change is   -0.035258579331688
 Root     15 :    10.680455628396920   Change is    0.061478922926460
 Root     16 :    10.910370256588330   Change is   -0.017635600685997
 Root     17 :    11.070807190850470   Change is   -0.046886926811630
 Root     18 :    11.335739786606050   Change is   -0.277977477593889
 Root     19 :    11.445919637893730   Change is   -0.027974295260149
 Root     20 :    11.477358767331790   Change is   -0.023346781307728
 Root     21 :    11.697169313794190   Change is   -0.019212059371932
 Root     22 :    11.811760270394970   Change is   -0.025922890684250
 Root     23 :    11.905009681099700   Change is   -0.050279561643304
 Root     24 :    12.377570803657640   Change is   -0.025836017473666
 Root     25 :    12.536068060969870   Change is   -0.182361846252811
 Root     26 :    12.738952142158770   Change is   -1.169026037580903
 Root     27 :    12.996167090326170   Change is   -0.418900008341261
 Root     28 :    13.230260879670910   Change is   -0.008944476598225
 Root     29 :    13.618946297462470   Change is   -0.035639383051087
 Root     30 :    13.650424411535950   Change is   -0.041024538168439
 Root     31 :    13.717444624941610   Change is   -0.012567504906807
 Root     32 :    13.904946698882140   Change is   -0.040513981259987
 Root     33 :    13.990410087676180   Change is   -0.052159580082359
 Root     34 :    14.011437368958480   Change is   -0.108098431747435
 Root     35 :    14.067338677883350   Change is   -0.077978796582432
 Root     36 :    14.115912370555610   Change is   -0.201865047116933
 Root     37 :    14.218626788959760   Change is   -0.191530387280049
 Root     38 :    14.418098625606190   Change is   -0.129046833048268
 Root     39 :    14.584710145371090   Change is   -0.016748272425236
 Root     40 :    14.687526486639750   Change is   -0.122253658171305
 Root     41 :    14.861002617147150   Change is   -0.202197226386550
 Root     42 :    14.873539840600690   Change is   -0.019315467718116
 Root     43 :    15.185273665350680   Change is   -0.044871125396889
 Root     44 :    15.206762138104650   Change is   -0.036174629407452
 Root     45 :    15.291649221176830   Change is   -0.420349282482604
 Root     46 :    15.375704135470050   Change is   -0.313402306212610
 Root     47 :    15.400977947087520   Change is   -0.078407348286891
 Root     48 :    15.417641355735290   Change is   -0.031076095210659
 Root     49 :    15.556206003885560   Change is   -0.080503789603051
 Root     50 :    15.566789653017670   Change is   -0.012616979539348
 Root     51 :    15.716923213658620   Change is   -0.105257484098161
 Root     52 :    15.807105979043730   Change is   -0.094020706013845
 Root     53 :    15.844382947044800   Change is   -0.119577298411072
 Root     54 :    15.877685520144490   Change is   -0.068372057307240
 Root     55 :    15.904105170568830   Change is   -0.515048355341871
 Root     56 :    16.079801346814470   Change is   -0.026053241927286
 Root     57 :    16.252456774421690   Change is   -1.034343739176599
 Root     58 :    16.472520820400910   Change is   -0.948481251998336
 Root     59 :    16.702317768383820   Change is   -0.212135612302834
 Root     60 :    16.911176763286360   Change is   -1.055677279815972
 Iteration     3 Dimension   135 NMult   120 NNew     15
 CISAX will form    15 AO SS matrices at one time.
 NMat=    15 NSing=    15 JSym2X= 0.
 Root      1 not converged, maximum delta is    0.002614693575177
 Root      2 not converged, maximum delta is    0.001458507801309
 Root      3 not converged, maximum delta is    0.000230169792688
 Root      4 not converged, maximum delta is    0.000205174358719
 Root      5 not converged, maximum delta is    0.000315678201003
 Root      6 not converged, maximum delta is    0.005057775863801
 Root      7 not converged, maximum delta is    0.003691192588887
 Root      8 not converged, maximum delta is    0.001948675875245
 Root      9 not converged, maximum delta is    0.001175540165712
 Root     10 not converged, maximum delta is    0.000446358884316
 Root     11 not converged, maximum delta is    0.000529681510114
 Root     12 not converged, maximum delta is    0.000683287943283
 Root     13 not converged, maximum delta is    0.000239259518103
 Root     14 not converged, maximum delta is    0.000434040067163
 Root     15 not converged, maximum delta is    0.000647120519093
 Excitation Energies [eV] at current iteration:
 Root      1 :     6.856552289256549   Change is   -0.001710926365934
 Root      2 :     7.035827817150622   Change is   -0.001216915760396
 Root      3 :     8.410051374820055   Change is   -0.000043373177452
 Root      4 :     8.478289141430160   Change is   -0.000018055428364
 Root      5 :     9.086860811902408   Change is   -0.000028100996775
 Root      6 :     9.449890839499503   Change is   -0.005144511187566
 Root      7 :     9.571949929705607   Change is   -0.002070325976518
 Root      8 :     9.739923925172370   Change is   -0.000151929578612
 Root      9 :     9.892696678460593   Change is   -0.000230152650912
 Root     10 :    10.010536646910690   Change is   -0.000062013340414
 Root     11 :    10.169451143866900   Change is   -0.000076630090797
 Root     12 :    10.339022039089150   Change is   -0.000059955674348
 Root     13 :    10.441816560463160   Change is   -0.000022829647055
 Root     14 :    10.593502115927330   Change is   -0.000043460877122
 Root     15 :    10.680342618429410   Change is   -0.000113009967513
 Iteration     4 Dimension   150 NMult   135 NNew     15
 CISAX will form    15 AO SS matrices at one time.
 NMat=    15 NSing=    15 JSym2X= 0.
 Root      1 not converged, maximum delta is    0.000069683080409
 Root      2 not converged, maximum delta is    0.000036008246024
 Root      3 not converged, maximum delta is    0.000006475365751
 Root      4 not converged, maximum delta is    0.000004506293287
 Root      5 not converged, maximum delta is    0.000005224850653
 Root      6 not converged, maximum delta is    0.000100381094563
 Root      7 not converged, maximum delta is    0.000073000761115
 Root      8 not converged, maximum delta is    0.000021472507480
 Root      9 not converged, maximum delta is    0.000020487021677
 Root     10 not converged, maximum delta is    0.000009667883372
 Root     11 not converged, maximum delta is    0.000009988861236
 Root     12 not converged, maximum delta is    0.000007135006487
 Root     13 not converged, maximum delta is    0.000005476805004
 Root     14 not converged, maximum delta is    0.000014687949437
 Root     15 not converged, maximum delta is    0.000013810078184
 Excitation Energies [eV] at current iteration:
 Root      1 :     6.856550508987419   Change is   -0.000001780269131
 Root      2 :     7.035826226122538   Change is   -0.000001591028085
 Root      3 :     8.410051334257084   Change is   -0.000000040562971
 Root      4 :     8.478289122598829   Change is   -0.000000018831331
 Root      5 :     9.086860788090201   Change is   -0.000000023812208
 Root      6 :     9.449882848220746   Change is   -0.000007991278758
 Root      7 :     9.571946781561580   Change is   -0.000003148144027
 Root      8 :     9.739923709292004   Change is   -0.000000215880366
 Root      9 :     9.892696320372917   Change is   -0.000000358087677
 Root     10 :    10.010536570849620   Change is   -0.000000076061067
 Root     11 :    10.169451059132370   Change is   -0.000000084734532
 Root     12 :    10.339022011100110   Change is   -0.000000027989032
 Root     13 :    10.441816534232660   Change is   -0.000000026230494
 Root     14 :    10.593502047172800   Change is   -0.000000068754530
 Root     15 :    10.680342478129360   Change is   -0.000000140300053
 Iteration     5 Dimension   165 NMult   150 NNew     15
 CISAX will form    15 AO SS matrices at one time.
 NMat=    15 NSing=    15 JSym2X= 0.
 Root      1 not converged, maximum delta is    0.000001762110797
 Root      2 not converged, maximum delta is    0.000001336426013
 Root      3 has converged.
 Root      4 has converged.
 Root      5 has converged.
 Root      6 not converged, maximum delta is    0.000003356315990
 Root      7 not converged, maximum delta is    0.000003085911338
 Root      8 has converged.
 Root      9 has converged.
 Root     10 has converged.
 Root     11 has converged.
 Root     12 has converged.
 Root     13 not converged, maximum delta is    0.000001011057577
 Root     14 has converged.
 Root     15 not converged, maximum delta is    0.000001000395630
 Excitation Energies [eV] at current iteration:
 Root      1 :     6.856550507430022   Change is   -0.000000001557397
 Root      2 :     7.035826224782148   Change is   -0.000000001340390
 Root      3 :     8.410051334226154   Change is   -0.000000000030931
 Root      4 :     8.478289122584091   Change is   -0.000000000014738
 Root      5 :     9.086860788074761   Change is   -0.000000000015441
 Root      6 :     9.449882840197009   Change is   -0.000000008023735
 Root      7 :     9.571946778592721   Change is   -0.000000002968859
 Root      8 :     9.739923709071038   Change is   -0.000000000220966
 Root      9 :     9.892696319979976   Change is   -0.000000000392940
 Root     10 :    10.010536570765270   Change is   -0.000000000084356
 Root     11 :    10.169451059020800   Change is   -0.000000000111574
 Root     12 :    10.339022011073810   Change is   -0.000000000026307
 Root     13 :    10.441816534202330   Change is   -0.000000000030336
 Root     14 :    10.593502047092670   Change is   -0.000000000080134
 Root     15 :    10.680342477990730   Change is   -0.000000000138631
 Iteration     6 Dimension   169 NMult   165 NNew      4
 CISAX will form     4 AO SS matrices at one time.
 NMat=     4 NSing=     4 JSym2X= 0.
 Root      1 has converged.
 Root      2 has converged.
 Root      3 has converged.
 Root      4 has converged.
 Root      5 has converged.
 Root      6 has converged.
 Root      7 has converged.
 Root      8 has converged.
 Root      9 has converged.
 Root     10 has converged.
 Root     11 has converged.
 Root     12 has converged.
 Root     13 has converged.
 Root     14 has converged.
 Root     15 has converged.
 Excitation Energies [eV] at current iteration:
 Root      1 :     6.856550507429617   Change is   -0.000000000000405
 Root      2 :     7.035826224781796   Change is   -0.000000000000352
 Root      3 :     8.410051334226125   Change is   -0.000000000000027
 Root      4 :     8.478289122584105   Change is    0.000000000000015
 Root      5 :     9.086860788074759   Change is   -0.000000000000002
 Root      6 :     9.449882840192094   Change is   -0.000000000004915
 Root      7 :     9.571946778590137   Change is   -0.000000000002585
 Root      8 :     9.739923709070849   Change is   -0.000000000000189
 Root      9 :     9.892696319979704   Change is   -0.000000000000272
 Root     10 :    10.010536570765190   Change is   -0.000000000000077
 Root     11 :    10.169451059020780   Change is   -0.000000000000021
 Root     12 :    10.339022011073800   Change is   -0.000000000000006
 Root     13 :    10.441816534202310   Change is   -0.000000000000014
 Root     14 :    10.593502047092600   Change is   -0.000000000000071
 Root     15 :    10.680342477990640   Change is   -0.000000000000082
 Convergence achieved on expansion vectors.
 ***********************************************************************
 Excited states from <AA,BB:AA,BB> singles matrix:
 ***********************************************************************
 
 1PDM for each excited state written to RWF  633
 Ground to excited state transition densities written to RWF  633
 Ground to excited state transition electric dipole moments (Au):
       state          X           Y           Z        Dip. S.      Osc.
         1        -1.0052      0.2763      0.0124      1.0870      0.1826
         2         0.4206     -0.2238      0.0117      0.2271      0.0392
         3        -0.0253     -0.1054     -0.1333      0.0295      0.0061
         4        -0.0423     -0.0474     -0.0038      0.0040      0.0008
         5        -0.0268      0.0564      0.0238      0.0045      0.0010
         6         0.6158      1.3091      0.0268      2.0936      0.4847
         7        -0.6317      0.5917      0.0004      0.7493      0.1757
         8        -0.1943      0.1039      0.0381      0.0500      0.0119
         9        -0.1511     -0.2741      0.0523      0.1007      0.0244
        10        -0.1168      0.0099     -0.0775      0.0197      0.0048
        11         0.0637      0.0918      0.0350      0.0137      0.0034
        12         0.0205      0.0262     -0.0282      0.0019      0.0005
        13         0.0212      0.0814     -0.0732      0.0124      0.0032
        14         0.1033     -0.0324     -0.0277      0.0125      0.0032
        15        -0.0092     -0.1446      0.2069      0.0638      0.0167
 Ground to excited state transition velocity dipole moments (Au):
       state          X           Y           Z        Dip. S.      Osc.
         1        -0.0221     -0.0184      0.0028      0.0008      0.0022
         2        -0.0089     -0.0505      0.0036      0.0026      0.0068
         3        -0.0003      0.0004      0.0754      0.0057      0.0123
         4        -0.0002     -0.0029     -0.0015      0.0000      0.0000
         5         0.0093     -0.0046     -0.0056      0.0001      0.0003
         6        -0.0249     -0.0110      0.0069      0.0008      0.0015
         7         0.0756     -0.0338     -0.0006      0.0069      0.0130
         8         0.0244     -0.0073     -0.0170      0.0009      0.0017
         9         0.0117      0.0125     -0.0147      0.0005      0.0009
        10         0.0159     -0.0038      0.0530      0.0031      0.0056
        11        -0.0055     -0.0010      0.0058      0.0001      0.0001
        12        -0.0001      0.0025     -0.0535      0.0029      0.0050
        13        -0.0028     -0.0094     -0.0298      0.0010      0.0017
        14        -0.0178      0.0017     -0.0006      0.0003      0.0005
        15        -0.0029      0.0074      0.0057      0.0001      0.0002
 Ground to excited state transition magnetic dipole moments (Au):
       state          X           Y           Z
         1        -0.0427      0.0127     -0.4315
         2        -0.0594      0.0348      0.2094
         3        -1.5316      0.4378     -0.0155
         4        -0.0881     -0.5803     -0.0627
         5        -0.0106     -0.0375      0.0357
         6        -0.1750      0.0215      0.0127
         7        -0.0931     -0.0744      0.1338
         8         0.2773      0.1221      0.0517
         9        -0.2558      0.0457      0.0080
        10        -0.0944      0.0761      0.0256
        11         0.1674     -0.1840     -0.0428
        12        -0.0715     -0.0189     -0.0358
        13         0.0023      0.0006     -0.0055
        14         0.0637     -0.1354     -0.0744
        15        -0.0375      0.1151     -0.0067
 Ground to excited state transition velocity quadrupole moments (Au):
       state          XX          YY          ZZ          XY          XZ          YZ
         1        -0.0961      0.0880      0.0098     -0.1199      0.0007     -0.0030
         2         0.0221     -0.0552      0.0229      0.0771     -0.0014     -0.0051
         3        -0.0184      0.0014      0.0100      0.0073     -0.0554     -0.1810
         4        -0.0178      0.0115      0.0033     -0.0081     -0.0315      0.0117
         5        -0.0020      0.0057     -0.0032     -0.0202      0.2070     -0.0458
         6         0.1911     -0.1614     -0.0547     -0.2020     -0.0145     -0.0136
         7         0.2344     -0.2318     -0.0156      0.2210     -0.0050      0.0099
         8         0.0508     -0.0719      0.0015      0.0859      0.0233      0.0252
         9        -0.0462      0.0328      0.0084      0.0726     -0.0310     -0.0379
        10         0.0491     -0.0302     -0.0018      0.0295     -0.0106     -0.1527
        11         0.0034     -0.0085     -0.0042     -0.0414     -0.0162     -0.0283
        12         0.0169      0.0099     -0.0070     -0.0095     -0.0397     -0.1042
        13         0.0316     -0.0235     -0.0014     -0.0128      0.0044      0.0402
        14        -0.0318      0.0282      0.0058     -0.0237      0.0193      0.0054
        15        -0.0111      0.0491     -0.0077      0.0121     -0.0033      0.0721
 <0|del|b> * <b|rxdel|0> + <0|del|b> * <b|delr+rdel|0>
 Rotatory Strengths (R) in cgs (10**-40 erg-esu-cm/Gauss)
       state          XX          YY          ZZ    R(velocity)    E-M Angle
         1        -2.4935      0.1810      0.8844     -0.4760       92.32
         2        -1.0949      1.4361     -1.6510     -0.4366       92.42
         3        -0.4939     -1.2849      0.6983     -0.3602       90.23
         4         1.9047      0.1109      2.0198      1.3451       21.03
         5         1.0889     -0.8845     -0.4737     -0.0898      101.82
         6        -1.7317      6.2941      4.0200      2.8608       32.04
         7         2.1295     -6.2678     -5.1266     -3.0883      108.09
         8        -3.0244      7.8649      5.0256      3.2887       57.95
         9        -0.2226     -2.4111     -2.2977     -1.6438      115.58
        10         2.4863     -3.9679      0.6490     -0.2775       93.61
        11        -0.3073     -0.7358     -0.8449     -0.6293      119.44
        12         2.3056      1.3278     -0.1375      1.1653       64.74
        13         0.5377     -0.3089      0.0527      0.0938       35.99
        14        -0.1856     -1.0916     -1.1209     -0.7994      116.20
        15         0.8195     -0.1862      1.0313      0.5549       38.98
 1/2[<0|r|b>*<b|rxdel|0> + (<0|rxdel|b>*<b|r|0>)*]
 Rotatory Strengths (R) in cgs (10**-40 erg-esu-cm/Gauss)
       state          XX          YY          ZZ     R(length)
         1       -30.3256     -2.4718      3.7816     -9.6719
         2        17.6756      5.5114     -1.7272      7.1533
         3       -27.4563     32.6373     -1.4567      1.2414
         4        -2.6321    -19.4409     -0.1699     -7.4143
         5        -0.2014      1.4940     -0.6016      0.2303
         6        76.1878    -19.8759     -0.2412     18.6902
         7       -41.5842     31.1485     -0.0364     -3.4907
         8        38.1105     -8.9669     -1.3925      9.2504
         9       -27.3331      8.8584     -0.2954     -6.2567
        10        -7.7940     -0.5318      1.4037     -2.3074
        11        -7.5431     11.9447      1.0578      1.8198
        12         1.0365      0.3508     -0.7144      0.2243
        13        -0.0338     -0.0368     -0.2864     -0.1190
        14        -4.6539     -3.0979     -1.4572     -3.0697
        15        -0.2441     11.7758      0.9846      4.1721
  1/2[<0|del|b>*<b|r|0> + (<0|r|b>*<b|del|0>)*] (Au)
       state          X           Y           Z        Dip. S.   Osc.(frdel)
         1         0.0222     -0.0051      0.0000     -0.0171     -0.0114
         2        -0.0037      0.0113      0.0000     -0.0076     -0.0051
         3         0.0000      0.0000     -0.0101      0.0101      0.0067
         4         0.0000      0.0001      0.0000     -0.0002     -0.0001
         5        -0.0002     -0.0003     -0.0001      0.0006      0.0004
         6        -0.0154     -0.0145      0.0002      0.0296      0.0198
         7        -0.0478     -0.0200      0.0000      0.0678      0.0452
         8        -0.0047     -0.0008     -0.0006      0.0061      0.0041
         9        -0.0018     -0.0034     -0.0008      0.0060      0.0040
        10        -0.0019      0.0000     -0.0041      0.0060      0.0040
        11        -0.0004     -0.0001      0.0002      0.0002      0.0002
        12         0.0000      0.0001      0.0015     -0.0016     -0.0010
        13        -0.0001     -0.0008      0.0022     -0.0014     -0.0009
        14        -0.0018     -0.0001      0.0000      0.0019      0.0013
        15         0.0000     -0.0011      0.0012     -0.0001     -0.0001

 Excitation energies and oscillator strengths:
 
 Excited State   1:      Singlet-A      6.8566 eV  180.83 nm  f=0.1826  <S**2>=0.000
      17 -> 19         0.20376
      18 -> 19         0.62940
      18 -> 20         0.17688
 This state for optimization and/or second-order correction.
 Total Energy, E(CIS) =  -228.495275530    
 Copying the excited state density for this state as the 1-particle RhoCI density.
 
 Excited State   2:      Singlet-A      7.0358 eV  176.22 nm  f=0.0392  <S**2>=0.000
      17 -> 19         0.48219
      18 -> 19        -0.26283
      18 -> 20         0.42839
 
 Excited State   3:      Singlet-A      8.4101 eV  147.42 nm  f=0.0061  <S**2>=0.000
      16 -> 19         0.69807
 
 Excited State   4:      Singlet-A      8.4783 eV  146.24 nm  f=0.0008  <S**2>=0.000
      18 -> 21         0.69980
 
 Excited State   5:      Singlet-A      9.0869 eV  136.44 nm  f=0.0010  <S**2>=0.000
      18 -> 22         0.69640
 
 Excited State   6:      Singlet-A      9.4499 eV  131.20 nm  f=0.4847  <S**2>=0.000
      17 -> 19        -0.40749
      17 -> 20        -0.15743
      17 -> 21         0.11315
      18 -> 20         0.46783
 
 Excited State   7:      Singlet-A      9.5719 eV  129.53 nm  f=0.1757  <S**2>=0.000
      15 -> 19        -0.15439
      17 -> 20         0.63760
      18 -> 20         0.12435
 
 Excited State   8:      Singlet-A      9.7399 eV  127.29 nm  f=0.0119  <S**2>=0.000
      15 -> 19         0.65489
      16 -> 20        -0.12658
      17 -> 20         0.15896
      18 -> 23        -0.11714
 
 Excited State   9:      Singlet-A      9.8927 eV  125.33 nm  f=0.0244  <S**2>=0.000
      14 -> 19         0.10481
      17 -> 21         0.55829
      18 -> 23        -0.32151
      18 -> 24         0.19035
      18 -> 25         0.10850
 
 Excited State  10:      Singlet-A     10.0105 eV  123.85 nm  f=0.0048  <S**2>=0.000
      14 -> 19        -0.21673
      17 -> 21         0.39882
      17 -> 22        -0.11043
      18 -> 23         0.47296
      18 -> 24        -0.15299
      18 -> 25        -0.12600
 
 Excited State  11:      Singlet-A     10.1695 eV  121.92 nm  f=0.0034  <S**2>=0.000
      14 -> 19         0.59617
      15 -> 19         0.11011
      16 -> 20         0.20212
      17 -> 22        -0.10134
      18 -> 23         0.14149
      18 -> 24        -0.21963
 
 Excited State  12:      Singlet-A     10.3390 eV  119.92 nm  f=0.0005  <S**2>=0.000
      14 -> 19         0.14020
      17 -> 22         0.34455
      18 -> 23         0.29532
      18 -> 24         0.49718
      18 -> 25        -0.11273
 
 Excited State  13:      Singlet-A     10.4418 eV  118.74 nm  f=0.0032  <S**2>=0.000
      17 -> 22         0.58294
      18 -> 24        -0.37176
 
 Excited State  14:      Singlet-A     10.5935 eV  117.04 nm  f=0.0032  <S**2>=0.000
      12 -> 19         0.10420
      14 -> 19        -0.22819
      15 -> 19         0.11437
      16 -> 20         0.63979
 
 Excited State  15:      Singlet-A     10.6803 eV  116.09 nm  f=0.0167  <S**2>=0.000
      17 -> 22         0.10787
      18 -> 23         0.19682
      18 -> 25         0.65531
 SavETr:  write IOETrn=   770 NScale= 10 NData=  16 NLR=1 NState=   15 LETran=     280.
 The selected state is a singlet
 CISAX will form     1 AO SS matrices at one time.
 NMat=     1 NSing=     1 JSym2X= 0.
 CISAX will form     1 AO SS matrices at one time.
 NMat=     1 NSing=     1 JSym2X= 0.
 Leave Link  914 at Tue Dec 15 16:28:42 2015, MaxMem=    33554432 cpu:        28.0
 (Enter /home/Applications/g09/g09/l1002.exe)
 Minotr:  Closed shell wavefunction.
          Computing CIS/TD-HF/TD-KS derivatives.
          Using Z-Vector for PSCF gradient.
          Skipping F1 and S1 gradient terms here.
          IDoAtm=111111111
          Frozen-core window.
          Direct CPHF calculation.
          Differentiating once with respect to electric field.
                with respect to dipole field.
          Differentiating once with respect to nuclear coordinates.
          Requested convergence is 1.0D-10 RMS, and 1.0D-09 maximum.
          NewPWx=F KeepS1=T KeepF1=T KeepIn=T MapXYZ=F SortEE=F KeepMc=T.
          MDV=      33554290 using IRadAn=       0.
 Using stored XC quadrature information.
 Keep R1 ints in memory in canonical form, NReq=1898913.
 FoFCou: FMM=F IPFlag=           0 FMFlag=           0 FMFlg1=           0
         NFxFlg=           0 DoJE=F BraDBF=F KetDBF=F FulRan=T
         wScrn=  0.000000 ICntrl=     600 IOpCl=  0 I1Cent=           0 NGrid=           0
         NMat0=    1 NMatS0=   1431 NMatT0=    0 NMatD0=    1 NMtDS0=    0 NMtDT0=    0
 Symmetry not used in FoFCou.
          Solving linear equations separately, MaxMat=       0.
          There are     1 degrees of freedom in the 1st order CPHF.  IDoFFX=0 NUNeed=     1.
 LinEq1:  Iter=  0 NonCon=     1 RMS=4.28D-02 Max=6.69D-01 NDo=     1
 AX will form     1 AO Fock derivatives at one time.
 LinEq1:  Iter=  1 NonCon=     1 RMS=2.51D-02 Max=4.45D-01 NDo=     1
 LinEq1:  Iter=  2 NonCon=     1 RMS=1.86D-02 Max=2.89D-01 NDo=     1
 LinEq1:  Iter=  3 NonCon=     1 RMS=7.28D-03 Max=8.60D-02 NDo=     1
 LinEq1:  Iter=  4 NonCon=     1 RMS=5.26D-03 Max=4.90D-02 NDo=     1
 LinEq1:  Iter=  5 NonCon=     1 RMS=1.59D-03 Max=2.62D-02 NDo=     1
 LinEq1:  Iter=  6 NonCon=     1 RMS=9.87D-04 Max=7.31D-03 NDo=     1
 LinEq1:  Iter=  7 NonCon=     1 RMS=2.52D-04 Max=1.73D-03 NDo=     1
 LinEq1:  Iter=  8 NonCon=     1 RMS=7.89D-05 Max=4.90D-04 NDo=     1
 LinEq1:  Iter=  9 NonCon=     1 RMS=1.91D-05 Max=1.44D-04 NDo=     1
 LinEq1:  Iter= 10 NonCon=     1 RMS=1.74D-06 Max=1.03D-05 NDo=     1
 LinEq1:  Iter= 11 NonCon=     1 RMS=1.86D-07 Max=1.02D-06 NDo=     1
 LinEq1:  Iter= 12 NonCon=     1 RMS=1.72D-08 Max=9.19D-08 NDo=     1
 LinEq1:  Iter= 13 NonCon=     1 RMS=1.79D-09 Max=1.10D-08 NDo=     1
 LinEq1:  Iter= 14 NonCon=     1 RMS=2.62D-10 Max=1.44D-09 NDo=     1
 LinEq1:  Iter= 15 NonCon=     0 RMS=3.24D-11 Max=2.98D-10 NDo=     1
 Linear equations converged to 1.000D-10 1.000D-09 after    15 iterations.
 End of Minotr F.D. properties file   721 does not exist.
 End of Minotr F.D. properties file   722 does not exist.
 End of Minotr F.D. properties file   788 does not exist.
 Leave Link 1002 at Tue Dec 15 16:28:56 2015, MaxMem=    33554432 cpu:        13.4
 (Enter /home/Applications/g09/g09/l601.exe)
 Copying SCF densities to generalized density rwf, IOpCl= 0 IROHF=0.

 **********************************************************************

            Population analysis using the SCF density.

 **********************************************************************

 Orbital symmetries:
       Occupied  (A) (A) (A) (A) (A) (A) (A) (A) (A) (A) (A) (A)
                 (A) (A) (A) (A) (A) (A)
       Virtual   (A) (A) (A) (A) (A) (A) (A) (A) (A) (A) (A) (A)
                 (A) (A) (A) (A) (A) (A) (A) (A) (A) (A) (A) (A)
                 (A) (A) (A) (A) (A) (A) (A) (A) (A) (A) (A)
 The electronic state is 1-A.
 Alpha  occ. eigenvalues --  -19.11167 -10.17556 -10.17395 -10.12766 -10.12521
 Alpha  occ. eigenvalues --   -1.10094  -0.80359  -0.74091  -0.59437  -0.58379
 Alpha  occ. eigenvalues --   -0.54003  -0.45401  -0.43347  -0.42031  -0.40465
 Alpha  occ. eigenvalues --   -0.35978  -0.27889  -0.22736
 Alpha virt. eigenvalues --    0.00880   0.07875   0.13530   0.14649   0.18717
 Alpha virt. eigenvalues --    0.19254   0.20887   0.22065   0.33592   0.40977
 Alpha virt. eigenvalues --    0.46076   0.67925   0.70292   0.71215   0.74137
 Alpha virt. eigenvalues --    0.77228   0.78840   0.79225   0.79807   0.83768
 Alpha virt. eigenvalues --    0.93783   1.00175   1.03111   1.04230   1.17950
 Alpha virt. eigenvalues --    1.24915   1.33875   1.38039   1.50049   1.58284
 Alpha virt. eigenvalues --    1.61180   1.72907   1.96422   2.10585   3.14463
     Molecular Orbital Coefficients:
                           1         2         3         4         5
                           O         O         O         O         O
     Eigenvalues --   -19.11167 -10.17556 -10.17395 -10.12766 -10.12521
   1 1   C  1S          0.00017  -0.01160  -0.00257   0.95183   0.25733
   2        2S          0.00079  -0.00495  -0.00086   0.10740   0.02478
   3        2PX        -0.00099  -0.00049   0.00026  -0.00180   0.00114
   4        2PY         0.00101   0.00218   0.00085  -0.00117  -0.00012
   5        2PZ        -0.00002   0.00004   0.00000  -0.00005   0.00002
   6        3S         -0.00324   0.03432  -0.00952  -0.10844   0.00860
   7        3PX         0.00657  -0.00229   0.00486   0.03162  -0.01640
   8        3PY         0.00426  -0.01884   0.00621   0.01993   0.00137
   9        3PZ         0.00006  -0.00040   0.00027   0.00079  -0.00020
  10 2   C  1S         -0.00051   0.97521   0.14170   0.01090   0.00382
  11        2S         -0.00093   0.10566   0.01221  -0.00255  -0.00138
  12        2PX        -0.00200  -0.00200   0.00083   0.00045  -0.00004
  13        2PY        -0.00112   0.00034  -0.00087  -0.00134  -0.00154
  14        2PZ         0.00005   0.00010   0.00004  -0.00003  -0.00002
  15        3S          0.01466  -0.07337   0.00288   0.03684   0.00269
  16        3PX        -0.01432   0.00572  -0.01197  -0.01065  -0.00033
  17        3PY         0.00337  -0.01830   0.01161   0.02130   0.00452
  18        3PZ         0.00064  -0.00052   0.00011   0.00060   0.00011
  19 3   O  1S          0.98274   0.00014   0.00023   0.00006   0.00011
  20        2S          0.10722   0.00132   0.00182   0.00030   0.00052
  21        2PX         0.00111   0.00099  -0.00025   0.00004  -0.00005
  22        2PY         0.00407   0.00045   0.00099  -0.00003  -0.00010
  23        2PZ        -0.00024  -0.00007  -0.00007  -0.00002  -0.00002
  24        3S         -0.05876   0.00026   0.00054  -0.00229  -0.00493
  25        3PX        -0.00339  -0.00075  -0.00069  -0.00302   0.00080
  26        3PY        -0.01307  -0.00230  -0.00339  -0.00053  -0.00256
  27        3PZ         0.00071   0.00028   0.00031   0.00007   0.00012
  28 4   C  1S         -0.00049  -0.14271   0.97504  -0.00207   0.01111
  29        2S         -0.00089  -0.01851   0.10487   0.00038  -0.00311
  30        2PX         0.00112  -0.00168   0.00154  -0.00008  -0.00149
  31        2PY        -0.00203  -0.00005  -0.00086  -0.00065  -0.00165
  32        2PZ         0.00005   0.00003   0.00012  -0.00003  -0.00001
  33        3S          0.01675   0.02379  -0.07058  -0.01707   0.03396
  34        3PX         0.01547   0.02005  -0.00986  -0.00990   0.01938
  35        3PY        -0.00502   0.00634  -0.01142  -0.00290   0.01225
  36        3PZ         0.00052  -0.00005  -0.00034  -0.00002   0.00034
  37 5   C  1S          0.00019   0.00077  -0.01161  -0.25782   0.95169
  38        2S          0.00086   0.00036  -0.00522  -0.03284   0.10518
  39        2PX         0.00141  -0.00028   0.00186  -0.00135   0.00030
  40        2PY         0.00033   0.00035   0.00194   0.00126  -0.00153
  41        2PZ        -0.00003   0.00000   0.00002   0.00000   0.00000
  42        3S         -0.00543  -0.01904   0.03228   0.06454  -0.08957
  43        3PX        -0.00347   0.00230  -0.00852   0.02100  -0.00554
  44        3PY         0.00909   0.01105  -0.01473  -0.02241   0.02464
  45        3PZ         0.00009   0.00017  -0.00011  -0.00005   0.00007
  46 6   H  1S         -0.00106  -0.00015  -0.00116   0.00074  -0.00365
  47        2S         -0.00343  -0.00104   0.00150   0.00342   0.00609
  48 7   H  1S          0.00042   0.00192  -0.00380  -0.00015  -0.00023
  49        2S          0.00459   0.00644   0.01116  -0.00174   0.00568
  50 8   H  1S          0.00033  -0.00431   0.00073  -0.00020  -0.00007
  51        2S          0.00409   0.00899   0.00934   0.00543   0.00205
  52 9   H  1S         -0.00094  -0.00105  -0.00061  -0.00403  -0.00115
  53        2S         -0.00295   0.00197  -0.00135   0.00300   0.00663
                           6         7         8         9        10
                           O         O         O         O         O
     Eigenvalues --    -1.10094  -0.80359  -0.74091  -0.59437  -0.58379
   1 1   C  1S         -0.02651   0.14940   0.06925  -0.11355   0.03244
   2        2S          0.02568  -0.16082  -0.07401   0.11519  -0.03338
   3        2PX        -0.01751   0.07675  -0.04371   0.10343   0.11376
   4        2PY        -0.02622   0.03387   0.07634  -0.00407  -0.12458
   5        2PZ        -0.00018   0.00159   0.00071   0.00172  -0.00264
   6        3S          0.03786  -0.30394  -0.14987   0.39610  -0.09703
   7        3PX        -0.03011   0.02918   0.01122   0.01389   0.04671
   8        3PY        -0.02238   0.02380  -0.00432  -0.03348  -0.04166
   9        3PZ        -0.00049   0.00103  -0.00033  -0.00004  -0.00126
  10 2   C  1S         -0.07016   0.05713   0.14389   0.04030  -0.10644
  11        2S          0.07881  -0.06632  -0.15352  -0.03968   0.11802
  12        2PX        -0.08092  -0.02093   0.00910   0.06578   0.15290
  13        2PY        -0.00713  -0.11209  -0.00105   0.18130  -0.02809
  14        2PZ         0.00296  -0.00054  -0.00381  -0.00051  -0.00435
  15        3S          0.07400  -0.08806  -0.35646  -0.16874   0.31959
  16        3PX         0.02940   0.00039   0.01070   0.04003   0.08707
  17        3PY        -0.01876  -0.03321  -0.03314   0.04298  -0.00859
  18        3PZ        -0.00093  -0.00045  -0.00179  -0.00101  -0.00231
  19 3   O  1S         -0.21158  -0.08736   0.00531  -0.00877   0.05080
  20        2S          0.19349   0.08424  -0.00484   0.00906  -0.05097
  21        2PX         0.02579  -0.01048  -0.17985  -0.23649  -0.03212
  22        2PY         0.10475  -0.01711   0.05479   0.06205   0.00055
  23        2PZ        -0.00583  -0.00145   0.00045   0.00174  -0.00281
  24        3S          0.67350   0.31395  -0.01998   0.03580  -0.21438
  25        3PX         0.03445  -0.00480  -0.14945  -0.20662  -0.02936
  26        3PY         0.13418  -0.00045   0.04394   0.05457  -0.00468
  27        3PZ        -0.00768  -0.00150   0.00054   0.00174  -0.00280
  28 4   C  1S         -0.07498   0.05054  -0.14627  -0.01079  -0.11141
  29        2S          0.08434  -0.05984   0.15707   0.00712   0.12248
  30        2PX         0.06886  -0.04226   0.01242  -0.02458  -0.14874
  31        2PY        -0.05396  -0.10883   0.00493  -0.20548   0.01521
  32        2PZ         0.00287   0.00023   0.00387   0.00384  -0.00194
  33        3S          0.07038  -0.07245   0.36086   0.07943   0.34927
  34        3PX        -0.04323  -0.01605   0.02795   0.01457  -0.07220
  35        3PY         0.00069  -0.02625   0.02769  -0.07196   0.02538
  36        3PZ        -0.00059   0.00006   0.00144   0.00208  -0.00068
  37 5   C  1S         -0.02857   0.14767  -0.07466   0.09585   0.05886
  38        2S          0.02737  -0.15874   0.08003  -0.09756  -0.05930
  39        2PX        -0.00028  -0.05006  -0.08181   0.12232  -0.13734
  40        2PY        -0.03387   0.06576  -0.04592  -0.01192  -0.05886
  41        2PZ         0.00019  -0.00009  -0.00023   0.00114  -0.00311
  42        3S          0.05178  -0.30009   0.15707  -0.33741  -0.19504
  43        3PX         0.01653  -0.01068   0.01355   0.03873  -0.05294
  44        3PY        -0.04566   0.03537  -0.00181   0.03122  -0.00367
  45        3PZ        -0.00033  -0.00013   0.00062   0.00056  -0.00180
  46 6   H  1S          0.00811  -0.05953   0.04253  -0.10226  -0.04863
  47        2S          0.01603  -0.01164   0.01230  -0.05913  -0.02919
  48 7   H  1S          0.01468  -0.01708   0.09438   0.03179   0.17246
  49        2S         -0.02636  -0.00368   0.03402   0.02627   0.08369
  50 8   H  1S          0.01429  -0.02035  -0.09499  -0.06814   0.16294
  51        2S         -0.02273  -0.00493  -0.03439  -0.04469   0.07532
  52 9   H  1S          0.00759  -0.06284  -0.04291   0.13300  -0.01472
  53        2S          0.01293  -0.01197  -0.01267   0.07615  -0.00792
                          11        12        13        14        15
                           O         O         O         O         O
     Eigenvalues --    -0.54003  -0.45401  -0.43347  -0.42031  -0.40465
   1 1   C  1S         -0.03749  -0.03729   0.00302   0.00595   0.01871
   2        2S          0.03370   0.04093  -0.00420  -0.00980  -0.01861
   3        2PX         0.10828   0.02653   0.03506   0.31240   0.14045
   4        2PY         0.19255   0.00192  -0.01140   0.10369  -0.24560
   5        2PZ         0.00710   0.00774   0.11769  -0.00038  -0.01035
   6        3S          0.17329   0.12420  -0.00956  -0.02830  -0.08001
   7        3PX         0.08040   0.02112   0.01846   0.21946   0.06425
   8        3PY         0.09069   0.01699  -0.00735   0.07400  -0.12303
   9        3PZ         0.00390   0.00583   0.08764  -0.00051  -0.00696
  10 2   C  1S          0.01831   0.02108   0.00142   0.02808  -0.03494
  11        2S         -0.02256  -0.02326  -0.00136  -0.03213   0.04138
  12        2PX         0.09368  -0.25943   0.01550  -0.01741  -0.06053
  13        2PY        -0.14021   0.07835   0.00738  -0.06014   0.25801
  14        2PZ        -0.00062   0.01902   0.18208  -0.01552  -0.00320
  15        3S         -0.03507  -0.06268  -0.00513  -0.08592   0.13158
  16        3PX         0.06104  -0.16929   0.01357  -0.00415  -0.04181
  17        3PY        -0.12646   0.05256   0.00568  -0.01097   0.19662
  18        3PZ        -0.00057   0.01406   0.17850  -0.01698  -0.00525
  19 3   O  1S         -0.05571  -0.00163  -0.00322  -0.00017  -0.00279
  20        2S          0.05421   0.00090   0.00282  -0.00283  -0.00009
  21        2PX        -0.03017   0.26993  -0.00082   0.07839  -0.02777
  22        2PY        -0.16935  -0.08045   0.01635   0.07997   0.09809
  23        2PZ         0.00485   0.01121   0.37190  -0.04317  -0.01884
  24        3S          0.22014   0.00753   0.01514   0.01892   0.02971
  25        3PX        -0.02745   0.25516   0.00003   0.08222  -0.03062
  26        3PY        -0.15307  -0.07465   0.01611   0.08103   0.10167
  27        3PZ         0.00514   0.01102   0.37558  -0.04474  -0.02013
  28 4   C  1S          0.01750  -0.02089   0.00005  -0.02985   0.02957
  29        2S         -0.02224   0.02216   0.00027   0.03676  -0.03410
  30        2PX        -0.15920  -0.25172   0.02356   0.19829  -0.02431
  31        2PY        -0.03582   0.08876   0.02421   0.17383  -0.06265
  32        2PZ         0.00055  -0.00312   0.19209  -0.01995  -0.00774
  33        3S         -0.03064   0.06406   0.00150   0.10615  -0.09515
  34        3PX        -0.11864  -0.16389   0.01521   0.14366  -0.00788
  35        3PY        -0.05723   0.05147   0.01739   0.13400  -0.01695
  36        3PZ         0.00079  -0.00008   0.18510  -0.02025  -0.00855
  37 5   C  1S         -0.04692   0.03953   0.00046   0.01543   0.00615
  38        2S          0.04403  -0.04332  -0.00059  -0.01516  -0.01096
  39        2PX        -0.00304   0.00695  -0.04051  -0.25327  -0.20088
  40        2PY         0.22383  -0.02553  -0.00848  -0.11681   0.25700
  41        2PZ         0.00471   0.00161   0.12176  -0.01522  -0.00385
  42        3S          0.20154  -0.13017  -0.00503  -0.06772  -0.02186
  43        3PX        -0.02745  -0.00060  -0.02143  -0.11373  -0.14608
  44        3PY         0.12782  -0.03388  -0.00307  -0.05951   0.18340
  45        3PZ         0.00252   0.00085   0.09118  -0.01059  -0.00300
  46 6   H  1S          0.14634  -0.06001   0.00553  -0.02904   0.21793
  47        2S          0.07976  -0.03536   0.00418  -0.02198   0.19497
  48 7   H  1S          0.06662   0.18515  -0.01876  -0.11794  -0.02173
  49        2S          0.02634   0.13706  -0.01582  -0.09955  -0.01106
  50 8   H  1S          0.06605  -0.19124   0.00034  -0.02256  -0.11419
  51        2S          0.02423  -0.14025  -0.00024  -0.01125  -0.10059
  52 9   H  1S          0.13535   0.05755   0.01436   0.21533  -0.04204
  53        2S          0.07423   0.03298   0.01310   0.18152  -0.03644
                          16        17        18        19        20
                           O         O         O         V         V
     Eigenvalues --    -0.35978  -0.27889  -0.22736   0.00880   0.07875
   1 1   C  1S          0.02009   0.00134   0.00092  -0.00241  -0.00139
   2        2S         -0.01853  -0.00164  -0.00035   0.00271   0.00303
   3        2PX        -0.00823   0.00800  -0.00467   0.00355   0.01136
   4        2PY         0.17083   0.01860  -0.00650   0.00092   0.00958
   5        2PZ         0.01928  -0.29045   0.17949  -0.18686  -0.33380
   6        3S         -0.15158  -0.01344  -0.00998   0.02230  -0.01071
   7        3PX        -0.03972   0.00149  -0.00214   0.01699   0.04911
   8        3PY         0.14286   0.01854  -0.00493  -0.00074   0.02690
   9        3PZ         0.01762  -0.29985   0.19934  -0.30564  -0.66552
  10 2   C  1S         -0.01848   0.00022   0.00199   0.00249   0.00600
  11        2S          0.02277  -0.00090  -0.00254   0.00005  -0.00592
  12        2PX        -0.09089  -0.00260   0.01452   0.00983   0.02422
  13        2PY        -0.16715  -0.00648  -0.00321  -0.00477   0.00491
  14        2PZ         0.00802  -0.07187   0.32644   0.33198   0.19538
  15        3S          0.08020   0.00436  -0.00765  -0.02536  -0.03235
  16        3PX        -0.02473   0.00142   0.01159   0.01855   0.03882
  17        3PY         0.00308   0.00622  -0.00009  -0.01466   0.01882
  18        3PZ         0.00623  -0.03196   0.35531   0.48939   0.37906
  19 3   O  1S          0.06836  -0.00047   0.00059  -0.00002  -0.00268
  20        2S         -0.06936   0.00007  -0.00046   0.00046   0.00161
  21        2PX         0.12127   0.01114  -0.00458   0.00113   0.02032
  22        2PY         0.40447   0.02901   0.00258  -0.00028   0.00080
  23        2PZ        -0.01088   0.31483   0.01370  -0.28599   0.01349
  24        3S         -0.25860   0.00609  -0.00325   0.00066   0.02247
  25        3PX         0.13059   0.01249  -0.00675   0.00202   0.03438
  26        3PY         0.43653   0.03191   0.00326  -0.00002   0.00140
  27        3PZ        -0.01315   0.35344   0.01695  -0.38978   0.02104
  28 4   C  1S         -0.01720  -0.00066  -0.00235   0.00101  -0.00613
  29        2S          0.02180   0.00031   0.00283   0.00135   0.00615
  30        2PX        -0.02762  -0.00149   0.00819  -0.00236   0.00887
  31        2PY        -0.19334  -0.00407  -0.01076   0.00224  -0.00633
  32        2PZ         0.01145  -0.05526  -0.32506   0.31227  -0.22871
  33        3S          0.06912   0.00746   0.00926  -0.01120   0.04678
  34        3PX         0.00574   0.00153   0.00435  -0.00746   0.00693
  35        3PY        -0.01039   0.00746  -0.01033   0.00458  -0.00762
  36        3PZ         0.00794  -0.01401  -0.34828   0.45934  -0.43673
  37 5   C  1S          0.02237   0.00132  -0.00138  -0.00328   0.00014
  38        2S         -0.02276  -0.00149   0.00100   0.00367  -0.00143
  39        2PX         0.10038   0.00511   0.00584   0.00151   0.00443
  40        2PY         0.14873   0.01119   0.00522  -0.00092  -0.00357
  41        2PZ         0.01886  -0.28227  -0.19281  -0.15433   0.34948
  42        3S         -0.14412  -0.01359   0.01160   0.02738   0.01758
  43        3PX         0.11723   0.00976   0.00648   0.00240   0.02720
  44        3PY         0.09243   0.00850   0.00257   0.00802  -0.01674
  45        3PZ         0.01663  -0.29094  -0.21191  -0.25135   0.69794
  46 6   H  1S          0.05378   0.00096   0.00197  -0.00495   0.00213
  47        2S          0.08019   0.00429   0.00325  -0.02043   0.00708
  48 7   H  1S          0.06985   0.00340  -0.00311   0.00160  -0.00177
  49        2S          0.07251   0.00451  -0.00535   0.00000  -0.01813
  50 8   H  1S          0.06179   0.00279   0.00474   0.00003  -0.00018
  51        2S          0.06586   0.00427   0.00790  -0.00389   0.00456
  52 9   H  1S          0.04722   0.00425  -0.00300  -0.00559  -0.01005
  53        2S          0.06905   0.00868  -0.00477  -0.02011  -0.04609
                          21        22        23        24        25
                           V         V         V         V         V
     Eigenvalues --     0.13530   0.14649   0.18717   0.19254   0.20887
   1 1   C  1S          0.04690   0.01741  -0.06947  -0.08601   0.04965
   2        2S         -0.03710   0.00342   0.06547   0.06456  -0.00870
   3        2PX        -0.07544  -0.07262  -0.05220   0.12613   0.09380
   4        2PY        -0.11085  -0.07609  -0.00707   0.11186  -0.11435
   5        2PZ        -0.02044  -0.00143  -0.00135   0.01393   0.01748
   6        3S         -0.49450  -0.40878   0.48842   0.98202  -0.93465
   7        3PX        -0.33876  -0.12386   0.12352   0.71367   0.75639
   8        3PY        -0.34424  -0.17804   0.22390   0.54165  -0.50528
   9        3PZ        -0.05533  -0.00545   0.00558   0.05032   0.04224
  10 2   C  1S         -0.03427   0.10687   0.06745   0.01081   0.08580
  11        2S          0.03023  -0.07722  -0.05125  -0.02323  -0.06783
  12        2PX        -0.20741   0.03454  -0.19039   0.13187   0.17367
  13        2PY        -0.08599   0.13893   0.10662  -0.08410   0.09017
  14        2PZ         0.01801  -0.00330   0.00466  -0.00768  -0.01930
  15        3S          0.10619  -1.12632  -0.88934   0.24131  -0.87457
  16        3PX        -0.36286  -0.07038  -0.83480   0.16602   0.35759
  17        3PY        -0.32941   0.48563   0.46827  -0.22614   0.16345
  18        3PZ         0.03798   0.00167   0.01730  -0.02040  -0.04812
  19 3   O  1S          0.09491  -0.06985  -0.00349   0.00150   0.00034
  20        2S         -0.06620   0.05105   0.00148  -0.00132  -0.00115
  21        2PX        -0.06802   0.04683  -0.01176   0.06312   0.34016
  22        2PY        -0.17722   0.07464   0.00821  -0.02558  -0.09773
  23        2PZ         0.00872  -0.00968  -0.00160   0.00025   0.00015
  24        3S         -0.77684   0.56104   0.03808  -0.00962   0.00382
  25        3PX        -0.11396   0.07815  -0.07572   0.05548   0.64972
  26        3PY        -0.31255   0.11280   0.03102  -0.02768  -0.17875
  27        3PZ         0.01604  -0.01805  -0.00327   0.00076  -0.00070
  28 4   C  1S         -0.02607   0.10002  -0.05816  -0.02073  -0.10050
  29        2S          0.02388  -0.07139   0.04663   0.03127   0.07573
  30        2PX         0.11119   0.09005  -0.20447   0.15080   0.04024
  31        2PY        -0.16890   0.10901   0.02945   0.00803  -0.17329
  32        2PZ         0.00501  -0.00410  -0.00018   0.00611   0.01664
  33        3S          0.01734  -1.08025   0.76598  -0.11183   1.13710
  34        3PX         0.08645   0.45967  -0.91030   0.21683   0.01045
  35        3PY        -0.48469   0.33393   0.11996   0.11789  -0.32100
  36        3PZ         0.01003  -0.00629   0.00022   0.01644   0.04107
  37 5   C  1S          0.04037   0.00992   0.07258   0.09121  -0.04203
  38        2S         -0.03046   0.00952  -0.06508  -0.06825   0.00501
  39        2PX         0.01086   0.05170  -0.03994   0.04943   0.16939
  40        2PY        -0.14820  -0.10885   0.01845  -0.17348   0.01987
  41        2PZ         0.00376  -0.00180  -0.00131  -0.01134  -0.01518
  42        3S         -0.43020  -0.34832  -0.53226  -1.00705   0.80620
  43        3PX         0.04478   0.10489  -0.01369   0.34528   0.99587
  44        3PY        -0.51176  -0.19964  -0.27645  -0.83303  -0.04235
  45        3PZ         0.00273   0.00111  -0.00807  -0.03699  -0.02919
  46 6   H  1S          0.09937   0.02066   0.01411   0.04639   0.04548
  47        2S          0.94983   0.47009   0.47101   1.48960   0.14330
  48 7   H  1S         -0.01867   0.09151  -0.05373  -0.00278   0.03273
  49        2S          0.01898   1.23654  -1.40525   0.36370  -0.58738
  50 8   H  1S         -0.01751   0.07976   0.06036   0.00087  -0.03880
  51        2S          0.01220   1.11584   1.54212  -0.47352   0.24464
  52 9   H  1S          0.10231   0.01409  -0.01493  -0.04915  -0.04047
  53        2S          0.97142   0.45849  -0.42592  -1.48837   0.01952
                          26        27        28        29        30
                           V         V         V         V         V
     Eigenvalues --     0.22065   0.33592   0.40977   0.46076   0.67925
   1 1   C  1S         -0.06617  -0.08107   0.01050   0.12502   0.01689
   2        2S          0.02767   0.03686  -0.01954  -0.01370  -0.05684
   3        2PX         0.20285  -0.08459   0.17533   0.18294  -0.22939
   4        2PY        -0.02658  -0.13288  -0.21136   0.17148   0.47221
   5        2PZ         0.00200  -0.00675  -0.00741   0.00690   0.02381
   6        3S          1.18664   1.41399   0.02476  -3.04123   0.01896
   7        3PX         0.75440  -0.18003   1.02381   2.21905   0.22411
   8        3PY        -0.22163  -1.40094  -1.48623   1.22463  -0.36340
   9        3PZ         0.00267  -0.03338  -0.02868   0.05727  -0.01202
  10 2   C  1S          0.05029   0.07948   0.01929  -0.08244  -0.04340
  11        2S         -0.02491  -0.00620  -0.00666   0.02721  -0.00475
  12        2PX        -0.19331   0.09834  -0.10913  -0.25239  -0.36346
  13        2PY        -0.05201  -0.28048  -0.12802  -0.04871  -0.15651
  14        2PZ         0.00167  -0.01093   0.00167   0.00830   0.01607
  15        3S         -0.92886  -1.33231  -0.83203   1.49184  -0.02318
  16        3PX        -0.72125   0.56143  -0.58782  -0.75523   0.39892
  17        3PY        -0.32475  -1.41150  -1.24341   1.49301   0.31720
  18        3PZ         0.00032  -0.04804  -0.00311   0.03568  -0.01406
  19 3   O  1S          0.06423  -0.04953   0.00376  -0.00816   0.01813
  20        2S         -0.02714   0.02418  -0.00251   0.00273  -0.08926
  21        2PX         0.01862   0.01983  -0.22611  -0.16683  -0.04749
  22        2PY        -0.03917   0.17053   0.04172   0.05188  -0.18904
  23        2PZ         0.01073  -0.00054   0.00286   0.00021   0.00772
  24        3S         -0.68313   0.58428  -0.03951   0.11030   0.33185
  25        3PX         0.00822   0.05444  -0.53672  -0.25840   0.01034
  26        3PY        -0.17023   0.46295   0.09677   0.11767  -0.01150
  27        3PZ         0.02463  -0.00449   0.00430  -0.00253  -0.00273
  28 4   C  1S          0.03331   0.07292  -0.04040   0.09371  -0.04310
  29        2S         -0.01196  -0.00740   0.00858  -0.02372  -0.01032
[...]
     3  O   -0.070626   0.296969   8.072903   0.281084  -0.066955   0.002046
     4  C   -0.127409  -0.146022   0.281084   5.073583   0.470950  -0.030403
     5  C    0.430790  -0.135494  -0.066955   0.470950   5.233691   0.380176
     6  H   -0.028714   0.005356   0.002046  -0.030403   0.380176   0.485168
     7  H    0.002759   0.003585  -0.024992   0.389451  -0.041055  -0.000404
     8  H   -0.040317   0.388864  -0.024336   0.003612   0.003189  -0.000038
     9  H    0.386162  -0.031668   0.001694   0.004396  -0.023893  -0.001114
               7          8          9
     1  C    0.002759  -0.040317   0.386162
     2  C    0.003585   0.388864  -0.031668
     3  O   -0.024992  -0.024336   0.001694
     4  C    0.389451   0.003612   0.004396
     5  C   -0.041055   0.003189  -0.023893
     6  H   -0.000404  -0.000038  -0.001114
     7  H    0.448605  -0.000055  -0.000027
     8  H   -0.000055   0.449191  -0.000294
     9  H   -0.000027  -0.000294   0.471499
 Mulliken charges:
               1
     1  C   -0.239206
     2  C    0.054139
     3  O   -0.467786
     4  C    0.080759
     5  C   -0.251397
     6  H    0.187928
     7  H    0.222133
     8  H    0.220185
     9  H    0.193245
 Sum of Mulliken charges =   0.00000
 Mulliken charges with hydrogens summed into heavy atoms:
               1
     1  C   -0.045961
     2  C    0.274325
     3  O   -0.467786
     4  C    0.302892
     5  C   -0.063470
 Electronic spatial extent (au):  <R**2>=            294.3874
 Charge=              0.0000 electrons
 Dipole moment (field-independent basis, Debye):
    X=              0.2619    Y=              0.7845    Z=             -0.0123  Tot=              0.8272
 Quadrupole moment (field-independent basis, Debye-Ang):
   XX=            -23.4111   YY=            -28.0695   ZZ=            -31.8418
   XY=             -1.2855   XZ=              0.0433   YZ=              0.2103
 Traceless Quadrupole moment (field-independent basis, Debye-Ang):
   XX=              4.3630   YY=             -0.2953   ZZ=             -4.0677
   XY=             -1.2855   XZ=              0.0433   YZ=              0.2103
 Octapole moment (field-independent basis, Debye-Ang**2):
  XXX=             -3.0249  YYY=              0.5760  ZZZ=              0.2722  XYY=              2.6416
  XXY=             -2.6562  XXZ=              0.0388  XZZ=             -0.9877  YZZ=             -3.2517
  YYZ=              0.1359  XYZ=              0.1861
 Hexadecapole moment (field-independent basis, Debye-Ang**3):
 XXXX=           -153.0831 YYYY=           -158.6010 ZZZZ=            -31.0227 XXXY=              3.0073
 XXXZ=              0.1711 YYYX=             -5.6256 YYYZ=              0.4950 ZZZX=             -0.0395
 ZZZY=             -0.0613 XXYY=            -49.5215 XXZZ=            -39.2027 YYZZ=            -35.0493
 XXYZ=              0.3876 YYXZ=              0.0194 ZZXY=              0.9821
 N-N= 1.592162066747D+02 E-N=-8.510068229990D+02  KE= 2.268003781978D+02
 Orbital energies and kinetic energies (alpha):
                                 1                 2
   1         O               -19.111667         28.830434
   2         O               -10.175560         15.803369
   3         O               -10.173952         15.799464
   4         O               -10.127661         15.804412
   5         O               -10.125212         15.807720
   6         O                -1.100945          2.500970
   7         O                -0.803592          1.782480
   8         O                -0.740915          1.723180
   9         O                -0.594374          1.611931
  10         O                -0.583794          1.440242
  11         O                -0.540032          1.289764
  12         O                -0.454014          1.577674
  13         O                -0.433467          1.564076
  14         O                -0.420306          1.404366
  15         O                -0.404647          1.397534
  16         O                -0.359779          2.289939
  17         O                -0.278888          1.563817
  18         O                -0.227356          1.208818
  19         V                 0.008795          1.818314
  20         V                 0.078745          1.496998
  21         V                 0.135296          1.724754
  22         V                 0.146492          1.470033
  23         V                 0.187173          1.219681
  24         V                 0.192545          1.223558
  25         V                 0.208871          2.290528
  26         V                 0.220646          1.464820
  27         V                 0.335918          1.982121
  28         V                 0.409770          1.832112
  29         V                 0.460764          2.567047
  30         V                 0.679252          2.502255
  31         V                 0.702922          2.515671
  32         V                 0.712150          2.761322
  33         V                 0.741372          2.534304
  34         V                 0.772282          2.522389
  35         V                 0.788403          2.554816
  36         V                 0.792250          2.596860
  37         V                 0.798073          2.673728
  38         V                 0.837679          2.598241
  39         V                 0.937827          2.781934
  40         V                 1.001747          3.374391
  41         V                 1.031107          3.096176
  42         V                 1.042305          3.151368
  43         V                 1.179503          2.691343
  44         V                 1.249154          2.922321
  45         V                 1.338753          2.540158
  46         V                 1.380386          2.900746
  47         V                 1.500489          4.928768
  48         V                 1.582838          3.417251
  49         V                 1.611802          3.689282
  50         V                 1.729071          4.424391
  51         V                 1.964222          4.363488
  52         V                 2.105851          3.959092
  53         V                 3.144626          6.806950
 Total kinetic energy from orbitals= 2.268003781978D+02
 No NMR shielding tensors so no spin-rotation constants.
 Leave Link  601 at Tue Dec 15 16:28:56 2015, MaxMem=    33554432 cpu:         0.1
 (Enter /home/Applications/g09/g09/l701.exe)
 Compute integral first derivatives.
 ... and contract with generalized density number  6.
 Leave Link  701 at Tue Dec 15 16:28:56 2015, MaxMem=    33554432 cpu:         0.0
 (Enter /home/Applications/g09/g09/l702.exe)
 L702 exits ... SP integral derivatives will be done elsewhere.
 Leave Link  702 at Tue Dec 15 16:28:56 2015, MaxMem=    33554432 cpu:         0.0
 (Enter /home/Applications/g09/g09/l703.exe)
 Compute integral first derivatives, UseDBF=F ICtDFT=           0.
 Integral derivatives from FoFJK, PRISM(SPDF).
 Calling FoFJK, ICntrl=  10005127 FMM=F ISym2X=0 I1Cent= 0 IOpClX= 0 NMat=1 NMatS=1 NMatT=0.
 FoFJK:  IHMeth= 1 ICntrl=10005127 DoSepK=F KAlg= 0 I1Cent=   0 FoldK=F
 IRaf=         0 NMat=   1 IRICut=       1 DoRegI=T DoRafI=F ISym2E= 0.
 FoFCou: FMM=F IPFlag=           0 FMFlag=      100000 FMFlg1=         800
         NFxFlg=           0 DoJE=F BraDBF=F KetDBF=F FulRan=T
         wScrn=  0.000000 ICntrl=10005127 IOpCl=  0 I1Cent=           0 NGrid=           0
         NMat0=    1 NMatS0=      1 NMatT0=    0 NMatD0=    1 NMtDS0=    0 NMtDT0=    0
 Symmetry not used in FoFCou.
 Leave Link  703 at Tue Dec 15 16:28:57 2015, MaxMem=    33554432 cpu:         1.1
 (Enter /home/Applications/g09/g09/l716.exe)
 Dipole        =-4.13267977D-01 4.78203518D-01 1.60107083D-02
 ***** Axes restored to original set *****
 -------------------------------------------------------------------
 Center     Atomic                   Forces (Hartrees/Bohr)
 Number     Number              X              Y              Z
 -------------------------------------------------------------------
      1        6           0.026229993    0.005672938   -0.000210553
      2        6           0.017151320   -0.013232649   -0.001578094
      3        8          -0.068936893    0.030127934    0.004755969
      4        6          -0.018488895   -0.007775408   -0.000847866
      5        6           0.052084296   -0.010721822   -0.001183064
      6        1           0.005792085    0.002784923   -0.000248798
      7        1          -0.014700690    0.025172244   -0.000248171
      8        1          -0.017784790   -0.027453387   -0.001327339
      9        1           0.018653575   -0.004574773    0.000887916
 -------------------------------------------------------------------
 Cartesian Forces:  Max     0.068936893 RMS     0.021464316
 Z-matrix is all fixed cartesians, so copy forces.
 Force constants in Cartesian coordinates: 
                1             2             3             4             5 
      1  0.866749D+00
      2 -0.640816D-01  0.844463D+00
      3  0.873957D-02 -0.163738D-01  0.202191D+00
      4 -0.442716D+00 -0.913276D-01 -0.147678D-02  0.844263D+00
      5 -0.722808D-01 -0.202640D+00 -0.154876D-03  0.588143D-01  0.869503D+00
      6  0.414297D-03  0.427081D-03 -0.881700D-01 -0.121468D-01  0.911461D-02
      7 -0.828304D-02  0.271471D-01  0.138502D-02 -0.253459D+00  0.131401D+00
      8 -0.625128D-02  0.204784D-01  0.450905D-03  0.171883D+00 -0.311318D+00
      9  0.888149D-05 -0.224624D-03  0.588664D-02  0.126161D-01 -0.967015D-02
     10  0.109946D-01  0.286694D-03 -0.201874D-03  0.225379D-01  0.170929D-01
     11  0.343431D-01  0.874824D-03 -0.889431D-04 -0.170985D-01 -0.129691D-01
     12 -0.748093D-03  0.124237D-03 -0.743425D-04 -0.156273D-02 -0.125544D-02
     13 -0.175208D+00  0.185363D-01 -0.101235D-02  0.103922D-01 -0.340759D-01
     14 -0.368574D-02 -0.440111D+00  0.872748D-02  0.253564D-03 -0.875012D-03
     15 -0.442618D-03  0.763851D-02 -0.899326D-01 -0.159812D-03 -0.243226D-03
     16  0.185608D-01  0.473294D-03  0.208320D-04  0.000000D+00 -0.120445D-05
     17 -0.231621D-01 -0.586056D-03  0.171712D-03  0.000000D+00  0.251657D-05
     18  0.401743D-03  0.507252D-03  0.214913D-01 -0.308149D-04  0.110144D-03
     19  0.000000D+00  0.000000D+00  0.379082D-04  0.171277D-04  0.308390D-05
     20  0.000000D+00  0.162337D-05  0.694390D-04  0.102470D-04  0.184501D-05
     21  0.645106D-04  0.152506D-03  0.652338D-02  0.318599D-03  0.573647D-04
     22  0.820445D-02 -0.268906D-01  0.310205D-03 -0.175277D+00 -0.119825D+00
     23 -0.387105D-02  0.126878D-01 -0.498169D-04 -0.115723D+00 -0.364028D+00
     24 -0.168282D-04  0.101535D-03  0.243271D-01  0.247580D-02  0.189076D-02
     25 -0.278303D+00  0.135855D+00 -0.780254D-02 -0.575825D-02  0.188713D-01
     26  0.138989D+00 -0.235168D+00  0.724793D-02 -0.681079D-02  0.223229D-01
     27 -0.842147D-02  0.764733D-02 -0.822425D-01 -0.335153D-04  0.150812D-03
                6             7             8             9            10 
      6  0.169594D+00
      7  0.121955D-01  0.493581D+00
      8 -0.115882D-01  0.151969D-01  0.620786D+00
      9 -0.399728D-01 -0.310523D-01 -0.889784D-02  0.464799D-01
     10 -0.213845D-02 -0.267556D+00 -0.187218D+00  0.194464D-01  0.876774D+00
     11  0.149713D-02 -0.145652D+00 -0.335376D+00  0.184115D-01 -0.492763D-01
     12 -0.338421D-02  0.176794D-01  0.202541D-01 -0.422824D-01 -0.188404D-01
     13  0.831634D-03 -0.888327D-02  0.669896D-02  0.946043D-04 -0.467508D+00
     14 -0.778891D-04 -0.277573D-01  0.209302D-01  0.691657D-04  0.102386D+00
     15 -0.135992D-03  0.224969D-02 -0.822293D-03  0.735667D-02 -0.326878D-03
     16 -0.524521D-04  0.000000D+00  0.124915D-05  0.218813D-04 -0.579938D-02
     17  0.109593D-03  0.000000D+00  0.144840D-05  0.253715D-04  0.723835D-02
     18  0.479664D-02  0.118450D-03  0.326911D-03  0.572650D-02  0.961694D-05
     19  0.220035D-03  0.225085D-01 -0.170009D-01 -0.536193D-03 -0.169452D+00
     20  0.131640D-03  0.100890D-01 -0.761701D-02 -0.195016D-03  0.109493D+00
     21  0.409295D-02 -0.152813D-02  0.156405D-02  0.567572D-02  0.172712D-02
     22  0.177658D-02  0.220923D-01  0.166876D-01 -0.540398D-03  0.107704D-04
     23  0.559755D-03 -0.104279D-01 -0.787784D-02  0.278507D-03 -0.400477D-05
     24 -0.683059D-01 -0.110768D-02 -0.110060D-02  0.593141D-02  0.271347D-03
     25 -0.110030D-02  0.000000D+00  0.212036D-05 -0.589336D-04 -0.134754D-05
     26 -0.173741D-03  0.234727D-05 -0.730633D-05  0.203073D-03  0.119445D-05
     27  0.214854D-01  0.600868D-04 -0.187032D-03  0.519838D-02  0.531327D-04
               11            12            13            14            15 
     11  0.900111D+00
     12 -0.244131D-01  0.180186D+00
     13  0.825057D-01  0.243289D-02  0.882764D+00
     14 -0.212696D+00  0.202192D-02  0.267340D-01  0.834931D+00
     15  0.306401D-02 -0.939426D-01 -0.235646D-02 -0.124649D-01  0.203253D+00
     16 -0.181098D-01  0.128806D-03 -0.269784D+00 -0.125639D+00  0.100550D-02
     17  0.226017D-01  0.491474D-04 -0.127354D+00 -0.215006D+00  0.143048D-02
     18 -0.141122D-03  0.228174D-01  0.526708D-03  0.104061D-02 -0.799185D-01
     19  0.113289D+00  0.908043D-03  0.871481D-02  0.272121D-01  0.485606D-04
     20 -0.362550D+00  0.314984D-02  0.391161D-02  0.122125D-01  0.224998D-03
     21  0.149606D-02 -0.721785D-01  0.768809D-04  0.504081D-04  0.252845D-01
     22  0.193924D-05  0.138364D-03  0.000000D+00  0.000000D+00 -0.431046D-05
     23  0.000000D+00 -0.514481D-04  0.000000D+00  0.000000D+00  0.253097D-04
     24  0.488570D-04  0.348592D-02 -0.376793D-04  0.134680D-03  0.586514D-02
     25 -0.318566D-05 -0.136265D-03  0.195124D-01  0.496738D-03 -0.136641D-04
     26  0.282373D-05  0.120784D-03  0.230439D-01  0.613544D-03  0.114715D-02
     27  0.125608D-03  0.537284D-02 -0.556234D-03  0.498562D-03  0.221707D-01
               16            17            18            19            20 
     16  0.257025D+00
     17  0.143274D+00  0.192991D+00
     18 -0.117698D-02 -0.155591D-02  0.430192D-01
     19  0.000000D+00  0.000000D+00 -0.565813D-04  0.138211D+00
     20  0.000000D+00  0.000000D+00 -0.103644D-03 -0.123504D+00  0.357951D+00
     21 -0.372046D-04 -0.431390D-04 -0.973673D-02 -0.621772D-03 -0.327726D-02
     22  0.000000D+00  0.000000D+00  0.000000D+00  0.000000D+00  0.000000D+00
     23  0.000000D+00  0.000000D+00  0.000000D+00  0.000000D+00  0.000000D+00
     24  0.000000D+00  0.000000D+00  0.000000D+00  0.000000D+00  0.000000D+00
     25 -0.227299D-05  0.474918D-05  0.207860D-03  0.000000D+00  0.000000D+00
     26  0.201475D-05 -0.420962D-05 -0.184245D-03  0.000000D+00  0.000000D+00
     27  0.896226D-04 -0.187257D-03 -0.819580D-02  0.000000D+00  0.000000D+00
               21            22            23            24            25 
     21  0.403387D-01
     22  0.000000D+00  0.144969D+00
     23  0.000000D+00  0.130026D+00  0.359220D+00
     24  0.000000D+00 -0.168705D-02 -0.723446D-03  0.377016D-01
     25  0.000000D+00  0.000000D+00  0.000000D+00  0.102092D-03  0.264553D+00
     26  0.000000D+00  0.000000D+00 -0.151806D-05 -0.351787D-03 -0.155228D+00
     27  0.000000D+00  0.661821D-05 -0.388601D-04 -0.900526D-02  0.880176D-02
               26            27 
     26  0.212242D+00
     27 -0.800916D-02  0.452162D-01
 Leave Link  716 at Tue Dec 15 16:28:57 2015, MaxMem=    33554432 cpu:         0.0
 (Enter /home/Applications/g09/g09/l103.exe)

 GradGradGradGradGradGradGradGradGradGradGradGradGradGradGradGradGradGrad
 Berny optimization.
 Search for a local minimum.
 Step number   1 out of a maximum of    2
 All quantities printed in internal units (Hartrees-Bohrs-Radians)
 Second derivative matrix not updated -- first step.
 ITU=  0
     Eigenvalues ---    0.01870   0.02548   0.07334   0.07378   0.07823
     Eigenvalues ---    0.08062   0.13005   0.13444   0.15878   0.23126
     Eigenvalues ---    0.25720   0.27289   0.38026   0.45621   0.64498
     Eigenvalues ---    0.84666   1.08315   1.35502   1.37297   1.48264
     Eigenvalues ---    1.54013
 Quadratic step=3.350D-01 exceeds max=3.000D-01 adjusted using Lamda=-1.722D-02.
 Angle between NR and scaled steps=   6.25 degrees.
 Angle between quadratic step and forces=  35.36 degrees.
 Linear search not attempted -- first point.
 TrRot= -0.010640  0.000989  0.003862  0.353408  0.001238 -0.354873
 Variable       Old X    -DE/DX   Delta X   Delta X   Delta X     New X
                                 (Linear)    (Quad)   (Total)
    X1        1.84865   0.02623   0.00000   0.08482   0.07219   1.92083
    Y1       -1.33382   0.00567   0.00000  -0.01903  -0.02087  -1.35469
    Z1       -0.01716  -0.00021   0.00000   0.00738   0.00958  -0.00758
    X2       -0.66924   0.01715   0.00000  -0.01001  -0.02377  -0.69300
    Y2       -2.10202  -0.01323   0.00000  -0.01297  -0.01099  -2.11301
    Z2       -0.01570  -0.00158   0.00000  -0.00275   0.00281  -0.01289
    X3       -2.27508  -0.06894   0.00000  -0.14781  -0.15823  -2.43331
    Y3        0.02699   0.03013   0.00000   0.03812   0.04270   0.06970
    Z3        0.07946   0.00476   0.00000   0.01733   0.02398   0.10344
    X4       -0.69641  -0.01849   0.00000  -0.03304  -0.04066  -0.73707
    Y4        2.12188  -0.00778   0.00000  -0.00072   0.00131   2.12319
    Z4       -0.07278  -0.00085   0.00000  -0.00006   0.00373  -0.06905
    X5        1.78083   0.05208   0.00000   0.07845   0.06963   1.85046
    Y5        1.32855  -0.01072   0.00000  -0.01316  -0.01493   1.31361
    Z5       -0.07873  -0.00118   0.00000  -0.00551  -0.00438  -0.08311
    X6        3.35934   0.00579   0.00000   0.08642   0.07945   3.43879
    Y6        2.59327   0.00278   0.00000  -0.00089  -0.00500   2.58827
    Z6       -0.09037  -0.00025   0.00000  -0.01448  -0.01574  -0.10611
    X7       -1.50081  -0.01470   0.00000  -0.05771  -0.06263  -1.56345
    Y7        3.91432   0.02517   0.00000   0.06125   0.06448   3.97880
    Z7       -0.08719  -0.00025   0.00000  -0.00857  -0.00461  -0.09180
    X8       -1.50365  -0.01778   0.00000  -0.06637  -0.08282  -1.58648
    Y8       -3.87055  -0.02745   0.00000  -0.06757  -0.06430  -3.93484
    Z8       -0.00868  -0.00133   0.00000  -0.03556  -0.02818  -0.03686
    X9        3.36552   0.01865   0.00000   0.16125   0.14686   3.51238
    Y9       -2.61660  -0.00457   0.00000   0.01175   0.00760  -2.60900
    Z9        0.05015   0.00089   0.00000   0.01192   0.01281   0.06295
         Item               Value     Threshold  Converged?
 Maximum Force            0.068937     0.000450     NO 
 RMS     Force            0.021464     0.000300     NO 
 Maximum Displacement     0.158234     0.001800     NO 
 RMS     Displacement     0.057378     0.001200     NO 
 Predicted change in Energy=-1.444324D-02
 GradGradGradGradGradGradGradGradGradGradGradGradGradGradGradGradGradGrad

 Leave Link  103 at Tue Dec 15 16:28:57 2015, MaxMem=    33554432 cpu:         0.0
 (Enter /home/Applications/g09/g09/l9999.exe)
 1\1\GINC-DUSTIN-DESKTOP\Force\RB3LYP-FC\3-21G\C4H4O1\DUSTIN\15-Dec-201
 5\0\\#P B3LYP/3-21G CIS(Singlets,NStates=15) pop(full) force\\FuranDFT
 \\0,1\C,0.978262,-0.705825,-0.009082\C,-0.354144,-1.11234,-0.008307\O,
 -1.203918,0.014285,0.04205\C,-0.368524,1.122852,-0.038515\C,0.942373,0
 .703036,-0.041664\H,1.777688,1.372301,-0.047821\H,-0.794196,2.071371,-
 0.046138\H,-0.795699,-2.048205,-0.004593\H,1.780957,-1.384647,0.026536
 \\Version=ES64L-G09RevD.01\State=1-A\HF=-228.7472491\RMSD=5.576e-09\RM
 SF=2.146e-02\Dipole=0.3417596,0.5319066,0.001042\PG=C01 [X(C4H4O1)]\\@


 CHARLIE BROWN -- WHICH DO YOU THINK LASTS LONGER IN LIFE, THE GOOD THINGS 
                  OR THE BAD THINGS?
 LINUS --         GOOD THINGS LAST EIGHT SECONDS ..
                  BAD THINGS LAST THREE WEEKS
 CHARLIE BROWN -- WHAT ABOUT IN BETWEEN?
 SNOOPY --        IN BETWEEN YOU SHOULD TAKE A NAP ...
 Job cpu time:       0 days  0 hours  0 minutes 46.4 seconds.
 File lengths (MBytes):  RWF=     14 Int=      0 D2E=      0 Chk=      3 Scr=      1
 Normal termination of Gaussian 09 at Tue Dec 15 16:28:57 2015.
