 Entering Gaussian System, Link 0=g09
 Input=FuranAM1_57P9.com
 Output=FuranAM1_57P9.log
 Initial command:
 /home/Applications/g09/g09/l1.exe "/home/Applications/g09/scratch/Gau-9183.inp" -scrdir="/home/Applications/g09/scratch/"
 Entering Link 1 = /home/Applications/g09/g09/l1.exe PID=      9185.
  
 Copyright (c) 1988,1990,1992,1993,1995,1998,2003,2009,2013,
            Gaussian, Inc.  All Rights Reserved.
  
 This is part of the Gaussian(R) 09 program.  It is based on
 the Gaussian(R) 03 system (copyright 2003, Gaussian, Inc.),
 the Gaussian(R) 98 system (copyright 1998, Gaussian, Inc.),
 the Gaussian(R) 94 system (copyright 1995, Gaussian, Inc.),
 the Gaussian 92(TM) system (copyright 1992, Gaussian, Inc.),
 the Gaussian 90(TM) system (copyright 1990, Gaussian, Inc.),
 the Gaussian 88(TM) system (copyright 1988, Gaussian, Inc.),
 the Gaussian 86(TM) system (copyright 1986, Carnegie Mellon
 University), and the Gaussian 82(TM) system (copyright 1983,
 Carnegie Mellon University). Gaussian is a federally registered
 trademark of Gaussian, Inc.
  
 This software contains proprietary and confidential information,
 including trade secrets, belonging to Gaussian, Inc.
  
 This software is provided under written license and may be
 used, copied, transmitted, or stored only in accord with that
 written license.
  
 The following legend is applicable only to US Government
 contracts under FAR:
  
                    RESTRICTED RIGHTS LEGEND
  
 Use, reproduction and disclosure by the US Government is
 subject to restrictions as set forth in subparagraphs (a)
 and (c) of the Commercial Computer Software - Restricted
 Rights clause in FAR 52.227-19.
  
 Gaussian, Inc.
 340 Quinnipiac St., Bldg. 40, Wallingford CT 06492
  
  
 ---------------------------------------------------------------
 Warning -- This program may not be used in any manner that
 competes with the business of Gaussian, Inc. or will provide
 assistance to any competitor of Gaussian, Inc.  The licensee
 of this program is prohibited from giving any competitor of
 Gaussian, Inc. access to this program.  By using this program,
 the user acknowledges that Gaussian, Inc. is engaged in the
 business of creating and licensing software in the field of
 computational chemistry and represents and warrants to the
 licensee that it is not a competitor of Gaussian, Inc. and that
 it will not use this program in any manner prohibited above.
 ---------------------------------------------------------------
  

 Cite this work as:
 Gaussian 09, Revision D.01,
 M. J. Frisch, G. W. Trucks, H. B. Schlegel, G. E. Scuseria, 
 M. A. Robb, J. R. Cheeseman, G. Scalmani, V. Barone, B. Mennucci, 
 G. A. Petersson, H. Nakatsuji, M. Caricato, X. Li, H. P. Hratchian, 
 A. F. Izmaylov, J. Bloino, G. Zheng, J. L. Sonnenberg, M. Hada, 
 M. Ehara, K. Toyota, R. Fukuda, J. Hasegawa, M. Ishida, T. Nakajima, 
 Y. Honda, O. Kitao, H. Nakai, T. Vreven, J. A. Montgomery, Jr., 
 J. E. Peralta, F. Ogliaro, M. Bearpark, J. J. Heyd, E. Brothers, 
 K. N. Kudin, V. N. Staroverov, T. Keith, R. Kobayashi, J. Normand, 
 K. Raghavachari, A. Rendell, J. C. Burant, S. S. Iyengar, J. Tomasi, 
 M. Cossi, N. Rega, J. M. Millam, M. Klene, J. E. Knox, J. B. Cross, 
 V. Bakken, C. Adamo, J. Jaramillo, R. Gomperts, R. E. Stratmann, 
 O. Yazyev, A. J. Austin, R. Cammi, C. Pomelli, J. W. Ochterski, 
 R. L. Martin, K. Morokuma, V. G. Zakrzewski, G. A. Voth, 
 P. Salvador, J. J. Dannenberg, S. Dapprich, A. D. Daniels, 
 O. Farkas, J. B. Foresman, J. V. Ortiz, J. Cioslowski, 
 and D. J. Fox, Gaussian, Inc., Wallingford CT, 2013.
 
 ******************************************
 Gaussian 09:  ES64L-G09RevD.01 24-Apr-2013
                15-Dec-2015 
 ******************************************
 ------------------------------------------------------------
 #P AM1(Input,print) CIS(Singlets,NStates=15) pop(full) force
 ------------------------------------------------------------
 1/10=7,30=1,38=1/1,3;
 2/12=2,17=6,18=5,40=1/2;
 3/5=2,16=1,25=1,41=700000,71=1,135=100,136=1/1,2,8,3;
 4/35=1/1;
 5/5=2,35=1,38=5/2;
 8/6=1,10=1,108=15/1;
 9/15=2,41=15,42=1,48=1,49=10/14;
 10/5=4/2;
 6/7=3,18=1/1;
 7/12=6,13=5,29=1/1,2,3,16;
 1/10=7,30=1/3;
 99//99;
 Leave Link    1 at Tue Dec 15 17:07:21 2015, MaxMem=           0 cpu:         0.0
 (Enter /home/Applications/g09/g09/l101.exe)
 -----------------
 AM1-Reparam Input
 -----------------
 Symbolic Z-matrix:
 Charge =  0 Multiplicity = 1
 6                     0.96923  -0.76499  -0.01612 
 6                    -0.30838  -1.04856  -0.037 
 8                    -1.15391   0.01372   0.00108 
 6                    -0.33806   1.05834   0.01248 
 6                     0.9902    0.76022   0.0084 
 1                     1.78793   1.40813   0.00119 
 1                    -0.81617   2.01209   0.03004 
 1                    -0.87521  -2.04233  -0.00503 
 1                     1.85664  -1.38225   0.01995 
 
 NAtoms=      9 NQM=        9 NQMF=       0 NMMI=      0 NMMIF=      0
                NMic=       0 NMicF=      0.
                    Isotopes and Nuclear Properties:
 (Nuclear quadrupole moments (NQMom) in fm**2, nuclear magnetic moments (NMagM)
  in nuclear magnetons)

  Atom         1           2           3           4           5           6           7           8           9
 IAtWgt=          12          12          16          12          12           1           1           1           1
 AtmWgt=  12.0000000  12.0000000  15.9949146  12.0000000  12.0000000   1.0078250   1.0078250   1.0078250   1.0078250
 NucSpn=           0           0           0           0           0           1           1           1           1
 AtZEff=   0.0000000   0.0000000   0.0000000   0.0000000   0.0000000   0.0000000   0.0000000   0.0000000   0.0000000
 NQMom=    0.0000000   0.0000000   0.0000000   0.0000000   0.0000000   0.0000000   0.0000000   0.0000000   0.0000000
 NMagM=    0.0000000   0.0000000   0.0000000   0.0000000   0.0000000   2.7928460   2.7928460   2.7928460   2.7928460
 AtZNuc=   6.0000000   6.0000000   8.0000000   6.0000000   6.0000000   1.0000000   1.0000000   1.0000000   1.0000000
 Leave Link  101 at Tue Dec 15 17:07:21 2015, MaxMem=    33554432 cpu:         0.1
 (Enter /home/Applications/g09/g09/l103.exe)

 GradGradGradGradGradGradGradGradGradGradGradGradGradGradGradGradGradGrad
 Berny optimization.
 Initialization pass.
 Trust Radius=3.00D-01 FncErr=1.00D-07 GrdErr=1.00D-07
 Number of steps in this run=      2 maximum allowed number of steps=      2.
 GradGradGradGradGradGradGradGradGradGradGradGradGradGradGradGradGradGrad

 Leave Link  103 at Tue Dec 15 17:07:21 2015, MaxMem=    33554432 cpu:         0.0
 (Enter /home/Applications/g09/g09/l202.exe)
                          Input orientation:                          
 ---------------------------------------------------------------------
 Center     Atomic      Atomic             Coordinates (Angstroms)
 Number     Number       Type             X           Y           Z
 ---------------------------------------------------------------------
      1          6           0        0.969233   -0.764988   -0.016116
      2          6           0       -0.308380   -1.048560   -0.036996
      3          8           0       -1.153908    0.013715    0.001083
      4          6           0       -0.338062    1.058342    0.012479
      5          6           0        0.990195    0.760215    0.008397
      6          1           0        1.787934    1.408128    0.001187
      7          1           0       -0.816173    2.012089    0.030039
      8          1           0       -0.875213   -2.042334   -0.005026
      9          1           0        1.856638   -1.382250    0.019950
 ---------------------------------------------------------------------
                    Distance matrix (angstroms):
                    1          2          3          4          5
     1  C    0.000000
     2  C    1.308871   0.000000
     3  O    2.261504   1.358233   0.000000
     4  C    2.243740   2.107692   1.325511   0.000000
     5  C    1.525544   2.227111   2.270351   1.361309   0.000000
     6  H    2.322284   3.229753   3.255583   2.154608   1.027731
     7  H    3.301812   3.103211   2.026919   1.067020   2.197868
     8  H    2.243595   1.144512   2.074860   3.146908   3.366632
     9  H    1.081573   2.191323   3.318503   3.282263   2.311063
                    6          7          8          9
     6  H    0.000000
     7  H    2.673383   0.000000
     8  H    4.358679   4.055004   0.000000
     9  H    2.791287   4.320365   2.810577   0.000000
 Stoichiometry    C4H4O
 Framework group  C1[X(C4H4O)]
 Deg. of freedom    21
 Full point group                 C1      NOp   1
 Largest Abelian subgroup         C1      NOp   1
 Largest concise Abelian subgroup C1      NOp   1
                         Standard orientation:                         
 ---------------------------------------------------------------------
 Center     Atomic      Atomic             Coordinates (Angstroms)
 Number     Number       Type             X           Y           Z
 ---------------------------------------------------------------------
      1          6           0        0.924730    0.802116   -0.001519
      2          6           0        0.978904   -0.505533   -0.017753
      3          8           0       -0.216221   -1.150469    0.005277
      4          6           0       -1.100722   -0.163239    0.001189
      5          6           0       -0.573084    1.091656    0.000874
      6          1           0       -1.070051    1.991082   -0.016060
      7          1           0       -2.123968   -0.465702    0.005121
      8          1           0        1.856634   -1.238558    0.028856
      9          1           0        1.688186    1.566931    0.043121
 ---------------------------------------------------------------------
 Rotational constants (GHZ):      9.5821456      9.1771420      4.6882359
 Leave Link  202 at Tue Dec 15 17:07:21 2015, MaxMem=    33554432 cpu:         0.0
 (Enter /home/Applications/g09/g09/l301.exe)

 Semi-emprical parameters in input format:
 Method=8 CoreType=1 PeptideFC=0.0106250000 RIJScale=0.5404210000
 ****
 H       
 PQN=1 NValence=1 F0ss=0.4980120000 ZetaOverlap=1.0856700000 U=-0.3768230000
 Beta=-0.2268830000 CoreKO=1.0354420000 KON=0,0,0,1.0458670000 KON=1,0,1,1.0589200000
 KON=0,1,1,1.0589200000 KON=2,1,1,1.0697690000 EISol=-0.4188110042 EHeat=0.0830298228
 Alpha=1.4609850000
 GCore=0.0085280000,1.5127750000,2.2676710000
 GCore=0.0003530000,1.4551640000,3.4779940000
 GCore=-0.0011900000,0.5600570000,3.5861320000
 ****
 C       
 PQN=2,2 NValence=4 F0ss=0.4494440000 F0sp=0.4215150000 F0pp=0.3497590000 F2pp=0.1878900000
 G1sp=0.2701540000
 ZetaOverlap=1.8086650000,1.3781170000
 U=-1.7923890000,-1.4557970000
 Beta=-0.5453250000,-0.3063130000 DDN=0,1,0.7474020000 DDN=1,1,0.7268010000
 CoreKO=1.1124280000 KON=0,0,0,1.1723100000 KON=1,0,1,0.8998210000 KON=0,1,1,1.1012040000
 KON=2,1,1,0.7783930000 EISol=-4.4398989268 EHeat=0.2723305520 Alpha=1.2756240000
 DipHyp=1.4947180026
 GCore=0.0007890000,1.2095400000,2.6678360000
 GCore=0.0028980000,1.4001430000,3.2840710000
 GCore=-0.0013790000,1.3017660000,3.8739390000
 GCore=-0.0001030000,1.4001430000,4.6088130000
 ****
 O       
 PQN=2,2 NValence=6 F0ss=0.5310640000 F0sp=0.5321300000 F0pp=0.4958710000 F2pp=0.2543430000
 G1sp=0.4013240000
 ZetaOverlap=2.6354490000,2.5240390000
 U=-3.5951870000,-2.0345890000
 Beta=-1.1573400000,-1.2994290000 DDN=0,1,0.4953610000 DDN=1,1,0.5082060000
 CoreKO=0.8515990000 KON=0,0,0,0.8822960000 KON=1,0,1,0.5019540000 KON=0,1,1,0.8671530000
 KON=2,1,1,0.5515580000 EISol=-11.6164441184 EHeat=0.0949133088 Alpha=2.4031680000
 DipHyp=0.9906650029
 GCore=0.0204720000,1.2640290000,1.6023330000
 GCore=0.0051530000,1.9602000000,2.7307880000
 ****
 
 Standard basis: VSTO-6G (5D, 7F)
 Ernie: Thresh=  0.10000D-02 Tol=  0.10000D-05 Strict=F.
  NNHCO=     0 NNPyr=     0 NCTC=     0               EPep=         0.000000000
    EC=        68.969184311  ECS=         2.483492345   EG=         0.384038913
   EHC=         0.000000000  EAt=       -31.051283842  AtH=         1.516354808
 EPDDG=         0.000000000  ECC=        71.836715568 EAtT=        32.567638650
 There are    24 symmetry adapted cartesian basis functions of A   symmetry.
 There are    24 symmetry adapted basis functions of A   symmetry.
    24 basis functions,   144 primitive gaussians,    24 cartesian basis functions
    13 alpha electrons       13 beta electrons
       nuclear repulsion energy       104.4043542188 Hartrees.
 IExCor=    0 DFT=F Ex=HF Corr=None ExCW=0 ScaHFX=  1.000000
 ScaDFX=  1.000000  1.000000  1.000000  1.000000 ScalE2=  1.000000  1.000000
 IRadAn=      0 IRanWt=     -1 IRanGd=            0 ICorTp=0 IEmpDi=  4
 Integral buffers will be    131072 words long.
 Regular integral format.
 Two-electron integral symmetry is turned off.
 Leave Link  301 at Tue Dec 15 17:07:21 2015, MaxMem=    33554432 cpu:         0.0
 (Enter /home/Applications/g09/g09/l302.exe)
 Do NDO integrals.
 NPDir=0 NMtPBC=     1 NCelOv=     1 NCel=       1 NClECP=     1 NCelD=      1
         NCelK=      1 NCelE2=     1 NClLst=     1 CellRange=     0.0.
 One-electron integrals computed using PRISM.
 NBasis=    24 RedAO= F EigKep=  0.00D+00  NBF=    24
 NBsUse=    24 1.00D-04 EigRej=  0.00D+00 NBFU=    24
 Leave Link  302 at Tue Dec 15 17:07:21 2015, MaxMem=    33554432 cpu:         0.1
 (Enter /home/Applications/g09/g09/l308.exe)
 Leave Link  308 at Tue Dec 15 17:07:21 2015, MaxMem=    33554432 cpu:         0.0
 (Enter /home/Applications/g09/g09/l303.exe)
 DipDrv:  MaxL=1.
 Leave Link  303 at Tue Dec 15 17:07:21 2015, MaxMem=    33554432 cpu:         0.0
 (Enter /home/Applications/g09/g09/l401.exe)
 Simple Huckel Guess.
 JPrj=0 DoOrth=F DoCkMO=F.
 Leave Link  401 at Tue Dec 15 17:07:21 2015, MaxMem=    33554432 cpu:         0.0
 (Enter /home/Applications/g09/g09/l502.exe)
 Closed shell SCF:
 Using DIIS extrapolation, IDIIS=  1040.
 Overlap will be assumed to be unity.
 Two-electron integral symmetry not used.
 Keep J ints in memory in canonical form, NReq=888082.
 IVT=       79475 IEndB=       79475 NGot=    33554432 MDV=    33473473
 LenX=    33473473 LenY=    33472456
 Requested convergence on RMS density matrix=1.00D-08 within 128 cycles.
 Requested convergence on MAX density matrix=1.00D-06.
 Requested convergence on             energy=1.00D-06.
 No special actions if energy rises.
 FoFCou: FMM=F IPFlag=           0 FMFlag=           0 FMFlg1=           0
         NFxFlg=           0 DoJE=F BraDBF=F KetDBF=F FulRan=T
         wScrn=  0.000000 ICntrl=     600 IOpCl=  2 I1Cent=           0 NGrid=           0
         NMat0=    1 NMatS0=     54 NMatT0=    0 NMatD0=    1 NMtDS0=    0 NMtDT0=    0
 Symmetry not used in FoFCou.

 Cycle   1  Pass 1  IDiag  1:
 E=  4.49307596819767    
 DIIS: error= 1.33D-01 at cycle   1 NSaved=   1.
 NSaved= 1 IEnMin= 1 EnMin=  4.49307596819767     IErMin= 1 ErrMin= 1.33D-01
 ErrMax= 1.33D-01  0.00D+00 EMaxC= 1.00D-01 BMatC= 5.25D-01 BMatP= 5.25D-01
 IDIUse=3 WtCom= 0.00D+00 WtEn= 1.00D+00
 Coeff-Com:  0.100D+01
 Coeff-En:   0.100D+01
 Coeff:      0.100D+01
 GapD=    2.000 DampG=2.000 DampE=0.250 DampFc=0.5000 IDamp=-1.
 Damping current iteration by 5.00D-01
 RMSDP=6.56D-02 MaxDP=7.01D-01              OVMax= 0.00D+00

 Cycle   2  Pass 1  IDiag  1:
 E=  3.44679042489240     Delta-E=       -1.046285543305 Rises=F Damp=T
 DIIS: error= 7.43D-02 at cycle   2 NSaved=   2.
 NSaved= 2 IEnMin= 2 EnMin=  3.44679042489240     IErMin= 2 ErrMin= 7.43D-02
 ErrMax= 7.43D-02  0.00D+00 EMaxC= 1.00D-01 BMatC= 1.82D-01 BMatP= 5.25D-01
 IDIUse=3 WtCom= 2.57D-01 WtEn= 7.43D-01
 Coeff-Com: -0.117D+01 0.217D+01
 Coeff-En:   0.000D+00 0.100D+01
 Coeff:     -0.301D+00 0.130D+01
 RMSDP=3.75D-02 MaxDP=3.66D-01 DE=-1.05D+00 OVMax= 0.00D+00

 Cycle   3  Pass 1  IDiag  1:
 E=  2.12887671641333     Delta-E=       -1.317913708479 Rises=F Damp=F
 DIIS: error= 1.55D-02 at cycle   3 NSaved=   3.
 NSaved= 3 IEnMin= 3 EnMin=  2.12887671641333     IErMin= 3 ErrMin= 1.55D-02
 ErrMax= 1.55D-02  0.00D+00 EMaxC= 1.00D-01 BMatC= 1.18D-02 BMatP= 1.82D-01
 IDIUse=3 WtCom= 8.45D-01 WtEn= 1.55D-01
 Coeff-Com:  0.319D+00-0.714D+00 0.140D+01
 Coeff-En:   0.000D+00 0.000D+00 0.100D+01
 Coeff:      0.270D+00-0.604D+00 0.133D+01
 RMSDP=1.04D-02 MaxDP=5.45D-02 DE=-1.32D+00 OVMax= 0.00D+00

 Cycle   4  Pass 1  IDiag  3:
 E=  2.08173322780390     Delta-E=       -0.047143488609 Rises=F Damp=F
 DIIS: error= 4.51D-03 at cycle   4 NSaved=   4.
 NSaved= 4 IEnMin= 4 EnMin=  2.08173322780390     IErMin= 4 ErrMin= 4.51D-03
 ErrMax= 4.51D-03  0.00D+00 EMaxC= 1.00D-01 BMatC= 1.01D-03 BMatP= 1.18D-02
 IDIUse=3 WtCom= 9.55D-01 WtEn= 4.51D-02
 Coeff-Com: -0.674D-01 0.129D+00-0.445D+00 0.138D+01
 Coeff-En:   0.000D+00 0.000D+00 0.000D+00 0.100D+01
 Coeff:     -0.644D-01 0.123D+00-0.424D+00 0.137D+01
 Gap=     0.380 Goal=   None    Shift=    0.000
 RMSDP=3.92D-03 MaxDP=2.03D-02 DE=-4.71D-02 OVMax= 3.81D-02

 Cycle   5  Pass 1  IDiag  3:
 E=  2.07702795524476     Delta-E=       -0.004705272559 Rises=F Damp=F
 DIIS: error= 1.05D-03 at cycle   5 NSaved=   5.
 NSaved= 5 IEnMin= 5 EnMin=  2.07702795524476     IErMin= 5 ErrMin= 1.05D-03
 ErrMax= 1.05D-03  0.00D+00 EMaxC= 1.00D-01 BMatC= 4.11D-05 BMatP= 1.01D-03
 IDIUse=3 WtCom= 9.90D-01 WtEn= 1.05D-02
 Coeff-Com:  0.173D-01-0.309D-01 0.135D+00-0.578D+00 0.146D+01
 Coeff-En:   0.000D+00 0.000D+00 0.000D+00 0.000D+00 0.100D+01
 Coeff:      0.171D-01-0.306D-01 0.133D+00-0.572D+00 0.145D+01
 Gap=     0.380 Goal=   None    Shift=    0.000
 RMSDP=8.85D-04 MaxDP=4.05D-03 DE=-4.71D-03 OVMax= 7.09D-03

 Cycle   6  Pass 1  IDiag  3:
 E=  2.07681473936742     Delta-E=       -0.000213215877 Rises=F Damp=F
 DIIS: error= 1.86D-04 at cycle   6 NSaved=   6.
 NSaved= 6 IEnMin= 6 EnMin=  2.07681473936742     IErMin= 6 ErrMin= 1.86D-04
 ErrMax= 1.86D-04  0.00D+00 EMaxC= 1.00D-01 BMatC= 1.41D-06 BMatP= 4.11D-05
 IDIUse=3 WtCom= 9.98D-01 WtEn= 1.86D-03
 Coeff-Com: -0.106D-02 0.198D-02-0.249D-01 0.131D+00-0.487D+00 0.138D+01
 Coeff-En:   0.000D+00 0.000D+00 0.000D+00 0.000D+00 0.000D+00 0.100D+01
 Coeff:     -0.105D-02 0.198D-02-0.249D-01 0.130D+00-0.486D+00 0.138D+01
 Gap=     0.381 Goal=   None    Shift=    0.000
 RMSDP=1.61D-04 MaxDP=1.04D-03 DE=-2.13D-04 OVMax= 1.16D-03

 Cycle   7  Pass 1  IDiag  3:
 E=  2.07680811588080     Delta-E=       -0.000006623487 Rises=F Damp=F
 DIIS: error= 2.40D-05 at cycle   7 NSaved=   7.
 NSaved= 7 IEnMin= 7 EnMin=  2.07680811588080     IErMin= 7 ErrMin= 2.40D-05
 ErrMax= 2.40D-05  0.00D+00 EMaxC= 1.00D-01 BMatC= 3.12D-08 BMatP= 1.41D-06
 IDIUse=1 WtCom= 1.00D+00 WtEn= 0.00D+00
 Coeff-Com:  0.125D-03-0.202D-03 0.836D-02-0.476D-01 0.193D+00-0.618D+00
 Coeff-Com:  0.146D+01
 Coeff:      0.125D-03-0.202D-03 0.836D-02-0.476D-01 0.193D+00-0.618D+00
 Coeff:      0.146D+01
 Gap=     0.381 Goal=   None    Shift=    0.000
 RMSDP=2.18D-05 MaxDP=1.41D-04 DE=-6.62D-06 OVMax= 1.14D-04

 Cycle   8  Pass 1  IDiag  3:
 E=  2.07680797810946     Delta-E=       -0.000000137771 Rises=F Damp=F
 DIIS: error= 3.13D-06 at cycle   8 NSaved=   8.
 NSaved= 8 IEnMin= 8 EnMin=  2.07680797810946     IErMin= 8 ErrMin= 3.13D-06
 ErrMax= 3.13D-06  0.00D+00 EMaxC= 1.00D-01 BMatC= 6.55D-10 BMatP= 3.12D-08
 IDIUse=1 WtCom= 1.00D+00 WtEn= 0.00D+00
 Coeff-Com: -0.583D-06-0.251D-04-0.135D-02 0.877D-02-0.403D-01 0.138D+00
 Coeff-Com: -0.402D+00 0.130D+01
 Coeff:     -0.583D-06-0.251D-04-0.135D-02 0.877D-02-0.403D-01 0.138D+00
 Coeff:     -0.402D+00 0.130D+01
 Gap=     0.381 Goal=   None    Shift=    0.000
 RMSDP=3.04D-06 MaxDP=2.20D-05 DE=-1.38D-07 OVMax= 1.62D-05

 Cycle   9  Pass 1  IDiag  3:
 E=  2.07680797528418     Delta-E=       -0.000000002825 Rises=F Damp=F
 DIIS: error= 9.69D-07 at cycle   9 NSaved=   9.
 NSaved= 9 IEnMin= 9 EnMin=  2.07680797528418     IErMin= 9 ErrMin= 9.69D-07
 ErrMax= 9.69D-07  0.00D+00 EMaxC= 1.00D-01 BMatC= 2.44D-11 BMatP= 6.55D-10
 IDIUse=1 WtCom= 1.00D+00 WtEn= 0.00D+00
 Coeff-Com:  0.233D-05 0.130D-05 0.131D-03-0.977D-03 0.524D-02-0.185D-01
 Coeff-Com:  0.582D-01-0.305D+00 0.126D+01
 Coeff:      0.233D-05 0.130D-05 0.131D-03-0.977D-03 0.524D-02-0.185D-01
 Coeff:      0.582D-01-0.305D+00 0.126D+01
 Gap=     0.381 Goal=   None    Shift=    0.000
 RMSDP=6.48D-07 MaxDP=4.40D-06 DE=-2.83D-09 OVMax= 4.69D-06

 Cycle  10  Pass 1  IDiag  3:
 E=  2.07680797515522     Delta-E=       -0.000000000129 Rises=F Damp=F
 DIIS: error= 3.24D-07 at cycle  10 NSaved=  10.
 NSaved=10 IEnMin=10 EnMin=  2.07680797515522     IErMin=10 ErrMin= 3.24D-07
 ErrMax= 3.24D-07  0.00D+00 EMaxC= 1.00D-01 BMatC= 2.00D-12 BMatP= 2.44D-11
 IDIUse=1 WtCom= 1.00D+00 WtEn= 0.00D+00
 Coeff-Com:  0.168D-06-0.167D-05-0.302D-04 0.247D-03-0.146D-02 0.512D-02
 Coeff-Com: -0.163D-01 0.101D+00-0.637D+00 0.155D+01
 Coeff:      0.168D-06-0.167D-05-0.302D-04 0.247D-03-0.146D-02 0.512D-02
 Coeff:     -0.163D-01 0.101D+00-0.637D+00 0.155D+01
 Gap=     0.381 Goal=   None    Shift=    0.000
 RMSDP=2.41D-07 MaxDP=1.72D-06 DE=-1.29D-10 OVMax= 1.96D-06

 Cycle  11  Pass 1  IDiag  3:
 E=  2.07680797514294     Delta-E=       -0.000000000012 Rises=F Damp=F
 DIIS: error= 4.48D-08 at cycle  11 NSaved=  11.
 NSaved=11 IEnMin=11 EnMin=  2.07680797514294     IErMin=11 ErrMin= 4.48D-08
 ErrMax= 4.48D-08  0.00D+00 EMaxC= 1.00D-01 BMatC= 6.08D-14 BMatP= 2.00D-12
 IDIUse=1 WtCom= 1.00D+00 WtEn= 0.00D+00
 Coeff-Com: -0.362D-06 0.766D-06 0.101D-05-0.201D-04 0.179D-03-0.631D-03
 Coeff-Com:  0.237D-02-0.219D-01 0.182D+00-0.579D+00 0.142D+01
 Coeff:     -0.362D-06 0.766D-06 0.101D-05-0.201D-04 0.179D-03-0.631D-03
 Coeff:      0.237D-02-0.219D-01 0.182D+00-0.579D+00 0.142D+01
 Gap=     0.381 Goal=   None    Shift=    0.000
 RMSDP=3.94D-08 MaxDP=3.07D-07 DE=-1.23D-11 OVMax= 2.91D-07

 Cycle  12  Pass 1  IDiag  3:
 E=  2.07680797514254     Delta-E=        0.000000000000 Rises=F Damp=F
 DIIS: error= 5.00D-09 at cycle  12 NSaved=  12.
 NSaved=12 IEnMin=12 EnMin=  2.07680797514254     IErMin=12 ErrMin= 5.00D-09
 ErrMax= 5.00D-09  0.00D+00 EMaxC= 1.00D-01 BMatC= 1.61D-15 BMatP= 6.08D-14
 IDIUse=1 WtCom= 1.00D+00 WtEn= 0.00D+00
 Coeff-Com:  0.335D-07-0.598D-07 0.421D-06 0.497D-07-0.235D-04 0.770D-04
 Coeff-Com: -0.390D-03 0.564D-02-0.545D-01 0.184D+00-0.543D+00 0.141D+01
 Coeff:      0.335D-07-0.598D-07 0.421D-06 0.497D-07-0.235D-04 0.770D-04
 Coeff:     -0.390D-03 0.564D-02-0.545D-01 0.184D+00-0.543D+00 0.141D+01
 Gap=     0.381 Goal=   None    Shift=    0.000
 RMSDP=5.95D-09 MaxDP=3.04D-08 DE=-3.98D-13 OVMax= 4.97D-08

 Cycle  13  Pass 2  IDiag  1:
 SCF Done:  E(RAM1) =   2.07680797514     A.U. after   13 cycles
            NFock= 12  Conv=0.59D-08     -V/T= 1.1341
 KE=-1.548674243241D+01 PE=-1.698545457976D+02 EE= 8.301374198628D+01
 Leave Link  502 at Tue Dec 15 17:07:21 2015, MaxMem=    33554432 cpu:         0.0
 (Enter /home/Applications/g09/g09/l801.exe)
 Range of M.O.s used for correlation:     1    24
 NBasis=    24 NAE=    13 NBE=    13 NFC=     0 NFV=     0
 NROrb=     24 NOA=    13 NOB=    13 NVA=    11 NVB=    11
 Leave Link  801 at Tue Dec 15 17:07:21 2015, MaxMem=    33554432 cpu:         0.0
 (Enter /home/Applications/g09/g09/l914.exe)
 RHF ground state
 MDV=    33554432 DFT=F DoStab=F Mixed=F DoRPA=F DoScal=F NonHer=F
 Making orbital integer symmetry assigments:
 Orbital symmetries:
       Occupied  (A) (A) (A) (A) (A) (A) (A) (A) (A) (A) (A) (A)
                 (A)
       Virtual   (A) (A) (A) (A) (A) (A) (A) (A) (A) (A) (A)
    60 initial guesses have been made.
 Convergence on wavefunction:    0.000001000000000
 Davidson Disk Diagonalization:  ConvIn= 1.00D-06 SkipCon=T Conv= 1.00D-06.
 Max sub-space:   240 roots to seek:    60 dimension of matrix:          286
 Iteration     1 Dimension    60 NMult     0 NNew     60
 CISAX will form    60 AO SS matrices at one time.
 NMat=    60 NSing=    60 JSym2X= 0.
 FoFJK:  IHMeth= 8 ICntrl=       0 DoSepK=F KAlg= 0 I1Cent=   0 FoldK=F
 IRaf=         1 NMat= 120 IRICut=       1 DoRegI=T DoRafI=F ISym2E= 0.
 FoFCou: FMM=F IPFlag=           0 FMFlag=      100000 FMFlg1=           0
         NFxFlg=           0 DoJE=F BraDBF=F KetDBF=F FulRan=T
         wScrn=  0.000000 ICntrl=       0 IOpCl=  0 I1Cent=           0 NGrid=           0
         NMat0=  120 NMatS0=     60 NMatT0=    0 NMatD0=  120 NMtDS0=    0 NMtDT0=    0
 Symmetry not used in FoFCou.
 New state      5 was old state      6
 New state      6 was old state      8
 New state      7 was old state      5
 New state      8 was old state      9
 New state      9 was old state      7
 New state     12 was old state     13
 New state     13 was old state     12
 New state     14 was old state     22
 New state     15 was old state     14
 Excitation Energies [eV] at current iteration:
 Root      1 :     5.063157802446383
 Root      2 :     6.190173067076745
 Root      3 :     6.396169866428798
 Root      4 :     6.417761400925642
 Root      5 :     7.434557825597488
 Root      6 :     7.994658428255098
 Root      7 :     8.251439561191162
 Root      8 :     8.584704032148196
 Root      9 :     8.702129385836429
 Root     10 :     9.364708080934710
 Root     11 :     9.375981095927758
 Root     12 :     9.730600238223573
 Root     13 :     9.873698706019463
 Root     14 :    10.213517871496390
 Root     15 :    10.221219064726770
 Root     16 :    10.371078334002330
 Root     17 :    10.631895101469050
 Root     18 :    10.646012610599370
 Root     19 :    10.738174181691020
 Root     20 :    11.008947860357780
 Root     21 :    11.369969801481790
 Root     22 :    11.480855303541350
 Root     23 :    11.672440562807520
 Root     24 :    11.693981427556850
 Root     25 :    12.055258381099130
 Root     26 :    12.154314826144610
 Root     27 :    12.611074350933010
 Root     28 :    12.703624342661170
 Root     29 :    12.809219601279940
 Root     30 :    12.882462142053860
 Root     31 :    12.988952894640440
 Root     32 :    13.032314759355690
 Root     33 :    13.266386786043850
 Root     34 :    13.391454324076560
 Root     35 :    13.494342288136160
 Root     36 :    13.680538320566630
 Root     37 :    13.789506809259440
 Root     38 :    14.040890665957080
 Root     39 :    14.206443804682800
 Root     40 :    14.481386691567060
 Root     41 :    14.590324243205670
 Root     42 :    14.817889733680950
 Root     43 :    14.886808155954140
 Root     44 :    14.954203873219380
 Root     45 :    15.204750229143520
 Root     46 :    15.300080582046780
 Root     47 :    15.382794823911290
 Root     48 :    15.448001078563200
 Root     49 :    15.517643454431540
 Root     50 :    15.567657414832600
 Root     51 :    15.824620313691740
 Root     52 :    16.544912887528690
 Root     53 :    16.705516013169970
 Root     54 :    16.831924384639800
 Root     55 :    16.876365856911450
 Root     56 :    17.049073594357880
 Root     57 :    17.543617974200900
 Root     58 :    17.570066974398250
 Root     59 :    17.910911205805860
 Root     60 :    17.921541460950180
 Iteration     2 Dimension   120 NMult    60 NNew     60
 CISAX will form    60 AO SS matrices at one time.
 NMat=    60 NSing=    60 JSym2X= 0.
 Root      1 not converged, maximum delta is    0.015883896403164
 Root      2 not converged, maximum delta is    0.027906079925869
 Root      3 not converged, maximum delta is    0.057146527008697
 Root      4 not converged, maximum delta is    0.045862397626806
 Root      5 not converged, maximum delta is    0.019375214642173
 Root      6 not converged, maximum delta is    0.020247325810957
 Root      7 not converged, maximum delta is    0.012269310162527
 Root      8 not converged, maximum delta is    0.014414384579804
 Root      9 not converged, maximum delta is    0.022504652891703
 Root     10 not converged, maximum delta is    0.202559945054703
 Root     11 not converged, maximum delta is    0.153179344900884
 Root     12 not converged, maximum delta is    0.040946499970542
 Root     13 not converged, maximum delta is    0.037295348401775
 Root     14 not converged, maximum delta is    0.046054241213011
 Root     15 not converged, maximum delta is    0.043327939584253
 Excitation Energies [eV] at current iteration:
 Root      1 :     4.996276696822890   Change is   -0.066881105623493
 Root      2 :     6.156462065635318   Change is   -0.033711001441426
 Root      3 :     6.374313173428845   Change is   -0.021856692999954
 Root      4 :     6.388414149905601   Change is   -0.029347251020040
 Root      5 :     7.413607400696496   Change is   -0.020950424900992
 Root      6 :     7.974388237406719   Change is   -0.020270190848380
 Root      7 :     8.235868228507865   Change is   -0.015571332683298
 Root      8 :     8.575555684322177   Change is   -0.009148347826018
 Root      9 :     8.670095795001373   Change is   -0.032033590835056
 Root     10 :     9.203714137923486   Change is   -0.160993943011224
 Root     11 :     9.318483960805722   Change is   -0.057497135122037
 Root     12 :     9.666575922935886   Change is   -0.064024315287686
 Root     13 :     9.793717004012850   Change is   -0.079981702006612
 Root     14 :    10.117821016105920   Change is   -0.095696855390471
 Root     15 :    10.185265441738680   Change is   -0.035953622988095
 Root     16 :    10.352376247498000   Change is   -0.018702086504330
 Root     17 :    10.452775760448080   Change is   -0.179119341020969
 Root     18 :    10.505057468546250   Change is   -0.233116713144771
 Root     19 :    10.565871155012200   Change is   -0.080141455587171
 Root     20 :    10.980413721420110   Change is   -0.028534138937670
 Root     21 :    11.216914698659440   Change is   -0.263940604881911
 Root     22 :    11.278068810848150   Change is   -0.091900990633640
 Root     23 :    11.504247961507110   Change is   -0.168192601300407
 Root     24 :    11.566721338456470   Change is   -0.127260089100379
 Root     25 :    11.750390962058360   Change is   -0.304867419040769
 Root     26 :    12.074855563463060   Change is   -0.079459262681553
 Root     27 :    12.373446660220250   Change is   -0.237627690712766
 Root     28 :    12.489138049667960   Change is   -0.214486292993206
 Root     29 :    12.654852478450960   Change is   -0.227609663602895
 Root     30 :    12.683252671635230   Change is   -0.349062087720462
 Root     31 :    12.802333361709940   Change is   -0.186619532930504
 Root     32 :    12.819989075704690   Change is    0.010769474424743
 Root     33 :    13.152855143125440   Change is   -0.113531642918418
 Root     34 :    13.192223698663920   Change is   -0.199230625412642
 Root     35 :    13.317224699321190   Change is   -0.177117588814978
 Root     36 :    13.516530296148820   Change is   -0.164008024417814
 Root     37 :    13.636644578746740   Change is   -0.152862230512704
 Root     38 :    13.902965988088060   Change is   -0.137924677869017
 Root     39 :    14.175513655568380   Change is   -0.030930149114415
 Root     40 :    14.286966462423200   Change is   -0.303357780782467
 Root     41 :    14.324727601344870   Change is   -0.156659090222190
 Root     42 :    14.696700258848990   Change is   -0.121189474831960
 Root     43 :    14.726800207412590   Change is   -0.160007948541548
 Root     44 :    14.745656824795920   Change is   -0.208547048423462
 Root     45 :    15.057237022707700   Change is   -0.147513206435811
 Root     46 :    15.156729655015200   Change is   -0.143350927031578
 Root     47 :    15.207682798905190   Change is   -0.240318279658017
 Root     48 :    15.268753894791240   Change is   -0.114040929120049
 Root     49 :    15.418115161508950   Change is   -0.149542253323643
 Root     50 :    15.466073654744230   Change is   -0.051569799687309
 Root     51 :    15.684444811085870   Change is   -0.140175502605864
 Root     52 :    16.210569821218280   Change is   -0.334343066310413
 Root     53 :    16.471508439349470   Change is   -0.234007573820496
 Root     54 :    16.573052203756000   Change is   -0.258872180883806
 Root     55 :    16.594614743706060   Change is   -0.281751113205393
 Root     56 :    16.842711979786070
 Root     57 :    16.887313566178990   Change is   -0.161760028178889
 Root     58 :    17.020231536520240
 Root     59 :    17.095072600079690
 Root     60 :    17.400723202838910   Change is   -0.142894771361988
 Iteration     3 Dimension   135 NMult   120 NNew     15
 CISAX will form    15 AO SS matrices at one time.
 NMat=    15 NSing=    15 JSym2X= 0.
 Root      1 not converged, maximum delta is    0.001348031842847
 Root      2 not converged, maximum delta is    0.000035646704639
 Root      3 not converged, maximum delta is    0.000082520635215
 Root      4 not converged, maximum delta is    0.000134967033736
 Root      5 not converged, maximum delta is    0.000037390206762
 Root      6 not converged, maximum delta is    0.000067479128895
 Root      7 not converged, maximum delta is    0.000120901336930
 Root      8 not converged, maximum delta is    0.000071802515496
 Root      9 not converged, maximum delta is    0.000672324659140
 Root     10 not converged, maximum delta is    0.001502226476538
 Root     11 not converged, maximum delta is    0.000092557350376
 Root     12 not converged, maximum delta is    0.000147417787379
 Root     13 not converged, maximum delta is    0.002018797075841
 Root     14 not converged, maximum delta is    0.001144533316597
 Root     15 not converged, maximum delta is    0.000351936526108
 Excitation Energies [eV] at current iteration:
 Root      1 :     4.995889713916512   Change is   -0.000386982906378
 Root      2 :     6.156461729727197   Change is   -0.000000335908121
 Root      3 :     6.374312414051896   Change is   -0.000000759376949
 Root      4 :     6.388408918160594   Change is   -0.000005231745007
 Root      5 :     7.413606952947905   Change is   -0.000000447748591
 Root      6 :     7.974387090254949   Change is   -0.000001147151769
 Root      7 :     8.235862444527964   Change is   -0.000005783979901
 Root      8 :     8.575554225086570   Change is   -0.000001459235607
 Root      9 :     8.669975781528974   Change is   -0.000120013472398
 Root     10 :     9.202872450643298   Change is   -0.000841687280188
 Root     11 :     9.318482100128358   Change is   -0.000001860677363
 Root     12 :     9.666572396345714   Change is   -0.000003526590172
 Root     13 :     9.793097012750636   Change is   -0.000619991262215
 Root     14 :    10.117324297566430   Change is   -0.000496718539489
 Root     15 :    10.185241943604640   Change is   -0.000023498134030
 Iteration     4 Dimension   143 NMult   135 NNew      8
 CISAX will form     8 AO SS matrices at one time.
 NMat=     8 NSing=     8 JSym2X= 0.
 Root      1 not converged, maximum delta is    0.000063087503214
 Root      2 not converged, maximum delta is    0.000001005558275
 Root      3 not converged, maximum delta is    0.000004250863241
 Root      4 not converged, maximum delta is    0.000002510001463
 Root      5 not converged, maximum delta is    0.000002293945194
 Root      6 not converged, maximum delta is    0.000002602633280
 Root      7 not converged, maximum delta is    0.000006836824758
 Root      8 not converged, maximum delta is    0.000002845482150
 Root      9 not converged, maximum delta is    0.000026292430347
 Root     10 not converged, maximum delta is    0.000109814934131
 Root     11 not converged, maximum delta is    0.000005032922645
 Root     12 not converged, maximum delta is    0.000005645178201
 Root     13 not converged, maximum delta is    0.000096290838414
 Root     14 not converged, maximum delta is    0.000121506003005
 Root     15 not converged, maximum delta is    0.000022694296521
 Excitation Energies [eV] at current iteration:
 Root      1 :     4.995888312223465   Change is   -0.000001401693048
 Root      2 :     6.156461729372331   Change is   -0.000000000354867
 Root      3 :     6.374312410870854   Change is   -0.000000003181042
 Root      4 :     6.388408915572467   Change is   -0.000000002588127
 Root      5 :     7.413606952070126   Change is   -0.000000000877778
 Root      6 :     7.974387087423663   Change is   -0.000000002831287
 Root      7 :     8.235862436870589   Change is   -0.000000007657374
 Root      8 :     8.575554222929586   Change is   -0.000000002156984
 Root      9 :     8.669975543346665   Change is   -0.000000238182309
 Root     10 :     9.202870289990560   Change is   -0.000002160652738
 Root     11 :     9.318482093260299   Change is   -0.000000006868059
 Root     12 :     9.666572389173821   Change is   -0.000000007171894
 Root     13 :     9.793094858211148   Change is   -0.000002154539487
 Root     14 :    10.117322815436140   Change is   -0.000001482130288
 Root     15 :    10.185241836618260   Change is   -0.000000106986384
 Convergence achieved on expansion vectors.
 ***********************************************************************
 Excited states from <AA,BB:AA,BB> singles matrix:
 ***********************************************************************
 
 1PDM for each excited state written to RWF  633
 Ground to excited state transition densities written to RWF  633
 Ground to excited state transition electric dipole moments (Au):
       state          X           Y           Z        Dip. S.      Osc.
         1        -1.6658      0.3960      0.0107      2.9319      0.3589
         2         0.0044      0.0042     -0.0064      0.0001      0.0000
         3        -0.0492     -0.0003      0.2029      0.0436      0.0068
         4        -0.0161      0.0028     -0.0426      0.0021      0.0003
         5        -0.0067      0.0056      0.0833      0.0070      0.0013
         6         0.0169     -0.0350      0.2281      0.0535      0.0105
         7        -0.0326      0.0197      0.3469      0.1218      0.0246
         8        -0.0002      0.0333      0.0258      0.0018      0.0004
         9         0.3311      0.6415      0.0163      0.5214      0.1108
        10         0.9020     -0.5625     -0.0043      1.1300      0.2548
        11        -0.0275      0.0164     -0.2050      0.0430      0.0098
        12        -0.0037      0.0059      0.4821      0.2325      0.0551
        13         0.0469     -0.3634      0.0386      0.1357      0.0326
        14        -0.4758      0.0256     -0.0263      0.2277      0.0564
        15         0.0272      0.0568     -0.0449      0.0060      0.0015
 Ground to excited state transition velocity dipole moments (Au):
       state          X           Y           Z        Dip. S.      Osc.
         1         0.1586     -0.0421      0.0033      0.0269      0.0978
         2         0.0015      0.0002     -0.0224      0.0005      0.0015
         3         0.0072      0.0007     -0.1637      0.0269      0.0764
         4         0.0051      0.0005      0.0191      0.0004      0.0011
         5         0.0001     -0.0019     -0.0182      0.0003      0.0008
         6        -0.0035      0.0078     -0.0262      0.0008      0.0017
         7         0.0056     -0.0019     -0.0514      0.0027      0.0059
         8        -0.0006     -0.0090     -0.0261      0.0008      0.0016
         9        -0.0790     -0.2187     -0.0016      0.0541      0.1132
        10        -0.1647      0.1037     -0.0003      0.0379      0.0747
        11         0.0061     -0.0022     -0.0107      0.0002      0.0003
        12        -0.0009      0.0004      0.0616      0.0038      0.0071
        13         0.0027      0.0299     -0.0014      0.0009      0.0017
        14         0.0708     -0.0117      0.0073      0.0052      0.0093
        15        -0.0062     -0.0162     -0.0428      0.0021      0.0038
 Ground to excited state transition magnetic dipole moments (Au):
       state          X           Y           Z
         1        -0.0085      0.0043     -0.4620
         2         0.0776      0.1326     -0.0023
         3        -0.1510     -0.0267     -0.0140
         4        -0.0979     -0.9629     -0.0153
         5        -0.1808     -0.6326     -0.0075
         6        -0.9844      0.1258      0.0130
         7        -0.3662      0.1620     -0.0180
         8        -0.0040      0.0244     -0.0017
         9        -0.0453      0.0181      0.0131
        10        -0.0028     -0.0005      0.3950
        11        -0.0138      0.1622     -0.0074
        12         0.2369      0.0941     -0.0017
        13         0.0215      0.0141     -0.1226
        14        -0.0147      0.0147     -0.0095
        15         0.1535      0.3847      0.0096
 Ground to excited state transition velocity quadrupole moments (Au):
       state          XX          YY          ZZ          XY          XZ          YZ
         1         0.1157     -0.1183      0.0060      0.2622      0.0053      0.0072
         2         0.0083     -0.0059      0.0010     -0.0005     -0.1465      0.0216
         3         0.0127      0.0019     -0.0012      0.0152     -0.0477     -0.1465
         4         0.0195      0.0107      0.0009      0.0082     -0.2168      0.0568
         5         0.0030     -0.0050      0.0004     -0.0037      0.3501     -0.1031
         6        -0.0085      0.0125      0.0020     -0.0062     -0.0106      0.1291
         7         0.0065     -0.0033      0.0009      0.0094     -0.0875     -0.1523
         8         0.0136     -0.0159      0.0033     -0.0019     -0.1316     -0.0081
         9         0.1200     -0.3149      0.0162     -0.1628      0.0154      0.0052
        10        -0.2313      0.1725     -0.0321     -0.1897     -0.0084      0.0050
        11         0.0203      0.0085     -0.0085      0.0142     -0.2932      0.0032
        12         0.0229      0.0130      0.0052     -0.0105     -0.1170      0.2024
        13        -0.4617     -0.3258     -0.1024      0.0916     -0.0255      0.0127
        14        -0.0947     -0.0740      0.0058      0.0245     -0.0126     -0.0092
        15         0.0606      0.0392      0.0139     -0.0477     -0.3118      0.1662
 <0|del|b> * <b|rxdel|0> + <0|del|b> * <b|delr+rdel|0>
 Rotatory Strengths (R) in cgs (10**-40 erg-esu-cm/Gauss)
       state          XX          YY          ZZ    R(velocity)    E-M Angle
         1        -1.1792     -4.9577     -5.5743     -3.9037       92.30
         2         0.1852      0.2999      0.1283      0.2045       86.74
         3        -0.2665      4.0148     -0.1316      1.2056       87.28
         4        -0.7283     -0.9883     -2.0147     -1.2437       93.72
         5         2.6302      0.0408      0.6661      1.1124       83.88
         6         1.0713      3.0316      5.8260      3.3096       81.36
         7        -0.0271     -1.7534     -1.5649     -1.1151       93.96
         8        -1.4652      0.0018      1.0778     -0.1285      104.53
         9        -0.3649      3.1968     -3.7083     -0.2921       91.93
        10         0.7928     -0.5556      0.3662      0.2011       89.78
        11        -1.1252      0.1720      0.1951     -0.2527      100.38
        12        -0.6664      0.1391     -0.0398     -0.1890       91.04
        13         1.2046      0.3825     -0.3132      0.4246       80.08
        14        -0.1998     -1.8460     -0.3879     -0.8113      141.05
        15        -9.1201     -4.1799     -1.0403     -4.7801      113.38
 1/2[<0|r|b>*<b|rxdel|0> + (<0|rxdel|b>*<b|r|0>)*]
 Rotatory Strengths (R) in cgs (10**-40 erg-esu-cm/Gauss)
       state          XX          YY          ZZ     R(length)
         1       -10.0150     -1.2091      3.4822     -2.5806
         2        -0.2387     -0.3940     -0.0106     -0.2144
         3        -5.2575     -0.0055      2.0141     -1.0830
         4        -1.1151      1.9295     -0.4601      0.1181
         5        -0.8605      2.5275      0.4432      0.7034
         6        11.7523      3.1125     -2.1015      4.2544
         7        -8.4464     -2.2543      4.4191     -2.0938
         8        -0.0005     -0.5746      0.0315     -0.1812
         9        10.6045     -8.1938     -0.1504      0.7534
        10         1.7704     -0.2069      1.1961      0.9199
        11        -0.2678     -1.8869     -1.0732     -1.0760
        12         0.6234     -0.3953      0.5729      0.2670
        13        -0.7139      3.6130      3.3482      2.0824
        14        -4.9335     -0.2656     -0.1774     -1.7922
        15        -2.9509    -15.4514      0.3033     -6.0330
  1/2[<0|del|b>*<b|r|0> + (<0|r|b>*<b|del|0>)*] (Au)
       state          X           Y           Z        Dip. S.   Osc.(frdel)
         1        -0.2641     -0.0167      0.0000      0.2808      0.1872
         2         0.0000      0.0000      0.0001     -0.0002     -0.0001
         3        -0.0004      0.0000     -0.0332      0.0336      0.0224
         4        -0.0001      0.0000     -0.0008      0.0009      0.0006
         5         0.0000      0.0000     -0.0015      0.0015      0.0010
         6        -0.0001     -0.0003     -0.0060      0.0063      0.0042
         7        -0.0002      0.0000     -0.0178      0.0180      0.0120
         8         0.0000     -0.0003     -0.0007      0.0010      0.0006
         9        -0.0262     -0.1403      0.0000      0.1665      0.1110
        10        -0.1485     -0.0583      0.0000      0.2069      0.1379
        11        -0.0002      0.0000      0.0022     -0.0020     -0.0013
        12         0.0000      0.0000      0.0297     -0.0297     -0.0198
        13         0.0001     -0.0109     -0.0001      0.0108      0.0072
        14        -0.0337     -0.0003     -0.0002      0.0342      0.0228
        15        -0.0002     -0.0009      0.0019     -0.0008     -0.0006

 Excitation energies and oscillator strengths:
 
 Excited State   1:      Singlet-A      4.9959 eV  248.17 nm  f=0.3589  <S**2>=0.000
      13 -> 14         0.69709
 This state for optimization and/or second-order correction.
 Total Energy, E(CIS) =   2.26040350038    
 Copying the excited state density for this state as the 1-particle RhoCI density.
 
 Excited State   2:      Singlet-A      6.1565 eV  201.39 nm  f=0.0000  <S**2>=0.000
      13 -> 15         0.52763
      13 -> 16        -0.34937
      13 -> 17        -0.22891
      13 -> 18         0.19110
 
 Excited State   3:      Singlet-A      6.3743 eV  194.51 nm  f=0.0068  <S**2>=0.000
      13 -> 15         0.38845
      13 -> 16         0.53590
      13 -> 17         0.17901
      13 -> 18         0.12116
 
 Excited State   4:      Singlet-A      6.3884 eV  194.08 nm  f=0.0003  <S**2>=0.000
      12 -> 14         0.69964
 
 Excited State   5:      Singlet-A      7.4136 eV  167.24 nm  f=0.0013  <S**2>=0.000
      13 -> 15        -0.18539
      13 -> 16         0.17501
      13 -> 17        -0.36100
      13 -> 18         0.39542
      13 -> 19        -0.31955
      13 -> 20         0.18280
 
 Excited State   6:      Singlet-A      7.9744 eV  155.48 nm  f=0.0105  <S**2>=0.000
      10 -> 14         0.68205
      11 -> 14        -0.10260
 
 Excited State   7:      Singlet-A      8.2359 eV  150.54 nm  f=0.0246  <S**2>=0.000
      10 -> 14        -0.12279
      13 -> 16        -0.16945
      13 -> 17         0.44457
      13 -> 18         0.47986
 
 Excited State   8:      Singlet-A      8.5756 eV  144.58 nm  f=0.0004  <S**2>=0.000
      13 -> 16         0.10132
      13 -> 17        -0.25523
      13 -> 18         0.19708
      13 -> 19         0.59315
      13 -> 20        -0.12285
 
 Excited State   9:      Singlet-A      8.6700 eV  143.00 nm  f=0.1108  <S**2>=0.000
      10 -> 14         0.10499
      11 -> 14         0.66458
      12 -> 15         0.13773
 
 Excited State  10:      Singlet-A      9.2029 eV  134.72 nm  f=0.2548  <S**2>=0.000
       8 -> 15         0.10250
      10 -> 18         0.11355
      11 -> 14        -0.13516
      12 -> 15         0.43627
      12 -> 16        -0.30236
      12 -> 17        -0.25770
      12 -> 18         0.20899
      12 -> 19        -0.12770
 
 Excited State  11:      Singlet-A      9.3185 eV  133.05 nm  f=0.0098  <S**2>=0.000
      13 -> 19         0.18178
      13 -> 20         0.64697
      13 -> 21         0.16768
 
 Excited State  12:      Singlet-A      9.6666 eV  128.26 nm  f=0.0551  <S**2>=0.000
      13 -> 20        -0.14933
      13 -> 21         0.67309
 
 Excited State  13:      Singlet-A      9.7931 eV  126.60 nm  f=0.0326  <S**2>=0.000
       9 -> 15        -0.10094
      10 -> 18        -0.10699
      11 -> 14        -0.10164
      12 -> 15         0.44995
      12 -> 16         0.40731
      12 -> 17         0.21446
 
 Excited State  14:      Singlet-A     10.1173 eV  122.55 nm  f=0.0564  <S**2>=0.000
       8 -> 16        -0.10748
      10 -> 16         0.21475
      10 -> 17         0.13516
      12 -> 15        -0.14087
      12 -> 16         0.37014
      12 -> 17        -0.14553
      12 -> 18         0.30988
      12 -> 19        -0.32305
 
 Excited State  15:      Singlet-A     10.1852 eV  121.73 nm  f=0.0015  <S**2>=0.000
       7 -> 15        -0.12587
      11 -> 15         0.57739
      11 -> 16         0.31184
      11 -> 18         0.11405
      13 -> 15        -0.11064
 SavETr:  write IOETrn=   770 NScale= 10 NData=  16 NLR=1 NState=   15 LETran=     280.
 The selected state is a singlet
 CISAX will form     1 AO SS matrices at one time.
 NMat=     1 NSing=     1 JSym2X= 0.
 Leave Link  914 at Tue Dec 15 17:07:21 2015, MaxMem=    33554432 cpu:         0.1
 (Enter /home/Applications/g09/g09/l1002.exe)
 Minotr:  Closed shell wavefunction.
          Computing CIS/TD-HF/TD-KS derivatives.
          Using Z-Vector for PSCF gradient.
          Skipping F1 and S1 gradient terms here.
          IDoAtm=111111111
          Direct CPHF calculation.
          Differentiating once with respect to electric field.
                with respect to dipole field.
          Differentiating once with respect to nuclear coordinates.
          Electric field/nuclear overlap derivatives assumed to be zero.
          Requested convergence is 1.0D-10 RMS, and 1.0D-09 maximum.
          NewPWx=T KeepS1=F KeepF1=F KeepIn=T MapXYZ=F SortEE=F KeepMc=T.
          MDV=      33495423 using IRadAn=       0.
 Keep J ints in memory in canonical form, NReq=871704.
 FoFCou: FMM=F IPFlag=           0 FMFlag=           0 FMFlg1=           0
         NFxFlg=           0 DoJE=F BraDBF=F KetDBF=F FulRan=T
         wScrn=  0.000000 ICntrl=     600 IOpCl=  2 I1Cent=           0 NGrid=           0
         NMat0=    1 NMatS0=     54 NMatT0=    0 NMatD0=    1 NMtDS0=    0 NMtDT0=    0
 Symmetry not used in FoFCou.
          Solving linear equations separately, MaxMat=       0.
          There are     1 degrees of freedom in the 1st order CPHF.  IDoFFX=0 NUNeed=     1.
 LinEq1:  Iter=  0 NonCon=     1 RMS=6.87D-03 Max=5.11D-02 NDo=     1
 AX will form     1 AO Fock derivatives at one time.
 LinEq1:  Iter=  1 NonCon=     1 RMS=7.84D-04 Max=2.99D-03 NDo=     1
 LinEq1:  Iter=  2 NonCon=     1 RMS=1.66D-04 Max=1.37D-03 NDo=     1
 LinEq1:  Iter=  3 NonCon=     1 RMS=1.78D-05 Max=5.94D-05 NDo=     1
 LinEq1:  Iter=  4 NonCon=     1 RMS=2.32D-06 Max=7.45D-06 NDo=     1
 LinEq1:  Iter=  5 NonCon=     1 RMS=2.67D-07 Max=9.73D-07 NDo=     1
 LinEq1:  Iter=  6 NonCon=     1 RMS=3.28D-08 Max=1.28D-07 NDo=     1
 LinEq1:  Iter=  7 NonCon=     1 RMS=3.54D-09 Max=1.23D-08 NDo=     1
 LinEq1:  Iter=  8 NonCon=     1 RMS=3.50D-10 Max=1.30D-09 NDo=     1
 LinEq1:  Iter=  9 NonCon=     0 RMS=3.92D-11 Max=1.30D-10 NDo=     1
 Linear equations converged to 1.000D-10 1.000D-09 after     9 iterations.
 End of Minotr F.D. properties file   721 does not exist.
 End of Minotr F.D. properties file   722 does not exist.
 End of Minotr F.D. properties file   788 does not exist.
 Leave Link 1002 at Tue Dec 15 17:07:21 2015, MaxMem=    33554432 cpu:         0.0
 (Enter /home/Applications/g09/g09/l601.exe)
 Copying SCF densities to generalized density rwf, IOpCl= 0 IROHF=0.

 **********************************************************************

            Population analysis using the SCF density.

 **********************************************************************

 Orbital symmetries:
       Occupied  (A) (A) (A) (A) (A) (A) (A) (A) (A) (A) (A) (A)
                 (A)
       Virtual   (A) (A) (A) (A) (A) (A) (A) (A) (A) (A) (A)
 The electronic state is 1-A.
 Alpha  occ. eigenvalues --   -1.94757  -1.18540  -0.95597  -0.82869  -0.77490
 Alpha  occ. eigenvalues --   -0.69091  -0.65100  -0.53306  -0.52786  -0.44964
 Alpha  occ. eigenvalues --   -0.44148  -0.39756  -0.27286
 Alpha virt. eigenvalues --    0.10793   0.17765   0.19117   0.26681   0.27119
 Alpha virt. eigenvalues --    0.29995   0.30955   0.32398   0.36726   0.46071
 Alpha virt. eigenvalues --    0.49525
     Molecular Orbital Coefficients:
                           1         2         3         4         5
                           O         O         O         O         O
     Eigenvalues --    -1.94757  -1.18540  -0.95597  -0.82869  -0.77490
   1 1   C  1S          0.07094   0.46910  -0.24369  -0.28338  -0.21645
   2        1PX        -0.06568  -0.17109  -0.15349  -0.21385   0.09319
   3        1PY        -0.08306  -0.10456   0.17136   0.03089  -0.35157
   4        1PZ         0.00037   0.00047  -0.00259  -0.00187  -0.00211
   5 2   C  1S          0.23084   0.28511  -0.50639   0.09853   0.40266
   6        1PX        -0.23660  -0.09197  -0.05954  -0.24927   0.04718
   7        1PY        -0.08667   0.30726   0.06410  -0.45375  -0.21161
   8        1PZ         0.00509   0.00448  -0.01307   0.00161   0.00835
   9 3   O  1S          0.84540  -0.27774  -0.01680   0.01825  -0.27497
  10        1PX         0.00582   0.03348  -0.23881   0.28664   0.04132
  11        1PY         0.05408   0.16778   0.04921  -0.05345   0.15133
  12        1PZ        -0.00046  -0.00072  -0.00045  -0.00354  -0.00177
  13 4   C  1S          0.24381   0.25809   0.53320  -0.14238   0.37698
  14        1PX         0.19953   0.18606  -0.09129  -0.05023  -0.12834
  15        1PY        -0.17134   0.25589  -0.03838   0.52588  -0.12514
  16        1PZ         0.00068  -0.00062   0.00070  -0.00527   0.00131
  17 5   C  1S          0.06975   0.45384   0.25628   0.29867  -0.21000
  18        1PX         0.03068   0.12866  -0.20458  -0.19477  -0.21642
  19        1PY        -0.09985  -0.15366  -0.09967   0.05674  -0.27533
  20        1PZ         0.00010  -0.00066  -0.00125  -0.00282   0.00120
  21 6   H  1S          0.00448   0.13181   0.12241   0.19810  -0.15852
  22 7   H  1S          0.05174   0.03333   0.26568  -0.07587   0.23614
  23 8   H  1S          0.04677   0.03163  -0.23673   0.05614   0.24078
  24 9   H  1S          0.00325   0.12968  -0.10254  -0.17894  -0.17772
                           6         7         8         9        10
                           O         O         O         O         O
     Eigenvalues --    -0.69091  -0.65100  -0.53306  -0.52786  -0.44964
   1 1   C  1S         -0.19959  -0.01884   0.03825  -0.17594  -0.11903
   2        1PX        -0.23366  -0.01911   0.09342   0.08698  -0.19560
   3        1PY        -0.09744   0.00126  -0.29919  -0.24567  -0.42209
   4        1PZ        -0.02920   0.36420  -0.00180  -0.01219  -0.03914
   5 2   C  1S         -0.11436  -0.02242  -0.04391  -0.13216   0.13350
   6        1PX        -0.44482  -0.02592  -0.25000   0.54445  -0.01270
   7        1PY         0.04195  -0.00574   0.45306   0.19186   0.29590
   8        1PZ        -0.04613   0.57390   0.00268  -0.01164  -0.05665
   9 3   O  1S         -0.20677  -0.01650   0.18509   0.15936  -0.01136
  10        1PX         0.02893   0.00268   0.09118  -0.13834  -0.06414
  11        1PY         0.23071   0.01966  -0.11588  -0.05555   0.02026
  12        1PZ        -0.02148   0.25540   0.00597   0.00536   0.00977
  13 4   C  1S         -0.08252  -0.00209  -0.13886  -0.00720  -0.12981
  14        1PX         0.47061   0.04215  -0.40548   0.43525  -0.07145
  15        1PY        -0.12094  -0.00399   0.38259   0.29758  -0.30770
  16        1PZ        -0.03824   0.58377   0.01327   0.00431   0.08867
  17 5   C  1S         -0.18965  -0.00906  -0.18123   0.06551   0.12115
  18        1PX         0.17561   0.01263  -0.13664  -0.23648  -0.09715
  19        1PY        -0.18775  -0.01699  -0.23682  -0.20102   0.49695
  20        1PZ        -0.02262   0.35495   0.00668  -0.00280   0.01828
  21 6   H  1S         -0.22642  -0.01874  -0.18052  -0.00790   0.37252
  22 7   H  1S         -0.26642  -0.02195   0.11999  -0.28116   0.00709
  23 8   H  1S         -0.25589  -0.01206  -0.29074   0.13904  -0.04491
  24 9   H  1S         -0.22010  -0.00989  -0.07177  -0.15921  -0.34299
                          11        12        13        14        15
                           O         O         O         V         V
     Eigenvalues --    -0.44148  -0.39756  -0.27286   0.10793   0.17765
   1 1   C  1S          0.01949  -0.02502  -0.00272   0.00038  -0.09276
   2        1PX         0.01270   0.57065  -0.00908  -0.00966  -0.10713
   3        1PY         0.05138   0.05524  -0.02198  -0.02230   0.22322
   4        1PZ        -0.25089   0.00479   0.57419   0.68528   0.01414
   5 2   C  1S          0.00006   0.07301   0.00360  -0.00028  -0.16694
   6        1PX         0.00536  -0.29320   0.00620   0.00577  -0.31803
   7        1PY        -0.04568   0.05849   0.00159  -0.00905   0.36967
   8        1PZ        -0.65664  -0.01403  -0.35078  -0.24280  -0.01428
   9 3   O  1S          0.00072  -0.07451   0.00171  -0.00010   0.01167
  10        1PX         0.00803   0.04424  -0.00431  -0.00165  -0.02393
  11        1PY        -0.00605   0.16200  -0.00403  -0.00314   0.08957
  12        1PZ         0.01599  -0.00417  -0.21314  -0.00812  -0.00483
  13 4   C  1S          0.01278   0.07610  -0.00380  -0.00267  -0.02664
  14        1PX         0.00056   0.24370  -0.00191  -0.00149  -0.05030
  15        1PY         0.03169  -0.00206  -0.00405  -0.00169   0.02940
  16        1PZ         0.67323   0.01266  -0.30722   0.21138   0.00420
  17 5   C  1S         -0.00965  -0.06941   0.00631  -0.00190  -0.10393
  18        1PX         0.02423  -0.50155  -0.00176   0.00237  -0.12902
  19        1PY        -0.05276   0.18572   0.00612  -0.00495   0.02785
  20        1PZ         0.19782   0.00445   0.63768  -0.65246  -0.00647
  21 6   H  1S         -0.04386   0.23514   0.00244   0.00562  -0.02808
  22 7   H  1S          0.00481  -0.12370  -0.00085  -0.00047  -0.04311
  23 8   H  1S          0.00750  -0.16387  -0.00335  -0.01094   0.78753
  24 9   H  1S          0.03481   0.29714  -0.00273   0.00821  -0.00511
                          16        17        18        19        20
                           V         V         V         V         V
     Eigenvalues --     0.19117   0.26681   0.27119   0.29995   0.30955
   1 1   C  1S         -0.12054  -0.16345  -0.02752  -0.19599   0.63048
   2        1PX         0.13018   0.39376  -0.34404   0.34755   0.12448
   3        1PY         0.01435   0.00432   0.49634   0.41508   0.08648
   4        1PZ         0.00523   0.00919   0.01272   0.01627   0.00855
   5 2   C  1S         -0.03019   0.01643   0.42436   0.28223  -0.19736
   6        1PX         0.03565  -0.04385   0.19433  -0.00299  -0.06305
   7        1PY         0.06156   0.06448   0.21025   0.19830  -0.19747
   8        1PZ        -0.00303  -0.00219  -0.00012  -0.00024   0.00005
   9 3   O  1S          0.01933   0.02770   0.03882  -0.00467  -0.01922
  10        1PX         0.06017   0.03064  -0.01270  -0.02779   0.01320
  11        1PY         0.10655   0.03029   0.06191  -0.01496  -0.06570
  12        1PZ         0.00073  -0.00203   0.00307  -0.00379  -0.00843
  13 4   C  1S         -0.10402   0.44427   0.17057  -0.27583   0.05939
  14        1PX         0.40098  -0.15867   0.01170  -0.02392   0.07510
  15        1PY         0.28006   0.23656   0.14861  -0.20436   0.03477
  16        1PZ        -0.00181   0.00062  -0.00117   0.00224   0.00220
  17 5   C  1S         -0.13811   0.00923  -0.26724   0.33409  -0.21730
  18        1PX         0.22911   0.50745  -0.25963   0.08356  -0.17498
  19        1PY         0.26804   0.31300   0.25073  -0.37035   0.00716
  20        1PZ        -0.00169  -0.00335  -0.00308  -0.00362  -0.00044
  21 6   H  1S         -0.03130  -0.06746  -0.20553   0.09882   0.10559
  22 7   H  1S          0.74040  -0.33876  -0.08029   0.09547   0.01733
  23 8   H  1S          0.02831   0.03230  -0.22739  -0.05349   0.04859
  24 9   H  1S         -0.05941  -0.23391  -0.11576  -0.39024  -0.62491
                          21        22        23        24
                           V         V         V         V
     Eigenvalues --     0.32398   0.36726   0.46071   0.49525
   1 1   C  1S         -0.08849   0.00620   0.07197  -0.03180
   2        1PX        -0.11699   0.00517   0.02345  -0.02371
   3        1PY         0.07931   0.00038   0.00217   0.03985
   4        1PZ        -0.00164   0.04137  -0.00035   0.00123
   5 2   C  1S          0.04452  -0.00190  -0.16181  -0.15848
   6        1PX         0.07625  -0.00412   0.22091   0.15243
   7        1PY         0.04464  -0.00410  -0.04349   0.18780
   8        1PZ        -0.00201  -0.22642  -0.00142  -0.00326
   9 3   O  1S          0.02411  -0.00064   0.14049  -0.00857
  10        1PX         0.02551   0.01205   0.18591   0.88425
  11        1PY         0.09283   0.01224   0.87853  -0.18616
  12        1PZ         0.00869   0.94226  -0.01539  -0.00890
  13 4   C  1S          0.06414  -0.00078  -0.15695   0.17871
  14        1PX        -0.04458  -0.00229  -0.22718   0.09048
  15        1PY         0.11081  -0.00586   0.00907  -0.23129
  16        1PZ        -0.00378  -0.23903   0.00237   0.00233
  17 5   C  1S         -0.47959   0.00599   0.08044   0.02512
  18        1PX         0.23442  -0.00345  -0.03131  -0.03323
  19        1PY        -0.29928   0.00133   0.00752  -0.02900
  20        1PZ         0.00823   0.03819  -0.00115  -0.00034
  21 6   H  1S          0.74197  -0.00571  -0.05401   0.00407
  22 7   H  1S         -0.04044  -0.00066  -0.03656   0.01343
  23 8   H  1S         -0.03391   0.00263  -0.02927  -0.01022
  24 9   H  1S          0.07863  -0.00695  -0.04566  -0.00181
     Density Matrix:
                           1         2         3         4         5
   1 1   C  1S          0.99883
   2        1PX         0.07491   1.09391
   3        1PY         0.14353   0.09206   1.03090
   4        1PZ         0.00199   0.00224  -0.00347   1.05572
   5 2   C  1S          0.37108   0.11461  -0.53989  -0.01092   1.23797
   6        1PX         0.01572   0.12346  -0.06313  -0.00188  -0.17772
   7        1PY         0.46896   0.08964  -0.52879  -0.00830  -0.20184
   8        1PZ        -0.00163  -0.00338  -0.00327   0.35199  -0.00692
   9 3   O  1S          0.02392   0.00904  -0.04109  -0.00116   0.00686
  10        1PX         0.02568   0.00140  -0.03333  -0.00020   0.36453
  11        1PY         0.01059   0.00846  -0.08484   0.00050   0.18239
  12        1PZ        -0.00056  -0.00035   0.00203  -0.06644  -0.01030
  13 4   C  1S         -0.01310  -0.00340   0.03657   0.00068   0.00475
  14        1PX        -0.03737   0.02027   0.00835   0.00104   0.00497
  15        1PY         0.03819  -0.00270  -0.00636  -0.00209  -0.05836
  16        1PZ         0.00052   0.00364   0.00711  -0.27014   0.00293
  17 5   C  1S          0.24577  -0.47048   0.14943   0.00439  -0.01418
  18        1PX         0.48021  -0.62527   0.23096  -0.00333   0.01665
  19        1PY        -0.02420   0.04599   0.08400   0.00197   0.03416
  20        1PZ        -0.00211  -0.00883  -0.02129   0.89157   0.00090
  21 6   H  1S         -0.00112  -0.00463   0.00021  -0.00227   0.06902
  22 7   H  1S          0.06988  -0.06826   0.00385  -0.00116   0.05855
  23 8   H  1S          0.06628  -0.00273  -0.08512  -0.00179   0.49626
  24 9   H  1S          0.55737   0.56645   0.54121   0.02095   0.05188
                           6         7         8         9        10
   6        1PX         1.55202
   7        1PY         0.08619   1.38725
   8        1PZ        -0.00614   0.00641   1.77910
   9 3   O  1S         -0.07220  -0.02336   0.00068   1.95286
  10        1PX        -0.36587  -0.29026   0.01084  -0.04053   0.35301
  11        1PY        -0.32583   0.00879   0.00902  -0.26987  -0.01040
  12        1PZ         0.01046   0.00943   0.42254   0.00455  -0.00182
  13 4   C  1S         -0.02591  -0.05022  -0.00021   0.01056  -0.28950
  14        1PX         0.00987  -0.00730  -0.00171   0.06375  -0.11717
  15        1PY         0.01446   0.02326  -0.00100  -0.04859   0.34486
  16        1PZ        -0.00199  -0.00095  -0.00548  -0.00057   0.00206
  17 5   C  1S          0.05302   0.02709  -0.00340   0.02373  -0.02141
  18        1PX         0.01360  -0.00249   0.00015  -0.02283  -0.00363
  19        1PY        -0.02148  -0.01149   0.00051  -0.03919  -0.00081
  20        1PZ         0.00403  -0.00423  -0.29972   0.00043  -0.00264
  21 6   H  1S         -0.01840   0.04983   0.00170   0.00601  -0.02076
  22 7   H  1S         -0.05773  -0.01748   0.00110   0.01139  -0.07567
  23 8   H  1S          0.61729  -0.44973   0.01831   0.00744   0.05286
  24 9   H  1S         -0.04709  -0.01231  -0.00067   0.00570   0.02947
                          11        12        13        14        15
  11        1PY         0.31218
  12        1PZ        -0.00177   0.22313
  13 4   C  1S          0.30886  -0.00179   1.24340
  14        1PX         0.38205  -0.00102   0.09768   1.48674
  15        1PY        -0.22170   0.00420  -0.24664  -0.10923   1.46758
  16        1PZ         0.00467   0.45418   0.00183   0.00173   0.00138
  17 5   C  1S          0.01891  -0.00031   0.33660   0.14738   0.42671
  18        1PX        -0.04558   0.00066  -0.28266   0.01336  -0.30412
  19        1PY        -0.09075  -0.00076  -0.46046  -0.15552  -0.47347
  20        1PZ        -0.00273  -0.08284  -0.00334  -0.00189  -0.00135
  21 6   H  1S          0.01690  -0.00035   0.05045   0.03541  -0.01639
  22 7   H  1S         -0.03770  -0.00029   0.51965  -0.72442  -0.17440
  23 8   H  1S         -0.06234   0.00389   0.06020   0.04774  -0.03180
  24 9   H  1S          0.01347  -0.00327   0.06991   0.03738   0.04512
                          16        17        18        19        20
  16        1PZ         1.79625
  17 5   C  1S         -0.00127   1.00527
  18        1PX         0.00050  -0.01194   1.02259
  19        1PY         0.00314   0.17178  -0.09982   1.07769
  20        1PZ         0.29423   0.00399   0.00076   0.00059   1.14538
  21 6   H  1S         -0.00044   0.57703  -0.36175   0.68056  -0.00594
  22 7   H  1S          0.00246   0.06906  -0.04061  -0.09460  -0.00008
  23 8   H  1S         -0.00125   0.07886   0.07879  -0.02612  -0.00523
  24 9   H  1S         -0.00163  -0.00289   0.00978   0.00425   0.00393
                          21        22        23        24
  21 6   H  1S          0.75402
  22 7   H  1S         -0.00136   0.63235
  23 8   H  1S          0.00460   0.01526   0.63756
  24 9   H  1S          0.00417   0.00970  -0.00431   0.75428
    Full Mulliken population analysis:
                           1         2         3         4         5
   1 1   C  1S          0.99883
   2        1PX         0.00000   1.09391
   3        1PY         0.00000   0.00000   1.03090
   4        1PZ         0.00000   0.00000   0.00000   1.05572
   5 2   C  1S          0.00000   0.00000   0.00000   0.00000   1.23797
   6        1PX         0.00000   0.00000   0.00000   0.00000   0.00000
   7        1PY         0.00000   0.00000   0.00000   0.00000   0.00000
   8        1PZ         0.00000   0.00000   0.00000   0.00000   0.00000
   9 3   O  1S          0.00000   0.00000   0.00000   0.00000   0.00000
  10        1PX         0.00000   0.00000   0.00000   0.00000   0.00000
  11        1PY         0.00000   0.00000   0.00000   0.00000   0.00000
  12        1PZ         0.00000   0.00000   0.00000   0.00000   0.00000
  13 4   C  1S          0.00000   0.00000   0.00000   0.00000   0.00000
  14        1PX         0.00000   0.00000   0.00000   0.00000   0.00000
  15        1PY         0.00000   0.00000   0.00000   0.00000   0.00000
  16        1PZ         0.00000   0.00000   0.00000   0.00000   0.00000
  17 5   C  1S          0.00000   0.00000   0.00000   0.00000   0.00000
  18        1PX         0.00000   0.00000   0.00000   0.00000   0.00000
  19        1PY         0.00000   0.00000   0.00000   0.00000   0.00000
  20        1PZ         0.00000   0.00000   0.00000   0.00000   0.00000
  21 6   H  1S          0.00000   0.00000   0.00000   0.00000   0.00000
  22 7   H  1S          0.00000   0.00000   0.00000   0.00000   0.00000
  23 8   H  1S          0.00000   0.00000   0.00000   0.00000   0.00000
  24 9   H  1S          0.00000   0.00000   0.00000   0.00000   0.00000
                           6         7         8         9        10
   6        1PX         1.55202
   7        1PY         0.00000   1.38725
   8        1PZ         0.00000   0.00000   1.77910
   9 3   O  1S          0.00000   0.00000   0.00000   1.95286
  10        1PX         0.00000   0.00000   0.00000   0.00000   0.35301
  11        1PY         0.00000   0.00000   0.00000   0.00000   0.00000
  12        1PZ         0.00000   0.00000   0.00000   0.00000   0.00000
  13 4   C  1S          0.00000   0.00000   0.00000   0.00000   0.00000
  14        1PX         0.00000   0.00000   0.00000   0.00000   0.00000
  15        1PY         0.00000   0.00000   0.00000   0.00000   0.00000
  16        1PZ         0.00000   0.00000   0.00000   0.00000   0.00000
  17 5   C  1S          0.00000   0.00000   0.00000   0.00000   0.00000
  18        1PX         0.00000   0.00000   0.00000   0.00000   0.00000
  19        1PY         0.00000   0.00000   0.00000   0.00000   0.00000
  20        1PZ         0.00000   0.00000   0.00000   0.00000   0.00000
  21 6   H  1S          0.00000   0.00000   0.00000   0.00000   0.00000
  22 7   H  1S          0.00000   0.00000   0.00000   0.00000   0.00000
  23 8   H  1S          0.00000   0.00000   0.00000   0.00000   0.00000
  24 9   H  1S          0.00000   0.00000   0.00000   0.00000   0.00000
                          11        12        13        14        15
  11        1PY         0.31218
  12        1PZ         0.00000   0.22313
  13 4   C  1S          0.00000   0.00000   1.24340
  14        1PX         0.00000   0.00000   0.00000   1.48674
  15        1PY         0.00000   0.00000   0.00000   0.00000   1.46758
  16        1PZ         0.00000   0.00000   0.00000   0.00000   0.00000
  17 5   C  1S          0.00000   0.00000   0.00000   0.00000   0.00000
  18        1PX         0.00000   0.00000   0.00000   0.00000   0.00000
  19        1PY         0.00000   0.00000   0.00000   0.00000   0.00000
  20        1PZ         0.00000   0.00000   0.00000   0.00000   0.00000
  21 6   H  1S          0.00000   0.00000   0.00000   0.00000   0.00000
  22 7   H  1S          0.00000   0.00000   0.00000   0.00000   0.00000
  23 8   H  1S          0.00000   0.00000   0.00000   0.00000   0.00000
  24 9   H  1S          0.00000   0.00000   0.00000   0.00000   0.00000
                          16        17        18        19        20
  16        1PZ         1.79625
  17 5   C  1S          0.00000   1.00527
  18        1PX         0.00000   0.00000   1.02259
  19        1PY         0.00000   0.00000   0.00000   1.07769
  20        1PZ         0.00000   0.00000   0.00000   0.00000   1.14538
  21 6   H  1S          0.00000   0.00000   0.00000   0.00000   0.00000
  22 7   H  1S          0.00000   0.00000   0.00000   0.00000   0.00000
  23 8   H  1S          0.00000   0.00000   0.00000   0.00000   0.00000
  24 9   H  1S          0.00000   0.00000   0.00000   0.00000   0.00000
                          21        22        23        24
  21 6   H  1S          0.75402
  22 7   H  1S          0.00000   0.63235
  23 8   H  1S          0.00000   0.00000   0.63756
  24 9   H  1S          0.00000   0.00000   0.00000   0.75428
     Gross orbital populations:
                           1
   1 1   C  1S          0.99883
   2        1PX         1.09391
   3        1PY         1.03090
   4        1PZ         1.05572
   5 2   C  1S          1.23797
   6        1PX         1.55202
   7        1PY         1.38725
   8        1PZ         1.77910
   9 3   O  1S          1.95286
  10        1PX         0.35301
  11        1PY         0.31218
  12        1PZ         0.22313
  13 4   C  1S          1.24340
  14        1PX         1.48674
  15        1PY         1.46758
  16        1PZ         1.79625
  17 5   C  1S          1.00527
  18        1PX         1.02259
  19        1PY         1.07769
  20        1PZ         1.14538
  21 6   H  1S          0.75402
  22 7   H  1S          0.63235
  23 8   H  1S          0.63756
  24 9   H  1S          0.75428
          Condensed to atoms (all electrons):
               1          2          3          4          5          6
     1  C    4.179366   0.000000   0.000000   0.000000   0.000000   0.000000
     2  C    0.000000   5.956338   0.000000   0.000000   0.000000   0.000000
     3  O    0.000000   0.000000   2.841182   0.000000   0.000000   0.000000
     4  C    0.000000   0.000000   0.000000   5.993967   0.000000   0.000000
     5  C    0.000000   0.000000   0.000000   0.000000   4.250927   0.000000
     6  H    0.000000   0.000000   0.000000   0.000000   0.000000   0.754023
     7  H    0.000000   0.000000   0.000000   0.000000   0.000000   0.000000
     8  H    0.000000   0.000000   0.000000   0.000000   0.000000   0.000000
     9  H    0.000000   0.000000   0.000000   0.000000   0.000000   0.000000
               7          8          9
     1  C    0.000000   0.000000   0.000000
     2  C    0.000000   0.000000   0.000000
     3  O    0.000000   0.000000   0.000000
     4  C    0.000000   0.000000   0.000000
     5  C    0.000000   0.000000   0.000000
     6  H    0.000000   0.000000   0.000000
     7  H    0.632354   0.000000   0.000000
     8  H    0.000000   0.637562   0.000000
     9  H    0.000000   0.000000   0.754279
 Mulliken charges:
               1
     1  C   -0.179366
     2  C   -1.956338
     3  O    3.158818
     4  C   -1.993967
     5  C   -0.250927
     6  H    0.245977
     7  H    0.367646
     8  H    0.362438
     9  H    0.245721
 Sum of Mulliken charges =   0.00000
 Mulliken charges with hydrogens summed into heavy atoms:
               1
     1  C    0.066355
     2  C   -1.593901
     3  O    3.158818
     4  C   -1.626322
     5  C   -0.004950
 Charge=              0.0000 electrons
 Dipole moment (field-independent basis, Debye):
    X=             -1.6664    Y=            -10.7397    Z=              0.3121  Tot=             10.8727
 N-N= 1.044043542188D+02 E-N=-1.698545458178D+02  KE=-1.548674243241D+01
 Orbital energies and kinetic energies (alpha):
                                 1                 2
   1         O                -1.947569         -1.400486
   2         O                -1.185397         -1.063877
   3         O                -0.955972         -0.870658
   4         O                -0.828687         -0.606833
   5         O                -0.774897         -0.663425
   6         O                -0.690915         -0.558985
   7         O                -0.651001         -0.518945
   8         O                -0.533062         -0.348493
   9         O                -0.527862         -0.347819
  10         O                -0.449640         -0.425459
  11         O                -0.441479         -0.326476
  12         O                -0.397560         -0.348013
  13         O                -0.272861         -0.263902
  14         V                 0.107932         -0.179366
  15         V                 0.177651         -0.193966
  16         V                 0.191171         -0.172568
  17         V                 0.266809         -0.111557
  18         V                 0.271186         -0.099666
  19         V                 0.299950         -0.098910
  20         V                 0.309553         -0.165632
  21         V                 0.323979         -0.163398
  22         V                 0.367264          0.493389
  23         V                 0.460713          0.525806
  24         V                 0.495246          0.591427
 Total kinetic energy from orbitals=-1.548674243241D+01
 Leave Link  601 at Tue Dec 15 17:07:21 2015, MaxMem=    33554432 cpu:         0.0
 (Enter /home/Applications/g09/g09/l701.exe)
 Compute integral first derivatives.
 ... and contract with generalized density number  6.
 Leave Link  701 at Tue Dec 15 17:07:22 2015, MaxMem=    33554432 cpu:         0.0
 (Enter /home/Applications/g09/g09/l702.exe)
 L702 exits ... SP integral derivatives will be done elsewhere.
 Leave Link  702 at Tue Dec 15 17:07:22 2015, MaxMem=    33554432 cpu:         0.0
 (Enter /home/Applications/g09/g09/l703.exe)
 Compute integral first derivatives, UseDBF=F ICtDFT=           0.
 Integral derivatives from FoFJK, PRISM(SPDF).
 Calling FoFJK, ICntrl=  10005127 FMM=F ISym2X=0 I1Cent= 0 IOpClX= 0 NMat=1 NMatS=1 NMatT=0.
 FoFJK:  IHMeth= 8 ICntrl=10005127 DoSepK=F KAlg= 0 I1Cent=   0 FoldK=F
 IRaf=         0 NMat=   1 IRICut=       1 DoRegI=T DoRafI=F ISym2E= 0.
 FoFCou: FMM=F IPFlag=           0 FMFlag=      100000 FMFlg1=         800
         NFxFlg=           0 DoJE=F BraDBF=F KetDBF=F FulRan=T
         wScrn=  0.000000 ICntrl=10005127 IOpCl=  0 I1Cent=           0 NGrid=           0
         NMat0=    1 NMatS0=      1 NMatT0=    0 NMatD0=    1 NMtDS0=    0 NMtDT0=    0
 Symmetry not used in FoFCou.
 Leave Link  703 at Tue Dec 15 17:07:22 2015, MaxMem=    33554432 cpu:         0.0
 (Enter /home/Applications/g09/g09/l716.exe)
 Dipole        =-7.34888634D-01-4.54705177D+00 1.22806011D-01
 ***** Axes restored to original set *****
 -------------------------------------------------------------------
 Center     Atomic                   Forces (Hartrees/Bohr)
 Number     Number              X              Y              Z
 -------------------------------------------------------------------
      1        6           0.228917553    0.030303157    0.002193620
      2        6          -0.349020233   -0.154814998   -0.001869825
      3        8           0.097733357   -0.023308396   -0.005430047
      4        6          -0.246669168    0.111242754    0.006357346
      5        6           0.121649275   -0.045943972   -0.001356116
      6        1           0.091054405    0.067715035   -0.000896738
      7        1          -0.010421395    0.092654738    0.001161410
      8        1           0.013826041   -0.039400747   -0.001985789
      9        1           0.052930165   -0.038447570    0.001826139
 -------------------------------------------------------------------
 Cartesian Forces:  Max     0.349020233 RMS     0.110052523
 Z-matrix is all fixed cartesians, so copy forces.
 Force constants in Cartesian coordinates: 
                1             2             3             4             5 
      1  0.102657D+01
      2 -0.206832D-01  0.675662D+00
      3  0.180557D-01  0.259143D-02  0.205196D+00
      4 -0.626249D+00 -0.107639D+00 -0.108502D-01  0.105157D+01
      5 -0.835410D-01 -0.222299D+00 -0.416317D-02 -0.531894D-02  0.818830D+00
      6 -0.649820D-02 -0.272000D-02 -0.122912D+00 -0.366917D-02  0.905005D-02
      7 -0.669529D-02  0.300596D-01  0.143118D-02 -0.304681D+00  0.172789D+00
      8 -0.532148D-02  0.239205D-01  0.782584D-03  0.219211D+00 -0.365018D+00
      9 -0.213294D-03  0.205471D-03  0.721058D-02  0.111541D-01 -0.113514D-01
     10  0.738297D-02 -0.990885D-04 -0.441441D-04  0.239696D-01  0.190760D-01
     11  0.328822D-01 -0.456532D-03  0.133697D-03 -0.187081D-01 -0.148878D-01
     12  0.665651D-03  0.956558D-04  0.565323D-04 -0.110678D-02 -0.962041D-03
     13 -0.147080D+00  0.956175D-02 -0.784616D-03  0.760224D-02 -0.342047D-01
     14 -0.131218D-01 -0.298286D+00 -0.447233D-02 -0.107438D-03  0.490335D-03
     15 -0.110040D-02 -0.442547D-02 -0.598969D-01  0.162256D-03 -0.122729D-02
     16  0.179988D-01 -0.243511D-03 -0.240164D-03  0.000000D+00  0.000000D+00
     17 -0.221695D-01  0.298037D-03  0.414074D-03  0.000000D+00  0.000000D+00
     18 -0.774958D-03 -0.160312D-03  0.106373D-01 -0.152767D-04 -0.189497D-04
     19  0.000000D+00  0.000000D+00 -0.704594D-05  0.000000D+00  0.000000D+00
     20  0.000000D+00  0.180277D-05 -0.112220D-03 -0.144060D-05  0.211890D-05
     21 -0.314350D-05 -0.948333D-04  0.590323D-02  0.930705D-04 -0.136892D-03
     22  0.561658D-02 -0.253637D-01  0.795422D-03 -0.148328D+00 -0.863988D-01
     23 -0.322221D-02  0.144671D-01  0.683875D-03 -0.817992D-01 -0.242521D+00
     24 -0.578165D-03  0.118071D-05  0.353609D-01  0.515527D-02  0.708264D-02
     25 -0.277546D+00  0.114407D+00 -0.835616D-02 -0.388290D-02  0.175998D-01
     26  0.115177D+00 -0.193308D+00  0.414205D-02 -0.563618D-02  0.254032D-01
     27 -0.955318D-02  0.450688D-02 -0.815552D-01 -0.923342D-03  0.172709D-02
                6             7             8             9            10 
      6  0.214629D+00
      7  0.813617D-02  0.610647D+00
      8 -0.106133D-01  0.324381D-01  0.751211D+00
      9 -0.539539D-01 -0.760515D-02  0.147459D-01  0.655854D-01
     10  0.800634D-04 -0.334421D+00 -0.249718D+00 -0.177602D-02  0.984070D+00
     11 -0.767919D-04 -0.205476D+00 -0.415755D+00 -0.433046D-02  0.367137D-01
     12  0.166807D-02 -0.916857D-03 -0.389737D-02 -0.523676D-01 -0.149496D-02
     13 -0.637669D-03 -0.669759D-02  0.522751D-02  0.823955D-04 -0.509812D+00
     14  0.000000D+00 -0.298355D-01  0.232986D-01 -0.210860D-04  0.836915D-01
     15 -0.877073D-03 -0.186851D-03  0.242819D-03  0.797427D-02  0.959535D-03
     16  0.266328D-04  0.000000D+00  0.000000D+00  0.328775D-04 -0.442098D-02
     17 -0.195256D-04  0.000000D+00  0.000000D+00  0.433429D-04  0.544349D-02
     18  0.119211D-02  0.400341D-05 -0.853010D-04  0.753260D-02  0.173927D-04
     19  0.344345D-04  0.223189D-01 -0.174265D-01 -0.401415D-03 -0.166772D+00
     20 -0.910981D-04  0.111890D-01 -0.873542D-02 -0.282171D-03  0.104892D+00
     21  0.588542D-02 -0.301211D-04 -0.244354D-04  0.439629D-02  0.218627D-02
     22  0.396340D-02  0.195273D-01  0.155811D-01 -0.106278D-02  0.360407D-05
     23  0.460309D-02 -0.111627D-01 -0.891155D-02  0.739300D-03  0.000000D+00
     24 -0.786728D-01 -0.764780D-03 -0.757054D-03  0.413764D-02  0.723997D-04
     25 -0.143566D-02  0.150219D-05  0.875073D-05 -0.210760D-03  0.000000D+00
     26 -0.133363D-03 -0.179031D-05 -0.104291D-04  0.251185D-03  0.000000D+00
     27  0.330420D-01 -0.676021D-04 -0.393805D-03  0.948474D-02  0.000000D+00
               11            12            13            14            15 
     11  0.931691D+00
     12  0.105056D-01  0.192074D+00
     13  0.646619D-01  0.188520D-03  0.941628D+00
     14 -0.203801D+00 -0.114464D-02  0.822829D-01  0.712213D+00
     15 -0.977497D-03 -0.982705D-01 -0.314476D-02  0.437780D-02  0.175714D+00
     16 -0.197014D-01  0.324035D-03 -0.307130D+00 -0.149595D+00  0.261682D-02
     17  0.242542D-01 -0.119367D-03 -0.152812D+00 -0.247068D+00  0.797688D-03
     18 -0.266535D-03  0.251257D-01  0.334376D-02  0.137851D-02 -0.700558D-01
     19  0.109632D+00  0.216389D-02  0.603948D-02  0.269008D-01  0.520132D-03
     20 -0.321045D+00 -0.447973D-02  0.302528D-02  0.134822D-01 -0.255372D-03
     21 -0.486543D-02 -0.738657D-01  0.124642D-03  0.171505D-03  0.280320D-01
     22 -0.530104D-05  0.227908D-03  0.251903D-05  0.312467D-05 -0.196571D-03
     23  0.000000D+00  0.172895D-04 -0.445080D-05 -0.552089D-05  0.347317D-03
     24 -0.106489D-03  0.457828D-02 -0.936886D-04 -0.116214D-03  0.731096D-02
     25  0.000000D+00 -0.514087D-04  0.154477D-01 -0.218254D-03  0.369845D-03
     26  0.000000D+00 -0.153898D-04  0.222623D-01 -0.323967D-03  0.112001D-02
     27 -0.160890D-04  0.100152D-02  0.921412D-03 -0.174487D-03  0.100687D-01
               16            17            18            19            20 
     16  0.293550D+00
     17  0.169540D+00  0.222515D+00
     18 -0.267475D-02 -0.108105D-02  0.381821D-01
     19  0.000000D+00  0.000000D+00  0.130379D-04  0.138413D+00
     20  0.000000D+00  0.119484D-05  0.207653D-03 -0.119105D+00  0.316293D+00
     21 -0.476772D-04 -0.628536D-04 -0.109234D-01 -0.232304D-02  0.501293D-02
     22  0.000000D+00  0.000000D+00  0.000000D+00  0.000000D+00  0.000000D+00
     23  0.000000D+00  0.000000D+00  0.000000D+00  0.000000D+00  0.000000D+00
     24  0.000000D+00  0.000000D+00  0.000000D+00  0.000000D+00  0.000000D+00
     25  0.193887D-05 -0.142147D-05  0.867860D-04  0.000000D+00  0.000000D+00
     26  0.000000D+00  0.000000D+00  0.259805D-04  0.000000D+00  0.000000D+00
     27 -0.377722D-04  0.276924D-04 -0.169072D-02  0.000000D+00  0.000000D+00
               21            22            23            24            25 
     21  0.405722D-01
     22  0.000000D+00  0.123186D+00
     23  0.000000D+00  0.961739D-01  0.236989D+00
     24  0.000000D+00 -0.409419D-02 -0.574277D-02  0.409275D-01
     25  0.000000D+00 -0.815084D-05  0.144015D-04  0.303149D-03  0.265986D+00
     26  0.000000D+00  0.971418D-05 -0.171637D-04 -0.361294D-03 -0.131812D+00
     27  0.000000D+00  0.366808D-03 -0.648103D-03 -0.136425D-01  0.929421D-02
               26            27 
     26  0.168257D+00
     27 -0.502918D-02  0.432914D-01
 Leave Link  716 at Tue Dec 15 17:07:22 2015, MaxMem=    33554432 cpu:         0.0
 (Enter /home/Applications/g09/g09/l103.exe)

 GradGradGradGradGradGradGradGradGradGradGradGradGradGradGradGradGradGrad
 Berny optimization.
 Search for a local minimum.
 Step number   1 out of a maximum of    2
 All quantities printed in internal units (Hartrees-Bohrs-Radians)
 Second derivative matrix not updated -- first step.
 ITU=  0
     Eigenvalues ---    0.01587   0.03094   0.06989   0.07333   0.07952
     Eigenvalues ---    0.09469   0.12578   0.12782   0.15311   0.24682
     Eigenvalues ---    0.27923   0.31969   0.38661   0.42429   0.60513
     Eigenvalues ---    0.85937   1.08951   1.26193   1.42856   1.65817
     Eigenvalues ---    1.80144
 Quadratic step=1.468D+00 exceeds max=3.000D-01 adjusted using Lamda=-9.348D-01.
 Angle between NR and scaled steps=  31.82 degrees.
 Angle between quadratic step and forces=  22.57 degrees.
 Linear search not attempted -- first point.
 TrRot= -0.005621 -0.003911 -0.000230  0.000094 -0.000046  0.000094
 MatCor failed.
 Variable       Old X    -DE/DX   Delta X   Delta X   Delta X     New X
                                 (Linear)    (Quad)   (Total)
    X1        1.83158   0.22892   0.00000   0.08547   0.08013   1.91171
    Y1       -1.44562   0.03030   0.00000  -0.00870  -0.01225  -1.45787
    Z1       -0.03045   0.00219   0.00000  -0.00019  -0.00033  -0.03079
    X2       -0.58275  -0.34902   0.00000  -0.14053  -0.14575  -0.72851
    Y2       -1.98149  -0.15481   0.00000  -0.09463  -0.09867  -2.08016
    Z2       -0.06991  -0.00187   0.00000  -0.00079  -0.00106  -0.07097
    X3       -2.18057   0.09773   0.00000   0.03830   0.03268  -2.14789
    Y3        0.02592  -0.02331   0.00000  -0.00962  -0.01394   0.01198
    Z3        0.00205  -0.00543   0.00000  -0.00358  -0.00391  -0.00186
    X4       -0.63884  -0.24667   0.00000  -0.11052  -0.11653  -0.75538
    Y4        1.99998   0.11124   0.00000   0.08001   0.07596   2.07594
    Z4        0.02358   0.00636   0.00000   0.00499   0.00472   0.02830
    X5        1.87120   0.12165   0.00000   0.05946   0.05357   1.92477
    Y5        1.43660  -0.04594   0.00000   0.00282  -0.00073   1.43587
    Z5        0.01587  -0.00136   0.00000  -0.00070  -0.00084   0.01503
    X6        3.37871   0.09105   0.00000   0.08397   0.07784   3.45654
    Y6        2.66098   0.06772   0.00000   0.05685   0.05359   2.71457
    Z6        0.00224  -0.00090   0.00000  -0.00095  -0.00102   0.00123
    X7       -1.54234  -0.01042   0.00000  -0.02164  -0.02800  -1.57034
    Y7        3.80230   0.09265   0.00000   0.10312   0.09892   3.90122
    Z7        0.05677   0.00116   0.00000   0.00174   0.00144   0.05820
    X8       -1.65391   0.01383   0.00000  -0.00737  -0.01225  -1.66616
    Y8       -3.85945  -0.03940   0.00000  -0.05975  -0.06397  -3.92342
    Z8       -0.00950  -0.00199   0.00000  -0.00067  -0.00097  -0.01047
    X9        3.50854   0.05293   0.00000   0.06345   0.05832   3.56686
    Y9       -2.61207  -0.03845   0.00000  -0.03567  -0.03891  -2.65099
    Z9        0.03770   0.00183   0.00000   0.00203   0.00197   0.03967
         Item               Value     Threshold  Converged?
 Maximum Force            0.349020     0.000450     NO 
 RMS     Force            0.110053     0.000300     NO 
 Maximum Displacement     0.145754     0.001800     NO 
 RMS     Displacement     0.057651     0.001200     NO 
 Predicted change in Energy=-1.214142D-01
 GradGradGradGradGradGradGradGradGradGradGradGradGradGradGradGradGradGrad

 Leave Link  103 at Tue Dec 15 17:07:22 2015, MaxMem=    33554432 cpu:         0.0
 (Enter /home/Applications/g09/g09/l9999.exe)
 1\1\GINC-DUSTIN-DESKTOP\Force\RAM1-FC\STO-3G\C4H4O1\DUSTIN\15-Dec-2015
 \0\\#P AM1(Input,print) CIS(Singlets,NStates=15) pop(full) force\\AM1-
 Reparam Input\\0,1\C,0.969233,-0.764988,-0.016116\C,-0.30838,-1.04856,
 -0.036996\O,-1.153908,0.013715,0.001083\C,-0.338062,1.058342,0.012479\
 C,0.990195,0.760215,0.008397\H,1.787934,1.408128,0.001187\H,-0.816173,
 2.012089,0.030039\H,-0.875213,-2.042334,-0.005026\H,1.856638,-1.38225,
 0.01995\\Version=ES64L-G09RevD.01\State=1-A\HF=2.076808\RMSD=5.949e-09
 \RMSF=1.101e-01\Dipole=-4.6054418,-0.0799438,0.1197377\PG=C01 [X(C4H4O
 1)]\\@


 HICKORY, DICKORY, DOCK
 TWO MICE RAN UP THE CLOCK
 THE CLOCK STRUCK ONE...
 THE OTHER ESCAPED WITH MINOR INJURIES.
 Job cpu time:       0 days  0 hours  0 minutes  0.7 seconds.
 File lengths (MBytes):  RWF=      7 Int=      0 D2E=      0 Chk=      2 Scr=      1
 Normal termination of Gaussian 09 at Tue Dec 15 17:07:22 2015.
