 Entering Gaussian System, Link 0=g09
 Input=FuranAM1_23.com
 Output=FuranAM1_23.log
 Initial command:
 /home/Applications/g09/g09/l1.exe "/home/Applications/g09/scratch/Gau-5645.inp" -scrdir="/home/Applications/g09/scratch/"
 Entering Link 1 = /home/Applications/g09/g09/l1.exe PID=      5647.
  
 Copyright (c) 1988,1990,1992,1993,1995,1998,2003,2009,2013,
            Gaussian, Inc.  All Rights Reserved.
  
 This is part of the Gaussian(R) 09 program.  It is based on
 the Gaussian(R) 03 system (copyright 2003, Gaussian, Inc.),
 the Gaussian(R) 98 system (copyright 1998, Gaussian, Inc.),
 the Gaussian(R) 94 system (copyright 1995, Gaussian, Inc.),
 the Gaussian 92(TM) system (copyright 1992, Gaussian, Inc.),
 the Gaussian 90(TM) system (copyright 1990, Gaussian, Inc.),
 the Gaussian 88(TM) system (copyright 1988, Gaussian, Inc.),
 the Gaussian 86(TM) system (copyright 1986, Carnegie Mellon
 University), and the Gaussian 82(TM) system (copyright 1983,
 Carnegie Mellon University). Gaussian is a federally registered
 trademark of Gaussian, Inc.
  
 This software contains proprietary and confidential information,
 including trade secrets, belonging to Gaussian, Inc.
  
 This software is provided under written license and may be
 used, copied, transmitted, or stored only in accord with that
 written license.
  
 The following legend is applicable only to US Government
 contracts under FAR:
  
                    RESTRICTED RIGHTS LEGEND
  
 Use, reproduction and disclosure by the US Government is
 subject to restrictions as set forth in subparagraphs (a)
 and (c) of the Commercial Computer Software - Restricted
 Rights clause in FAR 52.227-19.
  
 Gaussian, Inc.
 340 Quinnipiac St., Bldg. 40, Wallingford CT 06492
  
  
 ---------------------------------------------------------------
 Warning -- This program may not be used in any manner that
 competes with the business of Gaussian, Inc. or will provide
 assistance to any competitor of Gaussian, Inc.  The licensee
 of this program is prohibited from giving any competitor of
 Gaussian, Inc. access to this program.  By using this program,
 the user acknowledges that Gaussian, Inc. is engaged in the
 business of creating and licensing software in the field of
 computational chemistry and represents and warrants to the
 licensee that it is not a competitor of Gaussian, Inc. and that
 it will not use this program in any manner prohibited above.
 ---------------------------------------------------------------
  

 Cite this work as:
 Gaussian 09, Revision D.01,
 M. J. Frisch, G. W. Trucks, H. B. Schlegel, G. E. Scuseria, 
 M. A. Robb, J. R. Cheeseman, G. Scalmani, V. Barone, B. Mennucci, 
 G. A. Petersson, H. Nakatsuji, M. Caricato, X. Li, H. P. Hratchian, 
 A. F. Izmaylov, J. Bloino, G. Zheng, J. L. Sonnenberg, M. Hada, 
 M. Ehara, K. Toyota, R. Fukuda, J. Hasegawa, M. Ishida, T. Nakajima, 
 Y. Honda, O. Kitao, H. Nakai, T. Vreven, J. A. Montgomery, Jr., 
 J. E. Peralta, F. Ogliaro, M. Bearpark, J. J. Heyd, E. Brothers, 
 K. N. Kudin, V. N. Staroverov, T. Keith, R. Kobayashi, J. Normand, 
 K. Raghavachari, A. Rendell, J. C. Burant, S. S. Iyengar, J. Tomasi, 
 M. Cossi, N. Rega, J. M. Millam, M. Klene, J. E. Knox, J. B. Cross, 
 V. Bakken, C. Adamo, J. Jaramillo, R. Gomperts, R. E. Stratmann, 
 O. Yazyev, A. J. Austin, R. Cammi, C. Pomelli, J. W. Ochterski, 
 R. L. Martin, K. Morokuma, V. G. Zakrzewski, G. A. Voth, 
 P. Salvador, J. J. Dannenberg, S. Dapprich, A. D. Daniels, 
 O. Farkas, J. B. Foresman, J. V. Ortiz, J. Cioslowski, 
 and D. J. Fox, Gaussian, Inc., Wallingford CT, 2013.
 
 ******************************************
 Gaussian 09:  ES64L-G09RevD.01 24-Apr-2013
                15-Dec-2015 
 ******************************************
 ------------------------------------------------------------
 #P AM1(Input,print) CIS(Singlets,NStates=15) pop(full) force
 ------------------------------------------------------------
 1/10=7,30=1,38=1/1,3;
 2/12=2,17=6,18=5,40=1/2;
 3/5=2,16=1,25=1,41=700000,71=1,135=100,136=1/1,2,8,3;
 4/35=1/1;
 5/5=2,35=1,38=5/2;
 8/6=1,10=1,108=15/1;
 9/15=2,41=15,42=1,48=1,49=10/14;
 10/5=4/2;
 6/7=3,18=1/1;
 7/12=6,13=5,29=1/1,2,3,16;
 1/10=7,30=1/3;
 99//99;
 Leave Link    1 at Tue Dec 15 16:14:41 2015, MaxMem=           0 cpu:         0.0
 (Enter /home/Applications/g09/g09/l101.exe)
 -----------------
 AM1-Reparam Input
 -----------------
 Symbolic Z-matrix:
 Charge =  0 Multiplicity = 1
 6                     0.98006  -0.71427   0.01244 
 6                    -0.38266  -1.099    -0.01341 
 8                    -1.16924   0.04921   0.04017 
 6                    -0.3475    1.08017  -0.03352 
 6                     0.9115    0.72062   0.04863 
 1                     1.78974   1.40765   0.03898 
 1                    -0.86899   2.0071    0.00007 
 1                    -0.87254  -2.0172   -0.0114 
 1                     1.79518  -1.3708   -0.01724 
 
 NAtoms=      9 NQM=        9 NQMF=       0 NMMI=      0 NMMIF=      0
                NMic=       0 NMicF=      0.
                    Isotopes and Nuclear Properties:
 (Nuclear quadrupole moments (NQMom) in fm**2, nuclear magnetic moments (NMagM)
  in nuclear magnetons)

  Atom         1           2           3           4           5           6           7           8           9
 IAtWgt=          12          12          16          12          12           1           1           1           1
 AtmWgt=  12.0000000  12.0000000  15.9949146  12.0000000  12.0000000   1.0078250   1.0078250   1.0078250   1.0078250
 NucSpn=           0           0           0           0           0           1           1           1           1
 AtZEff=   0.0000000   0.0000000   0.0000000   0.0000000   0.0000000   0.0000000   0.0000000   0.0000000   0.0000000
 NQMom=    0.0000000   0.0000000   0.0000000   0.0000000   0.0000000   0.0000000   0.0000000   0.0000000   0.0000000
 NMagM=    0.0000000   0.0000000   0.0000000   0.0000000   0.0000000   2.7928460   2.7928460   2.7928460   2.7928460
 AtZNuc=   6.0000000   6.0000000   8.0000000   6.0000000   6.0000000   1.0000000   1.0000000   1.0000000   1.0000000
 Leave Link  101 at Tue Dec 15 16:14:41 2015, MaxMem=    33554432 cpu:         0.0
 (Enter /home/Applications/g09/g09/l103.exe)

 GradGradGradGradGradGradGradGradGradGradGradGradGradGradGradGradGradGrad
 Berny optimization.
 Initialization pass.
 Trust Radius=3.00D-01 FncErr=1.00D-07 GrdErr=1.00D-07
 Number of steps in this run=      2 maximum allowed number of steps=      2.
 GradGradGradGradGradGradGradGradGradGradGradGradGradGradGradGradGradGrad

 Leave Link  103 at Tue Dec 15 16:14:41 2015, MaxMem=    33554432 cpu:         0.0
 (Enter /home/Applications/g09/g09/l202.exe)
                          Input orientation:                          
 ---------------------------------------------------------------------
 Center     Atomic      Atomic             Coordinates (Angstroms)
 Number     Number       Type             X           Y           Z
 ---------------------------------------------------------------------
      1          6           0        0.980061   -0.714270    0.012440
      2          6           0       -0.382662   -1.098997   -0.013410
      3          8           0       -1.169243    0.049213    0.040169
      4          6           0       -0.347501    1.080171   -0.033517
      5          6           0        0.911503    0.720620    0.048633
      6          1           0        1.789735    1.407645    0.038979
      7          1           0       -0.868993    2.007102    0.000068
      8          1           0       -0.872543   -2.017201   -0.011400
      9          1           0        1.795176   -1.370803   -0.017236
 ---------------------------------------------------------------------
                    Distance matrix (angstroms):
                    1          2          3          4          5
     1  C    0.000000
     2  C    1.416226   0.000000
     3  O    2.281049   1.392827   0.000000
     4  C    2.232611   2.179544   1.320441   0.000000
     5  C    1.436983   2.233768   2.186404   1.311913   0.000000
     6  H    2.271299   3.317425   3.255901   2.163394   1.115073
     7  H    3.290140   3.143970   1.981183   1.064088   2.197171
     8  H    2.265025   1.040714   2.088243   3.141635   3.268346
     9  H    1.047057   2.194737   3.287479   3.255550   2.271402
                    6          7          8          9
     6  H    0.000000
     7  H    2.725747   0.000000
     8  H    4.338183   4.024321   0.000000
     9  H    2.779022   4.302132   2.744921   0.000000
 Stoichiometry    C4H4O
 Framework group  C1[X(C4H4O)]
 Deg. of freedom    21
 Full point group                 C1      NOp   1
 Largest Abelian subgroup         C1      NOp   1
 Largest concise Abelian subgroup C1      NOp   1
                         Standard orientation:                         
 ---------------------------------------------------------------------
 Center     Atomic      Atomic             Coordinates (Angstroms)
 Number     Number       Type             X           Y           Z
 ---------------------------------------------------------------------
      1          6           0       -0.970438    0.756641   -0.000216
      2          6           0       -0.964119   -0.659446    0.018662
      3          8           0        0.356775   -1.098251   -0.032885
      4          6           0        1.120594   -0.024233    0.048534
      5          6           0        0.427731    1.087000   -0.030332
      6          1           0        0.845592    2.120693   -0.014245
      7          1           0        2.155566   -0.269430    0.017029
      8          1           0       -1.711403   -1.383731    0.010699
      9          1           0       -1.826562    1.358707    0.029712
 ---------------------------------------------------------------------
 Rotational constants (GHZ):      9.5975509      9.2136577      4.7062907
 Leave Link  202 at Tue Dec 15 16:14:41 2015, MaxMem=    33554432 cpu:         0.0
 (Enter /home/Applications/g09/g09/l301.exe)

 Semi-emprical parameters in input format:
 Method=8 CoreType=1 PeptideFC=0.0114510000 RIJScale=0.5291770000
 ****
 H       
 PQN=1 NValence=1 F0ss=0.4721550000 ZetaOverlap=1.1880780000 U=-0.4188110000
 Beta=-0.2268830000 CoreKO=1.0589200000 KON=0,0,0,1.0589200000 KON=1,0,1,1.0589200000
 KON=0,1,1,1.0589200000 KON=2,1,1,1.0589200000 EISol=-0.4188110042 EHeat=0.0830298228
 Alpha=1.5252600000
 GCore=0.0085280000,1.4001430000,2.2676710000
 GCore=0.0003530000,1.4001430000,3.4015070000
 GCore=-0.0012730000,0.5600570000,3.9684250000
 ****
 C       
 PQN=2,2 NValence=4 F0ss=0.4494440000 F0sp=0.4215150000 F0pp=0.3768030000 F2pp=0.1898720000
 G1sp=0.2679030000
 ZetaOverlap=1.8086650000,1.6851160000
 U=-1.9120180000,-1.4557970000
 Beta=-0.5775440000,-0.2836780000 DDN=0,1,0.8236740000 DDN=1,1,0.7268010000
 CoreKO=1.1124280000 KON=0,0,0,1.1124280000 KON=1,0,1,0.8219700000 KON=0,1,1,1.1124280000
 KON=2,1,1,0.7783930000 EISol=-4.4398989268 EHeat=0.2723305520 Alpha=1.4014060000
 DipHyp=1.6472532266
 GCore=0.0007890000,1.4001430000,3.0235620000
 GCore=0.0031890000,1.4001430000,3.4959930000
 GCore=-0.0013930000,1.4001430000,3.8739390000
 GCore=-0.0000880000,1.4001430000,5.0077740000
 ****
 O       
 PQN=2,2 NValence=6 F0ss=0.5666750000 F0sp=0.5321300000 F0pp=0.4958710000 F2pp=0.2358080000
 G1sp=0.4343770000
 ZetaOverlap=3.1080320000,2.5240390000
 U=-3.5951870000,-2.8760900000
 Beta=-1.0757550000,-1.0757550000 DDN=0,1,0.4988900000 DDN=1,1,0.4852320000
 CoreKO=0.8822960000 KON=0,0,0,0.8822960000 KON=1,0,1,0.5019540000 KON=0,1,1,0.8822960000
 KON=2,1,1,0.5515580000 EISol=-11.6164441184 EHeat=0.0949133088 Alpha=2.3576810000
 DipHyp=0.9977225968
 GCore=0.0195120000,1.4001430000,1.6023330000
 GCore=0.0056550000,1.9602000000,2.7307880000
 ****
 
 Standard basis: VSTO-6G (5D, 7F)
 Ernie: Thresh=  0.10000D-02 Tol=  0.10000D-05 Strict=F.
  NNHCO=     0 NNPyr=     0 NCTC=     0               EPep=         0.000000000
    EC=        68.853846955  ECS=         1.852357499   EG=         0.361100425
   EHC=         0.000000000  EAt=       -31.051283842  AtH=         1.516354808
 EPDDG=         0.000000000  ECC=        71.067304880 EAtT=        32.567638650
 There are    24 symmetry adapted cartesian basis functions of A   symmetry.
 There are    24 symmetry adapted basis functions of A   symmetry.
    24 basis functions,   144 primitive gaussians,    24 cartesian basis functions
    13 alpha electrons       13 beta electrons
       nuclear repulsion energy       103.6349435304 Hartrees.
 IExCor=    0 DFT=F Ex=HF Corr=None ExCW=0 ScaHFX=  1.000000
 ScaDFX=  1.000000  1.000000  1.000000  1.000000 ScalE2=  1.000000  1.000000
 IRadAn=      0 IRanWt=     -1 IRanGd=            0 ICorTp=0 IEmpDi=  4
 Integral buffers will be    131072 words long.
 Regular integral format.
 Two-electron integral symmetry is turned off.
 Leave Link  301 at Tue Dec 15 16:14:41 2015, MaxMem=    33554432 cpu:         0.0
 (Enter /home/Applications/g09/g09/l302.exe)
 Do NDO integrals.
 NPDir=0 NMtPBC=     1 NCelOv=     1 NCel=       1 NClECP=     1 NCelD=      1
         NCelK=      1 NCelE2=     1 NClLst=     1 CellRange=     0.0.
 One-electron integrals computed using PRISM.
 NBasis=    24 RedAO= F EigKep=  0.00D+00  NBF=    24
 NBsUse=    24 1.00D-04 EigRej=  0.00D+00 NBFU=    24
 Leave Link  302 at Tue Dec 15 16:14:41 2015, MaxMem=    33554432 cpu:         0.0
 (Enter /home/Applications/g09/g09/l308.exe)
 Leave Link  308 at Tue Dec 15 16:14:41 2015, MaxMem=    33554432 cpu:         0.0
 (Enter /home/Applications/g09/g09/l303.exe)
 DipDrv:  MaxL=1.
 Leave Link  303 at Tue Dec 15 16:14:41 2015, MaxMem=    33554432 cpu:         0.0
 (Enter /home/Applications/g09/g09/l401.exe)
 Simple Huckel Guess.
 JPrj=0 DoOrth=F DoCkMO=F.
 Leave Link  401 at Tue Dec 15 16:14:41 2015, MaxMem=    33554432 cpu:         0.0
 (Enter /home/Applications/g09/g09/l502.exe)
 Closed shell SCF:
 Using DIIS extrapolation, IDIIS=  1040.
 Overlap will be assumed to be unity.
 Two-electron integral symmetry not used.
 Keep J ints in memory in canonical form, NReq=888082.
 IVT=       79475 IEndB=       79475 NGot=    33554432 MDV=    33473473
 LenX=    33473473 LenY=    33472456
 Requested convergence on RMS density matrix=1.00D-08 within 128 cycles.
 Requested convergence on MAX density matrix=1.00D-06.
 Requested convergence on             energy=1.00D-06.
 No special actions if energy rises.
 FoFCou: FMM=F IPFlag=           0 FMFlag=           0 FMFlg1=           0
         NFxFlg=           0 DoJE=F BraDBF=F KetDBF=F FulRan=T
         wScrn=  0.000000 ICntrl=     600 IOpCl=  2 I1Cent=           0 NGrid=           0
         NMat0=    1 NMatS0=     54 NMatT0=    0 NMatD0=    1 NMtDS0=    0 NMtDT0=    0
 Symmetry not used in FoFCou.

 Cycle   1  Pass 1  IDiag  1:
 E= 0.342574292215303    
 DIIS: error= 6.45D-02 at cycle   1 NSaved=   1.
 NSaved= 1 IEnMin= 1 EnMin= 0.342574292215303     IErMin= 1 ErrMin= 6.45D-02
 ErrMax= 6.45D-02  0.00D+00 EMaxC= 1.00D-01 BMatC= 1.13D-01 BMatP= 1.13D-01
 IDIUse=3 WtCom= 3.55D-01 WtEn= 6.45D-01
 Coeff-Com:  0.100D+01
 Coeff-En:   0.100D+01
 Coeff:      0.100D+01
 GapD=    2.000 DampG=2.000 DampE=0.500 DampFc=1.0000 IDamp=-1.
 RMSDP=1.95D-02 MaxDP=1.64D-01              OVMax= 0.00D+00

 Cycle   2  Pass 1  IDiag  1:
 E= 0.599628764368276E-01 Delta-E=       -0.282611415778 Rises=F Damp=F
 DIIS: error= 1.98D-02 at cycle   2 NSaved=   2.
 NSaved= 2 IEnMin= 2 EnMin= 0.599628764368276E-01 IErMin= 2 ErrMin= 1.98D-02
 ErrMax= 1.98D-02  0.00D+00 EMaxC= 1.00D-01 BMatC= 9.76D-03 BMatP= 1.13D-01
 IDIUse=3 WtCom= 8.02D-01 WtEn= 1.98D-01
 Coeff-Com: -0.357D+00 0.136D+01
 Coeff-En:   0.000D+00 0.100D+01
 Coeff:     -0.287D+00 0.129D+01
 RMSDP=8.25D-03 MaxDP=7.22D-02 DE=-2.83D-01 OVMax= 0.00D+00

 Cycle   3  Pass 1  IDiag  3:
 E= 0.287930735382389E-01 Delta-E=       -0.031169802899 Rises=F Damp=F
 DIIS: error= 4.04D-03 at cycle   3 NSaved=   3.
 NSaved= 3 IEnMin= 3 EnMin= 0.287930735382389E-01 IErMin= 3 ErrMin= 4.04D-03
 ErrMax= 4.04D-03  0.00D+00 EMaxC= 1.00D-01 BMatC= 3.88D-04 BMatP= 9.76D-03
 IDIUse=3 WtCom= 9.60D-01 WtEn= 4.04D-02
 Coeff-Com:  0.128D+00-0.580D+00 0.145D+01
 Coeff-En:   0.000D+00 0.000D+00 0.100D+01
 Coeff:      0.123D+00-0.557D+00 0.143D+01
 Gap=     0.374 Goal=   None    Shift=    0.000
 RMSDP=2.56D-03 MaxDP=2.77D-02 DE=-3.12D-02 OVMax= 3.04D-02

 Cycle   4  Pass 1  IDiag  3:
 E= 0.267025035834507E-01 Delta-E=       -0.002090569955 Rises=F Damp=F
 DIIS: error= 1.19D-03 at cycle   4 NSaved=   4.
 NSaved= 4 IEnMin= 4 EnMin= 0.267025035834507E-01 IErMin= 4 ErrMin= 1.19D-03
 ErrMax= 1.19D-03  0.00D+00 EMaxC= 1.00D-01 BMatC= 2.84D-05 BMatP= 3.88D-04
 IDIUse=3 WtCom= 9.88D-01 WtEn= 1.19D-02
 Coeff-Com:  0.165D-01-0.559D-01-0.193D+00 0.123D+01
 Coeff-En:   0.000D+00 0.000D+00 0.000D+00 0.100D+01
 Coeff:      0.163D-01-0.552D-01-0.191D+00 0.123D+01
 Gap=     0.374 Goal=   None    Shift=    0.000
 RMSDP=8.24D-04 MaxDP=9.46D-03 DE=-2.09D-03 OVMax= 1.03D-02

 Cycle   5  Pass 1  IDiag  3:
 E= 0.265309141075818E-01 Delta-E=       -0.000171589476 Rises=F Damp=F
 DIIS: error= 1.84D-04 at cycle   5 NSaved=   5.
 NSaved= 5 IEnMin= 5 EnMin= 0.265309141075818E-01 IErMin= 5 ErrMin= 1.84D-04
 ErrMax= 1.84D-04  0.00D+00 EMaxC= 1.00D-01 BMatC= 1.62D-06 BMatP= 2.84D-05
 IDIUse=3 WtCom= 9.98D-01 WtEn= 1.84D-03
 Coeff-Com: -0.773D-02 0.303D-01 0.283D-01-0.474D+00 0.142D+01
 Coeff-En:   0.000D+00 0.000D+00 0.000D+00 0.000D+00 0.100D+01
 Coeff:     -0.771D-02 0.303D-01 0.282D-01-0.473D+00 0.142D+01
 Gap=     0.374 Goal=   None    Shift=    0.000
 RMSDP=2.25D-04 MaxDP=1.65D-03 DE=-1.72D-04 OVMax= 2.26D-03

 Cycle   6  Pass 1  IDiag  3:
 E= 0.265193484004271E-01 Delta-E=       -0.000011565707 Rises=F Damp=F
 DIIS: error= 8.71D-05 at cycle   6 NSaved=   6.
 NSaved= 6 IEnMin= 6 EnMin= 0.265193484004271E-01 IErMin= 6 ErrMin= 8.71D-05
 ErrMax= 8.71D-05  0.00D+00 EMaxC= 1.00D-01 BMatC= 1.54D-07 BMatP= 1.62D-06
 IDIUse=1 WtCom= 1.00D+00 WtEn= 0.00D+00
 Coeff-Com:  0.297D-02-0.115D-01 0.185D-03 0.147D+00-0.675D+00 0.154D+01
 Coeff:      0.297D-02-0.115D-01 0.185D-03 0.147D+00-0.675D+00 0.154D+01
 Gap=     0.374 Goal=   None    Shift=    0.000
 RMSDP=8.55D-05 MaxDP=7.01D-04 DE=-1.16D-05 OVMax= 1.08D-03

 Cycle   7  Pass 1  IDiag  3:
 E= 0.265179619699154E-01 Delta-E=       -0.000001386431 Rises=F Damp=F
 DIIS: error= 3.33D-05 at cycle   7 NSaved=   7.
 NSaved= 7 IEnMin= 7 EnMin= 0.265179619699154E-01 IErMin= 7 ErrMin= 3.33D-05
 ErrMax= 3.33D-05  0.00D+00 EMaxC= 1.00D-01 BMatC= 1.48D-08 BMatP= 1.54D-07
 IDIUse=1 WtCom= 1.00D+00 WtEn= 0.00D+00
 Coeff-Com: -0.443D-03 0.121D-02 0.749D-03-0.285D-01 0.171D+00-0.693D+00
 Coeff-Com:  0.155D+01
 Coeff:     -0.443D-03 0.121D-02 0.749D-03-0.285D-01 0.171D+00-0.693D+00
 Coeff:      0.155D+01
 Gap=     0.374 Goal=   None    Shift=    0.000
 RMSDP=3.24D-05 MaxDP=3.00D-04 DE=-1.39D-06 OVMax= 3.79D-04

 Cycle   8  Pass 1  IDiag  3:
 E= 0.265178143250182E-01 Delta-E=       -0.000000147645 Rises=F Damp=F
 DIIS: error= 7.23D-06 at cycle   8 NSaved=   8.
 NSaved= 8 IEnMin= 8 EnMin= 0.265178143250182E-01 IErMin= 8 ErrMin= 7.23D-06
 ErrMax= 7.23D-06  0.00D+00 EMaxC= 1.00D-01 BMatC= 7.32D-10 BMatP= 1.48D-08
 IDIUse=1 WtCom= 1.00D+00 WtEn= 0.00D+00
 Coeff-Com:  0.414D-04 0.157D-03-0.130D-02 0.946D-02-0.521D-01 0.248D+00
 Coeff-Com: -0.732D+00 0.153D+01
 Coeff:      0.414D-04 0.157D-03-0.130D-02 0.946D-02-0.521D-01 0.248D+00
 Coeff:     -0.732D+00 0.153D+01
 Gap=     0.374 Goal=   None    Shift=    0.000
 RMSDP=6.79D-06 MaxDP=6.54D-05 DE=-1.48D-07 OVMax= 7.77D-05

 Cycle   9  Pass 1  IDiag  3:
 E= 0.265178078903858E-01 Delta-E=       -0.000000006435 Rises=F Damp=F
 DIIS: error= 1.13D-06 at cycle   9 NSaved=   9.
 NSaved= 9 IEnMin= 9 EnMin= 0.265178078903858E-01 IErMin= 9 ErrMin= 1.13D-06
 ErrMax= 1.13D-06  0.00D+00 EMaxC= 1.00D-01 BMatC= 3.35D-11 BMatP= 7.32D-10
 IDIUse=1 WtCom= 1.00D+00 WtEn= 0.00D+00
 Coeff-Com:  0.243D-04-0.227D-03 0.526D-03-0.194D-02 0.122D-01-0.756D-01
 Coeff-Com:  0.260D+00-0.698D+00 0.150D+01
 Coeff:      0.243D-04-0.227D-03 0.526D-03-0.194D-02 0.122D-01-0.756D-01
 Coeff:      0.260D+00-0.698D+00 0.150D+01
 Gap=     0.374 Goal=   None    Shift=    0.000
 RMSDP=1.15D-06 MaxDP=9.87D-06 DE=-6.43D-09 OVMax= 1.45D-05

 Cycle  10  Pass 1  IDiag  3:
 E= 0.265178076712544E-01 Delta-E=       -0.000000000219 Rises=F Damp=F
 DIIS: error= 1.63D-07 at cycle  10 NSaved=  10.
 NSaved=10 IEnMin=10 EnMin= 0.265178076712544E-01 IErMin=10 ErrMin= 1.63D-07
 ErrMax= 1.63D-07  0.00D+00 EMaxC= 1.00D-01 BMatC= 1.09D-12 BMatP= 3.35D-11
 IDIUse=1 WtCom= 1.00D+00 WtEn= 0.00D+00
 Coeff-Com: -0.125D-04 0.971D-04-0.208D-03 0.637D-03-0.373D-02 0.245D-01
 Coeff-Com: -0.868D-01 0.242D+00-0.618D+00 0.144D+01
 Coeff:     -0.125D-04 0.971D-04-0.208D-03 0.637D-03-0.373D-02 0.245D-01
 Coeff:     -0.868D-01 0.242D+00-0.618D+00 0.144D+01
 Gap=     0.374 Goal=   None    Shift=    0.000
 RMSDP=1.64D-07 MaxDP=9.80D-07 DE=-2.19D-10 OVMax= 1.67D-06

 Cycle  11  Pass 1  IDiag  3:
 E= 0.265178076653427E-01 Delta-E=       -0.000000000006 Rises=F Damp=F
 DIIS: error= 2.84D-08 at cycle  11 NSaved=  11.
 NSaved=11 IEnMin=11 EnMin= 0.265178076653427E-01 IErMin=11 ErrMin= 2.84D-08
 ErrMax= 2.84D-08  0.00D+00 EMaxC= 1.00D-01 BMatC= 3.40D-14 BMatP= 1.09D-12
 IDIUse=1 WtCom= 1.00D+00 WtEn= 0.00D+00
 Coeff-Com:  0.352D-05-0.279D-04 0.597D-04-0.189D-03 0.105D-02-0.694D-02
 Coeff-Com:  0.245D-01-0.682D-01 0.176D+00-0.498D+00 0.137D+01
 Coeff:      0.352D-05-0.279D-04 0.597D-04-0.189D-03 0.105D-02-0.694D-02
 Coeff:      0.245D-01-0.682D-01 0.176D+00-0.498D+00 0.137D+01
 Gap=     0.374 Goal=   None    Shift=    0.000
 RMSDP=2.80D-08 MaxDP=1.54D-07 DE=-5.91D-12 OVMax= 2.41D-07

 Cycle  12  Pass 1  IDiag  3:
 E= 0.265178076654848E-01 Delta-E=        0.000000000000 Rises=F Damp=F
 DIIS: error= 5.63D-09 at cycle  12 NSaved=  12.
 NSaved=12 IEnMin=11 EnMin= 0.265178076653427E-01 IErMin=12 ErrMin= 5.63D-09
 ErrMax= 5.63D-09  0.00D+00 EMaxC= 1.00D-01 BMatC= 1.81D-15 BMatP= 3.40D-14
 IDIUse=1 WtCom= 1.00D+00 WtEn= 0.00D+00
 Coeff-Com: -0.609D-06 0.513D-05-0.109D-04 0.376D-04-0.193D-03 0.128D-02
 Coeff-Com: -0.443D-02 0.120D-01-0.309D-01 0.999D-01-0.462D+00 0.138D+01
 Coeff:     -0.609D-06 0.513D-05-0.109D-04 0.376D-04-0.193D-03 0.128D-02
 Coeff:     -0.443D-02 0.120D-01-0.309D-01 0.999D-01-0.462D+00 0.138D+01
 Gap=     0.374 Goal=   None    Shift=    0.000
 RMSDP=6.72D-09 MaxDP=3.96D-08 DE= 1.42D-13 OVMax= 3.29D-08

 Cycle  13  Pass 2  IDiag  1:
 SCF Done:  E(RAM1) =  0.265178076655E-01 A.U. after   13 cycles
            NFock= 12  Conv=0.67D-08     -V/T= 1.0016
 KE=-1.658282744851D+01 PE=-1.712845550591D+02 EE= 8.425895678488D+01
 Leave Link  502 at Tue Dec 15 16:14:41 2015, MaxMem=    33554432 cpu:         0.0
 (Enter /home/Applications/g09/g09/l801.exe)
 Range of M.O.s used for correlation:     1    24
 NBasis=    24 NAE=    13 NBE=    13 NFC=     0 NFV=     0
 NROrb=     24 NOA=    13 NOB=    13 NVA=    11 NVB=    11
 Leave Link  801 at Tue Dec 15 16:14:41 2015, MaxMem=    33554432 cpu:         0.0
 (Enter /home/Applications/g09/g09/l914.exe)
 RHF ground state
 MDV=    33554432 DFT=F DoStab=F Mixed=F DoRPA=F DoScal=F NonHer=F
 Making orbital integer symmetry assigments:
 Orbital symmetries:
       Occupied  (A) (A) (A) (A) (A) (A) (A) (A) (A) (A) (A) (A)
                 (A)
       Virtual   (A) (A) (A) (A) (A) (A) (A) (A) (A) (A) (A)
    60 initial guesses have been made.
 Convergence on wavefunction:    0.000001000000000
 Davidson Disk Diagonalization:  ConvIn= 1.00D-06 SkipCon=T Conv= 1.00D-06.
 Max sub-space:   240 roots to seek:    60 dimension of matrix:          286
 Iteration     1 Dimension    60 NMult     0 NNew     60
 CISAX will form    60 AO SS matrices at one time.
 NMat=    60 NSing=    60 JSym2X= 0.
 FoFJK:  IHMeth= 8 ICntrl=       0 DoSepK=F KAlg= 0 I1Cent=   0 FoldK=F
 IRaf=         1 NMat= 120 IRICut=       1 DoRegI=T DoRafI=F ISym2E= 0.
 FoFCou: FMM=F IPFlag=           0 FMFlag=      100000 FMFlg1=           0
         NFxFlg=           0 DoJE=F BraDBF=F KetDBF=F FulRan=T
         wScrn=  0.000000 ICntrl=       0 IOpCl=  0 I1Cent=           0 NGrid=           0
         NMat0=  120 NMatS0=     60 NMatT0=    0 NMatD0=  120 NMtDS0=    0 NMtDT0=    0
 Symmetry not used in FoFCou.
 New state      2 was old state      4
 New state      3 was old state      2
 New state      4 was old state      7
 New state      5 was old state      8
 New state      6 was old state      3
 New state      7 was old state      9
 New state      8 was old state      5
 New state      9 was old state      6
 New state     11 was old state     14
 New state     12 was old state     13
 New state     13 was old state     16
 New state     14 was old state     18
 Excitation Energies [eV] at current iteration:
 Root      1 :     4.479776292329946
 Root      2 :     5.003848785449234
 Root      3 :     5.053161418136681
 Root      4 :     5.825309040660051
 Root      5 :     6.107983412550993
 Root      6 :     6.263452252091532
 Root      7 :     6.360461607714673
 Root      8 :     6.483153024769345
 Root      9 :     6.551835214626604
 Root     10 :     7.065358229027225
 Root     11 :     7.123884141796280
 Root     12 :     7.453342473753380
 Root     13 :     7.528198852067104
 Root     14 :     7.571505426258358
 Root     15 :     7.767474805019225
 Root     16 :     7.883578078022591
 Root     17 :     7.926077257797555
 Root     18 :     8.090305014348665
 Root     19 :     8.251493233674857
 Root     20 :     8.328816129626786
 Root     21 :     8.701590888229909
 Root     22 :     8.778841629361848
 Root     23 :     8.835998447918339
 Root     24 :     9.158058629117077
 Root     25 :     9.250343540325279
 Root     26 :     9.413960849459897
 Root     27 :     9.669272584445952
 Root     28 :     9.686718744567896
 Root     29 :     9.779716160813418
 Root     30 :     9.868003476254895
 Root     31 :    10.001860737006350
 Root     32 :    10.032902408413090
 Root     33 :    10.091169922809300
 Root     34 :    10.144156243793660
 Root     35 :    10.222240060928830
 Root     36 :    10.467885700228770
 Root     37 :    10.582970246338230
 Root     38 :    10.767166427635490
 Root     39 :    10.879932927623060
 Root     40 :    10.971101937647880
 Root     41 :    11.069620523632920
 Root     42 :    11.253370359314180
 Root     43 :    11.317329261679050
 Root     44 :    11.399927772036590
 Root     45 :    11.620021986313060
 Root     46 :    11.649514417578780
 Root     47 :    11.847983936662050
 Root     48 :    11.896665595481390
 Root     49 :    12.063414546303430
 Root     50 :    12.137081831109080
 Root     51 :    12.324075632591490
 Root     52 :    12.440816088299080
 Root     53 :    13.036880506972280
 Root     54 :    13.088490121097660
 Root     55 :    13.119593070819950
 Root     56 :    13.247992586103490
 Root     57 :    13.521274671987050
 Root     58 :    13.628123016361720
 Root     59 :    13.720144100749350
 Root     60 :    13.810222181915080
 Iteration     2 Dimension   120 NMult    60 NNew     60
 CISAX will form    60 AO SS matrices at one time.
 NMat=    60 NSing=    60 JSym2X= 0.
 Root      1 not converged, maximum delta is    0.038347191593704
 Root      2 not converged, maximum delta is    0.037856720980423
 Root      3 not converged, maximum delta is    0.045188732706136
 Root      4 not converged, maximum delta is    0.038817265623780
 Root      5 not converged, maximum delta is    0.056887465568202
 Root      6 not converged, maximum delta is    0.112591589077943
 Root      7 not converged, maximum delta is    0.047001078971092
 Root      8 not converged, maximum delta is    0.083992056094897
 Root      9 not converged, maximum delta is    0.039921487830084
 Root     10 not converged, maximum delta is    0.039507405899867
 Root     11 not converged, maximum delta is    0.046748180258419
 Root     12 not converged, maximum delta is    0.060348078918849
 Root     13 not converged, maximum delta is    0.078026338480311
 Root     14 not converged, maximum delta is    0.058664437229807
 Root     15 not converged, maximum delta is    0.118611744421652
 Excitation Energies [eV] at current iteration:
 Root      1 :     4.397438316312831   Change is   -0.082337976017115
 Root      2 :     4.977381478351989   Change is   -0.026467307097244
 Root      3 :     5.037019922510522   Change is   -0.016141495626159
 Root      4 :     5.729319059111534   Change is   -0.095989981548517
 Root      5 :     6.035738248657367   Change is   -0.072245163893626
 Root      6 :     6.135727373561899   Change is   -0.127724878529633
 Root      7 :     6.229921505170517   Change is   -0.130540102544157
 Root      8 :     6.403561062923249   Change is   -0.079591961846097
 Root      9 :     6.502501985647390   Change is   -0.049333228979215
 Root     10 :     6.983631670891903   Change is   -0.081726558135323
 Root     11 :     7.023889932858859   Change is   -0.099994208937421
 Root     12 :     7.384811003096623   Change is   -0.068531470656758
 Root     13 :     7.418602049145886   Change is   -0.109596802921217
 Root     14 :     7.515799845985938   Change is   -0.055705580272420
 Root     15 :     7.654243826444198   Change is   -0.113230978575027
 Root     16 :     7.811153821178889   Change is   -0.072424256843702
 Root     17 :     7.869123028477418   Change is   -0.056954229320138
 Root     18 :     7.993581345131299   Change is   -0.096723669217366
 Root     19 :     8.083683155780314   Change is   -0.167810077894544
 Root     20 :     8.223074078681883   Change is   -0.105742050944903
 Root     21 :     8.521963806849405   Change is   -0.314034641068933
 Root     22 :     8.651252819566380   Change is   -0.050338068663528
 Root     23 :     8.751071446805621   Change is   -0.027770182556226
 Root     24 :     9.033424614893608   Change is   -0.380536234566289
 Root     25 :     9.057344023195405   Change is   -0.100714605921672
 Root     26 :     9.178976767823803   Change is   -0.071366772501475
 Root     27 :     9.273445868802872   Change is   -0.413272875765023
 Root     28 :     9.440905143923652   Change is   -0.228367440522299
 Root     29 :     9.515474534939615   Change is   -0.486386202066737
 Root     30 :     9.596318400598706   Change is   -0.625921660330119
 Root     31 :     9.650043038656433   Change is   -0.382859369756654
 Root     32 :     9.698700748131598   Change is   -0.445455495662060
 Root     33 :     9.775416750168009   Change is   -0.092586726086887
 Root     34 :     9.815477658340061   Change is    0.035761497526643
 Root     35 :     9.951893038194243   Change is   -0.515992662034526
 Root     36 :     9.990519345147934   Change is   -0.100650577661367
 Root     37 :    10.170441761475510   Change is   -0.412528484862719
 Root     38 :    10.330416471262580   Change is   -0.436749956372907
 Root     39 :    10.419939510268590   Change is   -0.459993417354469
 Root     40 :    10.680705602670900   Change is   -0.290396334976974
 Root     41 :    10.761907597646140   Change is   -0.555421664032918
 Root     42 :    10.894556820493920   Change is   -0.505370951542668
 Root     43 :    10.926325617667280   Change is   -0.143294905965643
 Root     44 :    11.008020377190540   Change is   -0.245349982123639
 Root     45 :    11.166909229502990   Change is   -0.482605188075788
 Root     46 :    11.351043559886380   Change is   -0.268978426426689
 Root     47 :    11.412372761612740   Change is   -0.484292833868655
 Root     48 :    11.559626043331370   Change is   -0.288357893330674
 Root     49 :    11.726381301511470   Change is   -0.337033244791959
 Root     50 :    11.815377919351450   Change is   -0.508697713240045
 Root     51 :    11.902394760697490   Change is   -0.234687070411590
 Root     52 :    12.077501406310170   Change is   -0.363314681988913
 Root     53 :    12.354735400834690   Change is   -0.682145106137587
 Root     54 :    12.553414140742010   Change is   -0.566178930077946
 Root     55 :    12.872101291109320   Change is   -0.375891294994166
 Root     56 :    12.903221438345350   Change is   -0.724901578016368
 Root     57 :    12.973911495450610   Change is   -0.114578625647053
 Root     58 :    13.032985769617500
 Root     59 :    13.212604581945820   Change is   -0.507539518803529
 Root     60 :    13.354498019423490   Change is   -0.166776652563564
 Iteration     3 Dimension   135 NMult   120 NNew     15
 CISAX will form    15 AO SS matrices at one time.
 NMat=    15 NSing=    15 JSym2X= 0.
 Root      1 not converged, maximum delta is    0.001664123219005
 Root      2 not converged, maximum delta is    0.000287347980293
 Root      3 not converged, maximum delta is    0.000410036663517
 Root      4 not converged, maximum delta is    0.000163280408989
 Root      5 not converged, maximum delta is    0.000609985843574
 Root      6 not converged, maximum delta is    0.002009996609322
 Root      7 not converged, maximum delta is    0.000898035755515
 Root      8 not converged, maximum delta is    0.001993416064301
 Root      9 not converged, maximum delta is    0.000157068855111
 Root     10 not converged, maximum delta is    0.000317172644900
 Root     11 not converged, maximum delta is    0.000335510174912
 Root     12 not converged, maximum delta is    0.000394125513751
 Root     13 not converged, maximum delta is    0.000330860158372
 Root     14 not converged, maximum delta is    0.000115788231938
 Root     15 not converged, maximum delta is    0.000208264572237
 Excitation Energies [eV] at current iteration:
 Root      1 :     4.397031515589374   Change is   -0.000406800723458
 Root      2 :     4.977370712725139   Change is   -0.000010765626851
 Root      3 :     5.036986326018585   Change is   -0.000033596491937
 Root      4 :     5.729311735118547   Change is   -0.000007323992988
 Root      5 :     6.035707004758922   Change is   -0.000031243898446
 Root      6 :     6.135125077473552   Change is   -0.000602296088348
 Root      7 :     6.229859817604263   Change is   -0.000061687566254
 Root      8 :     6.403069137286606   Change is   -0.000491925636644
 Root      9 :     6.502495090869536   Change is   -0.000006894777854
 Root     10 :     6.983598729944934   Change is   -0.000032940946969
 Root     11 :     7.023874715369870   Change is   -0.000015217488988
 Root     12 :     7.384775980361676   Change is   -0.000035022734946
 Root     13 :     7.418571274934013   Change is   -0.000030774211873
 Root     14 :     7.515795768635692   Change is   -0.000004077350246
 Root     15 :     7.654234884051997   Change is   -0.000008942392201
 Iteration     4 Dimension   143 NMult   135 NNew      8
 CISAX will form     8 AO SS matrices at one time.
 NMat=     8 NSing=     8 JSym2X= 0.
 Root      1 not converged, maximum delta is    0.000074095414157
 Root      2 not converged, maximum delta is    0.000011244645702
 Root      3 not converged, maximum delta is    0.000004461258522
 Root      4 not converged, maximum delta is    0.000007102760739
 Root      5 not converged, maximum delta is    0.000027613986348
 Root      6 not converged, maximum delta is    0.000111257063175
 Root      7 not converged, maximum delta is    0.000030546858742
 Root      8 not converged, maximum delta is    0.000065370440562
 Root      9 not converged, maximum delta is    0.000009202547652
 Root     10 not converged, maximum delta is    0.000015172303330
 Root     11 not converged, maximum delta is    0.000013153862346
 Root     12 not converged, maximum delta is    0.000011294658695
 Root     13 not converged, maximum delta is    0.000010775578455
 Root     14 not converged, maximum delta is    0.000005000866857
 Root     15 not converged, maximum delta is    0.000018719997452
 Excitation Energies [eV] at current iteration:
 Root      1 :     4.397030177133742   Change is   -0.000001338455632
 Root      2 :     4.977370687287127   Change is   -0.000000025438012
 Root      3 :     5.036986318769206   Change is   -0.000000007249379
 Root      4 :     5.729311717971548   Change is   -0.000000017146998
 Root      5 :     6.035706805511365   Change is   -0.000000199247556
 Root      6 :     6.135122319589454   Change is   -0.000002757884097
 Root      7 :     6.229859569768117   Change is   -0.000000247836146
 Root      8 :     6.403068032959961   Change is   -0.000001104326644
 Root      9 :     6.502495066280010   Change is   -0.000000024589526
 Root     10 :     6.983598617789306   Change is   -0.000000112155629
 Root     11 :     7.023874678638010   Change is   -0.000000036731861
 Root     12 :     7.384775933496722   Change is   -0.000000046864954
 Root     13 :     7.418571237121262   Change is   -0.000000037812751
 Root     14 :     7.515795762110838   Change is   -0.000000006524854
 Root     15 :     7.654234833168656   Change is   -0.000000050883340
 Convergence achieved on expansion vectors.
 ***********************************************************************
 Excited states from <AA,BB:AA,BB> singles matrix:
 ***********************************************************************
 
 1PDM for each excited state written to RWF  633
 Ground to excited state transition densities written to RWF  633
 Ground to excited state transition electric dipole moments (Au):
       state          X           Y           Z        Dip. S.      Osc.
         1         0.7624      0.4806      0.0533      0.8151      0.0878
         2        -0.1144      0.0322      0.0239      0.0147      0.0018
         3        -0.0784      0.1640     -0.0960      0.0422      0.0052
         4         0.0405     -0.0198      0.0883      0.0098      0.0014
         5        -0.2178      0.2299      0.0525      0.1031      0.0152
         6        -0.8062      1.1570     -0.1022      1.9990      0.3005
         7         0.1036     -0.3098     -0.0184      0.1070      0.0163
         8        -0.5499     -0.8968      0.0647      1.1107      0.1742
         9        -0.0914      0.1350      0.0733      0.0320      0.0051
        10        -0.0864      0.0939      0.0537      0.0192      0.0033
        11        -0.0620     -0.1538     -0.0036      0.0275      0.0047
        12         0.0034     -0.1168     -0.0573      0.0169      0.0031
        13        -0.0049      0.0495      0.1235      0.0177      0.0032
        14        -0.0476     -0.0016      0.0747      0.0079      0.0014
        15         0.0355      0.0421     -0.0861      0.0105      0.0020
 Ground to excited state transition velocity dipole moments (Au):
       state          X           Y           Z        Dip. S.      Osc.
         1        -0.0302     -0.0413     -0.0107      0.0027      0.0113
         2        -0.0034     -0.0022     -0.0043      0.0000      0.0001
         3        -0.0002     -0.0012      0.0232      0.0005      0.0019
         4        -0.0042      0.0098     -0.0403      0.0017      0.0055
         5         0.0383     -0.0457     -0.0672      0.0081      0.0243
         6         0.1455     -0.2401      0.0385      0.0803      0.2374
         7        -0.0206      0.0583      0.0160      0.0041      0.0119
         8         0.0914      0.1837     -0.0187      0.0424      0.1202
         9         0.0143     -0.0283     -0.1831      0.0345      0.0963
        10         0.0161     -0.0247      0.0396      0.0024      0.0063
        11         0.0028      0.0362     -0.0088      0.0014      0.0036
        12         0.0004      0.0302      0.0150      0.0011      0.0028
        13        -0.0056     -0.0062      0.0017      0.0001      0.0002
        14         0.0080      0.0012      0.0477      0.0023      0.0057
        15        -0.0094     -0.0040      0.0331      0.0012      0.0028
 Ground to excited state transition magnetic dipole moments (Au):
       state          X           Y           Z
         1        -0.0215     -0.0042      0.6402
         2         0.1364     -0.6286     -0.0253
         3         0.0254      0.1846     -0.0753
         4         0.3546      0.0759     -0.0004
         5         0.0181      0.0551     -0.0302
         6        -0.1833     -0.0253     -0.1191
         7        -0.0918     -0.1346      0.0443
         8         0.0897      0.1737     -0.0082
         9        -0.0618     -0.0600     -0.0346
        10         1.5275     -0.3088     -0.0012
        11        -0.4586     -0.6050      0.0140
        12        -0.7621     -0.8636      0.0279
        13         0.0123      0.2768     -0.0219
        14         0.2681      0.2523      0.0061
        15         0.4848     -0.1107     -0.0562
 Ground to excited state transition velocity quadrupole moments (Au):
       state          XX          YY          ZZ          XY          XZ          YZ
         1        -0.2158      0.1982      0.0147      0.4214     -0.0331     -0.0141
         2         0.0519     -0.0509      0.0119     -0.0404     -0.1418     -0.0307
         3         0.1050     -0.1507      0.0687     -0.0253      0.0407      0.0023
         4        -0.0126      0.0018     -0.0050      0.0105      0.0484      0.2554
         5         0.0409     -0.0583      0.0218      0.0942     -0.0472      0.0857
         6         0.2024     -0.0692     -0.0325      0.3553      0.0601     -0.0238
         7        -0.1026      0.0408      0.0509     -0.0043      0.1383     -0.1932
         8        -0.4304      0.3252      0.0202      0.3227     -0.0478     -0.0362
         9         0.0653     -0.0404     -0.0003      0.0236      0.0238      0.0574
        10         0.0203      0.0096     -0.0035      0.0547      0.0745     -0.0546
        11        -0.0595      0.0604     -0.0137      0.0295      0.2925      0.1566
        12        -0.0683      0.0357     -0.0039      0.0264     -0.0800     -0.0412
        13         0.0114     -0.0149     -0.0018     -0.0114      0.1298     -0.0343
        14        -0.0178      0.0541     -0.0143      0.0049     -0.1845      0.2370
        15        -0.0015     -0.0043      0.0029     -0.0199     -0.0753      0.2854
 <0|del|b> * <b|rxdel|0> + <0|del|b> * <b|delr+rdel|0>
 Rotatory Strengths (R) in cgs (10**-40 erg-esu-cm/Gauss)
       state          XX          YY          ZZ    R(velocity)    E-M Angle
         1       -27.4428     -2.7697      3.8656     -8.7823      100.36
         2         2.5887     -0.8278      2.1228      1.2946       74.69
         3        -4.7709     -2.2289     -0.5078     -2.5026      114.91
         4        -0.2307     -3.5205      1.3576     -0.7979       92.70
         5       -14.3090     19.6726     -4.7037      0.2200       87.98
         6        46.4686    -75.9256    -49.5083    -26.3218      113.81
         7       -23.5556     10.2703     -2.8972     -5.3942      119.09
         8        52.3004     16.6497     52.0295     40.3265        2.93
         9         6.4634     15.6724     -0.9969      7.0463       65.53
        10        15.9368     29.5386     42.9607     29.4787       65.31
        11       -45.0701     -0.9829    -17.8942    -21.3158      145.31
        12       -29.7759     -0.4266    -37.5403    -22.5809      132.00
        13        -1.2613      0.1360     -3.6227     -1.5827      140.39
        14         1.3293      5.2165      0.4178      2.3212       81.22
        15        -2.9887    -10.6324     -1.4381     -5.0197      110.22
 1/2[<0|r|b>*<b|rxdel|0> + (<0|rxdel|b>*<b|r|0>)*]
 Rotatory Strengths (R) in cgs (10**-40 erg-esu-cm/Gauss)
       state          XX          YY          ZZ     R(length)
         1        11.5814      1.4439    -24.1299     -3.7015
         2        11.0368     14.3245      0.4281      8.5965
         3         1.4105    -21.4040     -5.1115     -8.3683
         4       -10.1573      1.0621      0.0245     -3.0236
         5         2.7852     -8.9595      1.1207     -1.6846
         6      -104.5126     20.7312     -8.6076    -30.7964
         7         6.7271    -29.4812      0.5771     -7.3923
         8        34.8955    110.1503      0.3764     48.4740
         9        -3.9924      5.7298      1.7924      1.1766
        10        93.3410     20.4980      0.0453     37.9614
        11       -20.1110    -65.7895      0.0355    -28.6217
        12         1.8387    -71.3420      1.1313    -22.7907
        13         0.0423     -9.6894      1.9115     -2.5785
        14         9.0317      0.2922     -0.3249      2.9997
        15       -12.1743      3.2987     -3.4209     -4.0989
  1/2[<0|del|b>*<b|r|0> + (<0|r|b>*<b|del|0>)*] (Au)
       state          X           Y           Z        Dip. S.   Osc.(frdel)
         1        -0.0230     -0.0199     -0.0006      0.0434      0.0290
         2         0.0004     -0.0001     -0.0001     -0.0002     -0.0001
         3         0.0000     -0.0002     -0.0022      0.0024      0.0016
         4        -0.0002     -0.0002     -0.0036      0.0039      0.0026
         5        -0.0084     -0.0105     -0.0035      0.0224      0.0149
         6        -0.1173     -0.2778     -0.0039      0.3990      0.2660
         7        -0.0021     -0.0180     -0.0003      0.0205      0.0137
         8        -0.0502     -0.1647     -0.0012      0.2162      0.1441
         9        -0.0013     -0.0038     -0.0134      0.0186      0.0124
        10        -0.0014     -0.0023      0.0021      0.0016      0.0011
        11        -0.0002     -0.0056      0.0000      0.0057      0.0038
        12         0.0000     -0.0035     -0.0009      0.0044      0.0029
        13         0.0000     -0.0003      0.0002      0.0001      0.0000
        14        -0.0004      0.0000      0.0036     -0.0032     -0.0021
        15        -0.0003     -0.0002     -0.0028      0.0034      0.0022

 Excitation energies and oscillator strengths:
 
 Excited State   1:      Singlet-A      4.3970 eV  281.97 nm  f=0.0878  <S**2>=0.000
      12 -> 15         0.20134
      13 -> 14         0.66777
 This state for optimization and/or second-order correction.
 Total Energy, E(CIS) =  0.188105700427    
 Copying the excited state density for this state as the 1-particle RhoCI density.
 
 Excited State   2:      Singlet-A      4.9774 eV  249.10 nm  f=0.0018  <S**2>=0.000
      12 -> 14        -0.11211
      13 -> 15         0.18170
      13 -> 16         0.65361
      13 -> 22         0.10874
 
 Excited State   3:      Singlet-A      5.0370 eV  246.15 nm  f=0.0052  <S**2>=0.000
      12 -> 14        -0.41713
      13 -> 15         0.52518
      13 -> 16        -0.20786
 
 Excited State   4:      Singlet-A      5.7293 eV  216.40 nm  f=0.0014  <S**2>=0.000
      12 -> 18         0.17981
      12 -> 20        -0.12624
      13 -> 18         0.52602
      13 -> 20        -0.25510
      13 -> 21        -0.10580
      13 -> 22         0.15147
      13 -> 23         0.15039
 
 Excited State   5:      Singlet-A      6.0357 eV  205.42 nm  f=0.0152  <S**2>=0.000
       7 -> 16        -0.17847
      12 -> 14         0.10845
      12 -> 16         0.63308
      12 -> 22         0.11837
 
 Excited State   6:      Singlet-A      6.1351 eV  202.09 nm  f=0.3005  <S**2>=0.000
      12 -> 14         0.48553
      12 -> 15         0.15227
      12 -> 16        -0.14086
      13 -> 15         0.38867
      13 -> 19         0.10126
 
 Excited State   7:      Singlet-A      6.2299 eV  199.02 nm  f=0.0163  <S**2>=0.000
      12 -> 19        -0.22010
      12 -> 22        -0.12553
      12 -> 23         0.13458
      13 -> 17         0.20614
      13 -> 19         0.41817
      13 -> 22         0.23709
      13 -> 23        -0.21444
 
 Excited State   8:      Singlet-A      6.4031 eV  193.63 nm  f=0.1742  <S**2>=0.000
      12 -> 14        -0.11121
      12 -> 15         0.63798
      13 -> 14        -0.18774
 
 Excited State   9:      Singlet-A      6.5025 eV  190.67 nm  f=0.0051  <S**2>=0.000
      11 -> 14         0.10736
      13 -> 17         0.58321
      13 -> 18         0.17480
      13 -> 19        -0.27392
 
 Excited State  10:      Singlet-A      6.9836 eV  177.54 nm  f=0.0033  <S**2>=0.000
       9 -> 14         0.26827
      10 -> 14        -0.23846
      11 -> 14         0.40654
      11 -> 15         0.21185
      12 -> 17         0.24458
      12 -> 18         0.17306
 
 Excited State  11:      Singlet-A      7.0239 eV  176.52 nm  f=0.0047  <S**2>=0.000
       9 -> 14        -0.13836
      10 -> 14         0.13408
      11 -> 14        -0.24137
      11 -> 15        -0.13914
      12 -> 17         0.43206
      12 -> 18         0.19705
      12 -> 19        -0.16524
      12 -> 20        -0.14693
      12 -> 21         0.13644
      12 -> 23        -0.14293
      13 -> 18        -0.12287
      13 -> 19        -0.12817
      13 -> 22         0.11044
 
 Excited State  12:      Singlet-A      7.3848 eV  167.89 nm  f=0.0031  <S**2>=0.000
       9 -> 15        -0.10549
      10 -> 14         0.49573
      10 -> 15        -0.32315
      11 -> 14         0.27852
      13 -> 22         0.10971
 
 Excited State  13:      Singlet-A      7.4186 eV  167.13 nm  f=0.0032  <S**2>=0.000
      11 -> 15        -0.12176
      12 -> 17         0.23259
      12 -> 18        -0.27271
      12 -> 19         0.19708
      12 -> 20        -0.13471
      12 -> 21         0.15648
      12 -> 23        -0.15769
      13 -> 18         0.16365
      13 -> 19         0.32823
      13 -> 21         0.22720
      13 -> 22        -0.13292
 
 Excited State  14:      Singlet-A      7.5158 eV  164.96 nm  f=0.0014  <S**2>=0.000
      10 -> 14         0.12894
      12 -> 18         0.31766
      12 -> 19         0.25386
      12 -> 22         0.20362
      13 -> 17         0.16599
      13 -> 18        -0.19611
      13 -> 19         0.17714
      13 -> 20        -0.20139
      13 -> 21         0.13087
      13 -> 22        -0.20681
      13 -> 24         0.20872
 
 Excited State  15:      Singlet-A      7.6542 eV  161.98 nm  f=0.0020  <S**2>=0.000
      12 -> 18        -0.15186
      12 -> 19         0.23996
      12 -> 20         0.10222
      12 -> 22         0.16493
      13 -> 18        -0.15318
      13 -> 21         0.11062
      13 -> 22         0.50004
      13 -> 23         0.18464
 SavETr:  write IOETrn=   770 NScale= 10 NData=  16 NLR=1 NState=   15 LETran=     280.
 The selected state is a singlet
 CISAX will form     1 AO SS matrices at one time.
 NMat=     1 NSing=     1 JSym2X= 0.
 Leave Link  914 at Tue Dec 15 16:14:41 2015, MaxMem=    33554432 cpu:         0.1
 (Enter /home/Applications/g09/g09/l1002.exe)
 Minotr:  Closed shell wavefunction.
          Computing CIS/TD-HF/TD-KS derivatives.
          Using Z-Vector for PSCF gradient.
          Skipping F1 and S1 gradient terms here.
          IDoAtm=111111111
          Direct CPHF calculation.
          Differentiating once with respect to electric field.
                with respect to dipole field.
          Differentiating once with respect to nuclear coordinates.
          Electric field/nuclear overlap derivatives assumed to be zero.
          Requested convergence is 1.0D-10 RMS, and 1.0D-09 maximum.
          NewPWx=T KeepS1=F KeepF1=F KeepIn=T MapXYZ=F SortEE=F KeepMc=T.
          MDV=      33495423 using IRadAn=       0.
 Keep J ints in memory in canonical form, NReq=871704.
 FoFCou: FMM=F IPFlag=           0 FMFlag=           0 FMFlg1=           0
         NFxFlg=           0 DoJE=F BraDBF=F KetDBF=F FulRan=T
         wScrn=  0.000000 ICntrl=     600 IOpCl=  2 I1Cent=           0 NGrid=           0
         NMat0=    1 NMatS0=     54 NMatT0=    0 NMatD0=    1 NMtDS0=    0 NMtDT0=    0
 Symmetry not used in FoFCou.
          Solving linear equations separately, MaxMat=       0.
          There are     1 degrees of freedom in the 1st order CPHF.  IDoFFX=0 NUNeed=     1.
 LinEq1:  Iter=  0 NonCon=     1 RMS=1.06D-02 Max=6.27D-02 NDo=     1
 AX will form     1 AO Fock derivatives at one time.
 LinEq1:  Iter=  1 NonCon=     1 RMS=2.01D-03 Max=1.44D-02 NDo=     1
 LinEq1:  Iter=  2 NonCon=     1 RMS=3.40D-04 Max=3.00D-03 NDo=     1
 LinEq1:  Iter=  3 NonCon=     1 RMS=5.20D-05 Max=3.17D-04 NDo=     1
 LinEq1:  Iter=  4 NonCon=     1 RMS=6.67D-06 Max=3.02D-05 NDo=     1
 LinEq1:  Iter=  5 NonCon=     1 RMS=1.16D-06 Max=7.70D-06 NDo=     1
 LinEq1:  Iter=  6 NonCon=     1 RMS=1.35D-07 Max=4.69D-07 NDo=     1
 LinEq1:  Iter=  7 NonCon=     1 RMS=1.77D-08 Max=8.50D-08 NDo=     1
 LinEq1:  Iter=  8 NonCon=     1 RMS=2.03D-09 Max=5.47D-09 NDo=     1
 LinEq1:  Iter=  9 NonCon=     1 RMS=2.36D-10 Max=8.83D-10 NDo=     1
 LinEq1:  Iter= 10 NonCon=     0 RMS=2.70D-11 Max=9.90D-11 NDo=     1
 Linear equations converged to 1.000D-10 1.000D-09 after    10 iterations.
 End of Minotr F.D. properties file   721 does not exist.
 End of Minotr F.D. properties file   722 does not exist.
 End of Minotr F.D. properties file   788 does not exist.
 Leave Link 1002 at Tue Dec 15 16:14:41 2015, MaxMem=    33554432 cpu:         0.0
 (Enter /home/Applications/g09/g09/l601.exe)
 Copying SCF densities to generalized density rwf, IOpCl= 0 IROHF=0.

 **********************************************************************

            Population analysis using the SCF density.

 **********************************************************************

 Orbital symmetries:
       Occupied  (A) (A) (A) (A) (A) (A) (A) (A) (A) (A) (A) (A)
                 (A)
       Virtual   (A) (A) (A) (A) (A) (A) (A) (A) (A) (A) (A)
 The electronic state is 1-A.
 Alpha  occ. eigenvalues --   -1.57588  -1.23584  -1.10311  -0.83149  -0.81218
 Alpha  occ. eigenvalues --   -0.68893  -0.60740  -0.56841  -0.51421  -0.50434
 Alpha  occ. eigenvalues --   -0.49344  -0.39364  -0.34585
 Alpha virt. eigenvalues --    0.02847   0.06382   0.09982   0.14139   0.14323
 Alpha virt. eigenvalues --    0.15940   0.17777   0.18227   0.19089   0.20759
 Alpha virt. eigenvalues --    0.22476
     Molecular Orbital Coefficients:
                           1         2         3         4         5
                           O         O         O         O         O
     Eigenvalues --    -1.57588  -1.23584  -1.10311  -0.83149  -0.81218
   1 1   C  1S          0.25514  -0.46149   0.31341   0.44411  -0.07037
   2        1PX         0.09221  -0.10282  -0.09580  -0.12989  -0.19167
   3        1PY        -0.07896   0.01007  -0.14537   0.11386  -0.28688
   4        1PZ         0.00009  -0.00061   0.00159   0.00264   0.00944
   5 2   C  1S          0.33100  -0.12096   0.52951  -0.27498   0.33676
   6        1PX         0.17058   0.10351  -0.00012  -0.11520  -0.21549
   7        1PY         0.03894  -0.19119   0.01880   0.29838   0.08048
   8        1PZ        -0.00554  -0.00243  -0.00721   0.00787   0.01154
   9 3   O  1S          0.64647   0.57743   0.04039   0.10359  -0.28322
  10        1PX        -0.03612   0.02071  -0.32422   0.44951   0.17051
  11        1PY         0.19949  -0.02563  -0.10043   0.05989   0.22110
  12        1PZ         0.01291   0.00556  -0.00218   0.00269   0.02359
  13 4   C  1S          0.40070  -0.13308  -0.49844  -0.06112   0.37362
  14        1PX        -0.17742   0.02110  -0.02319  -0.01195   0.13601
  15        1PY        -0.07554  -0.26390  -0.02722  -0.35051  -0.14665
  16        1PZ        -0.01563  -0.00082   0.01566  -0.00610   0.00138
  17 5   C  1S          0.28974  -0.48764  -0.25773  -0.19669  -0.36395
  18        1PX        -0.02430   0.07001  -0.19400  -0.27288   0.15252
  19        1PY        -0.13276   0.06001   0.07986   0.04281  -0.21421
  20        1PZ         0.00596  -0.01015  -0.00657  -0.00884   0.00315
  21 6   H  1S          0.05894  -0.14889  -0.09727  -0.11302  -0.23161
  22 7   H  1S          0.09238  -0.02508  -0.20612   0.00578   0.26135
  23 8   H  1S          0.07366  -0.02869   0.21324  -0.19506   0.21458
  24 9   H  1S          0.05604  -0.14863   0.12635   0.29305  -0.03917
                           6         7         8         9        10
                           O         O         O         O         O
     Eigenvalues --    -0.68893  -0.60740  -0.56841  -0.51421  -0.50434
   1 1   C  1S         -0.07737   0.00065  -0.16369   0.02987  -0.02893
   2        1PX         0.22047   0.01007   0.20487   0.44739   0.06011
   3        1PY        -0.16620   0.03350  -0.08077  -0.33842   0.17180
   4        1PZ        -0.00171   0.19778  -0.00868  -0.01417  -0.03693
   5 2   C  1S         -0.08598   0.00210   0.13425   0.05708   0.08132
   6        1PX         0.29754   0.02672  -0.39963   0.05653   0.24949
   7        1PY         0.20784  -0.03018  -0.08161   0.27645  -0.12901
   8        1PZ         0.00024   0.34390   0.01658   0.00018  -0.03255
   9 3   O  1S         -0.19280  -0.01712  -0.01225   0.05772  -0.19278
  10        1PX        -0.13119  -0.01139   0.43271   0.06427  -0.19903
  11        1PY         0.46964  -0.02418   0.12388  -0.32105   0.47091
  12        1PZ         0.02169   0.77596   0.01383   0.00500  -0.00290
  13 4   C  1S         -0.07802   0.01872  -0.14910  -0.05536   0.01567
  14        1PX        -0.39377  -0.01361  -0.30815   0.35936   0.21205
  15        1PY        -0.03343  -0.02945  -0.22743  -0.08236  -0.37884
  16        1PZ        -0.00359   0.42068  -0.02461   0.02324  -0.02259
  17 5   C  1S         -0.09950  -0.00053   0.19033   0.02354  -0.02171
  18        1PX        -0.13890  -0.02003  -0.08278  -0.27076  -0.14987
  19        1PY        -0.26939   0.03181   0.19031   0.05545   0.46361
  20        1PZ         0.00341   0.23762  -0.01913  -0.00717  -0.05193
  21 6   H  1S         -0.22899   0.01599   0.21058  -0.02337   0.29130
  22 7   H  1S         -0.27081   0.00036  -0.26803   0.26388   0.25350
  23 8   H  1S         -0.26338   0.00145   0.32978  -0.14805  -0.00983
  24 9   H  1S         -0.20992   0.01151  -0.25087  -0.42682   0.02360
                          11        12        13        14        15
                           O         O         O         V         V
     Eigenvalues --    -0.49344  -0.39364  -0.34585   0.02847   0.06382
   1 1   C  1S         -0.04279  -0.00554  -0.00142  -0.00454   0.01145
   2        1PX        -0.32202   0.03516   0.01643  -0.01593  -0.00590
   3        1PY        -0.40049   0.01849   0.01346   0.00354   0.00677
   4        1PZ         0.03217   0.54939   0.43348  -0.46216  -0.50375
   5 2   C  1S          0.04946   0.00554   0.01502   0.00873   0.00667
   6        1PX         0.05959  -0.00439   0.02829   0.00260   0.00603
   7        1PY         0.44256  -0.00523  -0.00811   0.00247  -0.00355
   8        1PZ         0.01953   0.12584   0.63450   0.63491   0.23890
   9 3   O  1S          0.07037   0.00254  -0.00232   0.00811   0.00680
  10        1PX         0.04281  -0.00001  -0.00251  -0.00213   0.01318
  11        1PY         0.05113   0.04617  -0.00154   0.01669   0.02004
  12        1PZ         0.01228  -0.50132   0.00475  -0.36359   0.09829
  13 4   C  1S         -0.09063   0.00827  -0.03092   0.02731  -0.03673
  14        1PX        -0.03382   0.00387   0.02989  -0.00826   0.01612
  15        1PY         0.05443  -0.00708   0.00399   0.01283   0.03324
  16        1PZ         0.00640   0.21056  -0.54754   0.46717  -0.50222
  17 5   C  1S          0.01515  -0.02229   0.01245  -0.00458  -0.01836
  18        1PX         0.44624  -0.03243   0.00551  -0.01250  -0.00128
  19        1PY         0.30009   0.03830  -0.02044   0.00908   0.00881
  20        1PZ         0.01195   0.61575  -0.32409  -0.17495   0.64978
  21 6   H  1S          0.37020   0.01285  -0.01391   0.00137   0.00506
  22 7   H  1S         -0.10718   0.01107   0.01838  -0.01564   0.02860
  23 8   H  1S         -0.26589   0.01322  -0.00666  -0.00507  -0.00217
  24 9   H  1S         -0.00990  -0.00931   0.00637  -0.00085  -0.01280
                          16        17        18        19        20
                           V         V         V         V         V
     Eigenvalues --     0.09982   0.14139   0.14323   0.15940   0.17777
   1 1   C  1S          0.06805  -0.32491   0.22842  -0.03125  -0.04867
   2        1PX        -0.02711  -0.24354  -0.14773   0.24664   0.30778
   3        1PY         0.00670  -0.14384  -0.37799  -0.19358   0.38721
   4        1PZ         0.01462   0.00360   0.00657  -0.01429  -0.00410
   5 2   C  1S         -0.31766   0.14209  -0.39776  -0.14732   0.22566
   6        1PX        -0.38098  -0.16803   0.01532   0.38357  -0.10229
   7        1PY         0.24110  -0.06501  -0.22818   0.00721   0.18194
   8        1PZ         0.00839   0.00138   0.01902   0.00103  -0.01033
   9 3   O  1S          0.23988  -0.01873  -0.04387  -0.02683   0.03446
  10        1PX        -0.22605  -0.03824  -0.21707   0.21778   0.08667
  11        1PY         0.44092  -0.05581  -0.13105   0.05240   0.02925
  12        1PZ         0.04482  -0.00932  -0.01203  -0.01088   0.00747
  13 4   C  1S         -0.23063  -0.26725   0.10115  -0.38430  -0.12665
  14        1PX         0.10123  -0.31891  -0.21844   0.10166  -0.10547
  15        1PY         0.34785  -0.10590  -0.12595  -0.15525   0.18238
  16        1PZ         0.03001   0.01473  -0.02098   0.04620   0.01790
  17 5   C  1S          0.03186   0.29644  -0.20906   0.15171  -0.38969
  18        1PX        -0.02242  -0.25880  -0.18404   0.34682   0.08654
  19        1PY         0.06755  -0.12530  -0.22907  -0.23596  -0.32742
  20        1PZ        -0.02684   0.01093  -0.00142   0.01518  -0.02291
  21 6   H  1S         -0.12418  -0.04503   0.48208  -0.03389   0.51038
  22 7   H  1S          0.27830   0.51610   0.09996   0.17941   0.20330
  23 8   H  1S          0.28209  -0.30357   0.21391   0.38463  -0.12519
  24 9   H  1S         -0.14307   0.20243  -0.11569   0.34041   0.05862
                          21        22        23        24
                           V         V         V         V
     Eigenvalues --     0.18227   0.19089   0.20759   0.22476
   1 1   C  1S         -0.43467   0.13526   0.10509   0.03137
   2        1PX         0.11522   0.09739   0.47726  -0.17388
   3        1PY        -0.19741  -0.21030  -0.27227  -0.16921
   4        1PZ        -0.00736   0.00188  -0.00917   0.01947
   5 2   C  1S         -0.05560   0.02139  -0.06832   0.09020
   6        1PX        -0.07788  -0.33480  -0.17043   0.32137
   7        1PY         0.24746  -0.41490  -0.23183  -0.30260
   8        1PZ         0.00299   0.00443   0.00471  -0.02297
   9 3   O  1S          0.05141   0.08695  -0.00214   0.03088
  10        1PX        -0.10271  -0.02704  -0.05189   0.49304
  11        1PY         0.03178   0.27046  -0.03852   0.19054
  12        1PZ         0.01594   0.01300  -0.00014   0.01521
  13 4   C  1S          0.20544  -0.15063   0.13257  -0.07488
  14        1PX         0.23097   0.42952  -0.31135   0.07950
  15        1PY         0.09703  -0.09809   0.16629   0.56489
  16        1PZ        -0.02664   0.02668  -0.01783   0.02073
  17 5   C  1S         -0.02257   0.10259  -0.24968  -0.10703
  18        1PX        -0.40720   0.13178   0.17900  -0.30350
  19        1PY        -0.03225  -0.29270   0.41662   0.09418
  20        1PZ         0.00652   0.01268  -0.01898  -0.02883
  21 6   H  1S          0.15890   0.10166  -0.16262   0.07130
  22 7   H  1S         -0.29520  -0.21811   0.15108   0.05540
  23 8   H  1S          0.13500  -0.41103  -0.15485  -0.02923
  24 9   H  1S          0.51981   0.05995   0.33355  -0.04403
     Density Matrix:
                           1         2         3         4         5
   1 1   C  1S          1.22973
   2        1PX        -0.05729   0.96302
   3        1PY         0.05688  -0.03656   0.92591
   4        1PZ        -0.00280   0.01025   0.01303   1.06326
   5 2   C  1S          0.28455  -0.02619  -0.50715   0.02025   1.26318
   6        1PX        -0.01192   0.13354   0.04036   0.01522  -0.09865
   7        1PY         0.44252  -0.06169  -0.63796   0.00956  -0.02168
   8        1PZ        -0.00773   0.02160   0.01316   0.82800   0.01570
   9 3   O  1S         -0.00350  -0.03272  -0.01283   0.00675   0.09527
  10        1PX         0.02481  -0.00578  -0.06838   0.00642  -0.38683
  11        1PY        -0.07999  -0.04205   0.04603   0.01792   0.14574
  12        1PZ        -0.00275  -0.01610  -0.00430  -0.23879   0.01846
  13 4   C  1S         -0.02756  -0.01540   0.01688  -0.00750   0.01474
  14        1PX         0.01947  -0.01173  -0.00814   0.00583   0.00908
  15        1PY        -0.01072  -0.07035  -0.05344   0.01751  -0.04203
  16        1PZ         0.00752   0.00292  -0.00649  -0.07503  -0.00801
  17 5   C  1S          0.26755   0.43535   0.14966  -0.02304  -0.03112
  18        1PX        -0.45925  -0.61465  -0.25651   0.01133   0.00456
  19        1PY        -0.07503  -0.10720   0.07480   0.01439   0.02314
  20        1PZ         0.00169   0.01628   0.00631   0.49473  -0.00929
  21 6   H  1S         -0.04479  -0.05997  -0.01422   0.00339   0.05523
  22 7   H  1S          0.04919   0.06778   0.02478   0.00507   0.05782
  23 8   H  1S         -0.05859   0.00437   0.10274  -0.00395   0.62231
  24 9   H  1S          0.59948  -0.61268   0.45645   0.01603  -0.05767
                           6         7         8         9        10
   6        1PX         0.83655
   7        1PY         0.07678   0.94744
   8        1PZ         0.01699  -0.00241   1.07739
   9 3   O  1S          0.25099  -0.08586  -0.01472   1.85401
  10        1PX        -0.69661   0.27311   0.03390   0.07814   1.17628
  11        1PY         0.33713   0.01514  -0.02601  -0.28710  -0.06090
  12        1PZ         0.04334  -0.01635   0.41513  -0.02428   0.00260
  13 4   C  1S          0.02501  -0.03667  -0.02279   0.10793   0.23128
  14        1PX         0.04329  -0.00704   0.00929  -0.17172  -0.13995
  15        1PY         0.03230  -0.01337  -0.00417  -0.23056  -0.39547
  16        1PZ        -0.00539   0.00442  -0.35170  -0.01844  -0.02874
  17 5   C  1S         -0.01670  -0.01697   0.00949   0.00283   0.02879
  18        1PX        -0.06579   0.06693   0.01128   0.03624  -0.03457
  19        1PY         0.01072  -0.00759  -0.01092   0.00261   0.00876
  20        1PZ        -0.01841   0.00836  -0.08964   0.00838  -0.00394
  21 6   H  1S         -0.00262   0.06229  -0.00670   0.02399   0.02682
  22 7   H  1S          0.10999  -0.02908   0.00495  -0.04442  -0.01690
  23 8   H  1S         -0.50245  -0.53523  -0.00498  -0.03982   0.06964
  24 9   H  1S         -0.02332  -0.06333   0.00514   0.02077  -0.06947
                          11        12        13        14        15
  11        1PY         1.33814
  12        1PZ        -0.04866   1.71014
  13 4   C  1S          0.35547   0.03842   1.22252
  14        1PX        -0.48827  -0.04669   0.10244   0.95491
  15        1PY        -0.50331  -0.05717   0.02904  -0.07064   0.85499
  16        1PZ        -0.05368   0.43579   0.03041  -0.01256  -0.00091
  17 5   C  1S         -0.07452   0.00828   0.32257  -0.23740   0.40701
  18        1PX        -0.01424   0.00901   0.29173  -0.05873   0.37919
  19        1PY         0.06621  -0.00339  -0.42490   0.29590  -0.38201
  20        1PZ         0.00630  -0.25137   0.05876  -0.04112   0.03508
  21 6   H  1S          0.09949   0.00361  -0.05621   0.04811  -0.03614
  22 7   H  1S         -0.06566  -0.01562   0.60017   0.73072  -0.17742
  23 8   H  1S         -0.04635  -0.01159   0.04600  -0.06296  -0.06361
  24 9   H  1S          0.05689   0.00554   0.05066  -0.02583   0.04816
                          16        17        18        19        20
  16        1PZ         1.04669
  17 5   C  1S         -0.04479   1.21469
  18        1PX        -0.03327   0.01897   0.92678
  19        1PY         0.04877   0.07783   0.03334   0.99014
  20        1PZ         0.81696  -0.02353  -0.01408   0.01869   1.08838
  21 6   H  1S          0.01196   0.56480   0.28791   0.73629   0.00729
  22 7   H  1S         -0.00924  -0.05828  -0.04692   0.07207  -0.01652
  23 8   H  1S         -0.00270   0.04388  -0.05503  -0.01389   0.00712
  24 9   H  1S         -0.00963  -0.04906   0.07085   0.01531  -0.00193
                          21        22        23        24
  21 6   H  1S          0.84274
  22 7   H  1S          0.00301   0.82201
  23 8   H  1S         -0.01516  -0.02315   0.81373
  24 9   H  1S         -0.00501  -0.01432   0.01552   0.83739
    Full Mulliken population analysis:
                           1         2         3         4         5
   1 1   C  1S          1.22973
   2        1PX         0.00000   0.96302
   3        1PY         0.00000   0.00000   0.92591
   4        1PZ         0.00000   0.00000   0.00000   1.06326
   5 2   C  1S          0.00000   0.00000   0.00000   0.00000   1.26318
   6        1PX         0.00000   0.00000   0.00000   0.00000   0.00000
   7        1PY         0.00000   0.00000   0.00000   0.00000   0.00000
   8        1PZ         0.00000   0.00000   0.00000   0.00000   0.00000
   9 3   O  1S          0.00000   0.00000   0.00000   0.00000   0.00000
  10        1PX         0.00000   0.00000   0.00000   0.00000   0.00000
  11        1PY         0.00000   0.00000   0.00000   0.00000   0.00000
  12        1PZ         0.00000   0.00000   0.00000   0.00000   0.00000
  13 4   C  1S          0.00000   0.00000   0.00000   0.00000   0.00000
  14        1PX         0.00000   0.00000   0.00000   0.00000   0.00000
  15        1PY         0.00000   0.00000   0.00000   0.00000   0.00000
  16        1PZ         0.00000   0.00000   0.00000   0.00000   0.00000
  17 5   C  1S          0.00000   0.00000   0.00000   0.00000   0.00000
  18        1PX         0.00000   0.00000   0.00000   0.00000   0.00000
  19        1PY         0.00000   0.00000   0.00000   0.00000   0.00000
  20        1PZ         0.00000   0.00000   0.00000   0.00000   0.00000
  21 6   H  1S          0.00000   0.00000   0.00000   0.00000   0.00000
  22 7   H  1S          0.00000   0.00000   0.00000   0.00000   0.00000
  23 8   H  1S          0.00000   0.00000   0.00000   0.00000   0.00000
  24 9   H  1S          0.00000   0.00000   0.00000   0.00000   0.00000
                           6         7         8         9        10
   6        1PX         0.83655
   7        1PY         0.00000   0.94744
   8        1PZ         0.00000   0.00000   1.07739
   9 3   O  1S          0.00000   0.00000   0.00000   1.85401
  10        1PX         0.00000   0.00000   0.00000   0.00000   1.17628
  11        1PY         0.00000   0.00000   0.00000   0.00000   0.00000
  12        1PZ         0.00000   0.00000   0.00000   0.00000   0.00000
  13 4   C  1S          0.00000   0.00000   0.00000   0.00000   0.00000
  14        1PX         0.00000   0.00000   0.00000   0.00000   0.00000
  15        1PY         0.00000   0.00000   0.00000   0.00000   0.00000
  16        1PZ         0.00000   0.00000   0.00000   0.00000   0.00000
  17 5   C  1S          0.00000   0.00000   0.00000   0.00000   0.00000
  18        1PX         0.00000   0.00000   0.00000   0.00000   0.00000
  19        1PY         0.00000   0.00000   0.00000   0.00000   0.00000
  20        1PZ         0.00000   0.00000   0.00000   0.00000   0.00000
  21 6   H  1S          0.00000   0.00000   0.00000   0.00000   0.00000
  22 7   H  1S          0.00000   0.00000   0.00000   0.00000   0.00000
  23 8   H  1S          0.00000   0.00000   0.00000   0.00000   0.00000
  24 9   H  1S          0.00000   0.00000   0.00000   0.00000   0.00000
                          11        12        13        14        15
  11        1PY         1.33814
  12        1PZ         0.00000   1.71014
  13 4   C  1S          0.00000   0.00000   1.22252
  14        1PX         0.00000   0.00000   0.00000   0.95491
  15        1PY         0.00000   0.00000   0.00000   0.00000   0.85499
  16        1PZ         0.00000   0.00000   0.00000   0.00000   0.00000
  17 5   C  1S          0.00000   0.00000   0.00000   0.00000   0.00000
  18        1PX         0.00000   0.00000   0.00000   0.00000   0.00000
  19        1PY         0.00000   0.00000   0.00000   0.00000   0.00000
  20        1PZ         0.00000   0.00000   0.00000   0.00000   0.00000
  21 6   H  1S          0.00000   0.00000   0.00000   0.00000   0.00000
  22 7   H  1S          0.00000   0.00000   0.00000   0.00000   0.00000
  23 8   H  1S          0.00000   0.00000   0.00000   0.00000   0.00000
  24 9   H  1S          0.00000   0.00000   0.00000   0.00000   0.00000
                          16        17        18        19        20
  16        1PZ         1.04669
  17 5   C  1S          0.00000   1.21469
  18        1PX         0.00000   0.00000   0.92678
  19        1PY         0.00000   0.00000   0.00000   0.99014
  20        1PZ         0.00000   0.00000   0.00000   0.00000   1.08838
  21 6   H  1S          0.00000   0.00000   0.00000   0.00000   0.00000
  22 7   H  1S          0.00000   0.00000   0.00000   0.00000   0.00000
  23 8   H  1S          0.00000   0.00000   0.00000   0.00000   0.00000
  24 9   H  1S          0.00000   0.00000   0.00000   0.00000   0.00000
                          21        22        23        24
  21 6   H  1S          0.84274
  22 7   H  1S          0.00000   0.82201
  23 8   H  1S          0.00000   0.00000   0.81373
  24 9   H  1S          0.00000   0.00000   0.00000   0.83739
     Gross orbital populations:
                           1
   1 1   C  1S          1.22973
   2        1PX         0.96302
   3        1PY         0.92591
   4        1PZ         1.06326
   5 2   C  1S          1.26318
   6        1PX         0.83655
   7        1PY         0.94744
   8        1PZ         1.07739
   9 3   O  1S          1.85401
  10        1PX         1.17628
  11        1PY         1.33814
  12        1PZ         1.71014
  13 4   C  1S          1.22252
  14        1PX         0.95491
  15        1PY         0.85499
  16        1PZ         1.04669
  17 5   C  1S          1.21469
  18        1PX         0.92678
  19        1PY         0.99014
  20        1PZ         1.08838
  21 6   H  1S          0.84274
  22 7   H  1S          0.82201
  23 8   H  1S          0.81373
  24 9   H  1S          0.83739
          Condensed to atoms (all electrons):
               1          2          3          4          5          6
     1  C    4.181923   0.000000   0.000000   0.000000   0.000000   0.000000
     2  C    0.000000   4.124554   0.000000   0.000000   0.000000   0.000000
     3  O    0.000000   0.000000   6.078566   0.000000   0.000000   0.000000
     4  C    0.000000   0.000000   0.000000   4.079106   0.000000   0.000000
     5  C    0.000000   0.000000   0.000000   0.000000   4.219986   0.000000
     6  H    0.000000   0.000000   0.000000   0.000000   0.000000   0.842738
     7  H    0.000000   0.000000   0.000000   0.000000   0.000000   0.000000
     8  H    0.000000   0.000000   0.000000   0.000000   0.000000   0.000000
     9  H    0.000000   0.000000   0.000000   0.000000   0.000000   0.000000
               7          8          9
     1  C    0.000000   0.000000   0.000000
     2  C    0.000000   0.000000   0.000000
     3  O    0.000000   0.000000   0.000000
     4  C    0.000000   0.000000   0.000000
     5  C    0.000000   0.000000   0.000000
     6  H    0.000000   0.000000   0.000000
     7  H    0.822014   0.000000   0.000000
     8  H    0.000000   0.813728   0.000000
     9  H    0.000000   0.000000   0.837386
 Mulliken charges:
               1
     1  C   -0.181923
     2  C   -0.124554
     3  O   -0.078566
     4  C   -0.079106
     5  C   -0.219986
     6  H    0.157262
     7  H    0.177986
     8  H    0.186272
     9  H    0.162614
 Sum of Mulliken charges =   0.00000
 Mulliken charges with hydrogens summed into heavy atoms:
               1
     1  C   -0.019308
     2  C    0.061718
     3  O   -0.078566
     4  C    0.098880
     5  C   -0.062724
 Charge=              0.0000 electrons
 Dipole moment (field-independent basis, Debye):
    X=             -0.1175    Y=              0.3365    Z=              0.0304  Tot=              0.3577
 N-N= 1.036349435304D+02 E-N=-1.712845549784D+02  KE=-1.658282744851D+01
 Orbital energies and kinetic energies (alpha):
                                 1                 2
   1         O                -1.575883         -1.319293
   2         O                -1.235835         -1.050570
   3         O                -1.103111         -0.963517
   4         O                -0.831494         -0.715658
   5         O                -0.812178         -0.718956
   6         O                -0.688931         -0.604425
   7         O                -0.607405         -0.490066
   8         O                -0.568412         -0.504168
   9         O                -0.514215         -0.439541
  10         O                -0.504341         -0.408992
  11         O                -0.493443         -0.422865
  12         O                -0.393637         -0.340912
  13         O                -0.345850         -0.312450
  14         V                 0.028471         -0.196169
  15         V                 0.063824         -0.188848
  16         V                 0.099822         -0.181886
  17         V                 0.141387         -0.223469
  18         V                 0.143234         -0.198152
  19         V                 0.159397         -0.174673
  20         V                 0.177766         -0.183676
  21         V                 0.182267         -0.193563
  22         V                 0.190889         -0.129227
  23         V                 0.207587         -0.125985
  24         V                 0.224758         -0.041204
 Total kinetic energy from orbitals=-1.658282744851D+01
 Leave Link  601 at Tue Dec 15 16:14:41 2015, MaxMem=    33554432 cpu:         0.0
 (Enter /home/Applications/g09/g09/l701.exe)
 Compute integral first derivatives.
 ... and contract with generalized density number  6.
 Leave Link  701 at Tue Dec 15 16:14:41 2015, MaxMem=    33554432 cpu:         0.0
 (Enter /home/Applications/g09/g09/l702.exe)
 L702 exits ... SP integral derivatives will be done elsewhere.
 Leave Link  702 at Tue Dec 15 16:14:41 2015, MaxMem=    33554432 cpu:         0.0
 (Enter /home/Applications/g09/g09/l703.exe)
 Compute integral first derivatives, UseDBF=F ICtDFT=           0.
 Integral derivatives from FoFJK, PRISM(SPDF).
 Calling FoFJK, ICntrl=  10005127 FMM=F ISym2X=0 I1Cent= 0 IOpClX= 0 NMat=1 NMatS=1 NMatT=0.
 FoFJK:  IHMeth= 8 ICntrl=10005127 DoSepK=F KAlg= 0 I1Cent=   0 FoldK=F
 IRaf=         0 NMat=   1 IRICut=       1 DoRegI=T DoRafI=F ISym2E= 0.
 FoFCou: FMM=F IPFlag=           0 FMFlag=      100000 FMFlg1=         800
         NFxFlg=           0 DoJE=F BraDBF=F KetDBF=F FulRan=T
         wScrn=  0.000000 ICntrl=10005127 IOpCl=  0 I1Cent=           0 NGrid=           0
         NMat0=    1 NMatS0=      1 NMatT0=    0 NMatD0=    1 NMtDS0=    0 NMtDT0=    0
 Symmetry not used in FoFCou.
 Leave Link  703 at Tue Dec 15 16:14:41 2015, MaxMem=    33554432 cpu:         0.0
 (Enter /home/Applications/g09/g09/l716.exe)
 Dipole        = 7.43253439D-02 2.54356591D-01 3.11731022D-02
 ***** Axes restored to original set *****
 -------------------------------------------------------------------
 Center     Atomic                   Forces (Hartrees/Bohr)
 Number     Number              X              Y              Z
 -------------------------------------------------------------------
      1        6           0.002807979    0.038416989    0.002806212
      2        6           0.010720751   -0.012301053    0.001321455
      3        8          -0.108146501   -0.063151373    0.001939715
      4        6          -0.071441728    0.099264303    0.002841304
      5        6           0.177241202   -0.036426000   -0.004603100
      6        1          -0.009631350   -0.011714829    0.002443913
      7        1          -0.007979576    0.026669160   -0.005113225
      8        1          -0.018208335   -0.027602280   -0.001984791
      9        1           0.024637558   -0.013154917    0.000348517
 -------------------------------------------------------------------
 Cartesian Forces:  Max     0.177241202 RMS     0.050217901
 Z-matrix is all fixed cartesians, so copy forces.
 Force constants in Cartesian coordinates: 
                1             2             3             4             5 
      1  0.840673D+00
      2 -0.847153D-01  0.789028D+00
      3 -0.235544D-03  0.196066D-01  0.186312D+00
      4 -0.410398D+00 -0.789575D-01 -0.778378D-02  0.820068D+00
      5 -0.584007D-01 -0.191676D+00 -0.486016D-02  0.420504D-01  0.874877D+00
      6 -0.595448D-02 -0.405297D-02 -0.837564D-01 -0.563373D-02  0.166148D-01
      7 -0.798997D-02  0.281259D-01  0.195096D-02 -0.252855D+00  0.140746D+00
      8 -0.540377D-02  0.192481D-01  0.199204D-03  0.183239D+00 -0.346265D+00
      9 -0.232296D-04  0.994241D-03  0.433676D-02  0.134638D-01 -0.130840D-01
     10  0.100223D-01  0.460016D-03  0.974668D-03  0.242879D-01  0.167615D-01
     11  0.354304D-01  0.157720D-02  0.460731D-02 -0.194885D-01 -0.134580D-01
     12  0.150305D-02  0.173962D-03 -0.119360D-02 -0.174317D-02 -0.122140D-02
     13 -0.166989D+00  0.223992D-01 -0.720812D-03  0.936313D-02 -0.330382D-01
     14 -0.107927D-02 -0.399247D+00 -0.125312D-01  0.403572D-03 -0.155848D-02
     15 -0.998891D-03 -0.703692D-02 -0.803985D-01 -0.161638D-03 -0.984283D-03
     16  0.171947D-01  0.827788D-03 -0.247327D-03 -0.123338D-05 -0.272009D-05
     17 -0.219933D-01 -0.106499D-02  0.561817D-03  0.000000D+00  0.218659D-05
     18 -0.932711D-03 -0.485524D-03  0.174821D-01 -0.416439D-04 -0.918408D-04
     19  0.581695D-04  0.227538D-04 -0.791899D-03  0.366415D-04  0.365037D-05
     20  0.561264D-04  0.219546D-04 -0.764085D-03  0.385489D-05  0.000000D+00
     21 -0.645835D-03 -0.252627D-03  0.879217D-02  0.462559D-03  0.460820D-04
     22  0.727698D-02 -0.257968D-01  0.317164D-03 -0.185340D+00 -0.126344D+00
     23 -0.388257D-02  0.137602D-01 -0.117792D-03 -0.120875D+00 -0.344497D+00
     24 -0.686109D-04 -0.133530D-02  0.234903D-01  0.214804D-02  0.246839D-02
     25 -0.289850D+00  0.137634D+00  0.653657D-02 -0.516177D-02  0.182233D-01
     26  0.139988D+00 -0.231648D+00 -0.670172D-02 -0.637646D-02  0.225748D-01
     27  0.735626D-02 -0.761144D-02 -0.750652D-01 -0.710446D-03  0.111243D-02
                6             7             8             9            10 
      6  0.166231D+00
      7  0.125322D-01  0.566709D+00
      8 -0.146147D-01  0.725313D-01  0.739781D+00
      9 -0.439157D-01 -0.357466D-01 -0.111226D-01  0.609202D-01
     10 -0.251958D-02 -0.341023D+00 -0.255345D+00  0.269667D-01  0.109525D+01
     11  0.234783D-02 -0.211437D+00 -0.418631D+00  0.266768D-01 -0.101280D-01
     12 -0.102638D-02  0.217573D-01  0.256298D-01 -0.547276D-01  0.589916D-02
     13 -0.968616D-03 -0.882525D-02  0.690044D-02 -0.181494D-02 -0.603171D+00
     14 -0.599461D-03 -0.301562D-01  0.238129D-01 -0.299934D-02  0.129751D+00
     15 -0.187788D-02  0.327946D-02 -0.139803D-02  0.120407D-01 -0.372148D-01
     16  0.105503D-03  0.134079D-04 -0.369244D-04 -0.367094D-03 -0.513293D-02
     17 -0.848102D-04 -0.213393D-04  0.587670D-04  0.584248D-03  0.651655D-02
     18  0.356219D-02 -0.298881D-03  0.823100D-03  0.818307D-02 -0.319811D-02
     19  0.459697D-03  0.215268D-01 -0.172897D-01 -0.183912D-02 -0.180245D+00
     20  0.483627D-04  0.121865D-01 -0.979593D-02 -0.115435D-02  0.111982D+00
     21  0.580317D-02 -0.208308D-02  0.189640D-02  0.330259D-02  0.908822D-02
     22  0.108673D-02  0.224438D-01  0.154040D-01 -0.618234D-03  0.136453D-04
     23  0.177605D-03 -0.119772D-01 -0.822094D-02  0.341264D-03 -0.653497D-05
     24 -0.659155D-01 -0.136884D-02 -0.118123D-02  0.521843D-02  0.340370D-03
     25  0.892294D-03  0.000000D+00  0.106659D-05 -0.213361D-04 -0.563383D-05
     26  0.163306D-03  0.114745D-05  0.118120D-04 -0.236289D-03  0.822236D-05
     27  0.208959D-01 -0.225397D-04 -0.232026D-03  0.464147D-02 -0.336651D-03
               11            12            13            14            15 
     11  0.954161D+00
     12 -0.284275D-01  0.235541D+00
     13  0.104576D+00 -0.342736D-01  0.981646D+00
     14 -0.234100D+00  0.105274D-01 -0.229705D-01  0.783458D+00
     15  0.127024D-01 -0.125774D+00  0.326041D-01 -0.248749D-02  0.219384D+00
     16 -0.179558D-01  0.772594D-04 -0.238259D+00 -0.103490D+00  0.191653D-02
     17  0.228893D-01  0.310535D-03 -0.105296D+00 -0.188332D+00  0.904147D-03
     18 -0.454347D-02  0.291275D-01  0.527604D-02  0.447123D-02 -0.819963D-01
     19  0.119003D+00  0.653212D-02  0.755931D-02  0.266445D-01  0.764877D-03
     20 -0.312442D+00 -0.679890D-02  0.429262D-02  0.148392D-01 -0.839409D-03
     21 -0.132657D-01 -0.907998D-01 -0.109686D-02  0.416605D-02  0.350440D-01
     22  0.135940D-05  0.171192D-03  0.134528D-05  0.296686D-05 -0.115074D-03
     23  0.000000D+00 -0.819865D-04  0.000000D+00 -0.186451D-05  0.723180D-04
     24  0.339090D-04  0.427021D-02 -0.583358D-04 -0.128653D-03  0.499001D-02
     25 -0.220375D-05  0.766969D-04  0.186740D-01  0.894110D-03 -0.745720D-04
     26  0.321629D-05 -0.111936D-03  0.231370D-01  0.112900D-02 -0.932779D-03
     27 -0.131686D-03  0.458305D-02  0.105305D-02 -0.418539D-03  0.185879D-01
               16            17            18            19            20 
     16  0.226241D+00
     17  0.120705D+00  0.166368D+00
     18 -0.189367D-02 -0.147888D-02  0.431750D-01
     19 -0.535640D-04  0.852498D-04  0.119402D-02  0.151117D+00
     20 -0.516827D-04  0.822555D-04  0.115208D-02 -0.128470D+00  0.307294D+00
     21  0.594702D-03 -0.946498D-03 -0.132568D-01 -0.631970D-02  0.835630D-02
     22  0.000000D+00  0.000000D+00  0.000000D+00  0.000000D+00  0.000000D+00
     23  0.000000D+00  0.000000D+00  0.000000D+00  0.000000D+00  0.000000D+00
     24  0.000000D+00  0.000000D+00  0.000000D+00  0.000000D+00  0.000000D+00
     25 -0.311105D-05  0.250086D-05 -0.105041D-03  0.000000D+00  0.000000D+00
     26  0.454046D-05 -0.364992D-05  0.153303D-03  0.000000D+00  0.000000D+00
     27 -0.185902D-03  0.149440D-03 -0.627677D-02  0.000000D+00  0.000000D+00
               21            22            23            24            25 
     21  0.511148D-01
     22  0.000000D+00  0.155605D+00
     23  0.000000D+00  0.136742D+00  0.338954D+00
     24  0.000000D+00 -0.103018D-02 -0.273011D-03  0.361161D-01
     25  0.000000D+00  0.000000D+00  0.000000D+00  0.375541D-04  0.276347D+00
     26  0.000000D+00 -0.959098D-05  0.602741D-05  0.415897D-03 -0.156753D+00
     27  0.000000D+00  0.188397D-03 -0.118398D-03 -0.816954D-02 -0.734217D-02
               26            27 
     26  0.207927D+00
     27  0.725022D-02  0.408032D-01
 Leave Link  716 at Tue Dec 15 16:14:41 2015, MaxMem=    33554432 cpu:         0.0
 (Enter /home/Applications/g09/g09/l103.exe)

 GradGradGradGradGradGradGradGradGradGradGradGradGradGradGradGradGradGrad
 Berny optimization.
 Search for a local minimum.
 Step number   1 out of a maximum of    2
 All quantities printed in internal units (Hartrees-Bohrs-Radians)
 Second derivative matrix not updated -- first step.
 ITU=  0
     Eigenvalues ---    0.01703   0.03384   0.07060   0.07753   0.07921
     Eigenvalues ---    0.08585   0.12966   0.14456   0.16696   0.24608
     Eigenvalues ---    0.25779   0.29785   0.40932   0.45871   0.65269
     Eigenvalues ---    0.84685   1.10137   1.34941   1.39531   1.52026
     Eigenvalues ---    1.81658
 Quadratic step=4.895D-01 exceeds max=3.000D-01 adjusted using Lamda=-1.389D-01.
 Angle between NR and scaled steps=  21.94 degrees.
 Angle between quadratic step and forces=  34.86 degrees.
 Linear search not attempted -- first point.
 TrRot= -0.009178 -0.001888  0.000792 -0.664416  0.000502  0.665966
 Variable       Old X    -DE/DX   Delta X   Delta X   Delta X     New X
                                 (Linear)    (Quad)   (Total)
    X1        1.85205   0.00281   0.00000   0.04445   0.03733   1.88938
    Y1       -1.34977   0.03842   0.00000   0.02583   0.02688  -1.32290
    Z1        0.02351   0.00281   0.00000   0.00603   0.00566   0.02917
    X2       -0.72313   0.01072   0.00000  -0.00829  -0.01421  -0.73734
    Y2       -2.07680  -0.01230   0.00000  -0.02348  -0.02649  -2.10330
    Z2       -0.02534   0.00132   0.00000   0.00724   0.00767  -0.01768
    X3       -2.20955  -0.10815   0.00000  -0.15012  -0.15933  -2.36888
    Y3        0.09300  -0.06315   0.00000  -0.05144  -0.05701   0.03599
    Z3        0.07591   0.00194   0.00000  -0.01174  -0.01001   0.06590
    X4       -0.65668  -0.07144   0.00000  -0.04899  -0.06145  -0.71813
    Y4        2.04123   0.09926   0.00000   0.06324   0.06026   2.10149
    Z4       -0.06334   0.00284   0.00000   0.02968   0.03140  -0.03193
    X5        1.72249   0.17724   0.00000   0.14766   0.13640   1.85889
    Y5        1.36177  -0.03643   0.00000  -0.00255  -0.00157   1.36021
    Z5        0.09190  -0.00460   0.00000  -0.02015  -0.01968   0.07223
    X6        3.38211  -0.00963   0.00000   0.08050   0.06726   3.44937
    Y6        2.66006  -0.01171   0.00000  -0.02268  -0.01923   2.64084
    Z6        0.07366   0.00244   0.00000  -0.00417  -0.00393   0.06973
    X7       -1.64216  -0.00798   0.00000  -0.02575  -0.04098  -1.68314
    Y7        3.79287   0.02667   0.00000   0.11210   0.10762   3.90050
    Z7        0.00013  -0.00511   0.00000  -0.01038  -0.00772  -0.00759
    X8       -1.64887  -0.01821   0.00000  -0.02747  -0.03064  -1.67951
    Y8       -3.81196  -0.02760   0.00000  -0.07308  -0.07755  -3.88951
    Z8       -0.02154  -0.00198   0.00000  -0.00990  -0.00965  -0.03119
    X9        3.39239   0.02464   0.00000   0.07078   0.06563   3.45802
    Y9       -2.59044  -0.01315   0.00000  -0.01641  -0.01292  -2.60336
    Z9       -0.03257   0.00035   0.00000   0.00763   0.00625  -0.02632
         Item               Value     Threshold  Converged?
 Maximum Force            0.177241     0.000450     NO 
 RMS     Force            0.050218     0.000300     NO 
 Maximum Displacement     0.159334     0.001800     NO 
 RMS     Displacement     0.057422     0.001200     NO 
 Predicted change in Energy=-3.837944D-02
 GradGradGradGradGradGradGradGradGradGradGradGradGradGradGradGradGradGrad

 Leave Link  103 at Tue Dec 15 16:14:41 2015, MaxMem=    33554432 cpu:         0.0
 (Enter /home/Applications/g09/g09/l9999.exe)
 1\1\GINC-DUSTIN-DESKTOP\Force\RAM1-FC\STO-3G\C4H4O1\DUSTIN\15-Dec-2015
 \0\\#P AM1(Input,print) CIS(Singlets,NStates=15) pop(full) force\\AM1-
 Reparam Input\\0,1\C,0.980061,-0.71427,0.01244\C,-0.382662,-1.098997,-
 0.01341\O,-1.169243,0.049213,0.040169\C,-0.347501,1.080171,-0.033517\C
 ,0.911503,0.72062,0.048633\H,1.789735,1.407645,0.038979\H,-0.868993,2.
 007102,0.000068\H,-0.872543,-2.017201,-0.0114\H,1.795176,-1.370803,-0.
 017236\\Version=ES64L-G09RevD.01\State=1-A\HF=0.0265178\RMSD=6.720e-09
 \RMSF=5.022e-02\Dipole=0.2240745,0.141785,-0.0296802\PG=C01 [X(C4H4O1)
 ]\\@


 I am not a vegetarian because I love animals;
 I am a vegetarian because I hate plants.
                               -- A. Whitney Brown
 Job cpu time:       0 days  0 hours  0 minutes  0.5 seconds.
 File lengths (MBytes):  RWF=      7 Int=      0 D2E=      0 Chk=      2 Scr=      1
 Normal termination of Gaussian 09 at Tue Dec 15 16:14:41 2015.
