 Entering Gaussian System, Link 0=g09
 Input=FuranAM1Test_1.com
 Output=FuranAM1Test_1.log
 Initial command:
 /home/Applications/g09/g09/l1.exe "/home/Applications/g09/scratch/Gau-14474.inp" -scrdir="/home/Applications/g09/scratch/"
 Entering Link 1 = /home/Applications/g09/g09/l1.exe PID=     14476.
  
 Copyright (c) 1988,1990,1992,1993,1995,1998,2003,2009,2013,
            Gaussian, Inc.  All Rights Reserved.
  
 This is part of the Gaussian(R) 09 program.  It is based on
 the Gaussian(R) 03 system (copyright 2003, Gaussian, Inc.),
 the Gaussian(R) 98 system (copyright 1998, Gaussian, Inc.),
 the Gaussian(R) 94 system (copyright 1995, Gaussian, Inc.),
 the Gaussian 92(TM) system (copyright 1992, Gaussian, Inc.),
 the Gaussian 90(TM) system (copyright 1990, Gaussian, Inc.),
 the Gaussian 88(TM) system (copyright 1988, Gaussian, Inc.),
 the Gaussian 86(TM) system (copyright 1986, Carnegie Mellon
 University), and the Gaussian 82(TM) system (copyright 1983,
 Carnegie Mellon University). Gaussian is a federally registered
 trademark of Gaussian, Inc.
  
 This software contains proprietary and confidential information,
 including trade secrets, belonging to Gaussian, Inc.
  
 This software is provided under written license and may be
 used, copied, transmitted, or stored only in accord with that
 written license.
  
 The following legend is applicable only to US Government
 contracts under FAR:
  
                    RESTRICTED RIGHTS LEGEND
  
 Use, reproduction and disclosure by the US Government is
 subject to restrictions as set forth in subparagraphs (a)
 and (c) of the Commercial Computer Software - Restricted
 Rights clause in FAR 52.227-19.
  
 Gaussian, Inc.
 340 Quinnipiac St., Bldg. 40, Wallingford CT 06492
  
  
 ---------------------------------------------------------------
 Warning -- This program may not be used in any manner that
 competes with the business of Gaussian, Inc. or will provide
 assistance to any competitor of Gaussian, Inc.  The licensee
 of this program is prohibited from giving any competitor of
 Gaussian, Inc. access to this program.  By using this program,
 the user acknowledges that Gaussian, Inc. is engaged in the
 business of creating and licensing software in the field of
 computational chemistry and represents and warrants to the
 licensee that it is not a competitor of Gaussian, Inc. and that
 it will not use this program in any manner prohibited above.
 ---------------------------------------------------------------
  

 Cite this work as:
 Gaussian 09, Revision D.01,
 M. J. Frisch, G. W. Trucks, H. B. Schlegel, G. E. Scuseria, 
 M. A. Robb, J. R. Cheeseman, G. Scalmani, V. Barone, B. Mennucci, 
 G. A. Petersson, H. Nakatsuji, M. Caricato, X. Li, H. P. Hratchian, 
 A. F. Izmaylov, J. Bloino, G. Zheng, J. L. Sonnenberg, M. Hada, 
 M. Ehara, K. Toyota, R. Fukuda, J. Hasegawa, M. Ishida, T. Nakajima, 
 Y. Honda, O. Kitao, H. Nakai, T. Vreven, J. A. Montgomery, Jr., 
 J. E. Peralta, F. Ogliaro, M. Bearpark, J. J. Heyd, E. Brothers, 
 K. N. Kudin, V. N. Staroverov, T. Keith, R. Kobayashi, J. Normand, 
 K. Raghavachari, A. Rendell, J. C. Burant, S. S. Iyengar, J. Tomasi, 
 M. Cossi, N. Rega, J. M. Millam, M. Klene, J. E. Knox, J. B. Cross, 
 V. Bakken, C. Adamo, J. Jaramillo, R. Gomperts, R. E. Stratmann, 
 O. Yazyev, A. J. Austin, R. Cammi, C. Pomelli, J. W. Ochterski, 
 R. L. Martin, K. Morokuma, V. G. Zakrzewski, G. A. Voth, 
 P. Salvador, J. J. Dannenberg, S. Dapprich, A. D. Daniels, 
 O. Farkas, J. B. Foresman, J. V. Ortiz, J. Cioslowski, 
 and D. J. Fox, Gaussian, Inc., Wallingford CT, 2013.
 
 ******************************************
 Gaussian 09:  ES64L-G09RevD.01 24-Apr-2013
                 6-Oct-2015 
 ******************************************
 ------------------------------------------------------------
 #P AM1(Input,print) CIS(Singlets,NStates=15) pop(full) force
 ------------------------------------------------------------
 1/10=7,30=1,38=1/1,3;
 2/12=2,17=6,18=5,40=1/2;
 3/5=2,16=1,25=1,41=700000,71=1,135=100,136=1/1,2,8,3;
 4/35=1/1;
 5/5=2,35=1,38=5/2;
 8/6=1,10=1,108=15/1;
 9/15=2,41=15,42=1,48=1,49=10/14;
 10/5=4/2;
 6/7=3,18=1/1;
 7/12=6,13=5,29=1/1,2,3,16;
 1/10=7,30=1/3;
 99//99;
 Leave Link    1 at Tue Oct  6 15:41:38 2015, MaxMem=           0 cpu:         0.0
 (Enter /home/Applications/g09/g09/l101.exe)
 -----------------
 AM1-Reparam Input
 -----------------
 Symbolic Z-matrix:
 Charge =  0 Multiplicity = 1
 6                     0.95548  -0.71596   0. 
 6                    -0.34563  -1.09282   0. 
 8                    -1.15731   0.        0. 
 6                    -0.34563   1.09282   0. 
 6                     0.95548   0.71596   0. 
 1                     1.81044   1.36938   0. 
 1                    -0.84031   2.04688   0. 
 1                    -0.84031  -2.04688   0. 
 1                     1.81044  -1.36938   0. 
 
 NAtoms=      9 NQM=        9 NQMF=       0 NMMI=      0 NMMIF=      0
                NMic=       0 NMicF=      0.
                    Isotopes and Nuclear Properties:
 (Nuclear quadrupole moments (NQMom) in fm**2, nuclear magnetic moments (NMagM)
  in nuclear magnetons)

  Atom         1           2           3           4           5           6           7           8           9
 IAtWgt=          12          12          16          12          12           1           1           1           1
 AtmWgt=  12.0000000  12.0000000  15.9949146  12.0000000  12.0000000   1.0078250   1.0078250   1.0078250   1.0078250
 NucSpn=           0           0           0           0           0           1           1           1           1
 AtZEff=   0.0000000   0.0000000   0.0000000   0.0000000   0.0000000   0.0000000   0.0000000   0.0000000   0.0000000
 NQMom=    0.0000000   0.0000000   0.0000000   0.0000000   0.0000000   0.0000000   0.0000000   0.0000000   0.0000000
 NMagM=    0.0000000   0.0000000   0.0000000   0.0000000   0.0000000   2.7928460   2.7928460   2.7928460   2.7928460
 AtZNuc=   6.0000000   6.0000000   8.0000000   6.0000000   6.0000000   1.0000000   1.0000000   1.0000000   1.0000000
 Leave Link  101 at Tue Oct  6 15:41:38 2015, MaxMem=    33554432 cpu:         0.0
 (Enter /home/Applications/g09/g09/l103.exe)

 GradGradGradGradGradGradGradGradGradGradGradGradGradGradGradGradGradGrad
 Berny optimization.
 Initialization pass.
 Trust Radius=3.00D-01 FncErr=1.00D-07 GrdErr=1.00D-07
 Number of steps in this run=      2 maximum allowed number of steps=      2.
 GradGradGradGradGradGradGradGradGradGradGradGradGradGradGradGradGradGrad

 Leave Link  103 at Tue Oct  6 15:41:38 2015, MaxMem=    33554432 cpu:         0.0
 (Enter /home/Applications/g09/g09/l202.exe)
                          Input orientation:                          
 ---------------------------------------------------------------------
 Center     Atomic      Atomic             Coordinates (Angstroms)
 Number     Number       Type             X           Y           Z
 ---------------------------------------------------------------------
      1          6           0        0.955475   -0.715963    0.000000
      2          6           0       -0.345627   -1.092818    0.000000
      3          8           0       -1.157305    0.000000    0.000000
      4          6           0       -0.345627    1.092818    0.000000
      5          6           0        0.955475    0.715963    0.000000
      6          1           0        1.810438    1.369382    0.000000
      7          1           0       -0.840307    2.046884    0.000000
      8          1           0       -0.840307   -2.046884    0.000000
      9          1           0        1.810438   -1.369382    0.000000
 ---------------------------------------------------------------------
                    Distance matrix (angstroms):
                    1          2          3          4          5
     1  C    0.000000
     2  C    1.354580   0.000000
     3  O    2.230794   1.361276   0.000000
     4  C    2.228128   2.185636   1.361276   0.000000
     5  C    1.431926   2.228128   2.230794   1.354580   0.000000
     6  H    2.253802   3.272773   3.268441   2.173730   1.076066
     7  H    3.295172   3.178433   2.071285   1.074686   2.235214
     8  H    2.235214   1.074686   2.071285   3.178433   3.295172
     9  H    1.076066   2.173730   3.268441   3.272773   2.253802
                    6          7          8          9
     6  H    0.000000
     7  H    2.735957   0.000000
     8  H    4.324040   4.093768   0.000000
     9  H    2.738764   4.324040   2.735957   0.000000
 Stoichiometry    C4H4O
 Framework group  C2V[C2(O),SGV(C4H4)]
 Deg. of freedom     8
 Full point group                 C2V     NOp   4
 Largest Abelian subgroup         C2V     NOp   4
 Largest concise Abelian subgroup C2      NOp   2
                         Standard orientation:                         
 ---------------------------------------------------------------------
 Center     Atomic      Atomic             Coordinates (Angstroms)
 Number     Number       Type             X           Y           Z
 ---------------------------------------------------------------------
      1          6           0        0.000000    0.715963   -0.955475
      2          6           0        0.000000    1.092818    0.345627
      3          8           0        0.000000    0.000000    1.157305
      4          6           0        0.000000   -1.092818    0.345627
      5          6           0        0.000000   -0.715963   -0.955475
      6          1           0        0.000000   -1.369382   -1.810438
      7          1           0        0.000000   -2.046884    0.840307
      8          1           0        0.000000    2.046884    0.840307
      9          1           0        0.000000    1.369382   -1.810438
 ---------------------------------------------------------------------
 Rotational constants (GHZ):      9.5015164      9.3284592      4.7070963
 Leave Link  202 at Tue Oct  6 15:41:39 2015, MaxMem=    33554432 cpu:         0.0
 (Enter /home/Applications/g09/g09/l301.exe)

 Semi-emprical parameters in input format:
 Method=8 CoreType=1 PeptideFC=0.0108753712 RIJScale=0.5545008777
 ****
 H       
 PQN=1 NValence=1 F0ss=0.4681300200 ZetaOverlap=1.1988483625 U=-0.4536567276
 Beta=-0.2315023460 CoreKO=1.0013357501 KON=0,0,0,1.0365782609 KON=1,0,1,1.0589979680
 KON=0,1,1,1.0154735653 KON=2,1,1,0.9690131094 EISol=-0.4188110042 EHeat=0.0830298228
 Alpha=1.5064210023
 GCore=0.0083535551,1.4309930313,2.2756273413
 GCore=0.0003534810,1.4173295986,3.3342676123
 GCore=-0.0011930630,0.5600570362,3.8643992624
 ****
 C       
 PQN=2,2 NValence=4 F0ss=0.4585464124 F0sp=0.4215147623 F0pp=0.3698297679 F2pp=0.1898715146
 G1sp=0.2685883725
 ZetaOverlap=1.7467394076,1.7223405171
 U=-1.8757284859,-1.4952169446
 Beta=-0.5684576096,-0.3124321142 DDN=0,1,0.8293553639 DDN=1,1,0.7505034070
 CoreKO=1.1539409445 KON=0,0,0,1.1124284736 KON=1,0,1,0.8388880312 KON=0,1,1,1.0642467389
 KON=2,1,1,0.8431849133 EISol=-4.4398989268 EHeat=0.2723305520 Alpha=1.4049747747
 DipHyp=1.6586153008
 GCore=0.0007765241,1.4059353611,3.1193971049
 GCore=0.0030303115,1.3403896588,3.3947388590
 GCore=-0.0014771364,1.4145657734,3.8062782427
 GCore=-0.0000875529,1.3361740600,5.4060354289
 ****
 O       
 PQN=2,2 NValence=6 F0ss=0.5819363257 F0sp=0.5261954113 F0pp=0.4711845118 F2pp=0.2474740885
 G1sp=0.4343770262
 ZetaOverlap=3.0881976383,2.3336728626
 U=-3.5951865036,-2.8577642296
 Beta=-1.0677740861,-1.0949978277 DDN=0,1,0.5061066821 DDN=1,1,0.4679233615
 CoreKO=0.8801897962 KON=0,0,0,0.8349884955 KON=1,0,1,0.4920305229 KON=0,1,1,0.8822957477
 KON=2,1,1,0.5438026448 EISol=-11.6164441184 EHeat=0.0949133088 Alpha=2.3318994329
 DipHyp=1.0121551307
 GCore=0.0206715795,1.3906077840,1.6165557870
 GCore=0.0056550009,2.0024321962,2.7906102063
 ****
 
 Standard basis: VSTO-6G (5D, 7F)
 Ernie: Thresh=  0.10000D-02 Tol=  0.10000D-05 Strict=F.
  NNHCO=     0 NNPyr=     0 NCTC=     0               EPep=         0.000000000
    EC=        68.424451439  ECS=         1.822009356   EG=         0.359899790
   EHC=         0.000000000  EAt=       -31.051283842  AtH=         1.516354808
 EPDDG=         0.000000000  ECC=        70.606360585 EAtT=        32.567638650
 There are    10 symmetry adapted cartesian basis functions of A1  symmetry.
 There are     2 symmetry adapted cartesian basis functions of A2  symmetry.
 There are     3 symmetry adapted cartesian basis functions of B1  symmetry.
 There are     9 symmetry adapted cartesian basis functions of B2  symmetry.
 There are    10 symmetry adapted basis functions of A1  symmetry.
 There are     2 symmetry adapted basis functions of A2  symmetry.
 There are     3 symmetry adapted basis functions of B1  symmetry.
 There are     9 symmetry adapted basis functions of B2  symmetry.
    24 basis functions,   144 primitive gaussians,    24 cartesian basis functions
    13 alpha electrons       13 beta electrons
       nuclear repulsion energy       103.1739992356 Hartrees.
 IExCor=    0 DFT=F Ex=HF Corr=None ExCW=0 ScaHFX=  1.000000
 ScaDFX=  1.000000  1.000000  1.000000  1.000000 ScalE2=  1.000000  1.000000
 IRadAn=      0 IRanWt=     -1 IRanGd=            0 ICorTp=0 IEmpDi=  4
 Integral buffers will be    131072 words long.
 Regular integral format.
 Two-electron integral symmetry is turned off.
 Leave Link  301 at Tue Oct  6 15:41:39 2015, MaxMem=    33554432 cpu:         0.0
 (Enter /home/Applications/g09/g09/l302.exe)
 Do NDO integrals.
 NPDir=0 NMtPBC=     1 NCelOv=     1 NCel=       1 NClECP=     1 NCelD=      1
         NCelK=      1 NCelE2=     1 NClLst=     1 CellRange=     0.0.
 One-electron integrals computed using PRISM.
 NBasis=    24 RedAO= T EigKep=  1.00D+00  NBF=    10     2     3     9
 NBsUse=    24 1.00D-06 EigRej= -1.00D+00 NBFU=    10     2     3     9
 Leave Link  302 at Tue Oct  6 15:41:39 2015, MaxMem=    33554432 cpu:         0.0
 (Enter /home/Applications/g09/g09/l308.exe)
 Leave Link  308 at Tue Oct  6 15:41:39 2015, MaxMem=    33554432 cpu:         0.0
 (Enter /home/Applications/g09/g09/l303.exe)
 DipDrv:  MaxL=1.
 Leave Link  303 at Tue Oct  6 15:41:39 2015, MaxMem=    33554432 cpu:         0.0
 (Enter /home/Applications/g09/g09/l401.exe)
 Simple Huckel Guess.
 JPrj=0 DoOrth=F DoCkMO=F.
 Initial guess orbital symmetries:
       Occupied  (A1) (A1) (B2) (B2) (A1) (A1) (B1) (B2) (A1) (B2)
                 (A1) (B1) (A2)
       Virtual   (B1) (A2) (B2) (B2) (A1) (A1) (B2) (B2) (A1) (A1)
                 (B2)
 The electronic state of the initial guess is 1-A1.
 Leave Link  401 at Tue Oct  6 15:41:39 2015, MaxMem=    33554432 cpu:         0.0
 (Enter /home/Applications/g09/g09/l502.exe)
 Closed shell SCF:
 Using DIIS extrapolation, IDIIS=  1040.
 Overlap will be assumed to be unity.
 Two-electron integral symmetry not used.
 Keep J ints in memory in canonical form, NReq=888094.
 IVT=       79487 IEndB=       79487 NGot=    33554432 MDV=    33473461
 LenX=    33473461 LenY=    33472444
 Requested convergence on RMS density matrix=1.00D-08 within 128 cycles.
 Requested convergence on MAX density matrix=1.00D-06.
 Requested convergence on             energy=1.00D-06.
 No special actions if energy rises.
 FoFCou: FMM=F IPFlag=           0 FMFlag=           0 FMFlg1=           0
         NFxFlg=           0 DoJE=F BraDBF=F KetDBF=F FulRan=T
         wScrn=  0.000000 ICntrl=     600 IOpCl=  2 I1Cent=           0 NGrid=           0
         NMat0=    1 NMatS0=     54 NMatT0=    0 NMatD0=    1 NMtDS0=    0 NMtDT0=    0
 Symmetry not used in FoFCou.

 Cycle   1  Pass 1  IDiag  1:
 E=-0.687728630539652    
 DIIS: error= 5.16D-02 at cycle   1 NSaved=   1.
 NSaved= 1 IEnMin= 1 EnMin=-0.687728630539652     IErMin= 1 ErrMin= 5.16D-02
 ErrMax= 5.16D-02  0.00D+00 EMaxC= 1.00D-01 BMatC= 8.24D-02 BMatP= 8.24D-02
 IDIUse=3 WtCom= 4.84D-01 WtEn= 5.16D-01
 Coeff-Com:  0.100D+01
 Coeff-En:   0.100D+01
 Coeff:      0.100D+01
 GapD=    2.000 DampG=2.000 DampE=0.500 DampFc=1.0000 IDamp=-1.
 RMSDP=1.69D-02 MaxDP=1.54D-01              OVMax= 0.00D+00

 Cycle   2  Pass 1  IDiag  1:
 E=-0.897807149217584     Delta-E=       -0.210078518678 Rises=F Damp=F
 DIIS: error= 2.02D-02 at cycle   2 NSaved=   2.
 NSaved= 2 IEnMin= 2 EnMin=-0.897807149217584     IErMin= 2 ErrMin= 2.02D-02
 ErrMax= 2.02D-02  0.00D+00 EMaxC= 1.00D-01 BMatC= 7.81D-03 BMatP= 8.24D-02
 IDIUse=3 WtCom= 7.98D-01 WtEn= 2.02D-01
 Coeff-Com: -0.370D+00 0.137D+01
 Coeff-En:   0.000D+00 0.100D+01
 Coeff:     -0.295D+00 0.130D+01
 RMSDP=7.65D-03 MaxDP=7.31D-02 DE=-2.10D-01 OVMax= 0.00D+00

 Cycle   3  Pass 1  IDiag  1:
 E=-0.924334769982224     Delta-E=       -0.026527620765 Rises=F Damp=F
 DIIS: error= 3.35D-03 at cycle   3 NSaved=   3.
 NSaved= 3 IEnMin= 3 EnMin=-0.924334769982224     IErMin= 3 ErrMin= 3.35D-03
 ErrMax= 3.35D-03  0.00D+00 EMaxC= 1.00D-01 BMatC= 3.79D-04 BMatP= 7.81D-03
 IDIUse=3 WtCom= 9.67D-01 WtEn= 3.35D-02
 Coeff-Com:  0.161D+00-0.709D+00 0.155D+01
 Coeff-En:   0.000D+00 0.000D+00 0.100D+01
 Coeff:      0.155D+00-0.686D+00 0.153D+01
 RMSDP=2.54D-03 MaxDP=2.94D-02 DE=-2.65D-02 OVMax= 0.00D+00

 Cycle   4  Pass 1  IDiag  3:
 E=-0.926293096244450     Delta-E=       -0.001958326262 Rises=F Damp=F
 DIIS: error= 7.40D-04 at cycle   4 NSaved=   4.
 NSaved= 4 IEnMin= 4 EnMin=-0.926293096244450     IErMin= 4 ErrMin= 7.40D-04
 ErrMax= 7.40D-04  0.00D+00 EMaxC= 1.00D-01 BMatC= 1.55D-05 BMatP= 3.79D-04
 IDIUse=3 WtCom= 9.93D-01 WtEn= 7.40D-03
 Coeff-Com:  0.810D-02-0.284D-01-0.159D+00 0.118D+01
 Coeff-En:   0.000D+00 0.000D+00 0.000D+00 0.100D+01
 Coeff:      0.804D-02-0.282D-01-0.158D+00 0.118D+01
 Fock symm off for IB=2 I1=    1 I=   11 J=    6 Cut=1.00D-07 Err=1.86D-03
 Fock matrix is not symmetric: symmetry in diagonalization turned off.
 Gap=     0.395 Goal=   None    Shift=    0.000
 RMSDP=5.63D-04 MaxDP=6.71D-03 DE=-1.96D-03 OVMax= 7.72D-03

 Cycle   5  Pass 1  IDiag  3:
 E=-0.926374953228859     Delta-E=       -0.000081856984 Rises=F Damp=F
 DIIS: error= 8.54D-05 at cycle   5 NSaved=   5.
 NSaved= 5 IEnMin= 5 EnMin=-0.926374953228859     IErMin= 5 ErrMin= 8.54D-05
 ErrMax= 8.54D-05  0.00D+00 EMaxC= 1.00D-01 BMatC= 5.80D-07 BMatP= 1.55D-05
 IDIUse=1 WtCom= 1.00D+00 WtEn= 0.00D+00
 Coeff-Com: -0.485D-02 0.197D-01 0.300D-01-0.446D+00 0.140D+01
 Coeff:     -0.485D-02 0.197D-01 0.300D-01-0.446D+00 0.140D+01
 Gap=     0.395 Goal=   None    Shift=    0.000
 RMSDP=9.98D-05 MaxDP=7.07D-04 DE=-8.19D-05 OVMax= 9.02D-04

 Cycle   6  Pass 1  IDiag  3:
 E=-0.926377762026419     Delta-E=       -0.000002808798 Rises=F Damp=F
 DIIS: error= 2.05D-05 at cycle   6 NSaved=   6.
 NSaved= 6 IEnMin= 6 EnMin=-0.926377762026419     IErMin= 6 ErrMin= 2.05D-05
 ErrMax= 2.05D-05  0.00D+00 EMaxC= 1.00D-01 BMatC= 2.42D-08 BMatP= 5.80D-07
 IDIUse=1 WtCom= 1.00D+00 WtEn= 0.00D+00
 Coeff-Com:  0.142D-02-0.553D-02-0.623D-02 0.118D+00-0.504D+00 0.140D+01
 Coeff:      0.142D-02-0.553D-02-0.623D-02 0.118D+00-0.504D+00 0.140D+01
 Gap=     0.395 Goal=   None    Shift=    0.000
 RMSDP=2.15D-05 MaxDP=1.24D-04 DE=-2.81D-06 OVMax= 1.54D-04

 Cycle   7  Pass 1  IDiag  3:
 E=-0.926377883799148     Delta-E=       -0.000000121773 Rises=F Damp=F
 DIIS: error= 4.53D-06 at cycle   7 NSaved=   7.
 NSaved= 7 IEnMin= 7 EnMin=-0.926377883799148     IErMin= 7 ErrMin= 4.53D-06
 ErrMax= 4.53D-06  0.00D+00 EMaxC= 1.00D-01 BMatC= 8.93D-10 BMatP= 2.42D-08
 IDIUse=1 WtCom= 1.00D+00 WtEn= 0.00D+00
 Coeff-Com: -0.138D-03 0.345D-03 0.255D-02-0.231D-01 0.105D+00-0.430D+00
 Coeff-Com:  0.134D+01
 Coeff:     -0.138D-03 0.345D-03 0.255D-02-0.231D-01 0.105D+00-0.430D+00
 Coeff:      0.134D+01
 Gap=     0.395 Goal=   None    Shift=    0.000
 RMSDP=3.73D-06 MaxDP=2.30D-05 DE=-1.22D-07 OVMax= 2.66D-05

 Cycle   8  Pass 1  IDiag  3:
 E=-0.926377887763991     Delta-E=       -0.000000003965 Rises=F Damp=F
 DIIS: error= 6.83D-07 at cycle   8 NSaved=   8.
 NSaved= 8 IEnMin= 8 EnMin=-0.926377887763991     IErMin= 8 ErrMin= 6.83D-07
 ErrMax= 6.83D-07  0.00D+00 EMaxC= 1.00D-01 BMatC= 2.11D-11 BMatP= 8.93D-10
 IDIUse=1 WtCom= 1.00D+00 WtEn= 0.00D+00
 Coeff-Com:  0.469D-05 0.719D-04-0.107D-02 0.669D-02-0.288D-01 0.126D+00
 Coeff-Com: -0.488D+00 0.139D+01
 Coeff:      0.469D-05 0.719D-04-0.107D-02 0.669D-02-0.288D-01 0.126D+00
 Coeff:     -0.488D+00 0.139D+01
 Gap=     0.395 Goal=   None    Shift=    0.000
 RMSDP=5.67D-07 MaxDP=3.72D-06 DE=-3.96D-09 OVMax= 3.71D-06

 Cycle   9  Pass 1  IDiag  3:
 E=-0.926377887857498     Delta-E=       -0.000000000094 Rises=F Damp=F
 DIIS: error= 1.53D-07 at cycle   9 NSaved=   9.
 NSaved= 9 IEnMin= 9 EnMin=-0.926377887857498     IErMin= 9 ErrMin= 1.53D-07
 ErrMax= 1.53D-07  0.00D+00 EMaxC= 1.00D-01 BMatC= 5.95D-13 BMatP= 2.11D-11
 IDIUse=1 WtCom= 1.00D+00 WtEn= 0.00D+00
 Coeff-Com:  0.387D-05-0.480D-04 0.349D-03-0.190D-02 0.818D-02-0.382D-01
 Coeff-Com:  0.160D+00-0.547D+00 0.142D+01
 Coeff:      0.387D-05-0.480D-04 0.349D-03-0.190D-02 0.818D-02-0.382D-01
 Coeff:      0.160D+00-0.547D+00 0.142D+01
 Gap=     0.395 Goal=   None    Shift=    0.000
 RMSDP=1.23D-07 MaxDP=9.71D-07 DE=-9.35D-11 OVMax= 1.59D-06

 Cycle  10  Pass 1  IDiag  3:
 E=-0.926377887861392     Delta-E=       -0.000000000004 Rises=F Damp=F
 DIIS: error= 5.45D-08 at cycle  10 NSaved=  10.
 NSaved=10 IEnMin=10 EnMin=-0.926377887861392     IErMin=10 ErrMin= 5.45D-08
 ErrMax= 5.45D-08  0.00D+00 EMaxC= 1.00D-01 BMatC= 3.96D-14 BMatP= 5.95D-13
 IDIUse=1 WtCom= 1.00D+00 WtEn= 0.00D+00
 Coeff-Com: -0.316D-05 0.295D-04-0.179D-03 0.917D-03-0.389D-02 0.185D-01
 Coeff-Com: -0.796D-01 0.285D+00-0.875D+00 0.165D+01
 Coeff:     -0.316D-05 0.295D-04-0.179D-03 0.917D-03-0.389D-02 0.185D-01
 Coeff:     -0.796D-01 0.285D+00-0.875D+00 0.165D+01
 Gap=     0.395 Goal=   None    Shift=    0.000
 RMSDP=4.59D-08 MaxDP=4.35D-07 DE=-3.89D-12 OVMax= 6.21D-07

 Cycle  11  Pass 1  IDiag  3:
 E=-0.926377887861676     Delta-E=        0.000000000000 Rises=F Damp=F
 DIIS: error= 1.37D-08 at cycle  11 NSaved=  11.
 NSaved=11 IEnMin=11 EnMin=-0.926377887861676     IErMin=11 ErrMin= 1.37D-08
 ErrMax= 1.37D-08  0.00D+00 EMaxC= 1.00D-01 BMatC= 3.15D-15 BMatP= 3.96D-14
 IDIUse=1 WtCom= 1.00D+00 WtEn= 0.00D+00
 Coeff-Com:  0.152D-05-0.141D-04 0.841D-04-0.434D-03 0.183D-02-0.859D-02
 Coeff-Com:  0.367D-01-0.132D+00 0.426D+00-0.997D+00 0.167D+01
 Coeff:      0.152D-05-0.141D-04 0.841D-04-0.434D-03 0.183D-02-0.859D-02
 Coeff:      0.367D-01-0.132D+00 0.426D+00-0.997D+00 0.167D+01
 Gap=     0.395 Goal=   None    Shift=    0.000
 RMSDP=1.43D-08 MaxDP=1.33D-07 DE=-2.84D-13 OVMax= 1.70D-07

 Cycle  12  Pass 1  IDiag  3:
 E=-0.926377887861804     Delta-E=        0.000000000000 Rises=F Damp=F
 DIIS: error= 2.11D-09 at cycle  12 NSaved=  12.
 NSaved=12 IEnMin=12 EnMin=-0.926377887861804     IErMin=12 ErrMin= 2.11D-09
 ErrMax= 2.11D-09  0.00D+00 EMaxC= 1.00D-01 BMatC= 1.55D-16 BMatP= 3.15D-15
 IDIUse=1 WtCom= 1.00D+00 WtEn= 0.00D+00
 Coeff-Com: -0.385D-06 0.356D-05-0.204D-04 0.106D-03-0.450D-03 0.213D-02
 Coeff-Com: -0.907D-02 0.329D-01-0.108D+00 0.272D+00-0.637D+00 0.145D+01
 Coeff:     -0.385D-06 0.356D-05-0.204D-04 0.106D-03-0.450D-03 0.213D-02
 Coeff:     -0.907D-02 0.329D-01-0.108D+00 0.272D+00-0.637D+00 0.145D+01
 Gap=     0.395 Goal=   None    Shift=    0.000
 RMSDP=2.86D-09 MaxDP=2.43D-08 DE=-1.28D-13 OVMax= 3.46D-08

 Cycle  13  Pass 2  IDiag  1:
 SCF Done:  E(RAM1) = -0.926377887862     A.U. after   13 cycles
            NFock= 12  Conv=0.29D-08     -V/T= 0.9472
 KE=-1.755093857329D+01 PE=-1.709073385498D+02 EE= 8.435789999963D+01
 Leave Link  502 at Tue Oct  6 15:41:39 2015, MaxMem=    33554432 cpu:         0.0
 (Enter /home/Applications/g09/g09/l801.exe)
 Range of M.O.s used for correlation:     1    24
 NBasis=    24 NAE=    13 NBE=    13 NFC=     0 NFV=     0
 NROrb=     24 NOA=    13 NOB=    13 NVA=    11 NVB=    11
 Leave Link  801 at Tue Oct  6 15:41:39 2015, MaxMem=    33554432 cpu:         0.0
 (Enter /home/Applications/g09/g09/l914.exe)
 RHF ground state
 MDV=    33554432 DFT=F DoStab=F Mixed=F DoRPA=F DoScal=F NonHer=F
 Making orbital integer symmetry assigments:
 Orbital symmetries:
       Occupied  (A1) (A1) (B2) (B2) (A1) (A1) (B1) (B2) (A1) (B2)
                 (A1) (B1) (A2)
       Virtual   (B1) (A2) (A1) (B2) (A1) (B2) (A1) (B2) (A1) (B2)
                 (B2)
    60 initial guesses have been made.
 Convergence on wavefunction:    0.000001000000000
 Davidson Disk Diagonalization:  ConvIn= 1.00D-06 SkipCon=T Conv= 1.00D-06.
 Max sub-space:   240 roots to seek:    60 dimension of matrix:          286
 Iteration     1 Dimension    60 NMult     0 NNew     60
 CISAX will form    60 AO SS matrices at one time.
 NMat=    60 NSing=    60 JSym2X= 0.
 FoFJK:  IHMeth= 8 ICntrl=       0 DoSepK=F KAlg= 0 I1Cent=   0 FoldK=F
 IRaf=         1 NMat= 120 IRICut=       1 DoRegI=T DoRafI=F ISym2E= 0.
 FoFCou: FMM=F IPFlag=           0 FMFlag=      100000 FMFlg1=           0
         NFxFlg=           0 DoJE=F BraDBF=F KetDBF=F FulRan=T
         wScrn=  0.000000 ICntrl=       0 IOpCl=  0 I1Cent=           0 NGrid=           0
         NMat0=  120 NMatS0=     60 NMatT0=    0 NMatD0=  120 NMtDS0=    0 NMtDT0=    0
 Symmetry not used in FoFCou.
 New state      3 was old state      5
 New state      4 was old state      3
 New state      5 was old state      4
 New state      6 was old state      7
 New state      7 was old state     11
 New state      8 was old state      6
 New state     10 was old state     13
 New state     11 was old state      8
 New state     12 was old state     14
 New state     13 was old state     10
 New state     14 was old state     18
 Excitation Energies [eV] at current iteration:
 Root      1 :     4.783725358632005
 Root      2 :     5.329903909131661
 Root      3 :     6.133143765771955
 Root      4 :     6.669226944507233
 Root      5 :     6.672953826234780
 Root      6 :     7.336963920742715
 Root      7 :     7.417203382927007
 Root      8 :     7.528053842697495
 Root      9 :     7.649775152562892
 Root     10 :     7.962257085237433
 Root     11 :     7.990443024706474
 Root     12 :     8.069280796946119
 Root     13 :     8.294901831666293
 Root     14 :     8.480187593019323
 Root     15 :     8.699852444954178
 Root     16 :     8.756911290595733
 Root     17 :     8.884314987744904
 Root     18 :     9.371582165630905
 Root     19 :     9.448266332623156
 Root     20 :     9.592023939734901
 Root     21 :     9.684742809812322
 Root     22 :     9.747394527919893
 Root     23 :     9.940977244483218
 Root     24 :    10.085967572617410
 Root     25 :    10.161056774460620
 Root     26 :    10.351319745146050
 Root     27 :    10.372185000758640
 Root     28 :    10.653723976254140
 Root     29 :    10.755543312070350
 Root     30 :    10.834223155959850
 Root     31 :    10.870053534614640
 Root     32 :    10.934240542680840
 Root     33 :    11.102122960641080
 Root     34 :    11.149093942801920
 Root     35 :    11.166586975497340
 Root     36 :    11.334961596723820
 Root     37 :    11.458408943574500
 Root     38 :    11.598222521734990
 Root     39 :    11.749976784186510
 Root     40 :    11.784857526601500
 Root     41 :    12.035906235696660
 Root     42 :    12.488926328187710
 Root     43 :    12.540783800081870
 Root     44 :    12.762765867526290
 Root     45 :    12.971007022407240
 Root     46 :    13.025156205187650
 Root     47 :    13.158210617250320
 Root     48 :    13.261841604673080
 Root     49 :    13.495596167079680
 Root     50 :    13.508606814372110
 Root     51 :    13.808814840342170
 Root     52 :    13.865644339658140
 Root     53 :    14.105342936708880
 Root     54 :    14.248330549464460
 Root     55 :    14.390518313075200
 Root     56 :    14.498129680984150
 Root     57 :    14.606904674638890
 Root     58 :    14.841320582608340
 Root     59 :    14.995638757514370
 Root     60 :    15.368014169029700
 Iteration     2 Dimension   113 NMult    60 NNew     53
 CISAX will form    53 AO SS matrices at one time.
 NMat=    53 NSing=    53 JSym2X= 0.
 Root      1 not converged, maximum delta is    0.038336150872806
 Root      2 not converged, maximum delta is    0.011488350864292
 Root      3 not converged, maximum delta is    0.038544194020065
 Root      4 not converged, maximum delta is    0.041265350576197
 Root      5 not converged, maximum delta is    0.035558902222707
 Root      6 not converged, maximum delta is    0.131081569910785
 Root      7 not converged, maximum delta is    0.117388730614144
 Root      8 not converged, maximum delta is    0.095051083728432
 Root      9 not converged, maximum delta is    0.049954267957826
 Root     10 not converged, maximum delta is    0.044306132393881
 Root     11 not converged, maximum delta is    0.036290606115839
 Root     12 not converged, maximum delta is    0.054306107264081
 Root     13 not converged, maximum delta is    0.039109234805226
 Root     14 not converged, maximum delta is    0.098509271026743
 Root     15 not converged, maximum delta is    0.048628777987880
 Excitation Energies [eV] at current iteration:
 Root      1 :     4.719514249911094   Change is   -0.064211108720910
 Root      2 :     5.322987039557227   Change is   -0.006916869574434
 Root      3 :     6.096914995341062   Change is   -0.036228770430893
 Root      4 :     6.568296762579735   Change is   -0.100930181927499
 Root      5 :     6.620159844891465   Change is   -0.052793981343314
 Root      6 :     7.147129084827251   Change is   -0.189834835915464
 Root      7 :     7.349474075413219   Change is   -0.067729307513789
 Root      8 :     7.460432805644505   Change is   -0.067621037052991
 Root      9 :     7.511535159264008   Change is   -0.138239993298883
 Root     10 :     7.878490355118848   Change is   -0.083766730118585
 Root     11 :     7.946102737988494   Change is   -0.044340286717980
 Root     12 :     7.993656982893036   Change is   -0.075623814053084
 Root     13 :     8.202865702559096   Change is   -0.092036129107196
 Root     14 :     8.316386917050220   Change is   -0.163800675969104
 Root     15 :     8.585513969372828   Change is   -0.114338475581351
 Root     16 :     8.719402414390792   Change is   -0.037508876204941
 Root     17 :     8.785328515148155   Change is   -0.098986472596749
 Root     18 :     9.232204437847050   Change is   -0.139377727783854
 Root     19 :     9.329299090742916   Change is   -0.118967241880239
 Root     20 :     9.426455102563690   Change is   -0.320939425356203
 Root     21 :     9.516282348896906   Change is   -0.075741590837994
 Root     22 :     9.570707170765289   Change is   -0.114035639047035
 Root     23 :     9.815317601591007   Change is   -0.125659642892211
 Root     24 :     9.832883042703989   Change is   -0.518436702442061
 Root     25 :     9.907427871704087   Change is   -0.253628902756537
 Root     26 :    10.059185744466960   Change is   -0.026781828150456
 Root     27 :    10.287350840028180   Change is   -0.468192472042169
 Root     28 :    10.342280531668870   Change is   -0.029904469089777
 Root     29 :    10.415497885270430   Change is   -0.733596057531484
 Root     30 :    10.542287557095690   Change is   -0.792674039628134
 Root     31 :    10.558992590361370   Change is   -0.094731385892768
 Root     32 :    10.709507898408400   Change is   -0.224732644272436
 Root     33 :    10.710127948758030   Change is   -0.124095207201816
 Root     34 :    10.811274594955950   Change is   -0.058778939658697
 Root     35 :    10.934369381642620   Change is   -0.524039561931886
 Root     36 :    10.992077514550670   Change is   -0.792780012050839
 Root     37 :    11.010173878730590   Change is   -0.156413096766751
 Root     38 :    11.074693537544920   Change is   -0.027429423096157
 Root     39 :    11.134784966941720   Change is   -0.463437554793275
 Root     40 :    11.272495203412460   Change is   -0.477481580774044
 Root     41 :    11.781182593420270   Change is   -0.759601206661601
 Root     42 :    11.910549518903220   Change is   -0.125356716793439
 Root     43 :    12.095181096141040   Change is   -0.393745232046673
 Root     44 :    12.535842729727640   Change is   -0.226923137798649
 Root     45 :    12.692050403458800   Change is   -0.278956618948438
 Root     46 :    12.719012781429400
 Root     47 :    12.737193491446500   Change is   -0.287962713741147
 Root     48 :    12.960504411405090   Change is   -0.197706205845231
 Root     49 :    13.073268981944310   Change is   -0.422327185135373
 Root     50 :    13.094682840691470   Change is   -0.167158763981603
 Root     51 :    13.257074685798790   Change is   -0.251532128573320
 Root     52 :    13.616011699465770   Change is   -0.249632640192364
 Root     53 :    13.720599055254870   Change is   -0.384743881454011
 Root     54 :    13.743920073473640   Change is   -0.064894766868524
 Root     55 :    13.915116709076430   Change is   -0.475401603998778
 Root     56 :    14.024611489636400   Change is   -0.473518191347754
 Root     57 :    14.031642965903890   Change is   -0.216687583560568
 Root     58 :    14.110516918697260   Change is   -0.730803663911079
 Root     59 :    14.404624039852980   Change is   -0.202280634785908
 Root     60 :    14.613207704905480   Change is   -0.382431052608890
 Iteration     3 Dimension   117 NMult   113 NNew      4
 CISAX will form     4 AO SS matrices at one time.
 NMat=     4 NSing=     4 JSym2X= 0.
 Root      1 not converged, maximum delta is    0.003262781002911
 Root      2 not converged, maximum delta is    0.000383620379582
 Root      3 has converged.
 Root      4 not converged, maximum delta is    0.001716011715674
 Root      5 not converged, maximum delta is    0.001772329698178
 Root      6 has converged.
 Root      7 has converged.
 Root      8 has converged.
 Root      9 has converged.
 Root     10 has converged.
 Root     11 has converged.
 Root     12 has converged.
 Root     13 has converged.
 Root     14 has converged.
 Root     15 has converged.
 Excitation Energies [eV] at current iteration:
 Root      1 :     4.718588222298753   Change is   -0.000926027612341
 Root      2 :     5.322953969338930   Change is   -0.000033070218298
 Root      3 :     6.096914995341002   Change is   -0.000000000000060
 Root      4 :     6.567758764570240   Change is   -0.000537998009495
 Root      5 :     6.619805910454675   Change is   -0.000353934436791
 Root      6 :     7.147129084827251   Change is    0.000000000000000
 Root      7 :     7.349474075413194   Change is   -0.000000000000024
 Root      8 :     7.460432805644499   Change is   -0.000000000000006
 Root      9 :     7.511535159264021   Change is    0.000000000000012
 Root     10 :     7.878490355118842   Change is   -0.000000000000006
 Root     11 :     7.946102737988482   Change is   -0.000000000000012
 Root     12 :     7.993656982893060   Change is    0.000000000000024
 Root     13 :     8.202865702559103   Change is    0.000000000000006
 Root     14 :     8.316386917050231   Change is    0.000000000000012
 Root     15 :     8.585513969372828   Change is    0.000000000000000
 Iteration     4 Dimension   121 NMult   117 NNew      4
 CISAX will form     4 AO SS matrices at one time.
 NMat=     4 NSing=     4 JSym2X= 0.
 Root      1 not converged, maximum delta is    0.000262293891726
 Root      2 not converged, maximum delta is    0.000041466759940
 Root      3 has converged.
 Root      4 not converged, maximum delta is    0.000317009953078
 Root      5 not converged, maximum delta is    0.000394569554615
 Root      6 has converged.
 Root      7 has converged.
 Root      8 has converged.
 Root      9 has converged.
 Root     10 has converged.
 Root     11 has converged.
 Root     12 has converged.
 Root     13 has converged.
 Root     14 has converged.
 Root     15 has converged.
 Excitation Energies [eV] at current iteration:
 Root      1 :     4.718576865543293   Change is   -0.000011356755460
 Root      2 :     5.322953719365159   Change is   -0.000000249973771
 Root      3 :     6.096914995341068   Change is    0.000000000000066
 Root      4 :     6.567751956766914   Change is   -0.000006807803325
 Root      5 :     6.619798435554859   Change is   -0.000007474899815
 Root      6 :     7.147129084827238   Change is   -0.000000000000012
 Root      7 :     7.349474075413146   Change is   -0.000000000000048
 Root      8 :     7.460432805644481   Change is   -0.000000000000018
 Root      9 :     7.511535159264002   Change is   -0.000000000000018
 Root     10 :     7.878490355118848   Change is    0.000000000000006
 Root     11 :     7.946102737988499   Change is    0.000000000000018
 Root     12 :     7.993656982893041   Change is   -0.000000000000018
 Root     13 :     8.202865702559079   Change is   -0.000000000000024
 Root     14 :     8.316386917050220   Change is   -0.000000000000012
 Root     15 :     8.585513969372839   Change is    0.000000000000012
 Iteration     5 Dimension   125 NMult   121 NNew      4
 CISAX will form     4 AO SS matrices at one time.
 NMat=     4 NSing=     4 JSym2X= 0.
 Root      1 not converged, maximum delta is    0.000023586190809
 Root      2 not converged, maximum delta is    0.000002015109016
 Root      3 has converged.
 Root      4 not converged, maximum delta is    0.000018271763223
 Root      5 not converged, maximum delta is    0.000037661697018
 Root      6 has converged.
 Root      7 has converged.
 Root      8 has converged.
 Root      9 has converged.
 Root     10 has converged.
 Root     11 has converged.
 Root     12 has converged.
 Root     13 has converged.
 Root     14 has converged.
 Root     15 has converged.
 Excitation Energies [eV] at current iteration:
 Root      1 :     4.718576724284339   Change is   -0.000000141258954
 Root      2 :     5.322953718461449   Change is   -0.000000000903711
 Root      3 :     6.096914995341062   Change is   -0.000000000000006
 Root      4 :     6.567751868358821   Change is   -0.000000088408093
 Root      5 :     6.619798276685868   Change is   -0.000000158868992
 Root      6 :     7.147129084827268   Change is    0.000000000000030
 Root      7 :     7.349474075413182   Change is    0.000000000000036
 Root      8 :     7.460432805644516   Change is    0.000000000000036
 Root      9 :     7.511535159263996   Change is   -0.000000000000006
 Root     10 :     7.878490355118872   Change is    0.000000000000024
 Root     11 :     7.946102737988488   Change is   -0.000000000000012
 Root     12 :     7.993656982893060   Change is    0.000000000000018
 Root     13 :     8.202865702559121   Change is    0.000000000000042
 Root     14 :     8.316386917050231   Change is    0.000000000000012
 Root     15 :     8.585513969372833   Change is   -0.000000000000006
 Iteration     6 Dimension   129 NMult   125 NNew      4
 CISAX will form     4 AO SS matrices at one time.
 NMat=     4 NSing=     4 JSym2X= 0.
 Root      1 not converged, maximum delta is    0.000002025763290
 Root      2 has converged.
 Root      3 has converged.
 Root      4 not converged, maximum delta is    0.000001457700615
 Root      5 not converged, maximum delta is    0.000002964191047
 Root      6 has converged.
 Root      7 has converged.
 Root      8 has converged.
 Root      9 has converged.
 Root     10 has converged.
 Root     11 has converged.
 Root     12 has converged.
 Root     13 has converged.
 Root     14 has converged.
 Root     15 has converged.
 Excitation Energies [eV] at current iteration:
 Root      1 :     4.718576723311995   Change is   -0.000000000972344
 Root      2 :     5.322953718456620   Change is   -0.000000000004828
 Root      3 :     6.096914995341050   Change is   -0.000000000000012
 Root      4 :     6.567751867971682   Change is   -0.000000000387138
 Root      5 :     6.619798275071800   Change is   -0.000000001614067
 Root      6 :     7.147129084827244   Change is   -0.000000000000024
 Root      7 :     7.349474075413158   Change is   -0.000000000000024
 Root      8 :     7.460432805644486   Change is   -0.000000000000030
 Root      9 :     7.511535159264008   Change is    0.000000000000012
 Root     10 :     7.878490355118848   Change is   -0.000000000000024
 Root     11 :     7.946102737988499   Change is    0.000000000000012
 Root     12 :     7.993656982893030   Change is   -0.000000000000030
 Root     13 :     8.202865702559103   Change is   -0.000000000000018
 Root     14 :     8.316386917050226   Change is   -0.000000000000006
 Root     15 :     8.585513969372851   Change is    0.000000000000018
 Iteration     7 Dimension   132 NMult   129 NNew      3
 CISAX will form     3 AO SS matrices at one time.
 NMat=     3 NSing=     3 JSym2X= 0.
 Root      1 has converged.
 Root      2 has converged.
 Root      3 has converged.
 Root      4 has converged.
 Root      5 has converged.
 Root      6 has converged.
 Root      7 has converged.
 Root      8 has converged.
 Root      9 has converged.
 Root     10 has converged.
 Root     11 has converged.
 Root     12 has converged.
 Root     13 has converged.
 Root     14 has converged.
 Root     15 has converged.
 Excitation Energies [eV] at current iteration:
 Root      1 :     4.718576723308920   Change is   -0.000000000003075
 Root      2 :     5.322953718456620   Change is    0.000000000000000
 Root      3 :     6.096914995341062   Change is    0.000000000000012
 Root      4 :     6.567751867971284   Change is   -0.000000000000399
 Root      5 :     6.619798275062188   Change is   -0.000000000009613
 Root      6 :     7.147129084827244   Change is    0.000000000000000
 Root      7 :     7.349474075413188   Change is    0.000000000000030
 Root      8 :     7.460432805644492   Change is    0.000000000000006
 Root      9 :     7.511535159263996   Change is   -0.000000000000012
 Root     10 :     7.878490355118848   Change is    0.000000000000000
 Root     11 :     7.946102737988506   Change is    0.000000000000006
 Root     12 :     7.993656982893041   Change is    0.000000000000012
 Root     13 :     8.202865702559096   Change is   -0.000000000000006
 Root     14 :     8.316386917050208   Change is   -0.000000000000018
 Root     15 :     8.585513969372833   Change is   -0.000000000000018
 Convergence achieved on expansion vectors.
 ***********************************************************************
 Excited states from <AA,BB:AA,BB> singles matrix:
 ***********************************************************************
 
 1PDM for each excited state written to RWF  633
 Ground to excited state transition densities written to RWF  633
 Ground to excited state transition electric dipole moments (Au):
       state          X           Y           Z        Dip. S.      Osc.
         1         0.0000     -0.8272      0.0000      0.6843      0.0791
         2         0.0000      0.0000      0.2448      0.0599      0.0078
         3         0.0000      0.0000      0.0000      0.0000      0.0000
         4         0.0000      0.0000     -1.8057      3.2605      0.5246
         5         0.0000     -1.1786      0.0000      1.3890      0.2253
         6        -0.0856      0.0000      0.0000      0.0073      0.0013
         7        -0.0029      0.0000      0.0000      0.0000      0.0000
         8         0.0924      0.0000      0.0000      0.0085      0.0016
         9         0.0000      0.0000      0.0000      0.0000      0.0000
        10         0.0000      0.0000      0.0000      0.0000      0.0000
        11         0.0388      0.0000      0.0000      0.0015      0.0003
        12         0.0000      0.0000      0.0000      0.0000      0.0000
        13         0.0000      0.0000      0.0000      0.0000      0.0000
        14         0.2287      0.0000      0.0000      0.0523      0.0107
        15         0.0000      0.0000      0.0000      0.0000      0.0000
 Ground to excited state transition velocity dipole moments (Au):
       state          X           Y           Z        Dip. S.      Osc.
         1         0.0000      0.0282      0.0000      0.0008      0.0030
         2         0.0000      0.0000     -0.0066      0.0000      0.0002
         3         0.0000      0.0000      0.0000      0.0000      0.0000
         4         0.0000      0.0000      0.3617      0.1308      0.3614
         5         0.0000      0.1745      0.0000      0.0305      0.0834
         6         0.0567      0.0000      0.0000      0.0032      0.0082
         7         0.0841      0.0000      0.0000      0.0071      0.0175
         8        -0.1391      0.0000      0.0000      0.0194      0.0471
         9         0.0000      0.0000      0.0000      0.0000      0.0000
        10         0.0000      0.0000      0.0000      0.0000      0.0000
        11         0.0569      0.0000      0.0000      0.0032      0.0074
        12         0.0000      0.0000      0.0000      0.0000      0.0000
        13         0.0000      0.0000      0.0000      0.0000      0.0000
        14         0.0237      0.0000      0.0000      0.0006      0.0012
        15         0.0000      0.0000      0.0000      0.0000      0.0000
 Ground to excited state transition magnetic dipole moments (Au):
       state          X           Y           Z
         1         0.5849      0.0000      0.0000
         2         0.0000      0.0000      0.0000
         3         0.0000      0.0000     -0.5452
         4         0.0000      0.0000      0.0000
         5         0.1735      0.0000      0.0000
         6         0.0000     -0.4240      0.0000
         7         0.0000     -1.1327      0.0000
         8         0.0000     -0.8579      0.0000
         9         0.0000      0.0000      0.5898
        10         0.0000      0.0000      0.9600
        11         0.0000      0.1695      0.0000
        12         0.0000      0.0000     -0.8155
        13         0.0000      0.0000     -0.0980
        14         0.0000     -1.0052      0.0000
        15         0.0000      0.0000      0.1048
 Ground to excited state transition velocity quadrupole moments (Au):
       state          XX          YY          ZZ          XY          XZ          YZ
         1         0.0000      0.0000      0.0000      0.0000      0.0000      0.5582
         2        -0.0765     -0.1082      0.1297      0.0000      0.0000      0.0000
         3         0.0000      0.0000      0.0000     -0.2616      0.0000      0.0000
         4        -0.0341      0.4979     -0.3281      0.0000      0.0000      0.0000
         5         0.0000      0.0000      0.0000      0.0000      0.0000     -0.5013
         6         0.0000      0.0000      0.0000      0.0000      0.0054      0.0000
         7         0.0000      0.0000      0.0000      0.0000      0.3419      0.0000
         8         0.0000      0.0000      0.0000      0.0000     -0.0586      0.0000
         9         0.0000      0.0000      0.0000      0.1960      0.0000      0.0000
        10         0.0000      0.0000      0.0000     -0.2262      0.0000      0.0000
        11         0.0000      0.0000      0.0000      0.0000      0.0799      0.0000
        12         0.0000      0.0000      0.0000     -0.1066      0.0000      0.0000
        13         0.0000      0.0000      0.0000      0.2015      0.0000      0.0000
        14         0.0000      0.0000      0.0000      0.0000     -0.2591      0.0000
        15         0.0000      0.0000      0.0000      0.1058      0.0000      0.0000
 <0|del|b> * <b|rxdel|0> + <0|del|b> * <b|delr+rdel|0>
 Rotatory Strengths (R) in cgs (10**-40 erg-esu-cm/Gauss)
       state          XX          YY          ZZ    R(velocity)    E-M Angle
         1         0.0000      0.0000      0.0000      0.0000       90.00
         2         0.0000      0.0000      0.0000      0.0000       90.00
         3         0.0000      0.0000      0.0000      0.0000       90.00
         4         0.0000      0.0000      0.0000      0.0000       90.00
         5         0.0000      0.0000      0.0000      0.0000       90.00
         6         0.0000      0.0000      0.0000      0.0000       90.00
         7         0.0000      0.0000      0.0000      0.0000       90.00
         8         0.0000      0.0000      0.0000      0.0000       90.00
         9         0.0000      0.0000      0.0000      0.0000       90.00
        10         0.0000      0.0000      0.0000      0.0000       90.00
        11         0.0000      0.0000      0.0000      0.0000       90.00
        12         0.0000      0.0000      0.0000      0.0000       90.00
        13         0.0000      0.0000      0.0000      0.0000       90.00
        14         0.0000      0.0000      0.0000      0.0000       90.00
        15         0.0000      0.0000      0.0000      0.0000       90.00
 1/2[<0|r|b>*<b|rxdel|0> + (<0|rxdel|b>*<b|r|0>)*]
 Rotatory Strengths (R) in cgs (10**-40 erg-esu-cm/Gauss)
       state          XX          YY          ZZ     R(length)
         1         0.0000      0.0000      0.0000      0.0000
         2         0.0000      0.0000      0.0000      0.0000
         3         0.0000      0.0000      0.0000      0.0000
         4         0.0000      0.0000      0.0000      0.0000
         5         0.0000      0.0000      0.0000      0.0000
         6         0.0000      0.0000      0.0000      0.0000
         7         0.0000      0.0000      0.0000      0.0000
         8         0.0000      0.0000      0.0000      0.0000
         9         0.0000      0.0000      0.0000      0.0000
        10         0.0000      0.0000      0.0000      0.0000
        11         0.0000      0.0000      0.0000      0.0000
        12         0.0000      0.0000      0.0000      0.0000
        13         0.0000      0.0000      0.0000      0.0000
        14         0.0000      0.0000      0.0000      0.0000
        15         0.0000      0.0000      0.0000      0.0000
  1/2[<0|del|b>*<b|r|0> + (<0|r|b>*<b|del|0>)*] (Au)
       state          X           Y           Z        Dip. S.   Osc.(frdel)
         1         0.0000     -0.0233      0.0000      0.0233      0.0155
         2         0.0000      0.0000     -0.0016      0.0016      0.0011
         3         0.0000      0.0000      0.0000      0.0000      0.0000
         4         0.0000      0.0000     -0.6532      0.6532      0.4354
         5         0.0000     -0.2057      0.0000      0.2057      0.1371
         6        -0.0048      0.0000      0.0000      0.0048      0.0032
         7        -0.0002      0.0000      0.0000      0.0002      0.0002
         8        -0.0129      0.0000      0.0000      0.0129      0.0086
         9         0.0000      0.0000      0.0000      0.0000      0.0000
        10         0.0000      0.0000      0.0000      0.0000      0.0000
        11         0.0022      0.0000      0.0000     -0.0022     -0.0015
        12         0.0000      0.0000      0.0000      0.0000      0.0000
        13         0.0000      0.0000      0.0000      0.0000      0.0000
        14         0.0054      0.0000      0.0000     -0.0054     -0.0036
        15         0.0000      0.0000      0.0000      0.0000      0.0000

 Excitation energies and oscillator strengths:
 
 Excited State   1:      Singlet-B2     4.7186 eV  262.76 nm  f=0.0791  <S**2>=0.000
      12 -> 15        -0.28099
      13 -> 14         0.64283
 This state for optimization and/or second-order correction.
 Total Energy, E(CIS) = -0.752973376445    
 Copying the excited state density for this state as the 1-particle RhoCI density.
 
 Excited State   2:      Singlet-A1     5.3230 eV  232.92 nm  f=0.0078  <S**2>=0.000
      12 -> 14         0.40862
      13 -> 15         0.57417
 
 Excited State   3:      Singlet-A2     6.0969 eV  203.36 nm  f=0.0000  <S**2>=0.000
      13 -> 16         0.69115
 
 Excited State   4:      Singlet-A1     6.5678 eV  188.78 nm  f=0.5246  <S**2>=0.000
      11 -> 16         0.10012
      12 -> 14         0.55954
      13 -> 15        -0.39550
 
 Excited State   5:      Singlet-B2     6.6198 eV  187.29 nm  f=0.2253  <S**2>=0.000
      12 -> 15         0.64150
      13 -> 14         0.27308
 
 Excited State   6:      Singlet-B1     7.1471 eV  173.47 nm  f=0.0013  <S**2>=0.000
       7 -> 16        -0.11337
      12 -> 16         0.65859
      13 -> 21         0.10558
 
 Excited State   7:      Singlet-B1     7.3495 eV  168.70 nm  f=0.0000  <S**2>=0.000
       9 -> 14         0.47152
      10 -> 15        -0.32727
      12 -> 22        -0.11783
      13 -> 17        -0.32958
      13 -> 19        -0.12970
      13 -> 21        -0.10507
      13 -> 24        -0.10316
 
 Excited State   8:      Singlet-B1     7.4604 eV  166.19 nm  f=0.0016  <S**2>=0.000
       9 -> 14         0.26018
      10 -> 15        -0.22103
      11 -> 14         0.19921
      12 -> 18        -0.10125
      13 -> 17         0.54924
 
 Excited State   9:      Singlet-A2     7.5115 eV  165.06 nm  f=0.0000  <S**2>=0.000
       8 -> 14        -0.15175
       9 -> 15        -0.23050
      10 -> 14         0.53896
      11 -> 15        -0.28659
      13 -> 22        -0.14873
 
 Excited State  10:      Singlet-A2     7.8785 eV  157.37 nm  f=0.0000  <S**2>=0.000
      10 -> 14         0.12447
      11 -> 15        -0.11367
      12 -> 17         0.40482
      12 -> 19         0.18801
      12 -> 21         0.23443
      13 -> 20         0.21909
      13 -> 22         0.39627
 
 Excited State  11:      Singlet-B1     7.9461 eV  156.03 nm  f=0.0003  <S**2>=0.000
       8 -> 15         0.13239
       9 -> 14        -0.20071
      11 -> 14         0.63580
 
 Excited State  12:      Singlet-A2     7.9937 eV  155.10 nm  f=0.0000  <S**2>=0.000
       8 -> 14         0.11760
       9 -> 15        -0.22723
      10 -> 14         0.27648
      11 -> 15         0.57619
      13 -> 18         0.10656
 
 Excited State  13:      Singlet-A2     8.2029 eV  151.15 nm  f=0.0000  <S**2>=0.000
      11 -> 15        -0.15383
      12 -> 17        -0.33684
      12 -> 24         0.17502
      13 -> 18         0.49754
      13 -> 20         0.10629
      13 -> 22         0.23220
 
 Excited State  14:      Singlet-B1     8.3164 eV  149.08 nm  f=0.0107  <S**2>=0.000
      11 -> 14         0.13238
      12 -> 16        -0.10871
      12 -> 18         0.23076
      12 -> 20         0.15875
      12 -> 22         0.28757
      13 -> 17        -0.18983
      13 -> 19         0.21144
      13 -> 21         0.32656
      13 -> 23        -0.15181
      13 -> 24         0.27854
 
 Excited State  15:      Singlet-A2     8.5855 eV  144.41 nm  f=0.0000  <S**2>=0.000
      12 -> 17        -0.18289
      12 -> 19        -0.30438
      12 -> 21        -0.12240
      12 -> 24         0.15065
      13 -> 18        -0.32828
      13 -> 20         0.43326
      13 -> 22         0.13906
 SavETr:  write IOETrn=   770 NScale= 10 NData=  16 NLR=1 NState=   15 LETran=     280.
 The selected state is a singlet
 CISAX will form     1 AO SS matrices at one time.
 NMat=     1 NSing=     1 JSym2X= 0.
 Leave Link  914 at Tue Oct  6 15:41:39 2015, MaxMem=    33554432 cpu:         0.1
 (Enter /home/Applications/g09/g09/l1002.exe)
 Minotr:  Closed shell wavefunction.
          Computing CIS/TD-HF/TD-KS derivatives.
          Using Z-Vector for PSCF gradient.
          Skipping F1 and S1 gradient terms here.
          IDoAtm=111111111
          Direct CPHF calculation.
          Differentiating once with respect to electric field.
                with respect to dipole field.
          Differentiating once with respect to nuclear coordinates.
          Electric field/nuclear overlap derivatives assumed to be zero.
          Requested convergence is 1.0D-10 RMS, and 1.0D-09 maximum.
          NewPWx=T KeepS1=F KeepF1=F KeepIn=T MapXYZ=F SortEE=F KeepMc=T.
          MDV=      33495423 using IRadAn=       0.
 Keep J ints in memory in canonical form, NReq=871758.
 FoFCou: FMM=F IPFlag=           0 FMFlag=           0 FMFlg1=           0
         NFxFlg=           0 DoJE=F BraDBF=F KetDBF=F FulRan=T
         wScrn=  0.000000 ICntrl=     600 IOpCl=  2 I1Cent=           0 NGrid=           0
         NMat0=    1 NMatS0=     54 NMatT0=    0 NMatD0=    1 NMtDS0=    0 NMtDT0=    0
 Symmetry not used in FoFCou.
          Solving linear equations separately, MaxMat=       0.
          There are     1 degrees of freedom in the 1st order CPHF.  IDoFFX=0 NUNeed=     1.
 LinEq1:  Iter=  0 NonCon=     1 RMS=9.79D-03 Max=7.24D-02 NDo=     1
 AX will form     1 AO Fock derivatives at one time.
 LinEq1:  Iter=  1 NonCon=     1 RMS=1.38D-03 Max=7.78D-03 NDo=     1
 LinEq1:  Iter=  2 NonCon=     1 RMS=1.70D-04 Max=1.37D-03 NDo=     1
 LinEq1:  Iter=  3 NonCon=     1 RMS=2.23D-05 Max=1.22D-04 NDo=     1
 LinEq1:  Iter=  4 NonCon=     1 RMS=1.91D-06 Max=7.82D-06 NDo=     1
 LinEq1:  Iter=  5 NonCon=     1 RMS=1.86D-07 Max=7.75D-07 NDo=     1
 LinEq1:  Iter=  6 NonCon=     1 RMS=1.68D-08 Max=8.48D-08 NDo=     1
 LinEq1:  Iter=  7 NonCon=     1 RMS=1.74D-09 Max=6.93D-09 NDo=     1
 LinEq1:  Iter=  8 NonCon=     1 RMS=1.67D-10 Max=7.26D-10 NDo=     1
 LinEq1:  Iter=  9 NonCon=     0 RMS=1.16D-11 Max=4.94D-11 NDo=     1
 Linear equations converged to 1.000D-10 1.000D-09 after     9 iterations.
 End of Minotr F.D. properties file   721 does not exist.
 End of Minotr F.D. properties file   722 does not exist.
 End of Minotr F.D. properties file   788 does not exist.
 Leave Link 1002 at Tue Oct  6 15:41:39 2015, MaxMem=    33554432 cpu:         0.0
 (Enter /home/Applications/g09/g09/l601.exe)
 Copying SCF densities to generalized density rwf, IOpCl= 0 IROHF=0.

 **********************************************************************

            Population analysis using the SCF density.

 **********************************************************************

 Orbital symmetries:
       Occupied  (A1) (A1) (B2) (B2) (A1) (A1) (B1) (B2) (A1) (B2)
                 (A1) (B1) (A2)
       Virtual   (B1) (A2) (A1) (B2) (A1) (B2) (A1) (B2) (A1) (B2)
                 (B2)
 The electronic state is 1-A1.
 Alpha  occ. eigenvalues --   -1.56174  -1.20000  -1.08625  -0.84671  -0.79588
 Alpha  occ. eigenvalues --   -0.73427  -0.66453  -0.58156  -0.53820  -0.52997
 Alpha  occ. eigenvalues --   -0.52709  -0.42266  -0.38237
 Alpha virt. eigenvalues --    0.01283   0.04230   0.10762   0.14484   0.16417
 Alpha virt. eigenvalues --    0.18177   0.18714   0.19866   0.21816   0.23039
 Alpha virt. eigenvalues --    0.23943
     Molecular Orbital Coefficients:
                           1         2         3         4         5
                        (A1)--O   (A1)--O   (B2)--O   (B2)--O   (A1)--O
     Eigenvalues --    -1.56174  -1.20000  -1.08625  -0.84671  -0.79588
   1 1   C  1S          0.26706  -0.46069   0.23735  -0.34340  -0.25322
   2        1PX         0.00000   0.00000   0.00000   0.00000   0.00000
   3        1PY        -0.06657   0.08720   0.13754  -0.22195   0.19264
   4        1PZ         0.11428  -0.04244   0.11653  -0.01432   0.32097
   5 2   C  1S          0.35966  -0.13369   0.49852   0.00021   0.34569
   6        1PX         0.00000   0.00000   0.00000   0.00000   0.00000
   7        1PY        -0.19574  -0.04785  -0.00089  -0.12015   0.11687
   8        1PZ         0.01939   0.24950   0.03819   0.38495   0.00589
   9 3   O  1S          0.64160   0.58165   0.00000   0.00000  -0.29064
  10        1PX         0.00000   0.00000   0.00000   0.00000   0.00000
  11        1PY         0.00000   0.00000   0.45709   0.49112   0.00000
  12        1PZ        -0.23632   0.06565   0.00000   0.00000  -0.24459
  13 4   C  1S          0.35966  -0.13369  -0.49852  -0.00021   0.34569
  14        1PX         0.00000   0.00000   0.00000   0.00000   0.00000
  15        1PY         0.19574   0.04785  -0.00089  -0.12015  -0.11687
  16        1PZ         0.01939   0.24950  -0.03819  -0.38495   0.00589
  17 5   C  1S          0.26706  -0.46069  -0.23735   0.34340  -0.25322
  18        1PX         0.00000   0.00000   0.00000   0.00000   0.00000
  19        1PY         0.06657  -0.08720   0.13754  -0.22195  -0.19264
  20        1PZ         0.11428  -0.04244  -0.11653   0.01432   0.32097
  21 6   H  1S          0.05754  -0.15388  -0.09630   0.21943  -0.19582
  22 7   H  1S          0.07802  -0.03100  -0.21783  -0.03526   0.22817
  23 8   H  1S          0.07802  -0.03100   0.21783   0.03526   0.22817
  24 9   H  1S          0.05754  -0.15388   0.09630  -0.21943  -0.19582
                           6         7         8         9        10
                        (A1)--O   (B1)--O   (B2)--O   (A1)--O   (B2)--O
     Eigenvalues --    -0.73427  -0.66453  -0.58156  -0.53820  -0.52997
   1 1   C  1S          0.08363   0.00000  -0.18544   0.03859  -0.03364
   2        1PX         0.00000   0.21386   0.00000   0.00000   0.00000
   3        1PY         0.20656   0.00000  -0.09168  -0.03758  -0.08163
   4        1PZ        -0.17397   0.00000   0.14619   0.36820   0.44278
   5 2   C  1S          0.14093   0.00000   0.14405  -0.05125   0.10254
   6        1PX         0.00000   0.39015   0.00000   0.00000   0.00000
   7        1PY         0.38403   0.00000   0.42347   0.05190  -0.24073
   8        1PZ         0.08122   0.00000  -0.00725  -0.33731  -0.29977
   9 3   O  1S          0.17972   0.00000   0.00000   0.21441   0.00000
  10        1PX         0.00000   0.77723   0.00000   0.00000   0.00000
  11        1PY         0.00000   0.00000  -0.36750   0.00000   0.00080
  12        1PZ         0.47750   0.00000   0.00000   0.57110   0.00000
  13 4   C  1S          0.14093   0.00000  -0.14405  -0.05125  -0.10254
  14        1PX         0.00000   0.39015   0.00000   0.00000   0.00000
  15        1PY        -0.38403   0.00000   0.42347  -0.05190  -0.24073
  16        1PZ         0.08122   0.00000   0.00725  -0.33731   0.29977
  17 5   C  1S          0.08363   0.00000   0.18544   0.03859   0.03364
  18        1PX         0.00000   0.21386   0.00000   0.00000   0.00000
  19        1PY        -0.20656   0.00000  -0.09168   0.03758  -0.08163
  20        1PZ        -0.17397   0.00000  -0.14619   0.36820  -0.44278
  21 6   H  1S          0.18893   0.00000   0.22748  -0.20611   0.31765
  22 7   H  1S          0.28336   0.00000  -0.34122  -0.11786   0.19216
  23 8   H  1S          0.28336   0.00000   0.34122  -0.11786  -0.19216
  24 9   H  1S          0.18893   0.00000  -0.22748  -0.20611  -0.31765
                          11        12        13        14        15
                        (A1)--O   (B1)--O   (A2)--O   (B1)--V   (A2)--V
     Eigenvalues --    -0.52709  -0.42266  -0.38237   0.01283   0.04230
   1 1   C  1S         -0.01865   0.00000   0.00000   0.00000   0.00000
   2        1PX         0.00000   0.59577   0.37321  -0.31515   0.60059
   3        1PY         0.56901   0.00000   0.00000   0.00000   0.00000
   4        1PZ         0.00994   0.00000   0.00000   0.00000   0.00000
   5 2   C  1S         -0.04049   0.00000   0.00000   0.00000   0.00000
   6        1PX         0.00000   0.16018   0.60059   0.56756  -0.37321
   7        1PY        -0.13655   0.00000   0.00000   0.00000   0.00000
   8        1PZ        -0.22440   0.00000   0.00000   0.00000   0.00000
   9 3   O  1S          0.06757   0.00000   0.00000   0.00000   0.00000
  10        1PX         0.00000  -0.48867   0.00000  -0.39637   0.00000
  11        1PY         0.00000   0.00000   0.00000   0.00000   0.00000
  12        1PZ        -0.12539   0.00000   0.00000   0.00000   0.00000
  13 4   C  1S         -0.04049   0.00000   0.00000   0.00000   0.00000
  14        1PX         0.00000   0.16018  -0.60059   0.56756   0.37321
  15        1PY         0.13655   0.00000   0.00000   0.00000   0.00000
  16        1PZ        -0.22440   0.00000   0.00000   0.00000   0.00000
  17 5   C  1S         -0.01865   0.00000   0.00000   0.00000   0.00000
  18        1PX         0.00000   0.59577  -0.37321  -0.31515  -0.60059
  19        1PY        -0.56901   0.00000   0.00000   0.00000   0.00000
  20        1PZ         0.00994   0.00000   0.00000   0.00000   0.00000
  21 6   H  1S          0.23133   0.00000   0.00000   0.00000   0.00000
  22 7   H  1S         -0.20366   0.00000   0.00000   0.00000   0.00000
  23 8   H  1S         -0.20366   0.00000   0.00000   0.00000   0.00000
  24 9   H  1S          0.23133   0.00000   0.00000   0.00000   0.00000
                          16        17        18        19        20
                        (A1)--V   (B2)--V   (A1)--V   (B2)--V   (A1)--V
     Eigenvalues --     0.10762   0.14484   0.16417   0.18177   0.18714
   1 1   C  1S          0.00934  -0.05665  -0.05552   0.14300  -0.14257
   2        1PX         0.00000   0.00000   0.00000   0.00000   0.00000
   3        1PY         0.03878   0.33427  -0.03039   0.37675  -0.19382
   4        1PZ         0.15315   0.03725   0.22748  -0.06303   0.28703
   5 2   C  1S          0.20203   0.03863  -0.28194  -0.29020  -0.03136
   6        1PX         0.00000   0.00000   0.00000   0.00000   0.00000
   7        1PY        -0.25743   0.38592  -0.27559  -0.10312   0.32802
   8        1PZ         0.39524   0.09363  -0.01960  -0.03089   0.03916
   9 3   O  1S         -0.26236   0.00000  -0.02379   0.00000   0.10453
  10        1PX         0.00000   0.00000   0.00000   0.00000   0.00000
  11        1PY         0.00000   0.20705   0.00000   0.16401   0.00000
  12        1PZ         0.47153   0.00000   0.07712   0.00000  -0.21816
  13 4   C  1S          0.20203  -0.03863  -0.28194   0.29020  -0.03136
  14        1PX         0.00000   0.00000   0.00000   0.00000   0.00000
  15        1PY         0.25743   0.38592   0.27559  -0.10312  -0.32802
  16        1PZ         0.39524  -0.09363  -0.01960   0.03089   0.03916
  17 5   C  1S          0.00934   0.05665  -0.05552  -0.14300  -0.14257
  18        1PX         0.00000   0.00000   0.00000   0.00000   0.00000
  19        1PY        -0.03878   0.33427   0.03039   0.37675   0.19382
  20        1PZ         0.15315  -0.03725   0.22748   0.06303   0.28703
  21 6   H  1S          0.14467   0.13623   0.26301   0.36710   0.41987
  22 7   H  1S         -0.21244   0.42951   0.46475  -0.29936  -0.20989
  23 8   H  1S         -0.21244  -0.42951   0.46475   0.29936  -0.20989
  24 9   H  1S          0.14467  -0.13623   0.26301  -0.36710   0.41987
                          21        22        23        24
                        (B2)--V   (A1)--V   (B2)--V   (B2)--V
     Eigenvalues --     0.19866   0.21816   0.23039   0.23943
   1 1   C  1S         -0.23451   0.34641  -0.03964   0.45825
   2        1PX         0.00000   0.00000   0.00000   0.00000
   3        1PY         0.23266   0.20738  -0.20850  -0.25587
   4        1PZ         0.43762   0.24206  -0.03729   0.26558
   5 2   C  1S         -0.21170  -0.29641  -0.20039  -0.22257
   6        1PX         0.00000   0.00000   0.00000   0.00000
   7        1PY        -0.02166   0.16462   0.25353   0.15485
   8        1PZ         0.09281   0.32936  -0.40647   0.27729
   9 3   O  1S          0.00000   0.04911   0.00000   0.00000
  10        1PX         0.00000   0.00000   0.00000   0.00000
  11        1PY         0.05151   0.00000   0.58416   0.03393
  12        1PZ         0.00000  -0.18508   0.00000   0.00000
  13 4   C  1S          0.21170  -0.29641   0.20039   0.22257
  14        1PX         0.00000   0.00000   0.00000   0.00000
  15        1PY        -0.02166  -0.16462   0.25353   0.15485
  16        1PZ        -0.09281   0.32936   0.40647  -0.27729
  17 5   C  1S          0.23451   0.34641   0.03964  -0.45825
  18        1PX         0.00000   0.00000   0.00000   0.00000
  19        1PY         0.23266  -0.20738  -0.20850  -0.25587
  20        1PZ        -0.43762   0.24206   0.03729  -0.26558
  21 6   H  1S         -0.35631  -0.19127  -0.08882   0.04195
  22 7   H  1S         -0.13108  -0.00699  -0.07352   0.03550
  23 8   H  1S          0.13108  -0.00699   0.07352  -0.03550
  24 9   H  1S          0.35631  -0.19127   0.08882  -0.04195
     Density Matrix:
                           1         2         3         4         5
   1 1   C  1S          1.13257
   2        1PX         0.00000   1.07993
   3        1PY         0.05418   0.00000   1.00050
   4        1PZ        -0.08232   0.00000  -0.04786   1.03005
   5 2   C  1S          0.33752   0.00000   0.17187   0.47698   1.14127
   6        1PX         0.00000   0.80603   0.00000   0.00000   0.00000
   7        1PY        -0.10508   0.00000   0.07683  -0.14989   0.13848
   8        1PZ        -0.44997   0.00000  -0.26338  -0.56378   0.00162
   9 3   O  1S         -0.00196   0.00000   0.03905   0.00741   0.12826
  10        1PX         0.00000  -0.24983   0.00000   0.00000   0.00000
  11        1PY         0.01593   0.00000  -0.02501  -0.01429   0.35022
  12        1PZ         0.06578   0.00000  -0.03968   0.03532  -0.27044
  13 4   C  1S         -0.01485   0.00000  -0.01591  -0.02121   0.02214
  14        1PX         0.00000  -0.09056   0.00000   0.00000   0.00000
  15        1PY        -0.01245   0.00000  -0.04735  -0.02236   0.00492
  16        1PZ        -0.00319   0.00000  -0.04317  -0.02437   0.05228
  17 5   C  1S          0.29345   0.00000  -0.46026  -0.04460  -0.01485
  18        1PX         0.00000   0.52278   0.00000   0.00000   0.00000
  19        1PY         0.46026   0.00000  -0.66750  -0.07350   0.01591
  20        1PZ        -0.04460   0.00000   0.07350   0.10521  -0.02121
  21 6   H  1S         -0.02342   0.00000   0.02939   0.00667   0.03754
  22 7   H  1S          0.03501   0.00000  -0.04681  -0.00185   0.05450
  23 8   H  1S         -0.03386   0.00000  -0.02066  -0.04314   0.60669
  24 9   H  1S          0.58090   0.00000   0.46432  -0.63149  -0.03197
                           6         7         8         9        10
   6        1PX         1.07718
   7        1PY         0.00000   0.94959
   8        1PZ         0.00000   0.10418   0.94589
   9 3   O  1S          0.00000  -0.23293   0.16592   1.83453
  10        1PX         0.44993   0.00000   0.00000   0.00000   1.68578
  11        1PY         0.00000  -0.43046   0.41787   0.00000   0.00000
  12        1PZ         0.00000   0.48934  -0.23071   0.31487   0.00000
  13 4   C  1S          0.00000  -0.00492   0.05228   0.12826   0.00000
  14        1PX        -0.36567   0.00000   0.00000   0.00000   0.44993
  15        1PY         0.00000   0.05725  -0.01295   0.23293   0.00000
  16        1PZ         0.00000   0.01295  -0.01233   0.16592   0.00000
  17 5   C  1S          0.00000   0.01245  -0.00319  -0.00196   0.00000
  18        1PX        -0.09056   0.00000   0.00000   0.00000  -0.24983
  19        1PY         0.00000  -0.04735   0.04317  -0.03905   0.00000
  20        1PZ         0.00000   0.02236  -0.02437   0.00741   0.00000
  21 6   H  1S          0.00000  -0.00586  -0.04310   0.01943   0.00000
  22 7   H  1S          0.00000  -0.08587   0.05314  -0.04479   0.00000
  23 8   H  1S          0.00000   0.65943   0.36124  -0.04479   0.00000
  24 9   H  1S          0.00000   0.01980   0.02122   0.01943   0.00000
                          11        12        13        14        15
  11        1PY         1.17037
  12        1PZ         0.00000   1.37972
  13 4   C  1S         -0.35022  -0.27044   1.14127
  14        1PX         0.00000   0.00000   0.00000   1.07718
  15        1PY        -0.43046  -0.48934  -0.13848   0.00000   0.94959
  16        1PZ        -0.41787  -0.23071   0.00162   0.00000  -0.10418
  17 5   C  1S         -0.01593   0.06578   0.33752   0.00000   0.10508
  18        1PX         0.00000   0.00000   0.00000   0.80603   0.00000
  19        1PY        -0.02501   0.03968  -0.17187   0.00000   0.07683
  20        1PZ         0.01429   0.03532   0.47698   0.00000   0.14989
  21 6   H  1S         -0.03920  -0.06461  -0.03197   0.00000  -0.01980
  22 7   H  1S          0.01733   0.03449   0.60669   0.00000  -0.65943
  23 8   H  1S         -0.01733   0.03449   0.05450   0.00000   0.08587
  24 9   H  1S          0.03920  -0.06461   0.03754   0.00000   0.00586
                          16        17        18        19        20
  16        1PZ         0.94589
  17 5   C  1S         -0.44997   1.13257
  18        1PX         0.00000   0.00000   1.07993
  19        1PY         0.26338  -0.05418   0.00000   1.00050
  20        1PZ        -0.56378  -0.08232   0.00000   0.04786   1.03005
  21 6   H  1S          0.02122   0.58090   0.00000  -0.46432  -0.63149
  22 7   H  1S          0.36124  -0.03386   0.00000   0.02066  -0.04314
  23 8   H  1S          0.05314   0.03501   0.00000   0.04681  -0.00185
  24 9   H  1S         -0.04310  -0.02342   0.00000  -0.02939   0.00667
                          21        22        23        24
  21 6   H  1S          0.81418
  22 7   H  1S         -0.01610   0.79364
  23 8   H  1S         -0.00273  -0.01456   0.79364
  24 9   H  1S         -0.02610  -0.00273  -0.01610   0.81418
    Full Mulliken population analysis:
                           1         2         3         4         5
   1 1   C  1S          1.13257
   2        1PX         0.00000   1.07993
   3        1PY         0.00000   0.00000   1.00050
   4        1PZ         0.00000   0.00000   0.00000   1.03005
   5 2   C  1S          0.00000   0.00000   0.00000   0.00000   1.14127
   6        1PX         0.00000   0.00000   0.00000   0.00000   0.00000
   7        1PY         0.00000   0.00000   0.00000   0.00000   0.00000
   8        1PZ         0.00000   0.00000   0.00000   0.00000   0.00000
   9 3   O  1S          0.00000   0.00000   0.00000   0.00000   0.00000
  10        1PX         0.00000   0.00000   0.00000   0.00000   0.00000
  11        1PY         0.00000   0.00000   0.00000   0.00000   0.00000
  12        1PZ         0.00000   0.00000   0.00000   0.00000   0.00000
  13 4   C  1S          0.00000   0.00000   0.00000   0.00000   0.00000
  14        1PX         0.00000   0.00000   0.00000   0.00000   0.00000
  15        1PY         0.00000   0.00000   0.00000   0.00000   0.00000
  16        1PZ         0.00000   0.00000   0.00000   0.00000   0.00000
  17 5   C  1S          0.00000   0.00000   0.00000   0.00000   0.00000
  18        1PX         0.00000   0.00000   0.00000   0.00000   0.00000
  19        1PY         0.00000   0.00000   0.00000   0.00000   0.00000
  20        1PZ         0.00000   0.00000   0.00000   0.00000   0.00000
  21 6   H  1S          0.00000   0.00000   0.00000   0.00000   0.00000
  22 7   H  1S          0.00000   0.00000   0.00000   0.00000   0.00000
  23 8   H  1S          0.00000   0.00000   0.00000   0.00000   0.00000
  24 9   H  1S          0.00000   0.00000   0.00000   0.00000   0.00000
                           6         7         8         9        10
   6        1PX         1.07718
   7        1PY         0.00000   0.94959
   8        1PZ         0.00000   0.00000   0.94589
   9 3   O  1S          0.00000   0.00000   0.00000   1.83453
  10        1PX         0.00000   0.00000   0.00000   0.00000   1.68578
  11        1PY         0.00000   0.00000   0.00000   0.00000   0.00000
  12        1PZ         0.00000   0.00000   0.00000   0.00000   0.00000
  13 4   C  1S          0.00000   0.00000   0.00000   0.00000   0.00000
  14        1PX         0.00000   0.00000   0.00000   0.00000   0.00000
  15        1PY         0.00000   0.00000   0.00000   0.00000   0.00000
  16        1PZ         0.00000   0.00000   0.00000   0.00000   0.00000
  17 5   C  1S          0.00000   0.00000   0.00000   0.00000   0.00000
  18        1PX         0.00000   0.00000   0.00000   0.00000   0.00000
  19        1PY         0.00000   0.00000   0.00000   0.00000   0.00000
  20        1PZ         0.00000   0.00000   0.00000   0.00000   0.00000
  21 6   H  1S          0.00000   0.00000   0.00000   0.00000   0.00000
  22 7   H  1S          0.00000   0.00000   0.00000   0.00000   0.00000
  23 8   H  1S          0.00000   0.00000   0.00000   0.00000   0.00000
  24 9   H  1S          0.00000   0.00000   0.00000   0.00000   0.00000
                          11        12        13        14        15
  11        1PY         1.17037
  12        1PZ         0.00000   1.37972
  13 4   C  1S          0.00000   0.00000   1.14127
  14        1PX         0.00000   0.00000   0.00000   1.07718
  15        1PY         0.00000   0.00000   0.00000   0.00000   0.94959
  16        1PZ         0.00000   0.00000   0.00000   0.00000   0.00000
  17 5   C  1S          0.00000   0.00000   0.00000   0.00000   0.00000
  18        1PX         0.00000   0.00000   0.00000   0.00000   0.00000
  19        1PY         0.00000   0.00000   0.00000   0.00000   0.00000
  20        1PZ         0.00000   0.00000   0.00000   0.00000   0.00000
  21 6   H  1S          0.00000   0.00000   0.00000   0.00000   0.00000
  22 7   H  1S          0.00000   0.00000   0.00000   0.00000   0.00000
  23 8   H  1S          0.00000   0.00000   0.00000   0.00000   0.00000
  24 9   H  1S          0.00000   0.00000   0.00000   0.00000   0.00000
                          16        17        18        19        20
  16        1PZ         0.94589
  17 5   C  1S          0.00000   1.13257
  18        1PX         0.00000   0.00000   1.07993
  19        1PY         0.00000   0.00000   0.00000   1.00050
  20        1PZ         0.00000   0.00000   0.00000   0.00000   1.03005
  21 6   H  1S          0.00000   0.00000   0.00000   0.00000   0.00000
  22 7   H  1S          0.00000   0.00000   0.00000   0.00000   0.00000
  23 8   H  1S          0.00000   0.00000   0.00000   0.00000   0.00000
  24 9   H  1S          0.00000   0.00000   0.00000   0.00000   0.00000
                          21        22        23        24
  21 6   H  1S          0.81418
  22 7   H  1S          0.00000   0.79364
  23 8   H  1S          0.00000   0.00000   0.79364
  24 9   H  1S          0.00000   0.00000   0.00000   0.81418
     Gross orbital populations:
                           1
   1 1   C  1S          1.13257
   2        1PX         1.07993
   3        1PY         1.00050
   4        1PZ         1.03005
   5 2   C  1S          1.14127
   6        1PX         1.07718
   7        1PY         0.94959
   8        1PZ         0.94589
   9 3   O  1S          1.83453
  10        1PX         1.68578
  11        1PY         1.17037
  12        1PZ         1.37972
  13 4   C  1S          1.14127
  14        1PX         1.07718
  15        1PY         0.94959
  16        1PZ         0.94589
  17 5   C  1S          1.13257
  18        1PX         1.07993
  19        1PY         1.00050
  20        1PZ         1.03005
  21 6   H  1S          0.81418
  22 7   H  1S          0.79364
  23 8   H  1S          0.79364
  24 9   H  1S          0.81418
          Condensed to atoms (all electrons):
               1          2          3          4          5          6
     1  C    4.243047   0.000000   0.000000   0.000000   0.000000   0.000000
     2  C    0.000000   4.113927   0.000000   0.000000   0.000000   0.000000
     3  O    0.000000   0.000000   6.070403   0.000000   0.000000   0.000000
     4  C    0.000000   0.000000   0.000000   4.113927   0.000000   0.000000
     5  C    0.000000   0.000000   0.000000   0.000000   4.243047   0.000000
     6  H    0.000000   0.000000   0.000000   0.000000   0.000000   0.814182
     7  H    0.000000   0.000000   0.000000   0.000000   0.000000   0.000000
     8  H    0.000000   0.000000   0.000000   0.000000   0.000000   0.000000
     9  H    0.000000   0.000000   0.000000   0.000000   0.000000   0.000000
               7          8          9
     1  C    0.000000   0.000000   0.000000
     2  C    0.000000   0.000000   0.000000
     3  O    0.000000   0.000000   0.000000
     4  C    0.000000   0.000000   0.000000
     5  C    0.000000   0.000000   0.000000
     6  H    0.000000   0.000000   0.000000
     7  H    0.793642   0.000000   0.000000
     8  H    0.000000   0.793642   0.000000
     9  H    0.000000   0.000000   0.814182
 Mulliken charges:
               1
     1  C   -0.243047
     2  C   -0.113927
     3  O   -0.070403
     4  C   -0.113927
     5  C   -0.243047
     6  H    0.185818
     7  H    0.206358
     8  H    0.206358
     9  H    0.185818
 Sum of Mulliken charges =   0.00000
 Mulliken charges with hydrogens summed into heavy atoms:
               1
     1  C   -0.057229
     2  C    0.092431
     3  O   -0.070403
     4  C    0.092431
     5  C   -0.057229
 Charge=              0.0000 electrons
 Dipole moment (field-independent basis, Debye):
    X=              0.0000    Y=              0.0000    Z=             -0.2343  Tot=              0.2343
 N-N= 1.031739992356D+02 E-N=-1.709073385343D+02  KE=-1.755093857329D+01
 Symmetry A1   KE=-9.438553760679D+00
 Symmetry A2   KE=-7.243753899829D-01
 Symmetry B1   KE=-1.916405448635D+00
 Symmetry B2   KE=-5.471603973989D+00
 Orbital energies and kinetic energies (alpha):
                                 1                 2
   1         (A1)--O          -1.561739         -1.337770
   2         (A1)--O          -1.199998         -1.050459
   3         (B2)--O          -1.086255         -0.967561
   4         (B2)--O          -0.846707         -0.740065
   5         (A1)--O          -0.795881         -0.730079
   6         (A1)--O          -0.734270         -0.667733
   7         (B1)--O          -0.664533         -0.567053
   8         (B2)--O          -0.581557         -0.546817
   9         (A1)--O          -0.538202         -0.459038
  10         (B2)--O          -0.529971         -0.481360
  11         (A1)--O          -0.527092         -0.474198
  12         (B1)--O          -0.422663         -0.391150
  13         (A2)--O          -0.382371         -0.362188
  14         (B1)--V           0.012835         -0.227985
  15         (A2)--V           0.042305         -0.232469
  16         (A1)--V           0.107618         -0.184734
  17         (B2)--V           0.144838         -0.222570
  18         (A1)--V           0.164169         -0.251680
  19         (B2)--V           0.181769         -0.227946
  20         (A1)--V           0.187143         -0.209452
  21         (B2)--V           0.198658         -0.190274
  22         (A1)--V           0.218155         -0.140484
  23         (B2)--V           0.230389         -0.060138
  24         (B2)--V           0.239430         -0.131773
 Total kinetic energy from orbitals=-1.755093857329D+01
 Leave Link  601 at Tue Oct  6 15:41:39 2015, MaxMem=    33554432 cpu:         0.0
 (Enter /home/Applications/g09/g09/l701.exe)
 Compute integral first derivatives.
 ... and contract with generalized density number  6.
 Leave Link  701 at Tue Oct  6 15:41:39 2015, MaxMem=    33554432 cpu:         0.0
 (Enter /home/Applications/g09/g09/l702.exe)
 L702 exits ... SP integral derivatives will be done elsewhere.
 Leave Link  702 at Tue Oct  6 15:41:39 2015, MaxMem=    33554432 cpu:         0.0
 (Enter /home/Applications/g09/g09/l703.exe)
 Compute integral first derivatives, UseDBF=F ICtDFT=           0.
 Integral derivatives from FoFJK, PRISM(SPDF).
 Calling FoFJK, ICntrl=  10005127 FMM=F ISym2X=1 I1Cent= 0 IOpClX= 0 NMat=1 NMatS=1 NMatT=0.
 FoFJK:  IHMeth= 8 ICntrl=10005127 DoSepK=F KAlg= 0 I1Cent=   0 FoldK=F
 IRaf=         0 NMat=   1 IRICut=       1 DoRegI=T DoRafI=F ISym2E= 1.
 FoFCou: FMM=F IPFlag=           0 FMFlag=      100000 FMFlg1=         800
         NFxFlg=           0 DoJE=F BraDBF=F KetDBF=F FulRan=T
         wScrn=  0.000000 ICntrl=10005127 IOpCl=  0 I1Cent=           0 NGrid=           0
         NMat0=    1 NMatS0=      1 NMatT0=    0 NMatD0=    1 NMtDS0=    0 NMtDT0=    0
 Symmetry not used in FoFCou.
 Leave Link  703 at Tue Oct  6 15:41:39 2015, MaxMem=    33554432 cpu:         0.0
 (Enter /home/Applications/g09/g09/l716.exe)
 Dipole        =-5.20607779D-16 3.19744231D-14-2.03590100D-01
 ***** Axes restored to original set *****
 -------------------------------------------------------------------
 Center     Atomic                   Forces (Hartrees/Bohr)
 Number     Number              X              Y              Z
 -------------------------------------------------------------------
      1        6           0.059700935    0.043833438    0.000000000
      2        6          -0.037326142   -0.017554497    0.000000000
      3        8          -0.045554045    0.000000000    0.000000000
      4        6          -0.037326142    0.017554497    0.000000000
      5        6           0.059700935   -0.043833438    0.000000000
      6        1          -0.000923233   -0.005897869    0.000000000
      7        1           0.001325462   -0.000648184    0.000000000
      8        1           0.001325462    0.000648184    0.000000000
      9        1          -0.000923233    0.005897869    0.000000000
 -------------------------------------------------------------------
 Cartesian Forces:  Max     0.059700935 RMS     0.024739192
 Z-matrix is all fixed cartesians, so copy forces.
 Force constants in Cartesian coordinates: 
                1             2             3             4             5 
      1  0.924213D+00
      2 -0.280496D-01  0.794695D+00
      3  0.000000D+00  0.000000D+00  0.206887D+00
      4 -0.512400D+00 -0.107252D+00  0.000000D+00  0.940723D+00
      5 -0.840374D-01 -0.216108D+00  0.000000D+00  0.222648D-01  0.891463D+00
      6  0.000000D+00  0.000000D+00 -0.105153D+00  0.000000D+00  0.000000D+00
      7 -0.847936D-02  0.292752D-01  0.000000D+00 -0.289302D+00  0.168432D+00
      8 -0.629794D-02  0.217438D-01  0.000000D+00  0.212644D+00 -0.374940D+00
      9  0.000000D+00  0.000000D+00  0.744560D-02  0.000000D+00  0.000000D+00
     10  0.100412D-01  0.000000D+00  0.000000D+00  0.243474D-01  0.180838D-01
     11  0.346676D-01  0.000000D+00  0.000000D+00 -0.180838D-01 -0.134315D-01
     12  0.000000D+00  0.000000D+00 -0.114437D-02  0.000000D+00  0.000000D+00
     13 -0.167385D+00  0.115645D-01  0.000000D+00  0.100412D-01 -0.346676D-01
     14 -0.115645D-01 -0.407138D+00  0.000000D+00  0.000000D+00  0.000000D+00
     15  0.000000D+00  0.000000D+00 -0.812287D-01  0.000000D+00  0.000000D+00
     16  0.176569D-01  0.000000D+00  0.000000D+00  0.000000D+00  0.000000D+00
     17 -0.231031D-01  0.000000D+00  0.000000D+00  0.000000D+00  0.000000D+00
     18  0.000000D+00  0.000000D+00  0.180027D-01  0.000000D+00  0.000000D+00
     19  0.000000D+00  0.000000D+00  0.000000D+00  0.000000D+00  0.000000D+00
     20  0.000000D+00  0.000000D+00  0.000000D+00  0.000000D+00  0.000000D+00
     21  0.000000D+00  0.000000D+00  0.703148D-02  0.000000D+00  0.000000D+00
     22  0.760156D-02 -0.262446D-01  0.000000D+00 -0.168217D+00 -0.108004D+00
     23 -0.394138D-02  0.136077D-01  0.000000D+00 -0.102778D+00 -0.310441D+00
     24  0.000000D+00  0.000000D+00  0.295845D-01  0.000000D+00  0.000000D+00
     25 -0.271249D+00  0.120707D+00  0.000000D+00 -0.519280D-02  0.179283D-01
     26  0.122326D+00 -0.206800D+00  0.000000D+00 -0.679449D-02  0.234582D-01
     27  0.000000D+00  0.000000D+00 -0.814255D-01  0.000000D+00  0.000000D+00
                6             7             8             9            10 
      6  0.197193D+00
      7  0.000000D+00  0.551909D+00
      8  0.000000D+00  0.000000D+00  0.723204D+00
      9 -0.472115D-01  0.000000D+00  0.000000D+00  0.567211D-01
     10  0.000000D+00 -0.289302D+00 -0.212644D+00  0.000000D+00  0.940723D+00
     11  0.000000D+00 -0.168432D+00 -0.374940D+00  0.000000D+00 -0.222648D-01
     12 -0.169673D-02  0.000000D+00  0.000000D+00 -0.472115D-01  0.000000D+00
     13  0.000000D+00 -0.847936D-02  0.629794D-02  0.000000D+00 -0.512400D+00
     14  0.000000D+00 -0.292752D-01  0.217438D-01  0.000000D+00  0.107252D+00
     15 -0.114437D-02  0.000000D+00  0.000000D+00  0.744560D-02  0.000000D+00
     16  0.000000D+00  0.000000D+00  0.000000D+00  0.000000D+00 -0.519280D-02
     17  0.000000D+00  0.000000D+00  0.000000D+00  0.000000D+00  0.679449D-02
     18  0.419500D-02  0.000000D+00  0.000000D+00  0.682264D-02  0.000000D+00
     19  0.000000D+00  0.218269D-01 -0.162117D-01  0.000000D+00 -0.168217D+00
     20  0.000000D+00  0.113172D-01 -0.840572D-02  0.000000D+00  0.102778D+00
     21  0.490261D-02  0.000000D+00  0.000000D+00  0.458270D-02  0.000000D+00
     22  0.000000D+00  0.218269D-01  0.162117D-01  0.000000D+00  0.000000D+00
     23  0.000000D+00 -0.113172D-01 -0.840572D-02  0.000000D+00  0.000000D+00
     24 -0.772883D-01  0.000000D+00  0.000000D+00  0.458270D-02  0.000000D+00
     25  0.000000D+00  0.000000D+00  0.000000D+00  0.000000D+00  0.000000D+00
     26  0.000000D+00  0.000000D+00  0.000000D+00  0.000000D+00  0.000000D+00
     27  0.262030D-01  0.000000D+00  0.000000D+00  0.682264D-02  0.000000D+00
               11            12            13            14            15 
     11  0.891463D+00
     12  0.000000D+00  0.197193D+00
     13  0.840374D-01  0.000000D+00  0.924213D+00
     14 -0.216108D+00  0.000000D+00  0.280496D-01  0.794695D+00
     15  0.000000D+00 -0.105153D+00  0.000000D+00  0.000000D+00  0.206887D+00
     16 -0.179283D-01  0.000000D+00 -0.271249D+00 -0.120707D+00  0.000000D+00
     17  0.234582D-01  0.000000D+00 -0.122326D+00 -0.206800D+00  0.000000D+00
     18  0.000000D+00  0.262030D-01  0.000000D+00  0.000000D+00 -0.814255D-01
     19  0.108004D+00  0.000000D+00  0.760156D-02  0.262446D-01  0.000000D+00
     20 -0.310441D+00  0.000000D+00  0.394138D-02  0.136077D-01  0.000000D+00
     21  0.000000D+00 -0.772883D-01  0.000000D+00  0.000000D+00  0.295845D-01
     22  0.000000D+00  0.000000D+00  0.000000D+00  0.000000D+00  0.000000D+00
     23  0.000000D+00  0.000000D+00  0.000000D+00  0.000000D+00  0.000000D+00
     24  0.000000D+00  0.490261D-02  0.000000D+00  0.000000D+00  0.703148D-02
     25  0.000000D+00  0.000000D+00  0.176569D-01  0.000000D+00  0.000000D+00
     26  0.000000D+00  0.000000D+00  0.231031D-01  0.000000D+00  0.000000D+00
     27  0.000000D+00  0.419500D-02  0.000000D+00  0.000000D+00  0.180027D-01
               16            17            18            19            20 
     16  0.258784D+00
     17  0.138635D+00  0.183342D+00
     18  0.000000D+00  0.000000D+00  0.437604D-01
     19  0.000000D+00  0.000000D+00  0.000000D+00  0.138789D+00
     20  0.000000D+00  0.000000D+00  0.000000D+00 -0.118037D+00  0.305239D+00
     21  0.000000D+00  0.000000D+00 -0.111742D-01  0.000000D+00  0.000000D+00
     22  0.000000D+00  0.000000D+00  0.000000D+00  0.000000D+00  0.000000D+00
     23  0.000000D+00  0.000000D+00  0.000000D+00  0.000000D+00  0.000000D+00
     24  0.000000D+00  0.000000D+00  0.000000D+00  0.000000D+00  0.000000D+00
     25  0.000000D+00  0.000000D+00  0.000000D+00  0.000000D+00  0.000000D+00
     26  0.000000D+00  0.000000D+00  0.000000D+00  0.000000D+00  0.000000D+00
     27  0.000000D+00  0.000000D+00 -0.638405D-02  0.000000D+00  0.000000D+00
               21            22            23            24            25 
     21  0.423613D-01
     22  0.000000D+00  0.138789D+00
     23  0.000000D+00  0.118037D+00  0.305239D+00
     24  0.000000D+00  0.000000D+00  0.000000D+00  0.423613D-01
     25  0.000000D+00  0.000000D+00  0.000000D+00  0.000000D+00  0.258784D+00
     26  0.000000D+00  0.000000D+00  0.000000D+00  0.000000D+00 -0.138635D+00
     27  0.000000D+00  0.000000D+00  0.000000D+00 -0.111742D-01  0.000000D+00
               26            27 
     26  0.183342D+00
     27  0.000000D+00  0.437604D-01
 Leave Link  716 at Tue Oct  6 15:41:39 2015, MaxMem=    33554432 cpu:         0.0
 (Enter /home/Applications/g09/g09/l103.exe)

 GradGradGradGradGradGradGradGradGradGradGradGradGradGradGradGradGradGrad
 Berny optimization.
 Search for a local minimum.
 Step number   1 out of a maximum of    2
 All quantities printed in internal units (Hartrees-Bohrs-Radians)
 Second derivative matrix not updated -- first step.
 ITU=  0
     Eigenvalues ---    0.01909   0.03141   0.07126   0.07691   0.07808
     Eigenvalues ---    0.08747   0.13104   0.14637   0.16226   0.24533
     Eigenvalues ---    0.26538   0.31677   0.39564   0.44355   0.64083
     Eigenvalues ---    0.84260   1.09116   1.36585   1.42549   1.55968
     Eigenvalues ---    1.63590
 Angle between quadratic step and forces=  51.54 degrees.
 ClnCor:  largest displacement from symmetrization is 9.57D-15 for atom     9.
 Linear search not attempted -- first point.
 ClnCor:  largest displacement from symmetrization is 4.44D-16 for atom     5.
 TrRot= -0.014763  0.000000  0.000000  0.000000  0.000000  0.000000
 Variable       Old X    -DE/DX   Delta X   Delta X   Delta X     New X
                                 (Linear)    (Quad)   (Total)
    X1        1.80559   0.05970   0.00000   0.07196   0.05720   1.86278
    Y1       -1.35297   0.04383   0.00000   0.05075   0.05075  -1.30223
    Z1        0.00000   0.00000   0.00000   0.00000   0.00000   0.00000
    X2       -0.65314  -0.03733   0.00000  -0.03551  -0.05027  -0.70341
    Y2       -2.06513  -0.01755   0.00000   0.03083   0.03083  -2.03429
    Z2        0.00000   0.00000   0.00000   0.00000   0.00000   0.00000
    X3       -2.18699  -0.04555   0.00000  -0.14196  -0.15673  -2.34372
    Y3        0.00000   0.00000   0.00000   0.00000   0.00000   0.00000
    Z3        0.00000   0.00000   0.00000   0.00000   0.00000   0.00000
    X4       -0.65314  -0.03733   0.00000  -0.03551  -0.05027  -0.70341
    Y4        2.06513   0.01755   0.00000  -0.03083  -0.03083   2.03429
    Z4        0.00000   0.00000   0.00000   0.00000   0.00000   0.00000
    X5        1.80559   0.05970   0.00000   0.07196   0.05720   1.86278
    Y5        1.35297  -0.04383   0.00000  -0.05075  -0.05075   1.30223
    Z5        0.00000   0.00000   0.00000   0.00000   0.00000   0.00000
    X6        3.42123  -0.00092   0.00000   0.09233   0.07757   3.49880
    Y6        2.58776  -0.00590   0.00000  -0.09689  -0.09689   2.49087
    Z6        0.00000   0.00000   0.00000   0.00000   0.00000   0.00000
    X7       -1.58795   0.00133   0.00000   0.00863  -0.00613  -1.59408
    Y7        3.86805  -0.00065   0.00000  -0.01159  -0.01159   3.85646
    Z7        0.00000   0.00000   0.00000   0.00000   0.00000   0.00000
    X8       -1.58795   0.00133   0.00000   0.00863  -0.00613  -1.59408
    Y8       -3.86805   0.00065   0.00000   0.01159   0.01159  -3.85646
    Z8        0.00000   0.00000   0.00000   0.00000   0.00000   0.00000
    X9        3.42123  -0.00092   0.00000   0.09233   0.07757   3.49880
    Y9       -2.58776   0.00590   0.00000   0.09689   0.09689  -2.49087
    Z9        0.00000   0.00000   0.00000   0.00000   0.00000   0.00000
         Item               Value     Threshold  Converged?
 Maximum Force            0.059701     0.000450     NO 
 RMS     Force            0.024739     0.000300     NO 
 Maximum Displacement     0.156726     0.001800     NO 
 RMS     Displacement     0.052481     0.001200     NO 
 Predicted change in Energy=-1.104325D-02
 GradGradGradGradGradGradGradGradGradGradGradGradGradGradGradGradGradGrad

 Leave Link  103 at Tue Oct  6 15:41:39 2015, MaxMem=    33554432 cpu:         0.0
 (Enter /home/Applications/g09/g09/l9999.exe)
 1\1\GINC-DUSTIN-DESKTOP\Force\RAM1-FC\STO-3G\C4H4O1\DUSTIN\06-Oct-2015
 \0\\#P AM1(Input,print) CIS(Singlets,NStates=15) pop(full) force\\AM1-
 Reparam Input\\0,1\C,0.955475,-0.715963,0.\C,-0.345627,-1.092818,0.\O,
 -1.157305,0.,0.\C,-0.345627,1.092818,0.\C,0.955475,0.715963,0.\H,1.810
 438,1.369382,0.\H,-0.840307,2.046884,0.\H,-0.840307,-2.046884,0.\H,1.8
 10438,-1.369382,0.\\Version=ES64L-G09RevD.01\State=1-A1\HF=-0.9263779\
 RMSD=2.862e-09\RMSF=2.474e-02\Dipole=0.2035901,0.,0.\PG=C02V [C2(O1),S
 GV(C4H4)]\\@


 I WANT TO KNOW HOW GOD CREATED THE WORLD.  I AM NOT INTERESTED IN
 THIS OR THAT PHENOMENON, IN THE SPECTRUM OF THIS OR THAT ELEMENT.
 I WANT TO KNOW HIS THOUGHTS, THE REST ARE DETAILS.
     -- ALBERT EINSTEIN
 Job cpu time:       0 days  0 hours  0 minutes  0.4 seconds.
 File lengths (MBytes):  RWF=      7 Int=      0 D2E=      0 Chk=      2 Scr=      1
 Normal termination of Gaussian 09 at Tue Oct  6 15:41:39 2015.
