 Entering Gaussian System, Link 0=g09
 Input=FuranAM1_75.com
 Output=FuranAM1_75.log
 Initial command:
 /home/Applications/g09/g09/l1.exe "/home/Applications/g09/scratch/Gau-6218.inp" -scrdir="/home/Applications/g09/scratch/"
 Entering Link 1 = /home/Applications/g09/g09/l1.exe PID=      6220.
  
 Copyright (c) 1988,1990,1992,1993,1995,1998,2003,2009,2013,
            Gaussian, Inc.  All Rights Reserved.
  
 This is part of the Gaussian(R) 09 program.  It is based on
 the Gaussian(R) 03 system (copyright 2003, Gaussian, Inc.),
 the Gaussian(R) 98 system (copyright 1998, Gaussian, Inc.),
 the Gaussian(R) 94 system (copyright 1995, Gaussian, Inc.),
 the Gaussian 92(TM) system (copyright 1992, Gaussian, Inc.),
 the Gaussian 90(TM) system (copyright 1990, Gaussian, Inc.),
 the Gaussian 88(TM) system (copyright 1988, Gaussian, Inc.),
 the Gaussian 86(TM) system (copyright 1986, Carnegie Mellon
 University), and the Gaussian 82(TM) system (copyright 1983,
 Carnegie Mellon University). Gaussian is a federally registered
 trademark of Gaussian, Inc.
  
 This software contains proprietary and confidential information,
 including trade secrets, belonging to Gaussian, Inc.
  
 This software is provided under written license and may be
 used, copied, transmitted, or stored only in accord with that
 written license.
  
 The following legend is applicable only to US Government
 contracts under FAR:
  
                    RESTRICTED RIGHTS LEGEND
  
 Use, reproduction and disclosure by the US Government is
 subject to restrictions as set forth in subparagraphs (a)
 and (c) of the Commercial Computer Software - Restricted
 Rights clause in FAR 52.227-19.
  
 Gaussian, Inc.
 340 Quinnipiac St., Bldg. 40, Wallingford CT 06492
  
  
 ---------------------------------------------------------------
 Warning -- This program may not be used in any manner that
 competes with the business of Gaussian, Inc. or will provide
 assistance to any competitor of Gaussian, Inc.  The licensee
 of this program is prohibited from giving any competitor of
 Gaussian, Inc. access to this program.  By using this program,
 the user acknowledges that Gaussian, Inc. is engaged in the
 business of creating and licensing software in the field of
 computational chemistry and represents and warrants to the
 licensee that it is not a competitor of Gaussian, Inc. and that
 it will not use this program in any manner prohibited above.
 ---------------------------------------------------------------
  

 Cite this work as:
 Gaussian 09, Revision D.01,
 M. J. Frisch, G. W. Trucks, H. B. Schlegel, G. E. Scuseria, 
 M. A. Robb, J. R. Cheeseman, G. Scalmani, V. Barone, B. Mennucci, 
 G. A. Petersson, H. Nakatsuji, M. Caricato, X. Li, H. P. Hratchian, 
 A. F. Izmaylov, J. Bloino, G. Zheng, J. L. Sonnenberg, M. Hada, 
 M. Ehara, K. Toyota, R. Fukuda, J. Hasegawa, M. Ishida, T. Nakajima, 
 Y. Honda, O. Kitao, H. Nakai, T. Vreven, J. A. Montgomery, Jr., 
 J. E. Peralta, F. Ogliaro, M. Bearpark, J. J. Heyd, E. Brothers, 
 K. N. Kudin, V. N. Staroverov, T. Keith, R. Kobayashi, J. Normand, 
 K. Raghavachari, A. Rendell, J. C. Burant, S. S. Iyengar, J. Tomasi, 
 M. Cossi, N. Rega, J. M. Millam, M. Klene, J. E. Knox, J. B. Cross, 
 V. Bakken, C. Adamo, J. Jaramillo, R. Gomperts, R. E. Stratmann, 
 O. Yazyev, A. J. Austin, R. Cammi, C. Pomelli, J. W. Ochterski, 
 R. L. Martin, K. Morokuma, V. G. Zakrzewski, G. A. Voth, 
 P. Salvador, J. J. Dannenberg, S. Dapprich, A. D. Daniels, 
 O. Farkas, J. B. Foresman, J. V. Ortiz, J. Cioslowski, 
 and D. J. Fox, Gaussian, Inc., Wallingford CT, 2013.
 
 ******************************************
 Gaussian 09:  ES64L-G09RevD.01 24-Apr-2013
                15-Dec-2015 
 ******************************************
 ------------------------------------------------------------
 #P AM1(Input,print) CIS(Singlets,NStates=15) pop(full) force
 ------------------------------------------------------------
 1/10=7,30=1,38=1/1,3;
 2/12=2,17=6,18=5,40=1/2;
 3/5=2,16=1,25=1,41=700000,71=1,135=100,136=1/1,2,8,3;
 4/35=1/1;
 5/5=2,35=1,38=5/2;
 8/6=1,10=1,108=15/1;
 9/15=2,41=15,42=1,48=1,49=10/14;
 10/5=4/2;
 6/7=3,18=1/1;
 7/12=6,13=5,29=1/1,2,3,16;
 1/10=7,30=1/3;
 99//99;
 Leave Link    1 at Tue Dec 15 16:25:41 2015, MaxMem=           0 cpu:         0.0
 (Enter /home/Applications/g09/g09/l101.exe)
 -----------------
 AM1-Reparam Input
 -----------------
 Symbolic Z-matrix:
 Charge =  0 Multiplicity = 1
 6                     0.97761  -0.70406   0.02952 
 6                    -0.37652  -1.05808   0.00767 
 8                    -1.11062  -0.0112    0.04969 
 6                    -0.36112   1.09177  -0.00502 
 6                     0.93909   0.76475   0.00077 
 1                     1.80102   1.33329  -0.04333 
 1                    -0.81638   2.0525    0.04418 
 1                    -0.80629  -2.03144   0.00773 
 1                     1.84483  -1.32421   0.0353 
 
 NAtoms=      9 NQM=        9 NQMF=       0 NMMI=      0 NMMIF=      0
                NMic=       0 NMicF=      0.
                    Isotopes and Nuclear Properties:
 (Nuclear quadrupole moments (NQMom) in fm**2, nuclear magnetic moments (NMagM)
  in nuclear magnetons)

  Atom         1           2           3           4           5           6           7           8           9
 IAtWgt=          12          12          16          12          12           1           1           1           1
 AtmWgt=  12.0000000  12.0000000  15.9949146  12.0000000  12.0000000   1.0078250   1.0078250   1.0078250   1.0078250
 NucSpn=           0           0           0           0           0           1           1           1           1
 AtZEff=   0.0000000   0.0000000   0.0000000   0.0000000   0.0000000   0.0000000   0.0000000   0.0000000   0.0000000
 NQMom=    0.0000000   0.0000000   0.0000000   0.0000000   0.0000000   0.0000000   0.0000000   0.0000000   0.0000000
 NMagM=    0.0000000   0.0000000   0.0000000   0.0000000   0.0000000   2.7928460   2.7928460   2.7928460   2.7928460
 AtZNuc=   6.0000000   6.0000000   8.0000000   6.0000000   6.0000000   1.0000000   1.0000000   1.0000000   1.0000000
 Leave Link  101 at Tue Dec 15 16:25:41 2015, MaxMem=    33554432 cpu:         0.0
 (Enter /home/Applications/g09/g09/l103.exe)

 GradGradGradGradGradGradGradGradGradGradGradGradGradGradGradGradGradGrad
 Berny optimization.
 Initialization pass.
 Trust Radius=3.00D-01 FncErr=1.00D-07 GrdErr=1.00D-07
 Number of steps in this run=      2 maximum allowed number of steps=      2.
 GradGradGradGradGradGradGradGradGradGradGradGradGradGradGradGradGradGrad

 Leave Link  103 at Tue Dec 15 16:25:41 2015, MaxMem=    33554432 cpu:         0.0
 (Enter /home/Applications/g09/g09/l202.exe)
                          Input orientation:                          
 ---------------------------------------------------------------------
 Center     Atomic      Atomic             Coordinates (Angstroms)
 Number     Number       Type             X           Y           Z
 ---------------------------------------------------------------------
      1          6           0        0.977613   -0.704060    0.029521
      2          6           0       -0.376517   -1.058079    0.007668
      3          8           0       -1.110617   -0.011197    0.049687
      4          6           0       -0.361124    1.091768   -0.005023
      5          6           0        0.939092    0.764749    0.000770
      6          1           0        1.801021    1.333287   -0.043332
      7          1           0       -0.816375    2.052504    0.044180
      8          1           0       -0.806289   -2.031435    0.007730
      9          1           0        1.844830   -1.324207    0.035304
 ---------------------------------------------------------------------
                    Distance matrix (angstroms):
                    1          2          3          4          5
     1  C    0.000000
     2  C    1.399813   0.000000
     3  O    2.200266   1.279309   0.000000
     4  C    2.240180   2.149940   1.334640   0.000000
     5  C    1.469595   2.248016   2.192212   1.340722   0.000000
     6  H    2.198657   3.234641   3.208415   2.175930   1.033490
     7  H    3.288959   3.141741   2.084579   1.064278   2.177582
     8  H    2.223669   1.064014   2.043462   3.154795   3.296217
     9  H    1.066152   2.237403   3.234017   3.271818   2.277123
                    6          7          8          9
     6  H    0.000000
     7  H    2.715823   0.000000
     8  H    4.256997   4.084114   0.000000
     9  H    2.659018   4.299333   2.743969   0.000000
 Stoichiometry    C4H4O
 Framework group  C1[X(C4H4O)]
 Deg. of freedom    21
 Full point group                 C1      NOp   1
 Largest Abelian subgroup         C1      NOp   1
 Largest concise Abelian subgroup C1      NOp   1
                         Standard orientation:                         
 ---------------------------------------------------------------------
 Center     Atomic      Atomic             Coordinates (Angstroms)
 Number     Number       Type             X           Y           Z
 ---------------------------------------------------------------------
      1          6           0       -0.589631    1.054575   -0.016792
      2          6           0       -1.111765   -0.243624    0.022295
      3          8           0       -0.166484   -1.104616   -0.019738
      4          6           0        1.022811   -0.500155    0.018573
      5          6           0        0.862725    0.830863    0.001271
      6          1           0        1.536019    1.614345    0.031805
      7          1           0        1.917824   -1.073725   -0.032990
      8          1           0       -2.131600   -0.546810    0.034210
      9          1           0       -1.095214    1.993169   -0.027213
 ---------------------------------------------------------------------
 Rotational constants (GHZ):      9.6652811      9.4531711      4.7811691
 Leave Link  202 at Tue Dec 15 16:25:41 2015, MaxMem=    33554432 cpu:         0.0
 (Enter /home/Applications/g09/g09/l301.exe)

 Semi-emprical parameters in input format:
 Method=8 CoreType=1 PeptideFC=0.0114510000 RIJScale=0.5291770000
 ****
 H       
 PQN=1 NValence=1 F0ss=0.4721550000 ZetaOverlap=1.1880780000 U=-0.4188110000
 Beta=-0.2268830000 CoreKO=1.0589200000 KON=0,0,0,1.0589200000 KON=1,0,1,1.0589200000
 KON=0,1,1,1.0589200000 KON=2,1,1,1.0589200000 EISol=-0.4188110042 EHeat=0.0830298228
 Alpha=1.5252600000
 GCore=0.0085280000,1.4001430000,2.2676710000
 GCore=0.0003530000,1.4001430000,3.4015070000
 GCore=-0.0012730000,0.5600570000,3.9684250000
 ****
 C       
 PQN=2,2 NValence=4 F0ss=0.4494440000 F0sp=0.4215150000 F0pp=0.3768030000 F2pp=0.1898720000
 G1sp=0.2679030000
 ZetaOverlap=1.8086650000,1.6851160000
 U=-1.9120180000,-1.4557970000
 Beta=-0.5775440000,-0.2836780000 DDN=0,1,0.8236740000 DDN=1,1,0.7268010000
 CoreKO=1.1124280000 KON=0,0,0,1.1124280000 KON=1,0,1,0.8219700000 KON=0,1,1,1.1124280000
 KON=2,1,1,0.7783930000 EISol=-4.4398989268 EHeat=0.2723305520 Alpha=1.4014060000
 DipHyp=1.6472532266
 GCore=0.0007890000,1.4001430000,3.0235620000
 GCore=0.0031890000,1.4001430000,3.4959930000
 GCore=-0.0013930000,1.4001430000,3.8739390000
 GCore=-0.0000880000,1.4001430000,5.0077740000
 ****
 O       
 PQN=2,2 NValence=6 F0ss=0.5666750000 F0sp=0.5321300000 F0pp=0.4958710000 F2pp=0.2358080000
 G1sp=0.4343770000
 ZetaOverlap=3.1080320000,2.5240390000
 U=-3.5951870000,-2.8760900000
 Beta=-1.0757550000,-1.0757550000 DDN=0,1,0.4988900000 DDN=1,1,0.4852320000
 CoreKO=0.8822960000 KON=0,0,0,0.8822960000 KON=1,0,1,0.5019540000 KON=0,1,1,0.8822960000
 KON=2,1,1,0.5515580000 EISol=-11.6164441184 EHeat=0.0949133088 Alpha=2.3576810000
 DipHyp=0.9977225968
 GCore=0.0195120000,1.4001430000,1.6023330000
 GCore=0.0056550000,1.9602000000,2.7307880000
 ****
 
 Standard basis: VSTO-6G (5D, 7F)
 Ernie: Thresh=  0.10000D-02 Tol=  0.10000D-05 Strict=F.
  NNHCO=     0 NNPyr=     0 NCTC=     0               EPep=         0.000000000
    EC=        69.308469690  ECS=         1.915690942   EG=         0.389243438
   EHC=         0.000000000  EAt=       -31.051283842  AtH=         1.516354808
 EPDDG=         0.000000000  ECC=        71.613404070 EAtT=        32.567638650
 There are    24 symmetry adapted cartesian basis functions of A   symmetry.
 There are    24 symmetry adapted basis functions of A   symmetry.
    24 basis functions,   144 primitive gaussians,    24 cartesian basis functions
    13 alpha electrons       13 beta electrons
       nuclear repulsion energy       104.1810427200 Hartrees.
 IExCor=    0 DFT=F Ex=HF Corr=None ExCW=0 ScaHFX=  1.000000
 ScaDFX=  1.000000  1.000000  1.000000  1.000000 ScalE2=  1.000000  1.000000
 IRadAn=      0 IRanWt=     -1 IRanGd=            0 ICorTp=0 IEmpDi=  4
 Integral buffers will be    131072 words long.
 Regular integral format.
 Two-electron integral symmetry is turned off.
 Leave Link  301 at Tue Dec 15 16:25:41 2015, MaxMem=    33554432 cpu:         0.0
 (Enter /home/Applications/g09/g09/l302.exe)
 Do NDO integrals.
 NPDir=0 NMtPBC=     1 NCelOv=     1 NCel=       1 NClECP=     1 NCelD=      1
         NCelK=      1 NCelE2=     1 NClLst=     1 CellRange=     0.0.
 One-electron integrals computed using PRISM.
 NBasis=    24 RedAO= F EigKep=  0.00D+00  NBF=    24
 NBsUse=    24 1.00D-04 EigRej=  0.00D+00 NBFU=    24
 Leave Link  302 at Tue Dec 15 16:25:41 2015, MaxMem=    33554432 cpu:         0.0
 (Enter /home/Applications/g09/g09/l308.exe)
 Leave Link  308 at Tue Dec 15 16:25:41 2015, MaxMem=    33554432 cpu:         0.0
 (Enter /home/Applications/g09/g09/l303.exe)
 DipDrv:  MaxL=1.
 Leave Link  303 at Tue Dec 15 16:25:41 2015, MaxMem=    33554432 cpu:         0.0
 (Enter /home/Applications/g09/g09/l401.exe)
 Simple Huckel Guess.
 JPrj=0 DoOrth=F DoCkMO=F.
 Leave Link  401 at Tue Dec 15 16:25:41 2015, MaxMem=    33554432 cpu:         0.0
 (Enter /home/Applications/g09/g09/l502.exe)
 Closed shell SCF:
 Using DIIS extrapolation, IDIIS=  1040.
 Overlap will be assumed to be unity.
 Two-electron integral symmetry not used.
 Keep J ints in memory in canonical form, NReq=888082.
 IVT=       79475 IEndB=       79475 NGot=    33554432 MDV=    33473473
 LenX=    33473473 LenY=    33472456
 Requested convergence on RMS density matrix=1.00D-08 within 128 cycles.
 Requested convergence on MAX density matrix=1.00D-06.
 Requested convergence on             energy=1.00D-06.
 No special actions if energy rises.
 FoFCou: FMM=F IPFlag=           0 FMFlag=           0 FMFlg1=           0
         NFxFlg=           0 DoJE=F BraDBF=F KetDBF=F FulRan=T
         wScrn=  0.000000 ICntrl=     600 IOpCl=  2 I1Cent=           0 NGrid=           0
         NMat0=    1 NMatS0=     54 NMatT0=    0 NMatD0=    1 NMtDS0=    0 NMtDT0=    0
 Symmetry not used in FoFCou.

 Cycle   1  Pass 1  IDiag  1:
 E= 0.349225631500687    
 DIIS: error= 6.06D-02 at cycle   1 NSaved=   1.
 NSaved= 1 IEnMin= 1 EnMin= 0.349225631500687     IErMin= 1 ErrMin= 6.06D-02
 ErrMax= 6.06D-02  0.00D+00 EMaxC= 1.00D-01 BMatC= 1.13D-01 BMatP= 1.13D-01
 IDIUse=3 WtCom= 3.94D-01 WtEn= 6.06D-01
 Coeff-Com:  0.100D+01
 Coeff-En:   0.100D+01
 Coeff:      0.100D+01
 GapD=    2.000 DampG=2.000 DampE=0.500 DampFc=1.0000 IDamp=-1.
 RMSDP=1.94D-02 MaxDP=1.66D-01              OVMax= 0.00D+00

 Cycle   2  Pass 1  IDiag  1:
 E= 0.695982409889240E-01 Delta-E=       -0.279627390512 Rises=F Damp=F
 DIIS: error= 2.02D-02 at cycle   2 NSaved=   2.
 NSaved= 2 IEnMin= 2 EnMin= 0.695982409889240E-01 IErMin= 2 ErrMin= 2.02D-02
 ErrMax= 2.02D-02  0.00D+00 EMaxC= 1.00D-01 BMatC= 9.85D-03 BMatP= 1.13D-01
 IDIUse=3 WtCom= 7.98D-01 WtEn= 2.02D-01
 Coeff-Com: -0.352D+00 0.135D+01
 Coeff-En:   0.000D+00 0.100D+01
 Coeff:     -0.281D+00 0.128D+01
 RMSDP=8.28D-03 MaxDP=7.45D-02 DE=-2.80D-01 OVMax= 0.00D+00

 Cycle   3  Pass 1  IDiag  1:
 E= 0.377490507828782E-01 Delta-E=       -0.031849190206 Rises=F Damp=F
 DIIS: error= 4.13D-03 at cycle   3 NSaved=   3.
 NSaved= 3 IEnMin= 3 EnMin= 0.377490507828782E-01 IErMin= 3 ErrMin= 4.13D-03
 ErrMax= 4.13D-03  0.00D+00 EMaxC= 1.00D-01 BMatC= 4.51D-04 BMatP= 9.85D-03
 IDIUse=3 WtCom= 9.59D-01 WtEn= 4.13D-02
 Coeff-Com:  0.114D+00-0.548D+00 0.143D+01
 Coeff-En:   0.000D+00 0.000D+00 0.100D+01
 Coeff:      0.109D+00-0.525D+00 0.142D+01
 RMSDP=2.74D-03 MaxDP=3.22D-02 DE=-3.18D-02 OVMax= 0.00D+00

 Cycle   4  Pass 1  IDiag  3:
 E= 0.352805841531705E-01 Delta-E=       -0.002468466630 Rises=F Damp=F
 DIIS: error= 1.33D-03 at cycle   4 NSaved=   4.
 NSaved= 4 IEnMin= 4 EnMin= 0.352805841531705E-01 IErMin= 4 ErrMin= 1.33D-03
 ErrMax= 1.33D-03  0.00D+00 EMaxC= 1.00D-01 BMatC= 3.77D-05 BMatP= 4.51D-04
 IDIUse=3 WtCom= 9.87D-01 WtEn= 1.33D-02
 Coeff-Com:  0.135D-01-0.337D-01-0.306D+00 0.133D+01
 Coeff-En:   0.000D+00 0.000D+00 0.000D+00 0.100D+01
 Coeff:      0.133D-01-0.333D-01-0.302D+00 0.132D+01
 Gap=     0.384 Goal=   None    Shift=    0.000
 RMSDP=1.00D-03 MaxDP=1.26D-02 DE=-2.47D-03 OVMax= 9.04D-03

 Cycle   5  Pass 1  IDiag  3:
 E= 0.350458709028203E-01 Delta-E=       -0.000234713250 Rises=F Damp=F
 DIIS: error= 1.63D-04 at cycle   5 NSaved=   5.
 NSaved= 5 IEnMin= 5 EnMin= 0.350458709028203E-01 IErMin= 5 ErrMin= 1.63D-04
 ErrMax= 1.63D-04  0.00D+00 EMaxC= 1.00D-01 BMatC= 1.49D-06 BMatP= 3.77D-05
 IDIUse=3 WtCom= 9.98D-01 WtEn= 1.63D-03
 Coeff-Com: -0.714D-02 0.249D-01 0.609D-01-0.488D+00 0.141D+01
 Coeff-En:   0.000D+00 0.000D+00 0.000D+00 0.000D+00 0.100D+01
 Coeff:     -0.713D-02 0.248D-01 0.608D-01-0.487D+00 0.141D+01
 Gap=     0.384 Goal=   None    Shift=    0.000
 RMSDP=2.03D-04 MaxDP=1.90D-03 DE=-2.35D-04 OVMax= 1.54D-03

 Cycle   6  Pass 1  IDiag  3:
 E= 0.350363653733723E-01 Delta-E=       -0.000009505529 Rises=F Damp=F
 DIIS: error= 6.27D-05 at cycle   6 NSaved=   6.
 NSaved= 6 IEnMin= 6 EnMin= 0.350363653733723E-01 IErMin= 6 ErrMin= 6.27D-05
 ErrMax= 6.27D-05  0.00D+00 EMaxC= 1.00D-01 BMatC= 1.05D-07 BMatP= 1.49D-06
 IDIUse=1 WtCom= 1.00D+00 WtEn= 0.00D+00
 Coeff-Com:  0.259D-02-0.920D-02-0.121D-01 0.144D+00-0.587D+00 0.146D+01
 Coeff:      0.259D-02-0.920D-02-0.121D-01 0.144D+00-0.587D+00 0.146D+01
 Gap=     0.384 Goal=   None    Shift=    0.000
 RMSDP=6.18D-05 MaxDP=4.70D-04 DE=-9.51D-06 OVMax= 7.25D-04

 Cycle   7  Pass 1  IDiag  3:
 E= 0.350355168303906E-01 Delta-E=       -0.000000848543 Rises=F Damp=F
 DIIS: error= 2.77D-05 at cycle   7 NSaved=   7.
 NSaved= 7 IEnMin= 7 EnMin= 0.350355168303906E-01 IErMin= 7 ErrMin= 2.77D-05
 ErrMax= 2.77D-05  0.00D+00 EMaxC= 1.00D-01 BMatC= 1.20D-08 BMatP= 1.05D-07
 IDIUse=1 WtCom= 1.00D+00 WtEn= 0.00D+00
 Coeff-Com: -0.481D-03 0.129D-02 0.354D-02-0.311D-01 0.150D+00-0.691D+00
 Coeff-Com:  0.157D+01
 Coeff:     -0.481D-03 0.129D-02 0.354D-02-0.311D-01 0.150D+00-0.691D+00
 Coeff:      0.157D+01
 Gap=     0.384 Goal=   None    Shift=    0.000
 RMSDP=2.76D-05 MaxDP=2.45D-04 DE=-8.49D-07 OVMax= 3.17D-04

 Cycle   8  Pass 1  IDiag  3:
 E= 0.350353975580191E-01 Delta-E=       -0.000000119272 Rises=F Damp=F
 DIIS: error= 7.15D-06 at cycle   8 NSaved=   8.
 NSaved= 8 IEnMin= 8 EnMin= 0.350353975580191E-01 IErMin= 8 ErrMin= 7.15D-06
 ErrMax= 7.15D-06  0.00D+00 EMaxC= 1.00D-01 BMatC= 7.80D-10 BMatP= 1.20D-08
 IDIUse=1 WtCom= 1.00D+00 WtEn= 0.00D+00
 Coeff-Com:  0.489D-04 0.142D-03-0.180D-02 0.819D-02-0.420D-01 0.265D+00
 Coeff-Com: -0.840D+00 0.161D+01
 Coeff:      0.489D-04 0.142D-03-0.180D-02 0.819D-02-0.420D-01 0.265D+00
 Coeff:     -0.840D+00 0.161D+01
 Gap=     0.384 Goal=   None    Shift=    0.000
 RMSDP=7.75D-06 MaxDP=7.24D-05 DE=-1.19D-07 OVMax= 8.63D-05

 Cycle   9  Pass 1  IDiag  3:
 E= 0.350353898568017E-01 Delta-E=       -0.000000007701 Rises=F Damp=F
 DIIS: error= 1.01D-06 at cycle   9 NSaved=   9.
 NSaved= 9 IEnMin= 9 EnMin= 0.350353898568017E-01 IErMin= 9 ErrMin= 1.01D-06
 ErrMax= 1.01D-06  0.00D+00 EMaxC= 1.00D-01 BMatC= 2.89D-11 BMatP= 7.80D-10
 IDIUse=1 WtCom= 1.00D+00 WtEn= 0.00D+00
 Coeff-Com:  0.187D-04-0.191D-03 0.506D-03-0.110D-02 0.759D-02-0.751D-01
 Coeff-Com:  0.281D+00-0.677D+00 0.146D+01
 Coeff:      0.187D-04-0.191D-03 0.506D-03-0.110D-02 0.759D-02-0.751D-01
 Coeff:      0.281D+00-0.677D+00 0.146D+01
 Gap=     0.384 Goal=   None    Shift=    0.000
 RMSDP=1.14D-06 MaxDP=9.81D-06 DE=-7.70D-09 OVMax= 1.49D-05

 Cycle  10  Pass 1  IDiag  3:
 E= 0.350353896463105E-01 Delta-E=       -0.000000000210 Rises=F Damp=F
 DIIS: error= 1.64D-07 at cycle  10 NSaved=  10.
 NSaved=10 IEnMin=10 EnMin= 0.350353896463105E-01 IErMin=10 ErrMin= 1.64D-07
 ErrMax= 1.64D-07  0.00D+00 EMaxC= 1.00D-01 BMatC= 1.45D-12 BMatP= 2.89D-11
 IDIUse=1 WtCom= 1.00D+00 WtEn= 0.00D+00
 Coeff-Com: -0.122D-04 0.994D-04-0.236D-03 0.414D-03-0.256D-02 0.288D-01
 Coeff-Com: -0.111D+00 0.274D+00-0.724D+00 0.153D+01
 Coeff:     -0.122D-04 0.994D-04-0.236D-03 0.414D-03-0.256D-02 0.288D-01
 Coeff:     -0.111D+00 0.274D+00-0.724D+00 0.153D+01
 Gap=     0.384 Goal=   None    Shift=    0.000
 RMSDP=2.27D-07 MaxDP=1.49D-06 DE=-2.10D-10 OVMax= 2.70D-06

 Cycle  11  Pass 1  IDiag  3:
 E= 0.350353896370592E-01 Delta-E=       -0.000000000009 Rises=F Damp=F
 DIIS: error= 3.36D-08 at cycle  11 NSaved=  11.
 NSaved=11 IEnMin=11 EnMin= 0.350353896370592E-01 IErMin=11 ErrMin= 3.36D-08
 ErrMax= 3.36D-08  0.00D+00 EMaxC= 1.00D-01 BMatC= 5.43D-14 BMatP= 1.45D-12
 IDIUse=1 WtCom= 1.00D+00 WtEn= 0.00D+00
 Coeff-Com:  0.364D-05-0.303D-04 0.747D-04-0.145D-03 0.756D-03-0.844D-02
 Coeff-Com:  0.322D-01-0.786D-01 0.215D+00-0.571D+00 0.141D+01
 Coeff:      0.364D-05-0.303D-04 0.747D-04-0.145D-03 0.756D-03-0.844D-02
 Coeff:      0.322D-01-0.786D-01 0.215D+00-0.571D+00 0.141D+01
 Gap=     0.384 Goal=   None    Shift=    0.000
 RMSDP=3.81D-08 MaxDP=2.21D-07 DE=-9.25D-12 OVMax= 3.11D-07

 Cycle  12  Pass 1  IDiag  3:
 E= 0.350353896369313E-01 Delta-E=        0.000000000000 Rises=F Damp=F
 DIIS: error= 7.62D-09 at cycle  12 NSaved=  12.
 NSaved=12 IEnMin=12 EnMin= 0.350353896369313E-01 IErMin=12 ErrMin= 7.62D-09
 ErrMax= 7.62D-09  0.00D+00 EMaxC= 1.00D-01 BMatC= 3.03D-15 BMatP= 5.43D-14
 IDIUse=1 WtCom= 1.00D+00 WtEn= 0.00D+00
 Coeff-Com: -0.696D-06 0.606D-05-0.161D-04 0.367D-04-0.149D-03 0.160D-02
 Coeff-Com: -0.594D-02 0.139D-01-0.389D-01 0.118D+00-0.468D+00 0.138D+01
 Coeff:     -0.696D-06 0.606D-05-0.161D-04 0.367D-04-0.149D-03 0.160D-02
 Coeff:     -0.594D-02 0.139D-01-0.389D-01 0.118D+00-0.468D+00 0.138D+01
 Gap=     0.384 Goal=   None    Shift=    0.000
 RMSDP=9.42D-09 MaxDP=5.07D-08 DE=-1.28D-13 OVMax= 5.68D-08

 Cycle  13  Pass 2  IDiag  1:
 SCF Done:  E(RAM1) =  0.350353896369E-01 A.U. after   13 cycles
            NFock= 12  Conv=0.94D-08     -V/T= 1.0021
 KE=-1.666749101418D+01 PE=-1.720990483339D+02 EE= 8.462053201768D+01
 Leave Link  502 at Tue Dec 15 16:25:41 2015, MaxMem=    33554432 cpu:         0.0
 (Enter /home/Applications/g09/g09/l801.exe)
 Range of M.O.s used for correlation:     1    24
 NBasis=    24 NAE=    13 NBE=    13 NFC=     0 NFV=     0
 NROrb=     24 NOA=    13 NOB=    13 NVA=    11 NVB=    11
 Leave Link  801 at Tue Dec 15 16:25:41 2015, MaxMem=    33554432 cpu:         0.0
 (Enter /home/Applications/g09/g09/l914.exe)
 RHF ground state
 MDV=    33554432 DFT=F DoStab=F Mixed=F DoRPA=F DoScal=F NonHer=F
 Making orbital integer symmetry assigments:
 Orbital symmetries:
       Occupied  (A) (A) (A) (A) (A) (A) (A) (A) (A) (A) (A) (A)
                 (A)
       Virtual   (A) (A) (A) (A) (A) (A) (A) (A) (A) (A) (A)
    60 initial guesses have been made.
 Convergence on wavefunction:    0.000001000000000
 Davidson Disk Diagonalization:  ConvIn= 1.00D-06 SkipCon=T Conv= 1.00D-06.
 Max sub-space:   240 roots to seek:    60 dimension of matrix:          286
 Iteration     1 Dimension    60 NMult     0 NNew     60
 CISAX will form    60 AO SS matrices at one time.
 NMat=    60 NSing=    60 JSym2X= 0.
 FoFJK:  IHMeth= 8 ICntrl=       0 DoSepK=F KAlg= 0 I1Cent=   0 FoldK=F
 IRaf=         1 NMat= 120 IRICut=       1 DoRegI=T DoRafI=F ISym2E= 0.
 FoFCou: FMM=F IPFlag=           0 FMFlag=      100000 FMFlg1=           0
         NFxFlg=           0 DoJE=F BraDBF=F KetDBF=F FulRan=T
         wScrn=  0.000000 ICntrl=       0 IOpCl=  0 I1Cent=           0 NGrid=           0
         NMat0=  120 NMatS0=     60 NMatT0=    0 NMatD0=  120 NMtDS0=    0 NMtDT0=    0
 Symmetry not used in FoFCou.
 New state      2 was old state      4
 New state      3 was old state      2
 New state      4 was old state      8
 New state      5 was old state      6
 New state      6 was old state      5
 New state      7 was old state      9
 New state      8 was old state      3
 New state      9 was old state      7
 New state     10 was old state     12
 New state     11 was old state     10
 New state     12 was old state     17
 New state     13 was old state     11
 New state     14 was old state     15
 New state     15 was old state     13
 Excitation Energies [eV] at current iteration:
 Root      1 :     4.612055655143823
 Root      2 :     4.795680965952471
 Root      3 :     4.992744049432960
 Root      4 :     5.828725350333757
 Root      5 :     5.932244999660405
 Root      6 :     6.229529245022970
 Root      7 :     6.358653957580896
 Root      8 :     6.372330015334450
 Root      9 :     6.482370243563395
 Root     10 :     6.947396889380926
 Root     11 :     7.028234445138551
 Root     12 :     7.342436399650444
 Root     13 :     7.496374788280340
 Root     14 :     7.579795989922841
 Root     15 :     7.814836776075381
 Root     16 :     7.894577652516922
 Root     17 :     7.923822508864960
 Root     18 :     8.059401350442675
 Root     19 :     8.193082946356093
 Root     20 :     8.269597088362991
 Root     21 :     8.602073694043572
 Root     22 :     8.785449577804215
 Root     23 :     8.904372576967496
 Root     24 :     9.132829505899265
 Root     25 :     9.287753741707059
 Root     26 :     9.358246812788927
 Root     27 :     9.423761950408808
 Root     28 :     9.549157601160417
 Root     29 :     9.715379651665613
 Root     30 :     9.732759519391031
 Root     31 :     9.905433713586991
 Root     32 :     9.916454162513679
 Root     33 :    10.116078509522940
 Root     34 :    10.310862895028470
 Root     35 :    10.362745338976000
 Root     36 :    10.507883425259880
 Root     37 :    10.606321006206160
 Root     38 :    10.690707514632840
 Root     39 :    10.964302416981090
 Root     40 :    11.001897488596950
 Root     41 :    11.274975046686040
 Root     42 :    11.409279708717890
 Root     43 :    11.455723944701150
 Root     44 :    11.496535253523040
 Root     45 :    11.553387369444470
 Root     46 :    11.607723790442810
 Root     47 :    11.779308931697120
 Root     48 :    11.848148730037500
 Root     49 :    12.013260600765990
 Root     50 :    12.165413848314800
 Root     51 :    12.397487383314430
 Root     52 :    12.599809066437950
 Root     53 :    12.662050521604640
 Root     54 :    12.884713663862300
 Root     55 :    13.029798116438870
 Root     56 :    13.333456377366240
 Root     57 :    13.433077389631140
 Root     58 :    13.625705978547480
 Root     59 :    13.914766004439620
 Root     60 :    14.088919577073030
 Iteration     2 Dimension   120 NMult    60 NNew     60
 CISAX will form    60 AO SS matrices at one time.
 NMat=    60 NSing=    60 JSym2X= 0.
 Root      1 not converged, maximum delta is    0.027214923441530
 Root      2 not converged, maximum delta is    0.033660747342746
 Root      3 not converged, maximum delta is    0.012655518463183
 Root      4 not converged, maximum delta is    0.041862492356990
 Root      5 not converged, maximum delta is    0.051043033187061
 Root      6 not converged, maximum delta is    0.104346054822392
 Root      7 not converged, maximum delta is    0.170646508060289
 Root      8 not converged, maximum delta is    0.144935203377649
 Root      9 not converged, maximum delta is    0.052204668907565
 Root     10 not converged, maximum delta is    0.030626633256623
 Root     11 not converged, maximum delta is    0.030088258737022
 Root     12 not converged, maximum delta is    0.051647696975872
 Root     13 not converged, maximum delta is    0.062328843507846
 Root     14 not converged, maximum delta is    0.056456317161330
 Root     15 not converged, maximum delta is    0.034821434604506
 Excitation Energies [eV] at current iteration:
 Root      1 :     4.550223822338952   Change is   -0.061831832804872
 Root      2 :     4.761840656062759   Change is   -0.033840309889712
 Root      3 :     4.981706558303493   Change is   -0.011037491129467
 Root      4 :     5.743346388822959   Change is   -0.085378961510798
 Root      5 :     5.871605026080922   Change is   -0.060639973579483
 Root      6 :     6.145944661273449   Change is   -0.083584583749521
 Root      7 :     6.244780521235222   Change is   -0.113873436345675
 Root      8 :     6.258081593598836   Change is   -0.114248421735614
 Root      9 :     6.444982719229555   Change is   -0.037387524333840
 Root     10 :     6.882032881080941   Change is   -0.065364008299985
 Root     11 :     6.958224934418336   Change is   -0.070009510720216
 Root     12 :     7.265106074636139   Change is   -0.077330325014305
 Root     13 :     7.402311390591268   Change is   -0.094063397689073
 Root     14 :     7.521592460268011   Change is   -0.058203529654830
 Root     15 :     7.745347791986450   Change is   -0.069488984088930
 Root     16 :     7.809787812794132   Change is   -0.084789839722791
 Root     17 :     7.866515860210209   Change is   -0.057306648654750
 Root     18 :     7.959769160134366   Change is   -0.099632190308310
 Root     19 :     7.989577142801106   Change is   -0.280019945561886
 Root     20 :     8.096035565807393   Change is   -0.097047380548699
 Root     21 :     8.486097213950844   Change is   -0.115976480092727
 Root     22 :     8.674520776474651   Change is   -0.110928801329564
 Root     23 :     8.853380527344477   Change is   -0.050992049623018
 Root     24 :     8.911937573708990   Change is   -0.375816167998069
 Root     25 :     9.039496611233234   Change is   -0.093332894666032
 Root     26 :     9.153480104414307   Change is   -0.270281845994502
 Root     27 :     9.325269421060744   Change is   -0.407490098330287
 Root     28 :     9.339903442501445   Change is   -0.018343370287483
 Root     29 :     9.485100584082069   Change is   -0.064057017078347
 Root     30 :     9.558996589008592   Change is   -0.557081920514354
 Root     31 :     9.599432054938353   Change is   -0.306001658648639
 Root     32 :     9.709617506780644   Change is   -0.206836655733034
 Root     33 :     9.786360543998912   Change is   -0.576384794977091
 Root     34 :     9.879065394848521   Change is   -0.431797500179953
 Root     35 :     9.941629703112607   Change is    0.226250051446994
 Root     36 :    10.189285842152420   Change is   -0.417035164053748
 Root     37 :    10.240012528586020   Change is   -0.450694986046816
 Root     38 :    10.307546694359430   Change is   -0.656755722621662
 Root     39 :    10.323612830793280   Change is   -0.184270594466601
 Root     40 :    10.656147993323240   Change is   -0.345749495273711
 Root     41 :    10.782868421192160   Change is   -0.492106625493884
 Root     42 :    11.030829924540740   Change is   -0.424894020160413
 Root     43 :    11.151457609546560   Change is   -0.345077643976475
 Root     44 :    11.263579861825570   Change is   -0.344143928617244
 Root     45 :    11.317770083719420   Change is   -0.091509624998468
 Root     46 :    11.338992126587620   Change is   -0.214395242856849
 Root     47 :    11.491120945425460   Change is   -0.288187986271661
 Root     48 :    11.534850842545990   Change is   -0.313297887491502
 Root     49 :    11.699623559764680   Change is   -0.465790288550125
 Root     50 :    11.790674369084580   Change is   -0.222586231681402
 Root     51 :    12.084163815888950   Change is   -0.313323567425480
 Root     52 :    12.400609781622150   Change is   -0.261440739982489
 Root     53 :    12.453027804299660   Change is   -0.146781262138285
 Root     54 :    12.511746989126890   Change is   -0.372966674735409
 Root     55 :    12.869397724524870   Change is   -0.160400391914005
 Root     56 :    13.009587849218010   Change is   -0.423489540413134
 Root     57 :    13.041613370811920   Change is   -0.291843006554327
 Root     58 :    13.429178195022110   Change is   -0.485587809417511
 Root     59 :    13.433512595591670
 Root     60 :    13.479546891713350   Change is   -0.146159086834126
 Iteration     3 Dimension   135 NMult   120 NNew     15
 CISAX will form    15 AO SS matrices at one time.
 NMat=    15 NSing=    15 JSym2X= 0.
 Root      1 not converged, maximum delta is    0.000418642999529
 Root      2 not converged, maximum delta is    0.000110392327428
 Root      3 not converged, maximum delta is    0.000251486891618
 Root      4 not converged, maximum delta is    0.000128880158672
 Root      5 not converged, maximum delta is    0.000124598598452
 Root      6 not converged, maximum delta is    0.001150514144450
 Root      7 not converged, maximum delta is    0.005838188621397
 Root      8 not converged, maximum delta is    0.004508055150091
 Root      9 not converged, maximum delta is    0.000208804265686
 Root     10 not converged, maximum delta is    0.000126342487879
 Root     11 not converged, maximum delta is    0.000316541187068
 Root     12 not converged, maximum delta is    0.000165996499102
 Root     13 not converged, maximum delta is    0.000245515637948
 Root     14 not converged, maximum delta is    0.000255391390805
 Root     15 not converged, maximum delta is    0.000359953192464
 Excitation Energies [eV] at current iteration:
 Root      1 :     4.550145778874090   Change is   -0.000078043464861
 Root      2 :     4.761836213935617   Change is   -0.000004442127143
 Root      3 :     4.981684473167271   Change is   -0.000022085136222
 Root      4 :     5.743342515257959   Change is   -0.000003873565000
 Root      5 :     5.871600743082915   Change is   -0.000004282998007
 Root      6 :     6.145605740801879   Change is   -0.000338920471570
 Root      7 :     6.244569270207930   Change is   -0.000211251027291
 Root      8 :     6.257876934571847   Change is   -0.000204659026988
 Root      9 :     6.444973727864665   Change is   -0.000008991364889
 Root     10 :     6.882029784556751   Change is   -0.000003096524190
 Root     11 :     6.958196689745122   Change is   -0.000028244673214
 Root     12 :     7.265101515732708   Change is   -0.000004558903432
 Root     13 :     7.402293942891809   Change is   -0.000017447699458
 Root     14 :     7.521585282249096   Change is   -0.000007178018916
 Root     15 :     7.745326616043828   Change is   -0.000021175942623
 Iteration     4 Dimension   143 NMult   135 NNew      8
 CISAX will form     8 AO SS matrices at one time.
 NMat=     8 NSing=     8 JSym2X= 0.
 Root      1 not converged, maximum delta is    0.000020847154368
 Root      2 not converged, maximum delta is    0.000005459657230
 Root      3 not converged, maximum delta is    0.000010920983594
 Root      4 not converged, maximum delta is    0.000005195321888
 Root      5 not converged, maximum delta is    0.000006099501774
 Root      6 not converged, maximum delta is    0.000062777380466
 Root      7 not converged, maximum delta is    0.000029848051171
 Root      8 not converged, maximum delta is    0.000031932318056
 Root      9 not converged, maximum delta is    0.000010495774645
 Root     10 not converged, maximum delta is    0.000006661745432
 Root     11 not converged, maximum delta is    0.000016812749693
 Root     12 not converged, maximum delta is    0.000006986706411
 Root     13 not converged, maximum delta is    0.000013657771187
 Root     14 not converged, maximum delta is    0.000010040646067
 Root     15 not converged, maximum delta is    0.000022282025730
 Excitation Energies [eV] at current iteration:
 Root      1 :     4.550145632273407   Change is   -0.000000146600684
 Root      2 :     4.761836204941648   Change is   -0.000000008993969
 Root      3 :     4.981684427890410   Change is   -0.000000045276862
 Root      4 :     5.743342504055600   Change is   -0.000000011202359
 Root      5 :     5.871600732552714   Change is   -0.000000010530201
 Root      6 :     6.145604667862036   Change is   -0.000001072939843
 Root      7 :     6.244568881592468   Change is   -0.000000388615463
 Root      8 :     6.257876574738225   Change is   -0.000000359833622
 Root      9 :     6.444973706986180   Change is   -0.000000020878485
 Root     10 :     6.882029771934646   Change is   -0.000000012622105
 Root     11 :     6.958196603513456   Change is   -0.000000086231666
 Root     12 :     7.265101500567229   Change is   -0.000000015165478
 Root     13 :     7.402293897775898   Change is   -0.000000045115911
 Root     14 :     7.521585246699193   Change is   -0.000000035549903
 Root     15 :     7.745326521410377   Change is   -0.000000094633450
 Convergence achieved on expansion vectors.
 ***********************************************************************
 Excited states from <AA,BB:AA,BB> singles matrix:
 ***********************************************************************
 
 1PDM for each excited state written to RWF  633
 Ground to excited state transition densities written to RWF  633
 Ground to excited state transition electric dipole moments (Au):
       state          X           Y           Z        Dip. S.      Osc.
         1         0.7695      0.1415     -0.0043      0.6121      0.0682
         2        -0.1014     -0.0063     -0.0027      0.0103      0.0012
         3        -0.0755      0.3550     -0.0484      0.1340      0.0164
         4         0.0145      0.0216     -0.0297      0.0016      0.0002
         5        -0.0530      0.1279      0.1086      0.0310      0.0045
         6        -0.8082      0.9196     -0.0424      1.5007      0.2260
         7        -0.4014     -0.9186      0.0667      1.0094      0.1544
         8        -0.4443     -0.8735      0.0133      0.9606      0.1473
         9         0.0269      0.1920      0.0680      0.0422      0.0067
        10         0.0051     -0.0443     -0.0334      0.0031      0.0005
        11        -0.0996      0.1471      0.1017      0.0419      0.0071
        12         0.0257      0.0667      0.1257      0.0209      0.0037
        13        -0.0002      0.0720     -0.0740      0.0107      0.0019
        14        -0.0375     -0.0019      0.1600      0.0270      0.0050
        15         0.0145      0.0148      0.1416      0.0205      0.0039
 Ground to excited state transition velocity dipole moments (Au):
       state          X           Y           Z        Dip. S.      Osc.
         1        -0.0298     -0.0307      0.0072      0.0019      0.0075
         2        -0.0003      0.0050      0.0002      0.0000      0.0001
         3         0.0208     -0.0281      0.0112      0.0013      0.0049
         4        -0.0021     -0.0077      0.0184      0.0004      0.0013
         5         0.0099     -0.0243     -0.0794      0.0070      0.0216
         6         0.1185     -0.1896      0.0118      0.0501      0.1480
         7         0.0775      0.1986     -0.0330      0.0465      0.1352
         8         0.0869      0.1825      0.0054      0.0409      0.1185
         9        -0.0068     -0.0433     -0.1643      0.0289      0.0814
        10        -0.0052      0.0088      0.0371      0.0015      0.0039
        11         0.0132     -0.0381      0.0735      0.0070      0.0183
        12        -0.0093     -0.0195      0.0244      0.0011      0.0027
        13        -0.0024     -0.0174     -0.0005      0.0003      0.0008
        14         0.0098     -0.0027     -0.0734      0.0055      0.0133
        15        -0.0002     -0.0079      0.0374      0.0015      0.0034
 Ground to excited state transition magnetic dipole moments (Au):
       state          X           Y           Z
         1         0.0018     -0.0190      0.5786
         2        -0.0392     -0.5596     -0.0411
         3         0.0431      0.0128      0.0020
         4        -0.3317      0.2222     -0.0328
         5         0.0702      0.1982     -0.0189
         6        -0.1422      0.1038     -0.1227
         7         0.1958      0.0870      0.0382
         8        -0.0734     -0.0657      0.0205
         9        -0.0426     -0.3646      0.0165
        10        -0.9830     -0.1440      0.0013
        11         1.0293     -0.9305     -0.0249
        12         0.8511      0.8064     -0.0118
        13         0.3775      0.2649     -0.0073
        14        -0.4154      0.3022      0.0183
        15        -0.0553     -0.1462     -0.0192
 Ground to excited state transition velocity quadrupole moments (Au):
       state          XX          YY          ZZ          XY          XZ          YZ
         1         0.1798     -0.1558     -0.0123      0.5019     -0.0368      0.0023
         2        -0.0250      0.0070      0.0163     -0.0483     -0.1744      0.0210
         3         0.1414     -0.1629      0.0678      0.1043      0.0109     -0.0002
         4        -0.0063     -0.0095      0.0179     -0.0411     -0.1120     -0.2388
         5         0.0461     -0.0505      0.0067      0.0240      0.0188      0.1215
         6         0.2869     -0.1888     -0.0246      0.2876     -0.0232      0.0167
         7        -0.2084      0.0887      0.0010      0.2767     -0.0569      0.1460
         8        -0.1757      0.0682      0.0201      0.3049      0.0851     -0.1712
         9         0.0587     -0.0464      0.0037     -0.0068      0.1491      0.0257
        10        -0.0218      0.0101     -0.0049     -0.0048      0.2952     -0.0010
        11         0.0359     -0.0310      0.0003      0.0163      0.1018     -0.1017
        12         0.0195      0.0056      0.0020     -0.0499      0.1217     -0.0227
        13         0.0321     -0.0145      0.0035     -0.0233      0.0997     -0.0674
        14         0.0031     -0.0322      0.0153      0.0098     -0.0553     -0.3991
        15         0.0045      0.0247     -0.0155     -0.0291     -0.0518     -0.0955
 <0|del|b> * <b|rxdel|0> + <0|del|b> * <b|delr+rdel|0>
 Rotatory Strengths (R) in cgs (10**-40 erg-esu-cm/Gauss)
       state          XX          YY          ZZ    R(velocity)    E-M Angle
         1        15.3150      0.9114      3.6465      6.6243       79.21
         2        -3.9531      0.0125     -7.4335     -3.7914      172.80
         3         2.1906     -0.4825      0.4535      0.7205       70.16
         4        -6.5758      2.3107     -1.0835     -1.7829      101.48
         5        -7.8085      8.6935     -9.4668     -2.8606       98.53
         6       -34.6461    -30.8739    -53.4322    -39.6507      142.23
         7        28.0305     52.9239     15.1809     32.0451       48.36
         8       -39.5969    -35.0585     18.5016    -18.7179      153.83
         9        30.8101     -5.5302     14.6220     13.3006       77.65
        10        -5.5746      7.4301      8.9560      3.6038       84.20
        11        53.5435     12.7837     64.3773     43.5682       66.03
        12       -19.7198     -8.9542    -34.7701    -21.1480      128.76
        13        -3.7296     -0.9588     -9.6295     -4.7727      132.70
        14        -3.8701    -11.0395     -1.0535     -5.3210       99.42
        15        -1.3132      0.5070      1.9426      0.3788       85.65
 1/2[<0|r|b>*<b|rxdel|0> + (<0|rxdel|b>*<b|r|0>)*]
 Rotatory Strengths (R) in cgs (10**-40 erg-esu-cm/Gauss)
       state          XX          YY          ZZ     R(length)
         1        -0.9781      1.8989      1.7483      0.8897
         2        -2.8097     -2.5104     -0.0786     -1.7996
         3         2.3004     -3.2029      0.0697     -0.2776
         4         3.3908     -3.3984     -0.6888     -0.2322
         5         2.6307    -17.9340      1.4473     -4.6186
         6       -81.3027    -67.5032     -3.6827    -50.8295
         7        55.5865     56.5294     -1.8045     36.7704
         8       -23.0641    -40.5907     -0.1921    -21.2823
         9         0.8124     49.5062     -0.7921     16.5088
        10         3.5506     -4.5118      0.0315     -0.3099
        11        72.4938     96.8026      1.7890     57.0285
        12       -15.4586    -38.0123      1.0472    -17.4745
        13         0.0650    -13.4916     -0.3845     -4.6037
        14       -11.0156      0.4138     -2.0764     -4.2261
        15         0.5671      1.5258      1.9199      1.3376
  1/2[<0|del|b>*<b|r|0> + (<0|r|b>*<b|del|0>)*] (Au)
       state          X           Y           Z        Dip. S.   Osc.(frdel)
         1        -0.0229     -0.0043      0.0000      0.0273      0.0182
         2         0.0000      0.0000      0.0000      0.0000      0.0000
         3        -0.0016     -0.0100     -0.0005      0.0121      0.0080
         4         0.0000     -0.0002     -0.0005      0.0007      0.0005
         5        -0.0005     -0.0031     -0.0086      0.0123      0.0082
         6        -0.0958     -0.1743     -0.0005      0.2707      0.1804
         7        -0.0311     -0.1824     -0.0022      0.2157      0.1438
         8        -0.0386     -0.1594      0.0001      0.1979      0.1320
         9        -0.0002     -0.0083     -0.0112      0.0197      0.0131
        10         0.0000     -0.0004     -0.0012      0.0017      0.0011
        11        -0.0013     -0.0056      0.0075     -0.0005     -0.0004
        12        -0.0002     -0.0013      0.0031     -0.0015     -0.0010
        13         0.0000     -0.0013      0.0000      0.0012      0.0008
        14        -0.0004      0.0000     -0.0117      0.0121      0.0081
        15         0.0000     -0.0001      0.0053     -0.0052     -0.0035

 Excitation energies and oscillator strengths:
 
 Excited State   1:      Singlet-A      4.5501 eV  272.48 nm  f=0.0682  <S**2>=0.000
      12 -> 15         0.25156
      13 -> 14         0.65009
 This state for optimization and/or second-order correction.
 Total Energy, E(CIS) =  0.202250172082    
 Copying the excited state density for this state as the 1-particle RhoCI density.
 
 Excited State   2:      Singlet-A      4.7618 eV  260.37 nm  f=0.0012  <S**2>=0.000
      13 -> 16         0.68437
      13 -> 22        -0.10974
 
 Excited State   3:      Singlet-A      4.9817 eV  248.88 nm  f=0.0164  <S**2>=0.000
      12 -> 14        -0.37950
      13 -> 15         0.59116
 
 Excited State   4:      Singlet-A      5.7433 eV  215.87 nm  f=0.0002  <S**2>=0.000
      12 -> 18         0.18363
      13 -> 18         0.53373
      13 -> 19         0.16119
      13 -> 20        -0.16338
      13 -> 21        -0.16167
      13 -> 22         0.15347
      13 -> 23        -0.18284
 
 Excited State   5:      Singlet-A      5.8716 eV  211.16 nm  f=0.0045  <S**2>=0.000
       7 -> 16        -0.14146
      12 -> 16         0.65367
      12 -> 22        -0.13797
 
 Excited State   6:      Singlet-A      6.1456 eV  201.74 nm  f=0.2260  <S**2>=0.000
      12 -> 14         0.43070
      12 -> 15         0.42673
      13 -> 14        -0.15451
      13 -> 15         0.25109
 
 Excited State   7:      Singlet-A      6.2446 eV  198.55 nm  f=0.1544  <S**2>=0.000
      12 -> 14        -0.26535
      12 -> 15         0.32963
      12 -> 18         0.15490
      12 -> 19        -0.18462
      12 -> 20         0.11267
      12 -> 23        -0.12782
      13 -> 14        -0.12248
      13 -> 15        -0.18567
      13 -> 18        -0.12155
      13 -> 19         0.28131
      13 -> 20        -0.13114
      13 -> 21        -0.11796
      13 -> 23         0.12109
 
 Excited State   8:      Singlet-A      6.2579 eV  198.13 nm  f=0.1473  <S**2>=0.000
      12 -> 14        -0.23616
      12 -> 15         0.35001
      12 -> 18        -0.15177
      12 -> 19         0.18141
      12 -> 20        -0.11805
      12 -> 23         0.11329
      13 -> 14        -0.12893
      13 -> 15        -0.17145
      13 -> 17         0.10177
      13 -> 18         0.13676
      13 -> 19        -0.25634
      13 -> 20         0.10753
      13 -> 21         0.12736
      13 -> 23        -0.14755
 
 Excited State   9:      Singlet-A      6.4450 eV  192.37 nm  f=0.0067  <S**2>=0.000
      12 -> 17         0.13100
      12 -> 21         0.13901
      13 -> 17         0.58882
      13 -> 18        -0.15593
      13 -> 19         0.15144
      13 -> 20        -0.10483
      13 -> 21         0.12622
      13 -> 23        -0.11023
 
 Excited State  10:      Singlet-A      6.8820 eV  180.16 nm  f=0.0005  <S**2>=0.000
       9 -> 15        -0.11456
      10 -> 14         0.19977
      11 -> 14         0.36866
      11 -> 15         0.16772
      12 -> 17         0.39603
      12 -> 18        -0.14426
      12 -> 20        -0.18333
      12 -> 21         0.11070
      12 -> 23        -0.10456
      13 -> 17        -0.10691
 
 Excited State  11:      Singlet-A      6.9582 eV  178.18 nm  f=0.0071  <S**2>=0.000
      10 -> 14        -0.27883
      11 -> 14        -0.34125
      11 -> 15        -0.20025
      12 -> 17         0.34695
      12 -> 18        -0.15387
      12 -> 20        -0.11223
      12 -> 21         0.10020
      13 -> 17        -0.19497
 
 Excited State  12:      Singlet-A      7.2651 eV  170.66 nm  f=0.0037  <S**2>=0.000
       9 -> 14        -0.18769
      10 -> 15        -0.21214
      11 -> 14        -0.14464
      11 -> 15         0.43120
      12 -> 18         0.16162
      12 -> 19        -0.18116
      12 -> 21         0.10964
      13 -> 19        -0.26892
      13 -> 20        -0.17696
 
 Excited State  13:      Singlet-A      7.4023 eV  167.49 nm  f=0.0019  <S**2>=0.000
       9 -> 14        -0.21847
      11 -> 14        -0.12266
      11 -> 15         0.32941
      12 -> 18        -0.13379
      12 -> 19         0.18998
      13 -> 19         0.37940
      13 -> 20         0.26607
 
 Excited State  14:      Singlet-A      7.5216 eV  164.84 nm  f=0.0050  <S**2>=0.000
      12 -> 18        -0.15498
      12 -> 19         0.17793
      12 -> 22         0.15621
      13 -> 17        -0.14956
      13 -> 18        -0.24151
      13 -> 20        -0.17514
      13 -> 22         0.47384
      13 -> 23        -0.20282
 
 Excited State  15:      Singlet-A      7.7453 eV  160.08 nm  f=0.0039  <S**2>=0.000
      10 -> 14         0.27953
      11 -> 14        -0.15586
      12 -> 18        -0.10973
      12 -> 19        -0.20257
      12 -> 20         0.24114
      12 -> 21        -0.13628
      13 -> 19         0.10877
      13 -> 20        -0.19324
      13 -> 21         0.33407
      13 -> 22        -0.10463
      13 -> 23        -0.20096
      13 -> 24         0.11357
 SavETr:  write IOETrn=   770 NScale= 10 NData=  16 NLR=1 NState=   15 LETran=     280.
 The selected state is a singlet
 CISAX will form     1 AO SS matrices at one time.
 NMat=     1 NSing=     1 JSym2X= 0.
 Leave Link  914 at Tue Dec 15 16:25:42 2015, MaxMem=    33554432 cpu:         0.1
 (Enter /home/Applications/g09/g09/l1002.exe)
 Minotr:  Closed shell wavefunction.
          Computing CIS/TD-HF/TD-KS derivatives.
          Using Z-Vector for PSCF gradient.
          Skipping F1 and S1 gradient terms here.
          IDoAtm=111111111
          Direct CPHF calculation.
          Differentiating once with respect to electric field.
                with respect to dipole field.
          Differentiating once with respect to nuclear coordinates.
          Electric field/nuclear overlap derivatives assumed to be zero.
          Requested convergence is 1.0D-10 RMS, and 1.0D-09 maximum.
          NewPWx=T KeepS1=F KeepF1=F KeepIn=T MapXYZ=F SortEE=F KeepMc=T.
          MDV=      33495423 using IRadAn=       0.
 Keep J ints in memory in canonical form, NReq=871704.
 FoFCou: FMM=F IPFlag=           0 FMFlag=           0 FMFlg1=           0
         NFxFlg=           0 DoJE=F BraDBF=F KetDBF=F FulRan=T
         wScrn=  0.000000 ICntrl=     600 IOpCl=  2 I1Cent=           0 NGrid=           0
         NMat0=    1 NMatS0=     54 NMatT0=    0 NMatD0=    1 NMtDS0=    0 NMtDT0=    0
 Symmetry not used in FoFCou.
          Solving linear equations separately, MaxMat=       0.
          There are     1 degrees of freedom in the 1st order CPHF.  IDoFFX=0 NUNeed=     1.
 LinEq1:  Iter=  0 NonCon=     1 RMS=1.30D-02 Max=8.82D-02 NDo=     1
 AX will form     1 AO Fock derivatives at one time.
 LinEq1:  Iter=  1 NonCon=     1 RMS=2.51D-03 Max=1.26D-02 NDo=     1
 LinEq1:  Iter=  2 NonCon=     1 RMS=3.43D-04 Max=1.89D-03 NDo=     1
 LinEq1:  Iter=  3 NonCon=     1 RMS=4.11D-05 Max=1.97D-04 NDo=     1
 LinEq1:  Iter=  4 NonCon=     1 RMS=3.65D-06 Max=1.30D-05 NDo=     1
 LinEq1:  Iter=  5 NonCon=     1 RMS=4.70D-07 Max=1.94D-06 NDo=     1
 LinEq1:  Iter=  6 NonCon=     1 RMS=6.89D-08 Max=2.73D-07 NDo=     1
 LinEq1:  Iter=  7 NonCon=     1 RMS=1.16D-08 Max=6.12D-08 NDo=     1
 LinEq1:  Iter=  8 NonCon=     1 RMS=1.80D-09 Max=7.51D-09 NDo=     1
 LinEq1:  Iter=  9 NonCon=     1 RMS=2.19D-10 Max=8.02D-10 NDo=     1
 LinEq1:  Iter= 10 NonCon=     0 RMS=2.69D-11 Max=1.21D-10 NDo=     1
 Linear equations converged to 1.000D-10 1.000D-09 after    10 iterations.
 End of Minotr F.D. properties file   721 does not exist.
 End of Minotr F.D. properties file   722 does not exist.
 End of Minotr F.D. properties file   788 does not exist.
 Leave Link 1002 at Tue Dec 15 16:25:42 2015, MaxMem=    33554432 cpu:         0.0
 (Enter /home/Applications/g09/g09/l601.exe)
 Copying SCF densities to generalized density rwf, IOpCl= 0 IROHF=0.

 **********************************************************************

            Population analysis using the SCF density.

 **********************************************************************

 Orbital symmetries:
       Occupied  (A) (A) (A) (A) (A) (A) (A) (A) (A) (A) (A) (A)
                 (A)
       Virtual   (A) (A) (A) (A) (A) (A) (A) (A) (A) (A) (A)
 The electronic state is 1-A.
 Alpha  occ. eigenvalues --   -1.61426  -1.23596  -1.11365  -0.84250  -0.81174
 Alpha  occ. eigenvalues --   -0.69888  -0.62964  -0.58313  -0.51486  -0.50250
 Alpha  occ. eigenvalues --   -0.48273  -0.38738  -0.34549
 Alpha virt. eigenvalues --    0.03813   0.05937   0.09066   0.14287   0.15035
 Alpha virt. eigenvalues --    0.16301   0.18076   0.18594   0.19443   0.20809
 Alpha virt. eigenvalues --    0.23503
     Molecular Orbital Coefficients:
                           1         2         3         4         5
                           O         O         O         O         O
     Eigenvalues --    -1.61426  -1.23596  -1.11365  -0.84250  -0.81174
   1 1   C  1S          0.23763  -0.44209   0.33767   0.38848  -0.22126
   2        1PX         0.04474  -0.10335  -0.12808  -0.16547  -0.22834
   3        1PY        -0.11298   0.04247  -0.10074   0.03914  -0.24337
   4        1PZ         0.00243  -0.00412   0.00303   0.00078   0.00459
   5 2   C  1S          0.37081  -0.06259   0.52591  -0.09875   0.38037
   6        1PX         0.19564   0.02737  -0.00773  -0.03669  -0.14423
   7        1PY        -0.06131  -0.24139   0.03218   0.36994   0.04813
   8        1PZ        -0.00704  -0.00192  -0.00717   0.00250   0.00633
   9 3   O  1S          0.67400   0.52676  -0.08935   0.02955  -0.29286
  10        1PX         0.01155  -0.06293  -0.37840   0.49759   0.04904
  11        1PY         0.20605  -0.04320   0.06439  -0.05609   0.18021
  12        1PZ         0.00861   0.00322   0.00124  -0.00534   0.01231
  13 4   C  1S          0.35188  -0.22153  -0.49540   0.04387   0.38749
  14        1PX        -0.18839  -0.07431   0.01457  -0.18756   0.12636
  15        1PY         0.00739  -0.22817   0.03101  -0.33122  -0.04417
  16        1PZ        -0.00582  -0.00009   0.00874  -0.00980  -0.00061
  17 5   C  1S          0.24748  -0.52531  -0.19599  -0.34342  -0.27375
  18        1PX        -0.07221   0.07637  -0.13078  -0.21594   0.12031
  19        1PY        -0.09811   0.04795   0.14218   0.02644  -0.31580
  20        1PZ         0.00019  -0.00150  -0.00126  -0.00696   0.00253
  21 6   H  1S          0.05398  -0.17694  -0.07208  -0.21859  -0.21481
  22 7   H  1S          0.07385  -0.06522  -0.19863   0.03209   0.24996
  23 8   H  1S          0.07766  -0.01203   0.20927  -0.07986   0.24544
  24 9   H  1S          0.04850  -0.13913   0.12454   0.23056  -0.15791
                           6         7         8         9        10
                           O         O         O         O         O
     Eigenvalues --    -0.69888  -0.62964  -0.58313  -0.51486  -0.50250
   1 1   C  1S         -0.10016  -0.00704  -0.20080  -0.04638  -0.04938
   2        1PX         0.15195   0.00814   0.06865  -0.07044  -0.26959
   3        1PY        -0.22411   0.01324  -0.20850  -0.11630   0.49874
   4        1PZ         0.00373   0.19182   0.00160   0.00210  -0.02035
   5 2   C  1S         -0.09456   0.01280   0.15826   0.10185  -0.01670
   6        1PX         0.38597  -0.01090  -0.37923   0.26920  -0.10203
   7        1PY         0.05476  -0.01143   0.12775   0.08175  -0.25600
   8        1PZ        -0.00222   0.40369  -0.00350  -0.00988  -0.00931
   9 3   O  1S         -0.19361  -0.00929   0.01411  -0.11078  -0.10590
  10        1PX         0.04798   0.02357   0.40346   0.05822   0.08787
  11        1PY         0.50470  -0.02178  -0.07398   0.35380   0.43148
  12        1PZ         0.01682   0.78673  -0.04685   0.00270  -0.00452
  13 4   C  1S         -0.10425   0.00209  -0.15149  -0.03163   0.06587
  14        1PX        -0.33575  -0.03147  -0.38492   0.10661  -0.25819
  15        1PY         0.17241  -0.01824  -0.00771  -0.40966   0.11066
  16        1PZ         0.00647   0.37125  -0.02355  -0.00969  -0.00844
  17 5   C  1S         -0.06519   0.00841   0.18513  -0.02489  -0.03471
  18        1PX        -0.19532  -0.00198   0.07590   0.24303   0.26123
  19        1PY        -0.17464   0.02190   0.15508   0.50304  -0.03255
  20        1PZ         0.00041   0.19675  -0.00532   0.00137  -0.00250
  21 6   H  1S         -0.19217   0.01818   0.22551   0.41184   0.10198
  22 7   H  1S         -0.27598  -0.01887  -0.30850   0.23683  -0.17778
  23 8   H  1S         -0.27706   0.01926   0.32135  -0.15340   0.13838
  24 9   H  1S         -0.21169   0.00001  -0.26555  -0.08148   0.42343
                          11        12        13        14        15
                           O         O         O         V         V
     Eigenvalues --    -0.48273  -0.38738  -0.34549   0.03813   0.05937
   1 1   C  1S         -0.00261  -0.00506  -0.00686  -0.00034   0.00554
   2        1PX         0.50137   0.01858  -0.00222   0.01152   0.00029
   3        1PY         0.20297   0.02366   0.01853   0.00132  -0.01113
   4        1PZ        -0.02310   0.49767   0.51873  -0.35867  -0.56233
   5 2   C  1S          0.02403  -0.00189   0.00982   0.01167   0.00039
   6        1PX        -0.15786  -0.00698   0.01922   0.01654   0.00687
   7        1PY        -0.38583  -0.00928   0.00485   0.00872  -0.00401
   8        1PZ         0.00032   0.01843   0.60176   0.60765   0.32195
   9 3   O  1S         -0.15625  -0.00018   0.00561   0.00581   0.00479
  10        1PX         0.02034  -0.00264   0.00003   0.00294   0.01270
  11        1PY         0.18936   0.02513   0.00850   0.01091   0.00425
  12        1PZ         0.00252  -0.44910  -0.11831  -0.40109   0.01776
  13 4   C  1S          0.07078   0.01352  -0.01977   0.01322  -0.02611
  14        1PX        -0.02656   0.00312   0.01216   0.01455   0.00653
  15        1PY        -0.29563  -0.00937   0.01675  -0.00405   0.02170
  16        1PZ        -0.02989   0.32024  -0.55245   0.51741  -0.42705
  17 5   C  1S         -0.00506  -0.01044   0.00250  -0.00520  -0.00633
  18        1PX        -0.47006  -0.03183   0.00878   0.00953  -0.01199
  19        1PY         0.18626   0.01147  -0.00846   0.00653  -0.00710
  20        1PZ        -0.03985   0.66656  -0.21780  -0.26825   0.62837
  21 6   H  1S         -0.14263  -0.00358  -0.00569  -0.00109   0.00750
  22 7   H  1S          0.18182   0.00751   0.00892  -0.01500   0.02588
  23 8   H  1S          0.25482   0.01072  -0.00578  -0.00041   0.00358
  24 9   H  1S         -0.04731   0.00319   0.00850   0.00193  -0.00056
                          16        17        18        19        20
                           V         V         V         V         V
     Eigenvalues --     0.09066   0.14287   0.15035   0.16301   0.18076
   1 1   C  1S          0.02921  -0.28476  -0.27042   0.03907   0.46339
   2        1PX         0.05321  -0.30613   0.39735   0.02262   0.05688
   3        1PY         0.05137   0.01535   0.19746   0.35439   0.10410
   4        1PZ         0.00583  -0.00404  -0.00715  -0.01110   0.00712
   5 2   C  1S         -0.28038   0.17175   0.41671   0.20643   0.03917
   6        1PX        -0.12525  -0.27852   0.13652  -0.29256  -0.22026
   7        1PY         0.34162   0.02691   0.17543   0.21037  -0.30513
   8        1PZ        -0.00654   0.00683  -0.02554  -0.00086   0.00599
   9 3   O  1S          0.25845   0.01515   0.00316   0.08202  -0.01380
  10        1PX         0.10296  -0.03766   0.27557  -0.05781   0.09444
  11        1PY         0.44135   0.02562  -0.05283   0.10551   0.05303
  12        1PZ         0.03047  -0.00440   0.00555   0.01444  -0.00636
  13 4   C  1S         -0.30562  -0.22729  -0.19038   0.32917  -0.23563
  14        1PX         0.30341  -0.26807   0.21555   0.17876  -0.11475
  15        1PY         0.29612   0.10273  -0.09656   0.26148  -0.10233
  16        1PZ         0.02909   0.02436   0.00279  -0.01945   0.01490
  17 5   C  1S          0.03229   0.25231   0.19094  -0.17553   0.04239
  18        1PX         0.03119  -0.33097   0.27285  -0.09120   0.42327
  19        1PY         0.02314   0.04316  -0.07112   0.35906  -0.22416
  20        1PZ        -0.01291  -0.01426   0.01560   0.00341   0.00512
  21 6   H  1S         -0.12176  -0.04824  -0.32851  -0.05611  -0.13286
  22 7   H  1S          0.29590   0.48038  -0.06495  -0.25948   0.19596
  23 8   H  1S          0.35113  -0.39888  -0.17326  -0.34661  -0.25771
  24 9   H  1S         -0.08427   0.11244   0.27761  -0.33262  -0.42769
                          21        22        23        24
                           V         V         V         V
     Eigenvalues --     0.18594   0.19443   0.20809   0.23503
   1 1   C  1S         -0.00408  -0.01383   0.06955   0.05215
   2        1PX        -0.41657  -0.12013   0.20159  -0.21737
   3        1PY        -0.10921   0.34456  -0.44933  -0.07290
   4        1PZ        -0.00463  -0.00869   0.00882   0.01093
   5 2   C  1S         -0.14879   0.04357  -0.11511   0.13694
   6        1PX        -0.04870   0.44556  -0.17278   0.24611
   7        1PY        -0.11310   0.13377  -0.15738  -0.46478
   8        1PZ         0.01228  -0.00891   0.00835  -0.01616
   9 3   O  1S          0.01987  -0.11375  -0.00331  -0.02372
  10        1PX        -0.03563  -0.06100  -0.04819   0.56378
  11        1PY         0.12474  -0.26193  -0.00706  -0.10394
  12        1PZ         0.00121  -0.01255  -0.00111  -0.00361
  13 4   C  1S          0.04574   0.05162   0.15516  -0.10000
  14        1PX         0.22101  -0.36405  -0.17728   0.31352
  15        1PY        -0.32716   0.14123   0.28022   0.38068
  16        1PZ        -0.01170   0.00017  -0.00283   0.01682
  17 5   C  1S          0.48291   0.08143  -0.11415  -0.06525
  18        1PX        -0.02708   0.11373   0.30924  -0.18844
  19        1PY         0.17686   0.27775   0.45540   0.14444
  20        1PZ         0.01500   0.00230   0.00376  -0.01270
  21 6   H  1S         -0.48079  -0.29409  -0.33501   0.04838
  22 7   H  1S         -0.31085   0.23826   0.10932   0.01493
  23 8   H  1S          0.04050   0.29915  -0.07152  -0.00513
  24 9   H  1S         -0.08278  -0.27956   0.32067  -0.05382
     Density Matrix:
                           1         2         3         4         5
   1 1   C  1S          1.24176
   2        1PX        -0.02912   0.93168
   3        1PY         0.06724  -0.03961   0.96744
   4        1PZ        -0.00889   0.00613   0.01166   1.10913
   5 2   C  1S          0.28886  -0.21779  -0.44153   0.02186   1.23583
   6        1PX         0.15975   0.01535  -0.21623   0.02235  -0.11118
   7        1PY         0.42979  -0.33498  -0.51698   0.02372   0.01872
   8        1PZ        -0.01780   0.00804   0.02944   0.79781   0.01151
   9 3   O  1S          0.00152  -0.04277  -0.00714   0.00750   0.12574
  10        1PX        -0.01564  -0.04103  -0.02351   0.00333  -0.31339
  11        1PY        -0.09160  -0.00171   0.07522   0.00750   0.32153
  12        1PZ         0.00320  -0.00417  -0.00526  -0.26775   0.02004
  13 4   C  1S         -0.03096   0.00076   0.02798  -0.00944   0.01986
  14        1PX         0.02220  -0.05865  -0.02522   0.01275  -0.01177
  15        1PY        -0.01430  -0.07811  -0.02043   0.01093  -0.03803
  16        1PZ         0.00504  -0.00414  -0.00779  -0.11030  -0.00801
  17 5   C  1S          0.24846   0.44210  -0.03373  -0.00163  -0.03021
  18        1PX        -0.44820  -0.66886   0.04158  -0.01345   0.01290
  19        1PY         0.09525   0.18285   0.09392   0.00220   0.02031
  20        1PZ        -0.01011  -0.00867   0.01003   0.51493  -0.00278
  21 6   H  1S         -0.04110  -0.05296   0.01497  -0.00007   0.04784
  22 7   H  1S          0.04683   0.06470  -0.00744   0.00832   0.05496
  23 8   H  1S         -0.05641   0.03334   0.08168  -0.00315   0.61254
  24 9   H  1S          0.59408  -0.36798   0.67524  -0.00479  -0.05816
                           6         7         8         9        10
   6        1PX         0.92471
   7        1PY         0.08528   0.88575
   8        1PZ         0.00674   0.00182   1.05154
   9 3   O  1S          0.22781  -0.20967  -0.00973   1.82416
  10        1PX        -0.30619   0.43416   0.02177  -0.02792   1.14890
  11        1PY         0.51821  -0.29713  -0.02470  -0.31411   0.03563
  12        1PZ         0.03503  -0.02542   0.47650  -0.01679  -0.00237
  13 4   C  1S         -0.00117  -0.04246  -0.01251   0.11187   0.37116
  14        1PX         0.05166  -0.03091  -0.00039  -0.26070  -0.55865
  15        1PY         0.01727  -0.01592   0.00833  -0.13640  -0.35929
  16        1PZ        -0.00652  -0.00529  -0.35296  -0.01283  -0.02299
  17 5   C  1S         -0.02012  -0.01200   0.00570   0.00003  -0.01407
  18        1PX        -0.02248   0.08281   0.00122   0.03889  -0.01774
  19        1PY         0.01648  -0.03792  -0.00631  -0.01189   0.04920
  20        1PZ        -0.00398   0.00768  -0.07864   0.00304  -0.00594
  21 6   H  1S          0.01656   0.05311  -0.00601   0.02423   0.06394
  22 7   H  1S          0.08192  -0.06178   0.00329  -0.05120  -0.05592
  23 8   H  1S         -0.68812  -0.26720   0.00725  -0.05288   0.03992
  24 9   H  1S         -0.03900  -0.06000   0.00407   0.02039  -0.03327
                          11        12        13        14        15
  11        1PY         1.38533
  12        1PZ        -0.02750   1.67482
  13 4   C  1S          0.21379   0.01858   1.23027
  14        1PX        -0.44040  -0.02622   0.10895   0.86628
  15        1PY        -0.08257  -0.02124  -0.02368  -0.09202   0.92537
  16        1PZ        -0.02530   0.42954   0.01906  -0.01116  -0.00467
  17 5   C  1S         -0.08154  -0.00005   0.31226  -0.04764   0.47324
  18        1PX         0.02403   0.01050   0.08822   0.13822   0.15746
  19        1PY         0.05561   0.00062  -0.49317   0.05480  -0.59752
  20        1PZ         0.00790  -0.23712   0.02632  -0.00264   0.00013
  21 6   H  1S          0.07234   0.00282  -0.05871   0.02842  -0.06020
  22 7   H  1S         -0.05157  -0.00897   0.61232   0.58412  -0.45526
  23 8   H  1S         -0.06282  -0.00950   0.06085  -0.10972  -0.04511
  24 9   H  1S          0.08101   0.00228   0.04882  -0.00706   0.05292
                          16        17        18        19        20
  16        1PZ         1.09489
  17 5   C  1S         -0.01053   1.21808
  18        1PX        -0.01606   0.04650   0.96505
  19        1PY         0.00654   0.05568   0.04008   0.95321
  20        1PZ         0.81642  -0.00765  -0.00750   0.00999   1.06427
  21 6   H  1S          0.00590   0.59139   0.52365   0.56850   0.01697
  22 7   H  1S         -0.02581  -0.05593  -0.01036   0.08407  -0.00965
  23 8   H  1S         -0.00175   0.04014  -0.05991   0.01309   0.00120
  24 9   H  1S         -0.00301  -0.04615   0.07003  -0.01118   0.00074
                          21        22        23        24
  21 6   H  1S          0.84371
  22 7   H  1S          0.01130   0.81052
  23 8   H  1S         -0.00676  -0.02773   0.80950
  24 9   H  1S         -0.00222  -0.01377   0.01334   0.83780
    Full Mulliken population analysis:
                           1         2         3         4         5
   1 1   C  1S          1.24176
   2        1PX         0.00000   0.93168
   3        1PY         0.00000   0.00000   0.96744
   4        1PZ         0.00000   0.00000   0.00000   1.10913
   5 2   C  1S          0.00000   0.00000   0.00000   0.00000   1.23583
   6        1PX         0.00000   0.00000   0.00000   0.00000   0.00000
   7        1PY         0.00000   0.00000   0.00000   0.00000   0.00000
   8        1PZ         0.00000   0.00000   0.00000   0.00000   0.00000
   9 3   O  1S          0.00000   0.00000   0.00000   0.00000   0.00000
  10        1PX         0.00000   0.00000   0.00000   0.00000   0.00000
  11        1PY         0.00000   0.00000   0.00000   0.00000   0.00000
  12        1PZ         0.00000   0.00000   0.00000   0.00000   0.00000
  13 4   C  1S          0.00000   0.00000   0.00000   0.00000   0.00000
  14        1PX         0.00000   0.00000   0.00000   0.00000   0.00000
  15        1PY         0.00000   0.00000   0.00000   0.00000   0.00000
  16        1PZ         0.00000   0.00000   0.00000   0.00000   0.00000
  17 5   C  1S          0.00000   0.00000   0.00000   0.00000   0.00000
  18        1PX         0.00000   0.00000   0.00000   0.00000   0.00000
  19        1PY         0.00000   0.00000   0.00000   0.00000   0.00000
  20        1PZ         0.00000   0.00000   0.00000   0.00000   0.00000
  21 6   H  1S          0.00000   0.00000   0.00000   0.00000   0.00000
  22 7   H  1S          0.00000   0.00000   0.00000   0.00000   0.00000
  23 8   H  1S          0.00000   0.00000   0.00000   0.00000   0.00000
  24 9   H  1S          0.00000   0.00000   0.00000   0.00000   0.00000
                           6         7         8         9        10
   6        1PX         0.92471
   7        1PY         0.00000   0.88575
   8        1PZ         0.00000   0.00000   1.05154
   9 3   O  1S          0.00000   0.00000   0.00000   1.82416
  10        1PX         0.00000   0.00000   0.00000   0.00000   1.14890
  11        1PY         0.00000   0.00000   0.00000   0.00000   0.00000
  12        1PZ         0.00000   0.00000   0.00000   0.00000   0.00000
  13 4   C  1S          0.00000   0.00000   0.00000   0.00000   0.00000
  14        1PX         0.00000   0.00000   0.00000   0.00000   0.00000
  15        1PY         0.00000   0.00000   0.00000   0.00000   0.00000
  16        1PZ         0.00000   0.00000   0.00000   0.00000   0.00000
  17 5   C  1S          0.00000   0.00000   0.00000   0.00000   0.00000
  18        1PX         0.00000   0.00000   0.00000   0.00000   0.00000
  19        1PY         0.00000   0.00000   0.00000   0.00000   0.00000
  20        1PZ         0.00000   0.00000   0.00000   0.00000   0.00000
  21 6   H  1S          0.00000   0.00000   0.00000   0.00000   0.00000
  22 7   H  1S          0.00000   0.00000   0.00000   0.00000   0.00000
  23 8   H  1S          0.00000   0.00000   0.00000   0.00000   0.00000
  24 9   H  1S          0.00000   0.00000   0.00000   0.00000   0.00000
                          11        12        13        14        15
  11        1PY         1.38533
  12        1PZ         0.00000   1.67482
  13 4   C  1S          0.00000   0.00000   1.23027
  14        1PX         0.00000   0.00000   0.00000   0.86628
  15        1PY         0.00000   0.00000   0.00000   0.00000   0.92537
  16        1PZ         0.00000   0.00000   0.00000   0.00000   0.00000
  17 5   C  1S          0.00000   0.00000   0.00000   0.00000   0.00000
  18        1PX         0.00000   0.00000   0.00000   0.00000   0.00000
  19        1PY         0.00000   0.00000   0.00000   0.00000   0.00000
  20        1PZ         0.00000   0.00000   0.00000   0.00000   0.00000
  21 6   H  1S          0.00000   0.00000   0.00000   0.00000   0.00000
  22 7   H  1S          0.00000   0.00000   0.00000   0.00000   0.00000
  23 8   H  1S          0.00000   0.00000   0.00000   0.00000   0.00000
  24 9   H  1S          0.00000   0.00000   0.00000   0.00000   0.00000
                          16        17        18        19        20
  16        1PZ         1.09489
  17 5   C  1S          0.00000   1.21808
  18        1PX         0.00000   0.00000   0.96505
  19        1PY         0.00000   0.00000   0.00000   0.95321
  20        1PZ         0.00000   0.00000   0.00000   0.00000   1.06427
  21 6   H  1S          0.00000   0.00000   0.00000   0.00000   0.00000
  22 7   H  1S          0.00000   0.00000   0.00000   0.00000   0.00000
  23 8   H  1S          0.00000   0.00000   0.00000   0.00000   0.00000
  24 9   H  1S          0.00000   0.00000   0.00000   0.00000   0.00000
                          21        22        23        24
  21 6   H  1S          0.84371
  22 7   H  1S          0.00000   0.81052
  23 8   H  1S          0.00000   0.00000   0.80950
  24 9   H  1S          0.00000   0.00000   0.00000   0.83780
     Gross orbital populations:
                           1
   1 1   C  1S          1.24176
   2        1PX         0.93168
   3        1PY         0.96744
   4        1PZ         1.10913
   5 2   C  1S          1.23583
   6        1PX         0.92471
   7        1PY         0.88575
   8        1PZ         1.05154
   9 3   O  1S          1.82416
  10        1PX         1.14890
  11        1PY         1.38533
  12        1PZ         1.67482
  13 4   C  1S          1.23027
  14        1PX         0.86628
  15        1PY         0.92537
  16        1PZ         1.09489
  17 5   C  1S          1.21808
  18        1PX         0.96505
  19        1PY         0.95321
  20        1PZ         1.06427
  21 6   H  1S          0.84371
  22 7   H  1S          0.81052
  23 8   H  1S          0.80950
  24 9   H  1S          0.83780
          Condensed to atoms (all electrons):
               1          2          3          4          5          6
     1  C    4.250012   0.000000   0.000000   0.000000   0.000000   0.000000
     2  C    0.000000   4.097825   0.000000   0.000000   0.000000   0.000000
     3  O    0.000000   0.000000   6.033206   0.000000   0.000000   0.000000
     4  C    0.000000   0.000000   0.000000   4.116805   0.000000   0.000000
     5  C    0.000000   0.000000   0.000000   0.000000   4.200617   0.000000
     6  H    0.000000   0.000000   0.000000   0.000000   0.000000   0.843711
     7  H    0.000000   0.000000   0.000000   0.000000   0.000000   0.000000
     8  H    0.000000   0.000000   0.000000   0.000000   0.000000   0.000000
     9  H    0.000000   0.000000   0.000000   0.000000   0.000000   0.000000
               7          8          9
     1  C    0.000000   0.000000   0.000000
     2  C    0.000000   0.000000   0.000000
     3  O    0.000000   0.000000   0.000000
     4  C    0.000000   0.000000   0.000000
     5  C    0.000000   0.000000   0.000000
     6  H    0.000000   0.000000   0.000000
     7  H    0.810520   0.000000   0.000000
     8  H    0.000000   0.809499   0.000000
     9  H    0.000000   0.000000   0.837805
 Mulliken charges:
               1
     1  C   -0.250012
     2  C   -0.097825
     3  O   -0.033206
     4  C   -0.116805
     5  C   -0.200617
     6  H    0.156289
     7  H    0.189480
     8  H    0.190501
     9  H    0.162195
 Sum of Mulliken charges =   0.00000
 Mulliken charges with hydrogens summed into heavy atoms:
               1
     1  C   -0.087817
     2  C    0.092675
     3  O   -0.033206
     4  C    0.072675
     5  C   -0.044328
 Charge=              0.0000 electrons
 Dipole moment (field-independent basis, Debye):
    X=             -0.0459    Y=              0.0941    Z=             -0.0110  Tot=              0.1053
 N-N= 1.041810427200D+02 E-N=-1.720990482465D+02  KE=-1.666749101418D+01
 Orbital energies and kinetic energies (alpha):
                                 1                 2
   1         O                -1.614265         -1.337263
   2         O                -1.235958         -1.057980
   3         O                -1.113651         -0.965726
   4         O                -0.842504         -0.711856
   5         O                -0.811740         -0.726765
   6         O                -0.698878         -0.608106
   7         O                -0.629638         -0.502014
   8         O                -0.583132         -0.521463
   9         O                -0.514858         -0.431906
  10         O                -0.502505         -0.424888
  11         O                -0.482731         -0.396119
  12         O                -0.387384         -0.338400
  13         O                -0.345493         -0.311261
  14         V                 0.038127         -0.183475
  15         V                 0.059367         -0.194246
  16         V                 0.090662         -0.191767
  17         V                 0.142875         -0.219785
  18         V                 0.150346         -0.180607
  19         V                 0.163006         -0.174337
  20         V                 0.180755         -0.180460
  21         V                 0.185937         -0.181307
  22         V                 0.194431         -0.140811
  23         V                 0.208092         -0.133707
  24         V                 0.235028         -0.021275
 Total kinetic energy from orbitals=-1.666749101418D+01
 Leave Link  601 at Tue Dec 15 16:25:42 2015, MaxMem=    33554432 cpu:         0.0
 (Enter /home/Applications/g09/g09/l701.exe)
 Compute integral first derivatives.
 ... and contract with generalized density number  6.
 Leave Link  701 at Tue Dec 15 16:25:42 2015, MaxMem=    33554432 cpu:         0.0
 (Enter /home/Applications/g09/g09/l702.exe)
 L702 exits ... SP integral derivatives will be done elsewhere.
 Leave Link  702 at Tue Dec 15 16:25:42 2015, MaxMem=    33554432 cpu:         0.0
 (Enter /home/Applications/g09/g09/l703.exe)
 Compute integral first derivatives, UseDBF=F ICtDFT=           0.
 Integral derivatives from FoFJK, PRISM(SPDF).
 Calling FoFJK, ICntrl=  10005127 FMM=F ISym2X=0 I1Cent= 0 IOpClX= 0 NMat=1 NMatS=1 NMatT=0.
 FoFJK:  IHMeth= 8 ICntrl=10005127 DoSepK=F KAlg= 0 I1Cent=   0 FoldK=F
 IRaf=         0 NMat=   1 IRICut=       1 DoRegI=T DoRafI=F ISym2E= 0.
 FoFCou: FMM=F IPFlag=           0 FMFlag=      100000 FMFlg1=         800
         NFxFlg=           0 DoJE=F BraDBF=F KetDBF=F FulRan=T
         wScrn=  0.000000 ICntrl=10005127 IOpCl=  0 I1Cent=           0 NGrid=           0
         NMat0=    1 NMatS0=      1 NMatT0=    0 NMatD0=    1 NMtDS0=    0 NMtDT0=    0
 Symmetry not used in FoFCou.
 Leave Link  703 at Tue Dec 15 16:25:42 2015, MaxMem=    33554432 cpu:         0.0
 (Enter /home/Applications/g09/g09/l716.exe)
 Dipole        =-8.38007930D-02 1.63453210D-01 2.90324259D-02
 ***** Axes restored to original set *****
 -------------------------------------------------------------------
 Center     Atomic                   Forces (Hartrees/Bohr)
 Number     Number              X              Y              Z
 -------------------------------------------------------------------
      1        6           0.051539852    0.054153202   -0.002577229
      2        6           0.059697267   -0.129599115   -0.000653311
      3        8          -0.201804653    0.034551042    0.009469301
      4        6          -0.004678192    0.105934997    0.000779743
      5        6           0.084989709   -0.082075957   -0.001104705
      6        1           0.032970976    0.027643252   -0.000785499
      7        1          -0.017631864    0.013058898   -0.002798048
      8        1          -0.014570894   -0.016599119   -0.002864627
      9        1           0.009487799   -0.007067201    0.000534377
 -------------------------------------------------------------------
 Cartesian Forces:  Max     0.201804653 RMS     0.059674206
 Z-matrix is all fixed cartesians, so copy forces.
 Force constants in Cartesian coordinates: 
                1             2             3             4             5 
      1  0.859013D+00
      2 -0.630314D-01  0.722895D+00
      3  0.705741D-02 -0.537471D-02  0.176251D+00
      4 -0.437728D+00 -0.813933D-01 -0.761452D-02  0.926700D+00
      5 -0.582682D-01 -0.194983D+00 -0.253059D-02 -0.949209D-01  0.104927D+01
      6 -0.646727D-02 -0.205710D-02 -0.901100D-01 -0.872115D-02  0.197350D-01
      7 -0.811409D-02  0.309196D-01  0.185248D-02 -0.360987D+00  0.251603D+00
      8 -0.567455D-02  0.216557D-01  0.528367D-03  0.298332D+00 -0.528749D+00
      9 -0.384288D-03  0.467445D-03  0.101428D-01  0.169315D-01 -0.176517D-01
     10  0.866695D-02  0.248204D-03 -0.102265D-03  0.275673D-01  0.194271D-01
     11  0.344409D-01  0.926110D-03  0.107006D-02 -0.188217D-01 -0.132674D-01
     12 -0.638858D-03  0.292271D-03 -0.221774D-02 -0.177161D-02 -0.135706D-02
     13 -0.156574D+00  0.155996D-01  0.133985D-03  0.858889D-02 -0.328987D-01
     14 -0.391162D-02 -0.357616D+00  0.419767D-02  0.214590D-03 -0.880771D-03
     15  0.618067D-03  0.674907D-02 -0.688673D-01 -0.148769D-03 -0.884878D-03
     16  0.162342D-01  0.422401D-03 -0.171521D-03 -0.216877D-05  0.195405D-05
     17 -0.245922D-01 -0.618022D-03  0.137595D-02 -0.118579D-05  0.106839D-05
     18  0.252421D-03  0.288213D-03  0.143858D-01 -0.576728D-04  0.519630D-04
     19  0.000000D+00 -0.265884D-05 -0.135747D-03  0.367348D-04  0.307351D-05
     20  0.000000D+00 -0.817839D-05 -0.417548D-03 -0.411617D-05  0.000000D+00
     21  0.324757D-05  0.135090D-03  0.689702D-02  0.420262D-03  0.351623D-04
     22  0.695601D-02 -0.266167D-01  0.159522D-03 -0.159763D+00 -0.101833D+00
     23 -0.307134D-02  0.117522D-01 -0.689652D-04 -0.972295D-01 -0.335007D+00
     24 -0.122506D-03 -0.955302D-03  0.230670D-01  0.154834D-02  0.169987D-02
     25 -0.288454D+00  0.123854D+00 -0.117934D-02 -0.441277D-02  0.168850D-01
     26  0.124109D+00 -0.204004D+00  0.121977D-02 -0.617631D-02  0.236205D-01
     27 -0.318225D-03  0.455031D-03 -0.695486D-01 -0.586339D-03  0.902233D-03
                6             7             8             9            10 
      6  0.185687D+00
      7  0.157379D-01  0.627111D+00
      8 -0.189853D-01 -0.675085D-01  0.933290D+00
      9 -0.557709D-01 -0.323592D-01  0.104493D-02  0.735908D-01
     10 -0.239782D-02 -0.298060D+00 -0.231808D+00  0.190420D-01  0.977710D+00
     11  0.165660D-02 -0.183969D+00 -0.432207D+00  0.175608D-01  0.209469D-02
     12 -0.563093D-03  0.159212D-01  0.177541D-01 -0.567642D-01 -0.205684D-01
     13  0.579217D-03 -0.789284D-02  0.534688D-02 -0.193097D-03 -0.547400D+00
     14 -0.116933D-03 -0.313421D-01  0.212585D-01 -0.916724D-03  0.101867D+00
     15 -0.657947D-03  0.215312D-02 -0.739033D-03  0.798211D-02 -0.507590D-02
     16  0.102733D-03  0.000000D+00  0.410735D-05  0.913796D-04 -0.434966D-02
     17  0.561698D-04  0.350593D-05  0.230066D-04  0.511848D-03  0.654630D-02
     18  0.273192D-02  0.574293D-04  0.376862D-03  0.838437D-02 -0.618433D-03
     19  0.565207D-03  0.233414D-01 -0.159761D-01 -0.231953D-02 -0.164154D+00
     20 -0.633320D-04  0.111554D-01 -0.764390D-02 -0.128046D-02  0.101633D+00
     21  0.646620D-02 -0.185382D-02  0.143534D-02  0.354066D-02  0.919480D-02
     22  0.700087D-03  0.246009D-01  0.172800D-01 -0.727801D-03  0.184540D-04
     23 -0.289338D-03 -0.108623D-01 -0.762982D-02  0.321538D-03 -0.811471D-05
     24 -0.694993D-01 -0.148072D-02 -0.115642D-02  0.294247D-02  0.524578D-03
     25 -0.988655D-04  0.000000D+00  0.352044D-05 -0.809627D-04  0.000000D+00
     26  0.642569D-04  0.000000D+00  0.250962D-05 -0.577161D-04  0.000000D+00
     27  0.217165D-01 -0.283916D-04 -0.258801D-03  0.595188D-02  0.140169D-05
               11            12            13            14            15 
     11  0.962830D+00
     12 -0.687879D-02  0.208484D+00
     13  0.789734D-01 -0.267857D-02  0.101103D+01
     14 -0.215039D+00  0.188001D-02  0.437889D-01  0.750545D+00
     15  0.432217D-02 -0.112120D+00 -0.109000D-01 -0.166313D-01  0.211725D+00
     16 -0.172661D-01  0.158148D-02 -0.331282D+00 -0.138510D+00  0.118547D-01
     17  0.260286D-01  0.386594D-04 -0.137314D+00 -0.211807D+00  0.795023D-02
     18 -0.190251D-02  0.314069D-01  0.133026D-01  0.956214D-02 -0.883583D-01
     19  0.104546D+00  0.784856D-02  0.689930D-02  0.274614D-01  0.169522D-02
     20 -0.329272D+00 -0.116631D-01  0.325495D-02  0.129276D-01 -0.789879D-03
     21 -0.159305D-01 -0.792743D-01  0.279742D-03  0.166331D-02  0.311081D-01
     22  0.154400D-05  0.283936D-03  0.189251D-05 -0.170514D-05 -0.896465D-04
     23  0.000000D+00 -0.124854D-03  0.000000D+00  0.000000D+00  0.398949D-04
     24  0.438902D-04  0.807123D-02 -0.103626D-03  0.933667D-04  0.490869D-02
     25  0.000000D+00  0.222348D-04  0.166287D-01  0.434013D-03 -0.106831D-03
     26  0.115273D-05  0.588529D-04  0.232497D-01  0.609430D-03 -0.162316D-04
     27  0.583065D-04  0.297684D-02 -0.420228D-03  0.268497D-03  0.142798D-01
               16            17            18            19            20 
     16  0.319397D+00
     17  0.155343D+00  0.186327D+00
     18 -0.131549D-01 -0.906323D-02  0.485985D-01
     19  0.273938D-05  0.153442D-04  0.251347D-03  0.133874D+00
     20  0.842612D-05  0.471975D-04  0.773124D-03 -0.116047D+00  0.323949D+00
     21 -0.139182D-03 -0.779605D-03 -0.127704D-01 -0.790505D-02  0.134412D-01
     22  0.000000D+00  0.000000D+00  0.000000D+00  0.000000D+00  0.000000D+00
     23  0.000000D+00  0.000000D+00  0.000000D+00  0.000000D+00  0.000000D+00
     24  0.000000D+00  0.000000D+00  0.000000D+00  0.000000D+00  0.000000D+00
     25 -0.122989D-05  0.000000D+00 -0.327057D-04  0.000000D+00  0.000000D+00
     26 -0.325537D-05 -0.177989D-05 -0.865683D-04  0.000000D+00  0.000000D+00
     27 -0.164660D-03 -0.900289D-04 -0.437871D-02  0.000000D+00  0.000000D+00
               21            22            23            24            25 
     21  0.440327D-01
     22  0.000000D+00  0.128188D+00
     23  0.000000D+00  0.111171D+00  0.330884D+00
     24  0.000000D+00 -0.482729D-03  0.191429D-03  0.390864D-01
     25  0.000000D+00 -0.213064D-05  0.000000D+00  0.116665D-03  0.276241D+00
     26  0.000000D+00 -0.151887D-05  0.000000D+00  0.831674D-04 -0.141178D+00
     27  0.000000D+00  0.156632D-03 -0.697048D-04 -0.857652D-02  0.135981D-02
               26            27 
     26  0.179771D+00
     27 -0.126553D-02  0.375788D-01
 Leave Link  716 at Tue Dec 15 16:25:42 2015, MaxMem=    33554432 cpu:         0.0
 (Enter /home/Applications/g09/g09/l103.exe)

 GradGradGradGradGradGradGradGradGradGradGradGradGradGradGradGradGradGrad
 Berny optimization.
 Search for a local minimum.
 Step number   1 out of a maximum of    2
 All quantities printed in internal units (Hartrees-Bohrs-Radians)
 Second derivative matrix not updated -- first step.
 ITU=  0
     Eigenvalues ---    0.01676   0.03592   0.07233   0.07899   0.08023
     Eigenvalues ---    0.09556   0.13170   0.13954   0.16739   0.26034
     Eigenvalues ---    0.27873   0.30773   0.38256   0.45201   0.66261
     Eigenvalues ---    0.88652   1.15916   1.38128   1.43278   1.66422
     Eigenvalues ---    1.87480
 Quadratic step=5.098D-01 exceeds max=3.000D-01 adjusted using Lamda=-2.390D-01.
 Angle between NR and scaled steps=  16.81 degrees.
 Angle between quadratic step and forces=  29.24 degrees.
 Linear search not attempted -- first point.
 TrRot= -0.010862 -0.001021  0.001474 -0.080944  0.000520  0.080443
 Variable       Old X    -DE/DX   Delta X   Delta X   Delta X     New X
                                 (Linear)    (Quad)   (Total)
    X1        1.84742   0.05154   0.00000   0.07893   0.06745   1.91487
    Y1       -1.33048   0.05415   0.00000   0.02873   0.02675  -1.30373
    Z1        0.05579  -0.00258   0.00000  -0.00458  -0.00416   0.05163
    X2       -0.71151   0.05970   0.00000   0.01175  -0.00014  -0.71165
    Y2       -1.99948  -0.12960   0.00000  -0.06706  -0.06773  -2.06721
    Z2        0.01449  -0.00065   0.00000   0.00702   0.00877   0.02326
    X3       -2.09876  -0.20180   0.00000  -0.19434  -0.20516  -2.30392
    Y3       -0.02116   0.03455   0.00000   0.00653   0.00666  -0.01450
    Z3        0.09389   0.00947   0.00000   0.00292   0.00559   0.09948
    X4       -0.68243  -0.00468   0.00000  -0.00760  -0.01740  -0.69982
    Y4        2.06314   0.10593   0.00000   0.06287   0.06220   2.12534
    Z4       -0.00949   0.00078   0.00000   0.00831   0.01023   0.00074
    X5        1.77463   0.08499   0.00000   0.10109   0.09092   1.86555
    Y5        1.44517  -0.08208   0.00000  -0.04525  -0.04721   1.39796
    Z5        0.00146  -0.00110   0.00000  -0.00381  -0.00325  -0.00179
    X6        3.40344   0.03297   0.00000   0.09835   0.08873   3.49216
    Y6        2.51955   0.02764   0.00000   0.04125   0.03848   2.55802
    Z6       -0.08189  -0.00079   0.00000  -0.00211  -0.00235  -0.08423
    X7       -1.54273  -0.01763   0.00000  -0.03295  -0.04181  -1.58453
    Y7        3.87867   0.01306   0.00000   0.05936   0.05913   3.93780
    Z7        0.08349  -0.00280   0.00000  -0.00956  -0.00710   0.07639
    X8       -1.52367  -0.01457   0.00000  -0.01399  -0.02680  -1.55047
    Y8       -3.83886  -0.01660   0.00000  -0.06757  -0.06782  -3.90668
    Z8        0.01461  -0.00286   0.00000  -0.00989  -0.00778   0.00683
    X9        3.48622   0.00949   0.00000   0.05629   0.04420   3.53042
    Y9       -2.50239  -0.00707   0.00000  -0.00765  -0.01045  -2.51283
    Z9        0.06671   0.00053   0.00000   0.00052   0.00005   0.06677
         Item               Value     Threshold  Converged?
 Maximum Force            0.201805     0.000450     NO 
 RMS     Force            0.059674     0.000300     NO 
 Maximum Displacement     0.205159     0.001800     NO 
 RMS     Displacement     0.057409     0.001200     NO 
 Predicted change in Energy=-5.137523D-02
 GradGradGradGradGradGradGradGradGradGradGradGradGradGradGradGradGradGrad

 Leave Link  103 at Tue Dec 15 16:25:42 2015, MaxMem=    33554432 cpu:         0.0
 (Enter /home/Applications/g09/g09/l9999.exe)
 1\1\GINC-DUSTIN-DESKTOP\Force\RAM1-FC\STO-3G\C4H4O1\DUSTIN\15-Dec-2015
 \0\\#P AM1(Input,print) CIS(Singlets,NStates=15) pop(full) force\\AM1-
 Reparam Input\\0,1\C,0.977613,-0.70406,0.029521\C,-0.376517,-1.058079,
 0.007668\O,-1.110617,-0.011197,0.049687\C,-0.361124,1.091768,-0.005023
 \C,0.939092,0.764749,0.00077\H,1.801021,1.333287,-0.043332\H,-0.816375
 ,2.052504,0.04418\H,-0.806289,-2.031435,0.00773\H,1.84483,-1.324207,0.
 035304\\Version=ES64L-G09RevD.01\State=1-A\HF=0.0350354\RMSD=9.417e-09
 \RMSF=5.967e-02\Dipole=0.151228,-0.1040191,-0.0298751\PG=C01 [X(C4H4O1
 )]\\@


 GETTING A SIMPLE ANSWER FROM A PROFESSOR IS LIKE
 GETTING A THIMBLE OF WATER FROM A FIRE HYDRANT.
     -- PROF. LEN SHAPIRO, NDSU
 Job cpu time:       0 days  0 hours  0 minutes  0.5 seconds.
 File lengths (MBytes):  RWF=      7 Int=      0 D2E=      0 Chk=      2 Scr=      1
 Normal termination of Gaussian 09 at Tue Dec 15 16:25:42 2015.
