 Entering Gaussian System, Link 0=g09
 Input=FuranAM1_73.com
 Output=FuranAM1_73.log
 Initial command:
 /home/Applications/g09/g09/l1.exe "/home/Applications/g09/scratch/Gau-6199.inp" -scrdir="/home/Applications/g09/scratch/"
 Entering Link 1 = /home/Applications/g09/g09/l1.exe PID=      6201.
  
 Copyright (c) 1988,1990,1992,1993,1995,1998,2003,2009,2013,
            Gaussian, Inc.  All Rights Reserved.
  
 This is part of the Gaussian(R) 09 program.  It is based on
 the Gaussian(R) 03 system (copyright 2003, Gaussian, Inc.),
 the Gaussian(R) 98 system (copyright 1998, Gaussian, Inc.),
 the Gaussian(R) 94 system (copyright 1995, Gaussian, Inc.),
 the Gaussian 92(TM) system (copyright 1992, Gaussian, Inc.),
 the Gaussian 90(TM) system (copyright 1990, Gaussian, Inc.),
 the Gaussian 88(TM) system (copyright 1988, Gaussian, Inc.),
 the Gaussian 86(TM) system (copyright 1986, Carnegie Mellon
 University), and the Gaussian 82(TM) system (copyright 1983,
 Carnegie Mellon University). Gaussian is a federally registered
 trademark of Gaussian, Inc.
  
 This software contains proprietary and confidential information,
 including trade secrets, belonging to Gaussian, Inc.
  
 This software is provided under written license and may be
 used, copied, transmitted, or stored only in accord with that
 written license.
  
 The following legend is applicable only to US Government
 contracts under FAR:
  
                    RESTRICTED RIGHTS LEGEND
  
 Use, reproduction and disclosure by the US Government is
 subject to restrictions as set forth in subparagraphs (a)
 and (c) of the Commercial Computer Software - Restricted
 Rights clause in FAR 52.227-19.
  
 Gaussian, Inc.
 340 Quinnipiac St., Bldg. 40, Wallingford CT 06492
  
  
 ---------------------------------------------------------------
 Warning -- This program may not be used in any manner that
 competes with the business of Gaussian, Inc. or will provide
 assistance to any competitor of Gaussian, Inc.  The licensee
 of this program is prohibited from giving any competitor of
 Gaussian, Inc. access to this program.  By using this program,
 the user acknowledges that Gaussian, Inc. is engaged in the
 business of creating and licensing software in the field of
 computational chemistry and represents and warrants to the
 licensee that it is not a competitor of Gaussian, Inc. and that
 it will not use this program in any manner prohibited above.
 ---------------------------------------------------------------
  

 Cite this work as:
 Gaussian 09, Revision D.01,
 M. J. Frisch, G. W. Trucks, H. B. Schlegel, G. E. Scuseria, 
 M. A. Robb, J. R. Cheeseman, G. Scalmani, V. Barone, B. Mennucci, 
 G. A. Petersson, H. Nakatsuji, M. Caricato, X. Li, H. P. Hratchian, 
 A. F. Izmaylov, J. Bloino, G. Zheng, J. L. Sonnenberg, M. Hada, 
 M. Ehara, K. Toyota, R. Fukuda, J. Hasegawa, M. Ishida, T. Nakajima, 
 Y. Honda, O. Kitao, H. Nakai, T. Vreven, J. A. Montgomery, Jr., 
 J. E. Peralta, F. Ogliaro, M. Bearpark, J. J. Heyd, E. Brothers, 
 K. N. Kudin, V. N. Staroverov, T. Keith, R. Kobayashi, J. Normand, 
 K. Raghavachari, A. Rendell, J. C. Burant, S. S. Iyengar, J. Tomasi, 
 M. Cossi, N. Rega, J. M. Millam, M. Klene, J. E. Knox, J. B. Cross, 
 V. Bakken, C. Adamo, J. Jaramillo, R. Gomperts, R. E. Stratmann, 
 O. Yazyev, A. J. Austin, R. Cammi, C. Pomelli, J. W. Ochterski, 
 R. L. Martin, K. Morokuma, V. G. Zakrzewski, G. A. Voth, 
 P. Salvador, J. J. Dannenberg, S. Dapprich, A. D. Daniels, 
 O. Farkas, J. B. Foresman, J. V. Ortiz, J. Cioslowski, 
 and D. J. Fox, Gaussian, Inc., Wallingford CT, 2013.
 
 ******************************************
 Gaussian 09:  ES64L-G09RevD.01 24-Apr-2013
                15-Dec-2015 
 ******************************************
 ------------------------------------------------------------
 #P AM1(Input,print) CIS(Singlets,NStates=15) pop(full) force
 ------------------------------------------------------------
 1/10=7,30=1,38=1/1,3;
 2/12=2,17=6,18=5,40=1/2;
 3/5=2,16=1,25=1,41=700000,71=1,135=100,136=1/1,2,8,3;
 4/35=1/1;
 5/5=2,35=1,38=5/2;
 8/6=1,10=1,108=15/1;
 9/15=2,41=15,42=1,48=1,49=10/14;
 10/5=4/2;
 6/7=3,18=1/1;
 7/12=6,13=5,29=1/1,2,3,16;
 1/10=7,30=1/3;
 99//99;
 Leave Link    1 at Tue Dec 15 16:25:40 2015, MaxMem=           0 cpu:         0.0
 (Enter /home/Applications/g09/g09/l101.exe)
 -----------------
 AM1-Reparam Input
 -----------------
 Symbolic Z-matrix:
 Charge =  0 Multiplicity = 1
 6                     0.95497  -0.74261  -0.00594 
 6                    -0.39148  -1.08427  -0.02195 
 8                    -1.15426   0.02118   0.04708 
 6                    -0.36401   1.11169  -0.00063 
 6                     0.92224   0.75686  -0.02273 
 1                     1.76399   1.36661  -0.03103 
 1                    -0.85172   2.0515   -0.01939 
 1                    -0.80868  -2.06776  -0.0326 
 1                     1.84077  -1.41495  -0.03913 
 
 NAtoms=      9 NQM=        9 NQMF=       0 NMMI=      0 NMMIF=      0
                NMic=       0 NMicF=      0.
                    Isotopes and Nuclear Properties:
 (Nuclear quadrupole moments (NQMom) in fm**2, nuclear magnetic moments (NMagM)
  in nuclear magnetons)

  Atom         1           2           3           4           5           6           7           8           9
 IAtWgt=          12          12          16          12          12           1           1           1           1
 AtmWgt=  12.0000000  12.0000000  15.9949146  12.0000000  12.0000000   1.0078250   1.0078250   1.0078250   1.0078250
 NucSpn=           0           0           0           0           0           1           1           1           1
 AtZEff=   0.0000000   0.0000000   0.0000000   0.0000000   0.0000000   0.0000000   0.0000000   0.0000000   0.0000000
 NQMom=    0.0000000   0.0000000   0.0000000   0.0000000   0.0000000   0.0000000   0.0000000   0.0000000   0.0000000
 NMagM=    0.0000000   0.0000000   0.0000000   0.0000000   0.0000000   2.7928460   2.7928460   2.7928460   2.7928460
 AtZNuc=   6.0000000   6.0000000   8.0000000   6.0000000   6.0000000   1.0000000   1.0000000   1.0000000   1.0000000
 Leave Link  101 at Tue Dec 15 16:25:40 2015, MaxMem=    33554432 cpu:         0.0
 (Enter /home/Applications/g09/g09/l103.exe)

 GradGradGradGradGradGradGradGradGradGradGradGradGradGradGradGradGradGrad
 Berny optimization.
 Initialization pass.
 Trust Radius=3.00D-01 FncErr=1.00D-07 GrdErr=1.00D-07
 Number of steps in this run=      2 maximum allowed number of steps=      2.
 GradGradGradGradGradGradGradGradGradGradGradGradGradGradGradGradGradGrad

 Leave Link  103 at Tue Dec 15 16:25:40 2015, MaxMem=    33554432 cpu:         0.0
 (Enter /home/Applications/g09/g09/l202.exe)
                          Input orientation:                          
 ---------------------------------------------------------------------
 Center     Atomic      Atomic             Coordinates (Angstroms)
 Number     Number       Type             X           Y           Z
 ---------------------------------------------------------------------
      1          6           0        0.954969   -0.742605   -0.005942
      2          6           0       -0.391483   -1.084273   -0.021952
      3          8           0       -1.154264    0.021184    0.047076
      4          6           0       -0.364013    1.111690   -0.000629
      5          6           0        0.922241    0.756863   -0.022733
      6          1           0        1.763988    1.366614   -0.031031
      7          1           0       -0.851715    2.051497   -0.019389
      8          1           0       -0.808683   -2.067763   -0.032601
      9          1           0        1.840769   -1.414950   -0.039133
 ---------------------------------------------------------------------
                    Distance matrix (angstroms):
                    1          2          3          4          5
     1  C    0.000000
     2  C    1.389218   0.000000
     3  O    2.243891   1.344855   0.000000
     4  C    2.275555   2.196238   1.347581   0.000000
     5  C    1.499919   2.261781   2.204080   1.334481   0.000000
     6  H    2.259191   3.263891   3.214417   2.143432   1.039424
     7  H    3.327355   3.169365   2.053807   1.058982   2.196135
     8  H    2.206178   1.068373   2.118838   3.210557   3.312810
     9  H    1.112561   2.256677   3.322670   3.353574   2.358121
                    6          7          8          9
     6  H    0.000000
     7  H    2.703905   0.000000
     8  H    4.291105   4.119506   0.000000
     9  H    2.782635   4.389318   2.728700   0.000000
 Stoichiometry    C4H4O
 Framework group  C1[X(C4H4O)]
 Deg. of freedom    21
 Full point group                 C1      NOp   1
 Largest Abelian subgroup         C1      NOp   1
 Largest concise Abelian subgroup C1      NOp   1
                         Standard orientation:                         
 ---------------------------------------------------------------------
 Center     Atomic      Atomic             Coordinates (Angstroms)
 Number     Number       Type             X           Y           Z
 ---------------------------------------------------------------------
      1          6           0       -0.885000    0.851222   -0.017525
      2          6           0       -1.028314   -0.529937    0.024752
      3          8           0        0.176282   -1.125813   -0.025403
      4          6           0        1.140646   -0.185201    0.009596
      5          6           0        0.603293    1.036301    0.004514
      6          1           0        1.084755    1.957468   -0.002401
      7          1           0        2.141008   -0.531214    0.041122
      8          1           0       -1.941124   -1.084861    0.040854
      9          1           0       -1.678640    1.630808   -0.004370
 ---------------------------------------------------------------------
 Rotational constants (GHZ):      9.4389745      9.1704752      4.6536153
 Leave Link  202 at Tue Dec 15 16:25:40 2015, MaxMem=    33554432 cpu:         0.0
 (Enter /home/Applications/g09/g09/l301.exe)

 Semi-emprical parameters in input format:
 Method=8 CoreType=1 PeptideFC=0.0114510000 RIJScale=0.5291770000
 ****
 H       
 PQN=1 NValence=1 F0ss=0.4721550000 ZetaOverlap=1.1880780000 U=-0.4188110000
 Beta=-0.2268830000 CoreKO=1.0589200000 KON=0,0,0,1.0589200000 KON=1,0,1,1.0589200000
 KON=0,1,1,1.0589200000 KON=2,1,1,1.0589200000 EISol=-0.4188110042 EHeat=0.0830298228
 Alpha=1.5252600000
 GCore=0.0085280000,1.4001430000,2.2676710000
 GCore=0.0003530000,1.4001430000,3.4015070000
 GCore=-0.0012730000,0.5600570000,3.9684250000
 ****
 C       
 PQN=2,2 NValence=4 F0ss=0.4494440000 F0sp=0.4215150000 F0pp=0.3768030000 F2pp=0.1898720000
 G1sp=0.2679030000
 ZetaOverlap=1.8086650000,1.6851160000
 U=-1.9120180000,-1.4557970000
 Beta=-0.5775440000,-0.2836780000 DDN=0,1,0.8236740000 DDN=1,1,0.7268010000
 CoreKO=1.1124280000 KON=0,0,0,1.1124280000 KON=1,0,1,0.8219700000 KON=0,1,1,1.1124280000
 KON=2,1,1,0.7783930000 EISol=-4.4398989268 EHeat=0.2723305520 Alpha=1.4014060000
 DipHyp=1.6472532266
 GCore=0.0007890000,1.4001430000,3.0235620000
 GCore=0.0031890000,1.4001430000,3.4959930000
 GCore=-0.0013930000,1.4001430000,3.8739390000
 GCore=-0.0000880000,1.4001430000,5.0077740000
 ****
 O       
 PQN=2,2 NValence=6 F0ss=0.5666750000 F0sp=0.5321300000 F0pp=0.4958710000 F2pp=0.2358080000
 G1sp=0.4343770000
 ZetaOverlap=3.1080320000,2.5240390000
 U=-3.5951870000,-2.8760900000
 Beta=-1.0757550000,-1.0757550000 DDN=0,1,0.4988900000 DDN=1,1,0.4852320000
 CoreKO=0.8822960000 KON=0,0,0,0.8822960000 KON=1,0,1,0.5019540000 KON=0,1,1,0.8822960000
 KON=2,1,1,0.5515580000 EISol=-11.6164441184 EHeat=0.0949133088 Alpha=2.3576810000
 DipHyp=0.9977225968
 GCore=0.0195120000,1.4001430000,1.6023330000
 GCore=0.0056550000,1.9602000000,2.7307880000
 ****
 
 Standard basis: VSTO-6G (5D, 7F)
 Ernie: Thresh=  0.10000D-02 Tol=  0.10000D-05 Strict=F.
  NNHCO=     0 NNPyr=     0 NCTC=     0               EPep=         0.000000000
    EC=        68.627384867  ECS=         1.815608466   EG=         0.364089386
   EHC=         0.000000000  EAt=       -31.051283842  AtH=         1.516354808
 EPDDG=         0.000000000  ECC=        70.807082719 EAtT=        32.567638650
 There are    24 symmetry adapted cartesian basis functions of A   symmetry.
 There are    24 symmetry adapted basis functions of A   symmetry.
    24 basis functions,   144 primitive gaussians,    24 cartesian basis functions
    13 alpha electrons       13 beta electrons
       nuclear repulsion energy       103.3747213690 Hartrees.
 IExCor=    0 DFT=F Ex=HF Corr=None ExCW=0 ScaHFX=  1.000000
 ScaDFX=  1.000000  1.000000  1.000000  1.000000 ScalE2=  1.000000  1.000000
 IRadAn=      0 IRanWt=     -1 IRanGd=            0 ICorTp=0 IEmpDi=  4
 Integral buffers will be    131072 words long.
 Regular integral format.
 Two-electron integral symmetry is turned off.
 Leave Link  301 at Tue Dec 15 16:25:40 2015, MaxMem=    33554432 cpu:         0.0
 (Enter /home/Applications/g09/g09/l302.exe)
 Do NDO integrals.
 NPDir=0 NMtPBC=     1 NCelOv=     1 NCel=       1 NClECP=     1 NCelD=      1
         NCelK=      1 NCelE2=     1 NClLst=     1 CellRange=     0.0.
 One-electron integrals computed using PRISM.
 NBasis=    24 RedAO= F EigKep=  0.00D+00  NBF=    24
 NBsUse=    24 1.00D-04 EigRej=  0.00D+00 NBFU=    24
 Leave Link  302 at Tue Dec 15 16:25:40 2015, MaxMem=    33554432 cpu:         0.0
 (Enter /home/Applications/g09/g09/l308.exe)
 Leave Link  308 at Tue Dec 15 16:25:40 2015, MaxMem=    33554432 cpu:         0.0
 (Enter /home/Applications/g09/g09/l303.exe)
 DipDrv:  MaxL=1.
 Leave Link  303 at Tue Dec 15 16:25:40 2015, MaxMem=    33554432 cpu:         0.0
 (Enter /home/Applications/g09/g09/l401.exe)
 Simple Huckel Guess.
 JPrj=0 DoOrth=F DoCkMO=F.
 Leave Link  401 at Tue Dec 15 16:25:40 2015, MaxMem=    33554432 cpu:         0.0
 (Enter /home/Applications/g09/g09/l502.exe)
 Closed shell SCF:
 Using DIIS extrapolation, IDIIS=  1040.
 Overlap will be assumed to be unity.
 Two-electron integral symmetry not used.
 Keep J ints in memory in canonical form, NReq=888082.
 IVT=       79475 IEndB=       79475 NGot=    33554432 MDV=    33473473
 LenX=    33473473 LenY=    33472456
 Requested convergence on RMS density matrix=1.00D-08 within 128 cycles.
 Requested convergence on MAX density matrix=1.00D-06.
 Requested convergence on             energy=1.00D-06.
 No special actions if energy rises.
 FoFCou: FMM=F IPFlag=           0 FMFlag=           0 FMFlg1=           0
         NFxFlg=           0 DoJE=F BraDBF=F KetDBF=F FulRan=T
         wScrn=  0.000000 ICntrl=     600 IOpCl=  2 I1Cent=           0 NGrid=           0
         NMat0=    1 NMatS0=     54 NMatT0=    0 NMatD0=    1 NMtDS0=    0 NMtDT0=    0
 Symmetry not used in FoFCou.

 Cycle   1  Pass 1  IDiag  1:
 E= 0.335039746285958    
 DIIS: error= 6.10D-02 at cycle   1 NSaved=   1.
 NSaved= 1 IEnMin= 1 EnMin= 0.335039746285958     IErMin= 1 ErrMin= 6.10D-02
 ErrMax= 6.10D-02  0.00D+00 EMaxC= 1.00D-01 BMatC= 1.12D-01 BMatP= 1.12D-01
 IDIUse=3 WtCom= 3.90D-01 WtEn= 6.10D-01
 Coeff-Com:  0.100D+01
 Coeff-En:   0.100D+01
 Coeff:      0.100D+01
 GapD=    2.000 DampG=2.000 DampE=0.500 DampFc=1.0000 IDamp=-1.
 RMSDP=1.95D-02 MaxDP=1.64D-01              OVMax= 0.00D+00

 Cycle   2  Pass 1  IDiag  1:
 E= 0.553981714039651E-01 Delta-E=       -0.279641574882 Rises=F Damp=F
 DIIS: error= 2.01D-02 at cycle   2 NSaved=   2.
 NSaved= 2 IEnMin= 2 EnMin= 0.553981714039651E-01 IErMin= 2 ErrMin= 2.01D-02
 ErrMax= 2.01D-02  0.00D+00 EMaxC= 1.00D-01 BMatC= 9.77D-03 BMatP= 1.12D-01
 IDIUse=3 WtCom= 7.99D-01 WtEn= 2.01D-01
 Coeff-Com: -0.357D+00 0.136D+01
 Coeff-En:   0.000D+00 0.100D+01
 Coeff:     -0.286D+00 0.129D+01
 RMSDP=8.32D-03 MaxDP=7.58D-02 DE=-2.80D-01 OVMax= 0.00D+00

 Cycle   3  Pass 1  IDiag  1:
 E= 0.236927577629444E-01 Delta-E=       -0.031705413641 Rises=F Damp=F
 DIIS: error= 4.05D-03 at cycle   3 NSaved=   3.
 NSaved= 3 IEnMin= 3 EnMin= 0.236927577629444E-01 IErMin= 3 ErrMin= 4.05D-03
 ErrMax= 4.05D-03  0.00D+00 EMaxC= 1.00D-01 BMatC= 4.21D-04 BMatP= 9.77D-03
 IDIUse=3 WtCom= 9.59D-01 WtEn= 4.05D-02
 Coeff-Com:  0.123D+00-0.569D+00 0.145D+01
 Coeff-En:   0.000D+00 0.000D+00 0.100D+01
 Coeff:      0.118D+00-0.546D+00 0.143D+01
 RMSDP=2.68D-03 MaxDP=3.16D-02 DE=-3.17D-02 OVMax= 0.00D+00

 Cycle   4  Pass 1  IDiag  3:
 E= 0.213745971961714E-01 Delta-E=       -0.002318160567 Rises=F Damp=F
 DIIS: error= 1.30D-03 at cycle   4 NSaved=   4.
 NSaved= 4 IEnMin= 4 EnMin= 0.213745971961714E-01 IErMin= 4 ErrMin= 1.30D-03
 ErrMax= 1.30D-03  0.00D+00 EMaxC= 1.00D-01 BMatC= 3.45D-05 BMatP= 4.21D-04
 IDIUse=3 WtCom= 9.87D-01 WtEn= 1.30D-02
 Coeff-Com:  0.159D-01-0.493D-01-0.250D+00 0.128D+01
 Coeff-En:   0.000D+00 0.000D+00 0.000D+00 0.100D+01
 Coeff:      0.157D-01-0.487D-01-0.247D+00 0.128D+01
 Gap=     0.384 Goal=   None    Shift=    0.000
 RMSDP=9.45D-04 MaxDP=1.19D-02 DE=-2.32D-03 OVMax= 1.12D-02

 Cycle   5  Pass 1  IDiag  3:
 E= 0.211594758195446E-01 Delta-E=       -0.000215121377 Rises=F Damp=F
 DIIS: error= 1.89D-04 at cycle   5 NSaved=   5.
 NSaved= 5 IEnMin= 5 EnMin= 0.211594758195446E-01 IErMin= 5 ErrMin= 1.89D-04
 ErrMax= 1.89D-04  0.00D+00 EMaxC= 1.00D-01 BMatC= 1.76D-06 BMatP= 3.45D-05
 IDIUse=3 WtCom= 9.98D-01 WtEn= 1.89D-03
 Coeff-Com: -0.825D-02 0.312D-01 0.398D-01-0.485D+00 0.142D+01
 Coeff-En:   0.000D+00 0.000D+00 0.000D+00 0.000D+00 0.100D+01
 Coeff:     -0.823D-02 0.311D-01 0.397D-01-0.484D+00 0.142D+01
 Gap=     0.384 Goal=   None    Shift=    0.000
 RMSDP=2.31D-04 MaxDP=2.03D-03 DE=-2.15D-04 OVMax= 2.26D-03

 Cycle   6  Pass 1  IDiag  3:
 E= 0.211472540479889E-01 Delta-E=       -0.000012221772 Rises=F Damp=F
 DIIS: error= 8.41D-05 at cycle   6 NSaved=   6.
 NSaved= 6 IEnMin= 6 EnMin= 0.211472540479889E-01 IErMin= 6 ErrMin= 8.41D-05
 ErrMax= 8.41D-05  0.00D+00 EMaxC= 1.00D-01 BMatC= 1.57D-07 BMatP= 1.76D-06
 IDIUse=1 WtCom= 1.00D+00 WtEn= 0.00D+00
 Coeff-Com:  0.305D-02-0.116D-01-0.422D-02 0.147D+00-0.643D+00 0.151D+01
 Coeff:      0.305D-02-0.116D-01-0.422D-02 0.147D+00-0.643D+00 0.151D+01
 Gap=     0.384 Goal=   None    Shift=    0.000
 RMSDP=8.24D-05 MaxDP=6.94D-04 DE=-1.22D-05 OVMax= 1.07D-03

 Cycle   7  Pass 1  IDiag  3:
 E= 0.211458883927804E-01 Delta-E=       -0.000001365655 Rises=F Damp=F
 DIIS: error= 3.30D-05 at cycle   7 NSaved=   7.
 NSaved= 7 IEnMin= 7 EnMin= 0.211458883927804E-01 IErMin= 7 ErrMin= 3.30D-05
 ErrMax= 3.30D-05  0.00D+00 EMaxC= 1.00D-01 BMatC= 1.60D-08 BMatP= 1.57D-07
 IDIUse=1 WtCom= 1.00D+00 WtEn= 0.00D+00
 Coeff-Com: -0.607D-03 0.179D-02 0.253D-02-0.360D-01 0.178D+00-0.708D+00
 Coeff-Com:  0.156D+01
 Coeff:     -0.607D-03 0.179D-02 0.253D-02-0.360D-01 0.178D+00-0.708D+00
 Coeff:      0.156D+01
 Gap=     0.384 Goal=   None    Shift=    0.000
 RMSDP=3.31D-05 MaxDP=3.13D-04 DE=-1.37D-06 OVMax= 4.09D-04

 Cycle   8  Pass 1  IDiag  3:
 E= 0.211457291054131E-01 Delta-E=       -0.000000159287 Rises=F Damp=F
 DIIS: error= 7.12D-06 at cycle   8 NSaved=   8.
 NSaved= 8 IEnMin= 8 EnMin= 0.211457291054131E-01 IErMin= 8 ErrMin= 7.12D-06
 ErrMax= 7.12D-06  0.00D+00 EMaxC= 1.00D-01 BMatC= 8.24D-10 BMatP= 1.60D-08
 IDIUse=1 WtCom= 1.00D+00 WtEn= 0.00D+00
 Coeff-Com:  0.421D-04 0.170D-03-0.173D-02 0.930D-02-0.462D-01 0.241D+00
 Coeff-Com: -0.744D+00 0.154D+01
 Coeff:      0.421D-04 0.170D-03-0.173D-02 0.930D-02-0.462D-01 0.241D+00
 Coeff:     -0.744D+00 0.154D+01
 Gap=     0.384 Goal=   None    Shift=    0.000
 RMSDP=7.47D-06 MaxDP=7.25D-05 DE=-1.59D-07 OVMax= 8.75D-05

 Cycle   9  Pass 1  IDiag  3:
 E= 0.211457216490771E-01 Delta-E=       -0.000000007456 Rises=F Damp=F
 DIIS: error= 8.88D-07 at cycle   9 NSaved=   9.
 NSaved= 9 IEnMin= 9 EnMin= 0.211457216490771E-01 IErMin= 9 ErrMin= 8.88D-07
 ErrMax= 8.88D-07  0.00D+00 EMaxC= 1.00D-01 BMatC= 2.93D-11 BMatP= 8.24D-10
 IDIUse=1 WtCom= 1.00D+00 WtEn= 0.00D+00
 Coeff-Com:  0.200D-04-0.194D-03 0.521D-03-0.150D-02 0.842D-02-0.624D-01
 Coeff-Com:  0.228D+00-0.600D+00 0.143D+01
 Coeff:      0.200D-04-0.194D-03 0.521D-03-0.150D-02 0.842D-02-0.624D-01
 Coeff:      0.228D+00-0.600D+00 0.143D+01
 Gap=     0.384 Goal=   None    Shift=    0.000
 RMSDP=1.02D-06 MaxDP=8.46D-06 DE=-7.46D-09 OVMax= 1.32D-05

 Cycle  10  Pass 1  IDiag  3:
 E= 0.211457214589501E-01 Delta-E=       -0.000000000190 Rises=F Damp=F
 DIIS: error= 1.72D-07 at cycle  10 NSaved=  10.
 NSaved=10 IEnMin=10 EnMin= 0.211457214589501E-01 IErMin=10 ErrMin= 1.72D-07
 ErrMax= 1.72D-07  0.00D+00 EMaxC= 1.00D-01 BMatC= 1.62D-12 BMatP= 2.93D-11
 IDIUse=1 WtCom= 1.00D+00 WtEn= 0.00D+00
 Coeff-Com: -0.121D-04 0.985D-04-0.248D-03 0.615D-03-0.303D-02 0.241D-01
 Coeff-Com: -0.907D-01 0.246D+00-0.718D+00 0.154D+01
 Coeff:     -0.121D-04 0.985D-04-0.248D-03 0.615D-03-0.303D-02 0.241D-01
 Coeff:     -0.907D-01 0.246D+00-0.718D+00 0.154D+01
 Gap=     0.384 Goal=   None    Shift=    0.000
 RMSDP=2.22D-07 MaxDP=1.36D-06 DE=-1.90D-10 OVMax= 2.39D-06

 Cycle  11  Pass 1  IDiag  3:
 E= 0.211457214493009E-01 Delta-E=       -0.000000000010 Rises=F Damp=F
 DIIS: error= 2.94D-08 at cycle  11 NSaved=  11.
 NSaved=11 IEnMin=11 EnMin= 0.211457214493009E-01 IErMin=11 ErrMin= 2.94D-08
 ErrMax= 2.94D-08  0.00D+00 EMaxC= 1.00D-01 BMatC= 5.14D-14 BMatP= 1.62D-12
 IDIUse=1 WtCom= 1.00D+00 WtEn= 0.00D+00
 Coeff-Com:  0.408D-05-0.335D-04 0.848D-04-0.216D-03 0.978D-03-0.786D-02
 Coeff-Com:  0.296D-01-0.792D-01 0.240D+00-0.619D+00 0.144D+01
 Coeff:      0.408D-05-0.335D-04 0.848D-04-0.216D-03 0.978D-03-0.786D-02
 Coeff:      0.296D-01-0.792D-01 0.240D+00-0.619D+00 0.144D+01
 Gap=     0.384 Goal=   None    Shift=    0.000
 RMSDP=3.56D-08 MaxDP=1.90D-07 DE=-9.65D-12 OVMax= 2.19D-07

 Cycle  12  Pass 1  IDiag  3:
 E= 0.211457214490451E-01 Delta-E=        0.000000000000 Rises=F Damp=F
 DIIS: error= 5.24D-09 at cycle  12 NSaved=  12.
 NSaved=12 IEnMin=12 EnMin= 0.211457214490451E-01 IErMin=12 ErrMin= 5.24D-09
 ErrMax= 5.24D-09  0.00D+00 EMaxC= 1.00D-01 BMatC= 2.14D-15 BMatP= 5.14D-14
 IDIUse=1 WtCom= 1.00D+00 WtEn= 0.00D+00
 Coeff-Com: -0.767D-06 0.624D-05-0.155D-04 0.406D-04-0.159D-03 0.133D-02
 Coeff-Com: -0.500D-02 0.130D-01-0.410D-01 0.119D+00-0.421D+00 0.133D+01
 Coeff:     -0.767D-06 0.624D-05-0.155D-04 0.406D-04-0.159D-03 0.133D-02
 Coeff:     -0.500D-02 0.130D-01-0.410D-01 0.119D+00-0.421D+00 0.133D+01
 Gap=     0.384 Goal=   None    Shift=    0.000
 RMSDP=7.28D-09 MaxDP=4.56D-08 DE=-2.56D-13 OVMax= 3.94D-08

 Cycle  13  Pass 2  IDiag  1:
 SCF Done:  E(RAM1) =  0.211457214490E-01 A.U. after   13 cycles
            NFock= 12  Conv=0.73D-08     -V/T= 1.0013
 KE=-1.655509963996D+01 PE=-1.708668756636D+02 EE= 8.406839965608D+01
 Leave Link  502 at Tue Dec 15 16:25:40 2015, MaxMem=    33554432 cpu:         0.0
 (Enter /home/Applications/g09/g09/l801.exe)
 Range of M.O.s used for correlation:     1    24
 NBasis=    24 NAE=    13 NBE=    13 NFC=     0 NFV=     0
 NROrb=     24 NOA=    13 NOB=    13 NVA=    11 NVB=    11
 Leave Link  801 at Tue Dec 15 16:25:40 2015, MaxMem=    33554432 cpu:         0.0
 (Enter /home/Applications/g09/g09/l914.exe)
 RHF ground state
 MDV=    33554432 DFT=F DoStab=F Mixed=F DoRPA=F DoScal=F NonHer=F
 Making orbital integer symmetry assigments:
 Orbital symmetries:
       Occupied  (A) (A) (A) (A) (A) (A) (A) (A) (A) (A) (A) (A)
                 (A)
       Virtual   (A) (A) (A) (A) (A) (A) (A) (A) (A) (A) (A)
    60 initial guesses have been made.
 Convergence on wavefunction:    0.000001000000000
 Davidson Disk Diagonalization:  ConvIn= 1.00D-06 SkipCon=T Conv= 1.00D-06.
 Max sub-space:   240 roots to seek:    60 dimension of matrix:          286
 Iteration     1 Dimension    60 NMult     0 NNew     60
 CISAX will form    60 AO SS matrices at one time.
 NMat=    60 NSing=    60 JSym2X= 0.
 FoFJK:  IHMeth= 8 ICntrl=       0 DoSepK=F KAlg= 0 I1Cent=   0 FoldK=F
 IRaf=         1 NMat= 120 IRICut=       1 DoRegI=T DoRafI=F ISym2E= 0.
 FoFCou: FMM=F IPFlag=           0 FMFlag=      100000 FMFlg1=           0
         NFxFlg=           0 DoJE=F BraDBF=F KetDBF=F FulRan=T
         wScrn=  0.000000 ICntrl=       0 IOpCl=  0 I1Cent=           0 NGrid=           0
         NMat0=  120 NMatS0=     60 NMatT0=    0 NMatD0=  120 NMtDS0=    0 NMtDT0=    0
 Symmetry not used in FoFCou.
 New state      2 was old state      4
 New state      3 was old state      2
 New state      4 was old state      6
 New state      5 was old state      8
 New state      6 was old state      5
 New state      7 was old state      3
 New state      8 was old state      9
 New state      9 was old state      7
 New state     10 was old state     11
 New state     11 was old state     10
 New state     12 was old state     13
 New state     13 was old state     17
 New state     14 was old state     16
 Excitation Energies [eV] at current iteration:
 Root      1 :     4.640685774866978
 Root      2 :     5.015535313859838
 Root      3 :     5.078228697280241
 Root      4 :     5.795501929750185
 Root      5 :     5.970994699779127
 Root      6 :     6.146498390814297
 Root      7 :     6.327754261591689
 Root      8 :     6.340825708419481
 Root      9 :     6.498797086020469
 Root     10 :     6.833888346511814
 Root     11 :     7.019307253716424
 Root     12 :     7.324363833348060
 Root     13 :     7.496698406620291
 Root     14 :     7.610054384813511
 Root     15 :     7.724616722247579
 Root     16 :     7.757232408932174
 Root     17 :     7.902339008318382
 Root     18 :     7.973587201935451
 Root     19 :     8.172465725912510
 Root     20 :     8.444649905946385
 Root     21 :     8.526754401280687
 Root     22 :     8.926534904491316
 Root     23 :     8.960946781049762
 Root     24 :     9.088217902769479
 Root     25 :     9.247720954511456
 Root     26 :     9.425845331855502
 Root     27 :     9.501085537553363
 Root     28 :     9.507134297285708
 Root     29 :     9.651830791262768
 Root     30 :     9.751625461561561
 Root     31 :     9.819523452007701
 Root     32 :     9.917294069148952
 Root     33 :     9.973306790669989
 Root     34 :    10.225684244592110
 Root     35 :    10.281569663663310
 Root     36 :    10.297148144347070
 Root     37 :    10.526857351594840
 Root     38 :    10.651336654696190
 Root     39 :    10.845006654398330
 Root     40 :    11.023371245345960
 Root     41 :    11.104281004563910
 Root     42 :    11.214708396839380
 Root     43 :    11.271591079023560
 Root     44 :    11.285411408554080
 Root     45 :    11.315660796716040
 Root     46 :    11.500021343077990
 Root     47 :    11.656497186844220
 Root     48 :    11.712096407889580
 Root     49 :    11.839445174420660
 Root     50 :    12.041975568380390
 Root     51 :    12.276334913793640
 Root     52 :    12.492429478304440
 Root     53 :    12.586054557046760
 Root     54 :    12.769641248584700
 Root     55 :    13.122574151303400
 Root     56 :    13.299153707946880
 Root     57 :    13.409168421471590
 Root     58 :    13.586282581464050
 Root     59 :    13.675497911999550
 Root     60 :    13.899024692550760
 Iteration     2 Dimension   120 NMult    60 NNew     60
 CISAX will form    60 AO SS matrices at one time.
 NMat=    60 NSing=    60 JSym2X= 0.
 Root      1 not converged, maximum delta is    0.037241256978524
 Root      2 not converged, maximum delta is    0.037905221736762
 Root      3 not converged, maximum delta is    0.043499424288448
 Root      4 not converged, maximum delta is    0.054222049237586
 Root      5 not converged, maximum delta is    0.037422130863910
 Root      6 not converged, maximum delta is    0.085203585355469
 Root      7 not converged, maximum delta is    0.198521303422952
 Root      8 not converged, maximum delta is    0.266621539894591
 Root      9 not converged, maximum delta is    0.043826226274959
 Root     10 not converged, maximum delta is    0.049831388416383
 Root     11 not converged, maximum delta is    0.030781808788671
 Root     12 not converged, maximum delta is    0.043099070152431
 Root     13 not converged, maximum delta is    0.056203531209773
 Root     14 not converged, maximum delta is    0.054179567163123
 Root     15 not converged, maximum delta is    0.213695274407418
 Excitation Energies [eV] at current iteration:
 Root      1 :     4.571888085059199   Change is   -0.068797689807779
 Root      2 :     4.985912499951844   Change is   -0.029622813907994
 Root      3 :     5.062096911523954   Change is   -0.016131785756286
 Root      4 :     5.722620283118975   Change is   -0.072881646631210
 Root      5 :     5.867968207084612   Change is   -0.103026492694515
 Root      6 :     6.066311236938829   Change is   -0.080187153875467
 Root      7 :     6.200600991046151   Change is   -0.127153270545538
 Root      8 :     6.212736275474624   Change is   -0.128089432944857
 Root      9 :     6.456904767782699   Change is   -0.041892318237769
 Root     10 :     6.756214853353057   Change is   -0.077673493158758
 Root     11 :     6.946517856363148   Change is   -0.072789397353277
 Root     12 :     7.237375402923070   Change is   -0.086988430424990
 Root     13 :     7.388558883263578   Change is   -0.108139523356714
 Root     14 :     7.560482725614412   Change is   -0.049571659199100
 Root     15 :     7.653034704321755   Change is   -0.071582017925824
 Root     16 :     7.669038972548589   Change is   -0.088193436383585
 Root     17 :     7.822365479747847   Change is   -0.079973528570535
 Root     18 :     7.850936827478133   Change is   -0.122650374457318
 Root     19 :     8.031500777567178   Change is   -0.140964948345332
 Root     20 :     8.155452069961665   Change is   -0.289197835984721
 Root     21 :     8.393810986034984   Change is   -0.132943415245704
 Root     22 :     8.781000682431070   Change is   -0.145534222060246
 Root     23 :     8.856709100646912   Change is   -0.391011853864544
 Root     24 :     8.906759902816571   Change is   -0.054186878233191
 Root     25 :     8.996169117376265   Change is   -0.092048785393214
 Root     26 :     9.164703422475744   Change is   -0.336382115077619
 Root     27 :     9.299992506848769   Change is   -0.125852825006733
 Root     28 :     9.381770269247141   Change is   -0.369855192314419
 Root     29 :     9.488041951812578   Change is   -0.163788839450188
 Root     30 :     9.499554076561772   Change is   -0.007580220723936
 Root     31 :     9.619677770147998   Change is   -0.606006474444114
 Root     32 :     9.644063725780356   Change is   -0.175459726227344
 Root     33 :     9.658591888313154   Change is   -0.314714902356834
 Root     34 :     9.751935065212995   Change is   -0.165359003935956
 Root     35 :     9.806734394350858   Change is   -0.490413749996212
 Root     36 :    10.100135502707340   Change is   -0.181434160955972
 Root     37 :    10.184071444685280   Change is   -0.342785906909564
 Root     38 :    10.235800204673930   Change is   -0.415536450022256
 Root     39 :    10.277444952702380   Change is   -0.567561701695949
 Root     40 :    10.583390319498160   Change is   -0.439980925847802
 Root     41 :    10.739192020234840   Change is   -0.475516376604542
 Root     42 :    10.783872005549680   Change is   -0.320408999014226
 Root     43 :    10.881075074562300   Change is   -0.434585722153740
 Root     44 :    10.932426032354620   Change is   -0.352985376199456
 Root     45 :    11.129439885160200   Change is   -0.142151193863354
 Root     46 :    11.173478884403510   Change is   -0.326542458674484
 Root     47 :    11.326075789553910   Change is   -0.330421397290309
 Root     48 :    11.356173124302230   Change is   -0.355923283587343
 Root     49 :    11.591683593340730   Change is   -0.247761581079921
 Root     50 :    11.802524153583900   Change is   -0.239451414796490
 Root     51 :    11.996899944647640   Change is   -0.279434969145998
 Root     52 :    12.057863189252420   Change is   -0.434566289052013
 Root     53 :    12.310316828182470   Change is   -0.275737728864284
 Root     54 :    12.392113182388940   Change is   -0.377528066195756
 Root     55 :    12.853525022502470   Change is   -0.269049128800928
 Root     56 :    12.966893488063660   Change is   -0.332260219883218
 Root     57 :    13.031288772689590   Change is   -0.377879648782004
 Root     58 :    13.093807669374230   Change is   -0.581690242625319
 Root     59 :    13.165002756204880
 Root     60 :    13.178068093034460
 Iteration     3 Dimension   135 NMult   120 NNew     15
 CISAX will form    15 AO SS matrices at one time.
 NMat=    15 NSing=    15 JSym2X= 0.
 Root      1 not converged, maximum delta is    0.000822628324862
 Root      2 not converged, maximum delta is    0.000206180278786
 Root      3 not converged, maximum delta is    0.000337203629972
 Root      4 not converged, maximum delta is    0.000073055361215
 Root      5 not converged, maximum delta is    0.000190564390822
 Root      6 not converged, maximum delta is    0.000803872536176
 Root      7 not converged, maximum delta is    0.001168765879948
 Root      8 not converged, maximum delta is    0.000698387832033
 Root      9 not converged, maximum delta is    0.000256977937169
 Root     10 not converged, maximum delta is    0.000135860572192
 Root     11 not converged, maximum delta is    0.000374514842619
 Root     12 not converged, maximum delta is    0.000322282677832
 Root     13 not converged, maximum delta is    0.000841853804948
 Root     14 not converged, maximum delta is    0.000151349150200
 Root     15 not converged, maximum delta is    0.001045832612132
 Excitation Energies [eV] at current iteration:
 Root      1 :     4.571754076343635   Change is   -0.000134008715564
 Root      2 :     4.985903391685750   Change is   -0.000009108266094
 Root      3 :     5.062068874018613   Change is   -0.000028037505342
 Root      4 :     5.722617610769626   Change is   -0.000002672349350
 Root      5 :     5.867961097205887   Change is   -0.000007109878725
 Root      6 :     6.066073662850594   Change is   -0.000237574088235
 Root      7 :     6.200271734326635   Change is   -0.000329256719517
 Root      8 :     6.212720602913317   Change is   -0.000015672561307
 Root      9 :     6.456889426786452   Change is   -0.000015340996247
 Root     10 :     6.756211034123689   Change is   -0.000003819229367
 Root     11 :     6.946498996467214   Change is   -0.000018859895934
 Root     12 :     7.237361274090306   Change is   -0.000014128832764
 Root     13 :     7.388485000958195   Change is   -0.000073882305382
 Root     14 :     7.560477339112410   Change is   -0.000005386502002
 Root     15 :     7.652975797577644   Change is   -0.000058906744111
 Iteration     4 Dimension   143 NMult   135 NNew      8
 CISAX will form     8 AO SS matrices at one time.
 NMat=     8 NSing=     8 JSym2X= 0.
 Root      1 not converged, maximum delta is    0.000028106081437
 Root      2 not converged, maximum delta is    0.000005451227015
 Root      3 not converged, maximum delta is    0.000007034750747
 Root      4 not converged, maximum delta is    0.000006652251213
 Root      5 not converged, maximum delta is    0.000005745495534
 Root      6 not converged, maximum delta is    0.000079713029672
 Root      7 not converged, maximum delta is    0.000129273605180
 Root      8 not converged, maximum delta is    0.000011083167390
 Root      9 not converged, maximum delta is    0.000019461484444
 Root     10 not converged, maximum delta is    0.000006057326344
 Root     11 not converged, maximum delta is    0.000005552074103
 Root     12 not converged, maximum delta is    0.000007321118827
 Root     13 not converged, maximum delta is    0.000011011330161
 Root     14 not converged, maximum delta is    0.000006162099941
 Root     15 not converged, maximum delta is    0.000010632291924
 Excitation Energies [eV] at current iteration:
 Root      1 :     4.571753843896653   Change is   -0.000000232446982
 Root      2 :     4.985903387142078   Change is   -0.000000004543672
 Root      3 :     5.062068859439585   Change is   -0.000000014579028
 Root      4 :     5.722617603123139   Change is   -0.000000007646487
 Root      5 :     5.867961087374417   Change is   -0.000000009831470
 Root      6 :     6.066072229756383   Change is   -0.000001433094211
 Root      7 :     6.200268654417076   Change is   -0.000003079909559
 Root      8 :     6.212720578506451   Change is   -0.000000024406866
 Root      9 :     6.456889348944589   Change is   -0.000000077841863
 Root     10 :     6.756211024907448   Change is   -0.000000009216241
 Root     11 :     6.946498983923723   Change is   -0.000000012543491
 Root     12 :     7.237361260087934   Change is   -0.000000014002372
 Root     13 :     7.388484955427720   Change is   -0.000000045530475
 Root     14 :     7.560477325927866   Change is   -0.000000013184544
 Root     15 :     7.652975759187711   Change is   -0.000000038389933
 Convergence achieved on expansion vectors.
 ***********************************************************************
 Excited states from <AA,BB:AA,BB> singles matrix:
 ***********************************************************************
 
 1PDM for each excited state written to RWF  633
 Ground to excited state transition densities written to RWF  633
 Ground to excited state transition electric dipole moments (Au):
       state          X           Y           Z        Dip. S.      Osc.
         1         0.6963      0.2971     -0.0506      0.5756      0.0645
         2        -0.0556     -0.0859      0.0405      0.0121      0.0015
         3        -0.0970      0.1521     -0.0276      0.0333      0.0041
         4         0.0116      0.0846      0.1077      0.0189      0.0026
         5         0.0212      0.0413     -0.0222      0.0026      0.0004
         6        -0.9568      0.6203     -0.0335      1.3013      0.1934
         7        -0.1405     -1.4823      0.0331      2.2179      0.3369
         8         0.0078      0.1143     -0.0232      0.0137      0.0021
         9        -0.0495      0.2284      0.0935      0.0634      0.0100
        10        -0.0519     -0.0502     -0.0053      0.0052      0.0009
        11        -0.0734      0.0555      0.0730      0.0138      0.0023
        12         0.0267      0.0112      0.1609      0.0267      0.0047
        13        -0.0282     -0.0470      0.0217      0.0035      0.0006
        14        -0.0268     -0.0210      0.1670      0.0291      0.0054
        15         0.0041      0.0245      0.0976      0.0101      0.0019
 Ground to excited state transition velocity dipole moments (Au):
       state          X           Y           Z        Dip. S.      Osc.
         1        -0.0321     -0.0311      0.0101      0.0021      0.0083
         2        -0.0040      0.0037     -0.0062      0.0001      0.0002
         3         0.0091     -0.0003      0.0131      0.0003      0.0009
         4        -0.0019     -0.0128     -0.0794      0.0065      0.0205
         5        -0.0021     -0.0093      0.0158      0.0003      0.0011
         6         0.1582     -0.1290      0.0150      0.0419      0.1253
         7         0.0203      0.2987     -0.0248      0.0903      0.2641
         8        -0.0004     -0.0262     -0.0058      0.0007      0.0021
         9         0.0102     -0.0489     -0.1584      0.0276      0.0775
        10         0.0060      0.0097      0.0621      0.0040      0.0107
        11         0.0144     -0.0143      0.0447      0.0024      0.0063
        12        -0.0050     -0.0069      0.0090      0.0002      0.0004
        13         0.0063      0.0128      0.0047      0.0002      0.0006
        14         0.0066     -0.0009     -0.0403      0.0017      0.0040
        15         0.0002     -0.0004      0.0744      0.0055      0.0131
 Ground to excited state transition magnetic dipole moments (Au):
       state          X           Y           Z
         1         0.0127     -0.0339      0.6821
         2         0.0795     -0.5585     -0.0219
         3         0.0647     -0.1582     -0.0060
         4         0.1166      0.1572      0.0032
         5        -0.3263      0.0879     -0.0123
         6        -0.0938      0.0767     -0.0772
         7         0.0412      0.0235      0.0647
         8        -0.1812     -0.1601     -0.0027
         9         0.0946     -0.3051      0.0038
        10         0.0625     -0.6559      0.0202
        11         1.5766     -0.2817     -0.0177
        12         0.5584      0.6377     -0.0055
        13        -0.5993     -0.8194     -0.0249
        14        -0.5277      0.2202      0.0013
        15         0.2960      0.1671      0.0096
 Ground to excited state transition velocity quadrupole moments (Au):
       state          XX          YY          ZZ          XY          XZ          YZ
         1        -0.1313      0.1333     -0.0017      0.5278     -0.0313     -0.0014
         2         0.0032      0.0057     -0.0165     -0.0798     -0.1612     -0.0171
         3         0.0587     -0.1091      0.0695      0.0523     -0.0438     -0.0111
         4         0.0228     -0.0395      0.0179      0.0105     -0.0113      0.1410
         5         0.0161     -0.0373      0.0226     -0.0353     -0.0621     -0.2486
         6         0.0797     -0.0029     -0.0180      0.4109     -0.0341      0.0081
         7        -0.4675      0.2944      0.0221      0.1594      0.0172     -0.0131
         8         0.0261     -0.0147     -0.0044      0.0038      0.1444     -0.1808
         9         0.0779     -0.0421      0.0000      0.0312      0.0805      0.0839
        10        -0.0414      0.0231      0.0112      0.0313      0.3094      0.0322
        11         0.0098     -0.0109      0.0073      0.0245     -0.0698     -0.0997
        12         0.0139     -0.0021      0.0030     -0.0155      0.0341      0.1272
        13        -0.0186      0.0202     -0.0042      0.0066     -0.1641      0.0928
        14        -0.0129     -0.0231      0.0113      0.0001      0.0554     -0.3715
        15        -0.0057      0.0028     -0.0041      0.0000     -0.0342      0.0990
 <0|del|b> * <b|rxdel|0> + <0|del|b> * <b|delr+rdel|0>
 Rotatory Strengths (R) in cgs (10**-40 erg-esu-cm/Gauss)
       state          XX          YY          ZZ    R(velocity)    E-M Angle
         1        25.9231      2.5244      3.3166     10.5880       76.05
         2        -1.6513     -1.1728     -5.9372     -2.9204      119.11
         3         1.2122     -0.5247      1.4188      0.7021       78.32
         4        -5.4690      0.1420     -3.0636     -2.7969       99.12
         5        -3.5175      2.6092     -0.1211     -0.3431       92.88
         6       -14.7100    -33.1586    -34.2989    -27.3892      151.72
         7        -5.6937      4.5372     20.6041      6.4825       74.94
         8        12.3424      0.3030      0.6355      4.4270       48.64
         9        19.8658      9.1699     16.5367     15.1908       73.25
        10        -8.8172     -0.1717     -4.5420     -4.5103       96.55
        11         4.6034     26.9313     40.4735     24.0028       70.69
        12        -5.8173     -4.3973     -9.0377     -6.4174      133.69
        13       -11.0185     -4.3472    -22.0495    -12.4717      160.56
        14        -0.2616     -7.6686     -1.6410     -3.1904       99.26
        15         0.7882      0.9974     -0.0239      0.5872       88.41
 1/2[<0|r|b>*<b|rxdel|0> + (<0|rxdel|b>*<b|r|0>)*]
 Rotatory Strengths (R) in cgs (10**-40 erg-esu-cm/Gauss)
       state          XX          YY          ZZ     R(length)
         1        -6.2356      7.1275     24.4270      8.4396
         2         3.1250    -33.9205      0.6270    -10.0562
         3         4.4355     17.0095     -0.1174      7.1092
         4        -0.9598     -9.4077     -0.2470     -3.5382
         5         4.8826     -2.5641     -0.1930      0.7085
         6       -63.4905    -33.6462     -1.8287    -32.9885
         7         4.0960     24.6811     -1.5153      9.0873
         8         1.0045     12.9344     -0.0436      4.6318
         9         3.3069     49.2792     -0.2491     17.4457
        10         2.2971    -23.2791      0.0761     -6.9686
        11        81.8449     11.0484      0.9157     31.2697
        12       -10.5328     -5.0287      0.6258     -4.9786
        13       -11.9682    -27.2156      0.3817    -12.9340
        14        -9.9960      3.2725     -0.1531     -2.2922
        15        -0.8625     -2.8916     -0.6638     -1.4726
  1/2[<0|del|b>*<b|r|0> + (<0|r|b>*<b|del|0>)*] (Au)
       state          X           Y           Z        Dip. S.   Osc.(frdel)
         1        -0.0223     -0.0092     -0.0005      0.0321      0.0214
         2         0.0002     -0.0003     -0.0003      0.0004      0.0002
         3        -0.0009      0.0000     -0.0004      0.0013      0.0009
         4         0.0000     -0.0011     -0.0085      0.0097      0.0064
         5         0.0000     -0.0004     -0.0004      0.0008      0.0005
         6        -0.1513     -0.0800     -0.0005      0.2319      0.1546
         7        -0.0029     -0.4428     -0.0008      0.4465      0.2977
         8         0.0000     -0.0030      0.0001      0.0029      0.0019
         9        -0.0005     -0.0112     -0.0148      0.0265      0.0177
        10        -0.0003     -0.0005     -0.0003      0.0011      0.0008
        11        -0.0011     -0.0008      0.0033     -0.0014     -0.0009
        12        -0.0001     -0.0001      0.0014     -0.0012     -0.0008
        13        -0.0002     -0.0006      0.0001      0.0007      0.0005
        14        -0.0002      0.0000     -0.0067      0.0069      0.0046
        15         0.0000      0.0000      0.0073     -0.0073     -0.0048

 Excitation energies and oscillator strengths:
 
 Excited State   1:      Singlet-A      4.5718 eV  271.20 nm  f=0.0645  <S**2>=0.000
      12 -> 15         0.25591
      13 -> 14         0.65005
 This state for optimization and/or second-order correction.
 Total Energy, E(CIS) =  0.189154591095    
 Copying the excited state density for this state as the 1-particle RhoCI density.
 
 Excited State   2:      Singlet-A      4.9859 eV  248.67 nm  f=0.0015  <S**2>=0.000
      12 -> 14         0.11682
      13 -> 15        -0.17107
      13 -> 16         0.65707
      13 -> 22        -0.10667
 
 Excited State   3:      Singlet-A      5.0621 eV  244.93 nm  f=0.0041  <S**2>=0.000
      12 -> 14        -0.42112
      13 -> 15         0.52400
      13 -> 16         0.20300
 
 Excited State   4:      Singlet-A      5.7226 eV  216.66 nm  f=0.0026  <S**2>=0.000
       7 -> 16        -0.16427
      12 -> 16         0.65077
      12 -> 22        -0.15695
 
 Excited State   5:      Singlet-A      5.8680 eV  211.29 nm  f=0.0004  <S**2>=0.000
      12 -> 18         0.19009
      12 -> 19        -0.12662
      13 -> 18         0.46623
      13 -> 19        -0.24929
      13 -> 21         0.15717
      13 -> 22         0.19830
      13 -> 23        -0.19875
 
 Excited State   6:      Singlet-A      6.0661 eV  204.39 nm  f=0.1934  <S**2>=0.000
      12 -> 14         0.35156
      12 -> 15         0.48686
      13 -> 14        -0.17462
      13 -> 15         0.27112
 
 Excited State   7:      Singlet-A      6.2003 eV  199.97 nm  f=0.3369  <S**2>=0.000
      10 -> 16         0.10838
      12 -> 14        -0.37570
      12 -> 15         0.41776
      13 -> 14        -0.16864
      13 -> 15        -0.31499
 
 Excited State   8:      Singlet-A      6.2127 eV  199.57 nm  f=0.0021  <S**2>=0.000
      12 -> 18        -0.22772
      12 -> 19        -0.14102
      12 -> 20        -0.20966
      12 -> 21         0.12429
      12 -> 23         0.16992
      13 -> 17         0.24602
      13 -> 18         0.16955
      13 -> 19         0.23416
      13 -> 20         0.21114
      13 -> 21        -0.21841
      13 -> 22        -0.14390
      13 -> 23        -0.19526
 
 Excited State   9:      Singlet-A      6.4569 eV  192.02 nm  f=0.0100  <S**2>=0.000
      11 -> 14         0.10483
      12 -> 17         0.13940
      12 -> 21        -0.11573
      13 -> 17         0.53502
      13 -> 18        -0.27976
      13 -> 19        -0.18636
      13 -> 20        -0.15372
 
 Excited State  10:      Singlet-A      6.7562 eV  183.51 nm  f=0.0009  <S**2>=0.000
      12 -> 17         0.54594
      12 -> 18        -0.25351
      12 -> 20        -0.21464
      12 -> 23        -0.13340
      13 -> 17        -0.14069
      13 -> 18         0.11514
 
 Excited State  11:      Singlet-A      6.9465 eV  178.48 nm  f=0.0023  <S**2>=0.000
       9 -> 15         0.16850
      10 -> 14        -0.35663
      11 -> 14         0.46901
      11 -> 15         0.27239
      13 -> 17        -0.11071
 
 Excited State  12:      Singlet-A      7.2374 eV  171.31 nm  f=0.0047  <S**2>=0.000
      11 -> 15        -0.20590
      12 -> 17         0.11042
      12 -> 18         0.29167
      12 -> 19         0.20598
      12 -> 21        -0.10755
      13 -> 17         0.13357
      13 -> 18         0.16110
      13 -> 19         0.40232
      13 -> 20        -0.16913
 
 Excited State  13:      Singlet-A      7.3885 eV  167.81 nm  f=0.0006  <S**2>=0.000
       9 -> 14         0.33380
       9 -> 15        -0.22368
      10 -> 14         0.23009
      11 -> 15         0.44202
      13 -> 18         0.10603
      13 -> 19         0.17153
 
 Excited State  14:      Singlet-A      7.5605 eV  163.99 nm  f=0.0054  <S**2>=0.000
      10 -> 14         0.10191
      11 -> 14         0.15431
      12 -> 20        -0.10187
      12 -> 22         0.19931
      13 -> 17        -0.13415
      13 -> 18        -0.16951
      13 -> 19         0.23345
      13 -> 20        -0.11039
      13 -> 22         0.46698
      13 -> 23        -0.19055
 
 Excited State  15:      Singlet-A      7.6530 eV  162.01 nm  f=0.0019  <S**2>=0.000
       9 -> 14        -0.14542
      10 -> 14         0.29237
      10 -> 15         0.10836
      11 -> 14         0.20210
      12 -> 18        -0.23301
      12 -> 19         0.27373
      12 -> 20         0.14898
      12 -> 22        -0.14079
      12 -> 24        -0.11501
      13 -> 18         0.16485
      13 -> 20        -0.20242
      13 -> 21        -0.15655
      13 -> 24         0.15138
 SavETr:  write IOETrn=   770 NScale= 10 NData=  16 NLR=1 NState=   15 LETran=     280.
 The selected state is a singlet
 CISAX will form     1 AO SS matrices at one time.
 NMat=     1 NSing=     1 JSym2X= 0.
 Leave Link  914 at Tue Dec 15 16:25:40 2015, MaxMem=    33554432 cpu:         0.1
 (Enter /home/Applications/g09/g09/l1002.exe)
 Minotr:  Closed shell wavefunction.
          Computing CIS/TD-HF/TD-KS derivatives.
          Using Z-Vector for PSCF gradient.
          Skipping F1 and S1 gradient terms here.
          IDoAtm=111111111
          Direct CPHF calculation.
          Differentiating once with respect to electric field.
                with respect to dipole field.
          Differentiating once with respect to nuclear coordinates.
          Electric field/nuclear overlap derivatives assumed to be zero.
          Requested convergence is 1.0D-10 RMS, and 1.0D-09 maximum.
          NewPWx=T KeepS1=F KeepF1=F KeepIn=T MapXYZ=F SortEE=F KeepMc=T.
          MDV=      33495423 using IRadAn=       0.
 Keep J ints in memory in canonical form, NReq=871704.
 FoFCou: FMM=F IPFlag=           0 FMFlag=           0 FMFlg1=           0
         NFxFlg=           0 DoJE=F BraDBF=F KetDBF=F FulRan=T
         wScrn=  0.000000 ICntrl=     600 IOpCl=  2 I1Cent=           0 NGrid=           0
         NMat0=    1 NMatS0=     54 NMatT0=    0 NMatD0=    1 NMtDS0=    0 NMtDT0=    0
 Symmetry not used in FoFCou.
          Solving linear equations separately, MaxMat=       0.
          There are     1 degrees of freedom in the 1st order CPHF.  IDoFFX=0 NUNeed=     1.
 LinEq1:  Iter=  0 NonCon=     1 RMS=1.10D-02 Max=7.29D-02 NDo=     1
 AX will form     1 AO Fock derivatives at one time.
 LinEq1:  Iter=  1 NonCon=     1 RMS=1.95D-03 Max=8.71D-03 NDo=     1
 LinEq1:  Iter=  2 NonCon=     1 RMS=2.65D-04 Max=1.38D-03 NDo=     1
 LinEq1:  Iter=  3 NonCon=     1 RMS=3.54D-05 Max=1.65D-04 NDo=     1
 LinEq1:  Iter=  4 NonCon=     1 RMS=3.35D-06 Max=1.57D-05 NDo=     1
 LinEq1:  Iter=  5 NonCon=     1 RMS=4.28D-07 Max=1.97D-06 NDo=     1
 LinEq1:  Iter=  6 NonCon=     1 RMS=6.15D-08 Max=2.07D-07 NDo=     1
 LinEq1:  Iter=  7 NonCon=     1 RMS=9.64D-09 Max=5.37D-08 NDo=     1
 LinEq1:  Iter=  8 NonCon=     1 RMS=1.40D-09 Max=6.53D-09 NDo=     1
 LinEq1:  Iter=  9 NonCon=     1 RMS=1.76D-10 Max=6.78D-10 NDo=     1
 LinEq1:  Iter= 10 NonCon=     0 RMS=2.02D-11 Max=7.21D-11 NDo=     1
 Linear equations converged to 1.000D-10 1.000D-09 after    10 iterations.
 End of Minotr F.D. properties file   721 does not exist.
 End of Minotr F.D. properties file   722 does not exist.
 End of Minotr F.D. properties file   788 does not exist.
 Leave Link 1002 at Tue Dec 15 16:25:40 2015, MaxMem=    33554432 cpu:         0.0
 (Enter /home/Applications/g09/g09/l601.exe)
 Copying SCF densities to generalized density rwf, IOpCl= 0 IROHF=0.

 **********************************************************************

            Population analysis using the SCF density.

 **********************************************************************

 Orbital symmetries:
       Occupied  (A) (A) (A) (A) (A) (A) (A) (A) (A) (A) (A) (A)
                 (A)
       Virtual   (A) (A) (A) (A) (A) (A) (A) (A) (A) (A) (A)
 The electronic state is 1-A.
 Alpha  occ. eigenvalues --   -1.57105  -1.22105  -1.10911  -0.83049  -0.80593
 Alpha  occ. eigenvalues --   -0.68813  -0.60788  -0.57664  -0.51260  -0.50079
 Alpha  occ. eigenvalues --   -0.48480  -0.38480  -0.34931
 Alpha virt. eigenvalues --    0.03511   0.05950   0.09292   0.13756   0.14882
 Alpha virt. eigenvalues --    0.16001   0.17443   0.18441   0.19288   0.20688
 Alpha virt. eigenvalues --    0.22921
     Molecular Orbital Coefficients:
                           1         2         3         4         5
                           O         O         O         O         O
     Eigenvalues --    -1.57105  -1.22105  -1.10911  -0.83049  -0.80593
   1 1   C  1S          0.24574  -0.44044   0.33869   0.34819  -0.29078
   2        1PX         0.07569  -0.09922  -0.10239  -0.18428  -0.13212
   3        1PY        -0.09574   0.02449  -0.14458  -0.03317  -0.28265
   4        1PZ         0.00275  -0.00509   0.00433   0.00424   0.00408
   5 2   C  1S          0.35510  -0.10171   0.53161  -0.07134   0.40101
   6        1PX         0.18777   0.08911  -0.01213  -0.16265  -0.13674
   7        1PY         0.00710  -0.21563   0.04023   0.33594  -0.07183
   8        1PZ        -0.00750  -0.00201  -0.00750   0.00503   0.00745
   9 3   O  1S          0.66549   0.56021  -0.03524  -0.03267  -0.27768
  10        1PX        -0.02793  -0.01642  -0.34159   0.49914  -0.07246
  11        1PY         0.19891  -0.04579  -0.04300   0.09914   0.15289
  12        1PZ         0.00882   0.00261   0.00098  -0.00316   0.01794
  13 4   C  1S          0.37324  -0.19083  -0.49562   0.13999   0.37145
  14        1PX        -0.18198  -0.01458  -0.00810  -0.03235   0.15465
  15        1PY        -0.04486  -0.25092  -0.00191  -0.36988   0.03419
  16        1PZ        -0.00363  -0.00264   0.00254  -0.00622   0.01133
  17 5   C  1S          0.26665  -0.50778  -0.23932  -0.36194  -0.22811
  18        1PX        -0.03840   0.05418  -0.17239  -0.17317   0.23736
  19        1PY        -0.12011   0.06106   0.09933  -0.07457  -0.24473
  20        1PZ        -0.00067   0.00066  -0.00045  -0.00148   0.00759
  21 6   H  1S          0.05976  -0.17206  -0.09472  -0.24105  -0.16666
  22 7   H  1S          0.08351  -0.05165  -0.20157   0.11170   0.24717
  23 8   H  1S          0.07495  -0.02817   0.20805  -0.05226   0.27023
  24 9   H  1S          0.04819  -0.13181   0.11923   0.20461  -0.18414
                           6         7         8         9        10
                           O         O         O         O         O
     Eigenvalues --    -0.68813  -0.60788  -0.57664  -0.51260  -0.50079
   1 1   C  1S         -0.09369   0.00433  -0.19880  -0.03105  -0.04118
   2        1PX         0.20708   0.01169   0.10680   0.15156  -0.32845
   3        1PY        -0.17676   0.02507  -0.15949  -0.26159   0.36685
   4        1PZ        -0.00136   0.19837   0.01211  -0.00224  -0.01606
   5 2   C  1S         -0.08218  -0.00025   0.14280   0.09996   0.02006
   6        1PX         0.34421   0.03076  -0.39822   0.24093   0.07592
   7        1PY         0.14752  -0.01417   0.01466   0.21340  -0.25447
   8        1PZ        -0.00969   0.37768   0.02991  -0.01705  -0.00901
   9 3   O  1S         -0.20230  -0.01245   0.00387  -0.07689  -0.15535
  10        1PX        -0.08655  -0.00069   0.43131  -0.03030  -0.07776
  11        1PY         0.49146  -0.00828   0.07197   0.18691   0.55980
  12        1PZ         0.00376   0.78497   0.01144  -0.00497   0.00366
  13 4   C  1S         -0.07047  -0.00135  -0.14845  -0.05459   0.05436
  14        1PX        -0.37560  -0.00653  -0.38000   0.28937  -0.16498
  15        1PY         0.05835  -0.02223  -0.12894  -0.36350  -0.13963
  16        1PZ        -0.00816   0.39007  -0.01297  -0.00093  -0.01746
  17 5   C  1S         -0.08436   0.00046   0.17867  -0.00479  -0.04975
  18        1PX        -0.15270  -0.02264   0.02936  -0.03523   0.20301
  19        1PY        -0.25683   0.01149   0.17182   0.49309   0.23322
  20        1PZ        -0.00262   0.21476  -0.00080  -0.00702  -0.01202
  21 6   H  1S         -0.22719  -0.00036   0.22368   0.33471   0.21625
  22 7   H  1S         -0.26341   0.00711  -0.31224   0.28404  -0.05068
  23 8   H  1S         -0.26412  -0.00842   0.31595  -0.18714   0.08366
  24 9   H  1S         -0.20824   0.00978  -0.24323  -0.24686   0.36943
                          11        12        13        14        15
                           O         O         O         V         V
     Eigenvalues --    -0.48480  -0.38480  -0.34931   0.03511   0.05950
   1 1   C  1S         -0.01076  -0.01276  -0.00731   0.00401   0.01265
   2        1PX        -0.45967   0.00525   0.00204   0.00431   0.00093
   3        1PY        -0.31447   0.02033   0.01292   0.00514  -0.00440
   4        1PZ         0.02175   0.51539   0.48497  -0.40234  -0.54417
   5 2   C  1S         -0.02063   0.00064   0.01402   0.00559   0.01519
   6        1PX         0.07081  -0.00367   0.02820   0.00890   0.02578
   7        1PY         0.40671  -0.00191   0.00945   0.01499  -0.01418
   8        1PZ         0.00555   0.09026   0.61171   0.60767   0.32029
   9 3   O  1S          0.12483   0.00261   0.00145   0.00940  -0.00701
  10        1PX         0.02942  -0.00837  -0.00567  -0.00092   0.01427
  11        1PY        -0.09324   0.02828  -0.00037   0.01718  -0.01108
  12        1PZ         0.01627  -0.48814  -0.06633  -0.37019   0.03833
  13 4   C  1S         -0.06026  -0.00021  -0.00175  -0.00934   0.00222
  14        1PX        -0.07384  -0.00252   0.02425  -0.00637   0.01484
  15        1PY         0.24862  -0.00556   0.01084   0.01062  -0.00118
  16        1PZ         0.01998   0.27883  -0.54790   0.50915  -0.45649
  17 5   C  1S         -0.01844   0.00278  -0.00454  -0.00688   0.00018
  18        1PX         0.52866  -0.01960   0.00510   0.00902   0.00304
  19        1PY        -0.00088   0.00844  -0.00302  -0.00072   0.00224
  20        1PZ         0.02843   0.63877  -0.28933  -0.26699   0.62395
  21 6   H  1S          0.18626  -0.00222  -0.00374   0.00349  -0.00236
  22 7   H  1S         -0.18187   0.00876   0.00396   0.01114  -0.01084
  23 8   H  1S         -0.26025   0.00785  -0.01016   0.00271  -0.00937
  24 9   H  1S          0.07424   0.00566   0.00816  -0.00256  -0.00513
                          16        17        18        19        20
                           V         V         V         V         V
     Eigenvalues --     0.09292   0.13756   0.14882   0.16001   0.17443
   1 1   C  1S          0.06611  -0.35245  -0.26862   0.00664   0.36548
   2        1PX         0.01191  -0.27831   0.40629   0.08169   0.05012
   3        1PY         0.04672  -0.13973   0.17531  -0.40888   0.18683
   4        1PZ        -0.00827  -0.01419  -0.00682   0.00518   0.01598
   5 2   C  1S         -0.31461   0.13663   0.29771  -0.33787   0.09415
   6        1PX        -0.24258  -0.19991   0.17902   0.32683   0.00640
   7        1PY         0.29220  -0.00846   0.20538  -0.09259  -0.26834
   8        1PZ         0.00608   0.00702  -0.02634   0.00449  -0.00697
   9 3   O  1S          0.24441   0.01191   0.01390  -0.06614  -0.04023
  10        1PX        -0.08181  -0.02754   0.30498  -0.00819   0.14377
  11        1PY         0.46719   0.01443   0.05363  -0.10015   0.00191
  12        1PZ         0.03869   0.00375   0.00230  -0.00845  -0.00464
  13 4   C  1S         -0.26452  -0.27266  -0.22618  -0.18350  -0.34821
  14        1PX         0.19845  -0.23715   0.25839  -0.11289  -0.18649
  15        1PY         0.35625  -0.01802  -0.00505  -0.22411  -0.11702
  16        1PZ        -0.01711  -0.01352   0.01165  -0.00480  -0.00163
  17 5   C  1S          0.01816   0.32074   0.14765   0.01608   0.01899
  18        1PX         0.01579  -0.32164   0.31014   0.07748   0.45767
  19        1PY         0.04135  -0.07288  -0.03341  -0.29169  -0.22400
  20        1PZ         0.01608  -0.00014   0.00088   0.00338   0.00268
  21 6   H  1S         -0.10858  -0.09062  -0.26749   0.21680  -0.02200
  22 7   H  1S          0.26926   0.47264  -0.04646   0.17447   0.36454
  23 8   H  1S          0.35050  -0.29866  -0.00081   0.46500  -0.17967
  24 9   H  1S         -0.13251   0.23494   0.40181   0.31667  -0.36068
                          21        22        23        24
                           V         V         V         V
     Eigenvalues --     0.18441   0.19288   0.20688   0.22921
   1 1   C  1S         -0.08588  -0.10798   0.13299   0.05039
   2        1PX         0.35095  -0.16703   0.28936  -0.19813
   3        1PY         0.16751   0.33345  -0.33812  -0.14285
   4        1PZ        -0.00551  -0.00657   0.00722   0.01125
   5 2   C  1S          0.13978   0.06569  -0.11668   0.09929
   6        1PX        -0.11824   0.41465  -0.11928   0.35392
   7        1PY         0.15939   0.34471  -0.22495  -0.36383
   8        1PZ        -0.00843  -0.01729   0.01009  -0.01604
   9 3   O  1S          0.01942  -0.10169  -0.01407  -0.00466
  10        1PX         0.00305   0.01990  -0.04674   0.54994
  11        1PY        -0.05069  -0.27796  -0.04049   0.07365
  12        1PZ         0.00729  -0.00858  -0.00178  -0.00550
  13 4   C  1S          0.02958   0.07029   0.14207  -0.08947
  14        1PX        -0.23241  -0.38391  -0.30802   0.18074
  15        1PY         0.29765   0.07749   0.21105   0.48218
  16        1PZ        -0.01170  -0.00996  -0.00537   0.01617
  17 5   C  1S         -0.49188   0.01027  -0.11640  -0.08693
  18        1PX        -0.08152  -0.03458   0.21351  -0.25226
  19        1PY        -0.13927   0.25497   0.52676   0.08948
  20        1PZ         0.00998  -0.00110   0.00109  -0.00965
  21 6   H  1S          0.52733  -0.18018  -0.34885   0.07431
  22 7   H  1S          0.22645   0.23214   0.15825   0.03138
  23 8   H  1S         -0.10576   0.34173  -0.07847   0.01463
  24 9   H  1S          0.16465  -0.19465   0.22912  -0.05060
     Density Matrix:
                           1         2         3         4         5
   1 1   C  1S          1.25240
   2        1PX        -0.05004   0.94814
   3        1PY         0.06356  -0.04042   0.94289
   4        1PZ        -0.01274   0.00182   0.01113   1.08229
   5 2   C  1S          0.29232  -0.08198  -0.48938   0.02611   1.24621
   6        1PX         0.04288   0.12565  -0.04742   0.02228  -0.10538
   7        1PY         0.46167  -0.14734  -0.61675   0.03129  -0.01797
   8        1PZ        -0.02420   0.00726   0.03008   0.83758   0.01558
   9 3   O  1S         -0.00048  -0.03702  -0.01313   0.00567   0.11082
  10        1PX         0.01175  -0.02482  -0.05604   0.00089  -0.38215
  11        1PY        -0.08810  -0.03528   0.05470   0.00632   0.21681
  12        1PZ         0.00469  -0.00487  -0.00390  -0.25504   0.01986
  13 4   C  1S         -0.03026  -0.01166   0.02172  -0.00606   0.01776
  14        1PX         0.02379  -0.02478  -0.02061   0.01101   0.00192
  15        1PY        -0.01093  -0.08025  -0.04712   0.00904  -0.03729
  16        1PZ         0.00336  -0.00477  -0.00728  -0.08806  -0.00865
  17 5   C  1S          0.24642   0.43525   0.09669   0.00365  -0.03051
  18        1PX        -0.45074  -0.66790  -0.18513  -0.00826   0.00640
  19        1PY        -0.02521  -0.03075   0.09108   0.00240   0.02142
  20        1PZ        -0.01525  -0.01269   0.00351   0.46468  -0.00504
  21 6   H  1S         -0.04302  -0.06273  -0.00712  -0.00251   0.04648
  22 7   H  1S          0.04777   0.06876   0.01476   0.00349   0.05429
  23 8   H  1S         -0.05690   0.00772   0.09001  -0.00565   0.61440
  24 9   H  1S          0.58899  -0.54136   0.54600   0.00765  -0.06167
                           6         7         8         9        10
   6        1PX         0.87227
   7        1PY         0.08497   0.92831
   8        1PZ         0.01111   0.00282   1.05315
   9 3   O  1S          0.25117  -0.12847  -0.01237   1.84572
  10        1PX        -0.57331   0.36260   0.03082   0.05061   1.14714
  11        1PY         0.43566  -0.06999  -0.02319  -0.29879  -0.03074
  12        1PZ         0.04195  -0.01657   0.42465  -0.01519   0.01074
  13 4   C  1S          0.01402  -0.03671  -0.00096   0.10631   0.28541
  14        1PX         0.04647  -0.01479   0.00600  -0.20418  -0.29775
  15        1PY         0.03046  -0.01356   0.00279  -0.19822  -0.42511
  16        1PZ        -0.00748  -0.00504  -0.32525  -0.00995  -0.01412
  17 5   C  1S         -0.01752  -0.01837   0.00305   0.00028   0.01270
  18        1PX        -0.04991   0.08005  -0.00153   0.03806  -0.03541
  19        1PY         0.01425  -0.01510  -0.00360  -0.00119   0.02422
  20        1PZ        -0.01186   0.00905  -0.07555   0.00587  -0.00622
  21 6   H  1S          0.00380   0.05320  -0.00440   0.02323   0.03995
  22 7   H  1S          0.09446  -0.04117  -0.00578  -0.04638  -0.03355
  23 8   H  1S         -0.58776  -0.44676   0.00800  -0.04579   0.06455
  24 9   H  1S         -0.02545  -0.07067   0.00780   0.02084  -0.06097
                          11        12        13        14        15
  11        1PY         1.36261
  12        1PZ        -0.02797   1.71944
  13 4   C  1S          0.31099   0.01043   1.23103
  14        1PX        -0.51620  -0.02656   0.10864   0.92175
  15        1PY        -0.35732  -0.02128   0.01063  -0.08783   0.87414
  16        1PZ        -0.02298   0.41339   0.00399  -0.00955  -0.00743
  17 5   C  1S         -0.07946  -0.00318   0.31547  -0.18180   0.43610
  18        1PX         0.00176   0.01035   0.22445   0.02740   0.32898
  19        1PY         0.06666  -0.00095  -0.45732   0.24002  -0.48081
  20        1PZ         0.01046  -0.24694   0.00172  -0.01911   0.00091
  21 6   H  1S          0.09020   0.00533  -0.05699   0.04420  -0.04708
  22 7   H  1S         -0.06711  -0.00717   0.61195   0.68679  -0.27987
  23 8   H  1S         -0.05453  -0.00868   0.05096  -0.08248  -0.06520
  24 9   H  1S          0.07321   0.00167   0.04825  -0.02002   0.04874
                          16        17        18        19        20
  16        1PZ         1.06245
  17 5   C  1S          0.00350   1.22233
  18        1PX        -0.01170   0.02078   0.93499
  19        1PY         0.00406   0.06893   0.03790   0.97341
  20        1PZ         0.84262   0.00356  -0.00688   0.00263   1.07786
  21 6   H  1S         -0.00104   0.58916   0.35753   0.68751  -0.00133
  22 7   H  1S          0.01532  -0.05824  -0.03526   0.08104   0.00414
  23 8   H  1S         -0.00048   0.04421  -0.06299  -0.00541   0.00292
  24 9   H  1S         -0.00368  -0.05056   0.07726   0.00802   0.00326
                          21        22        23        24
  21 6   H  1S          0.84638
  22 7   H  1S          0.01011   0.81437
  23 8   H  1S         -0.01028  -0.02488   0.81003
  24 9   H  1S         -0.00084  -0.01451   0.01498   0.83068
    Full Mulliken population analysis:
                           1         2         3         4         5
   1 1   C  1S          1.25240
   2        1PX         0.00000   0.94814
   3        1PY         0.00000   0.00000   0.94289
   4        1PZ         0.00000   0.00000   0.00000   1.08229
   5 2   C  1S          0.00000   0.00000   0.00000   0.00000   1.24621
   6        1PX         0.00000   0.00000   0.00000   0.00000   0.00000
   7        1PY         0.00000   0.00000   0.00000   0.00000   0.00000
   8        1PZ         0.00000   0.00000   0.00000   0.00000   0.00000
   9 3   O  1S          0.00000   0.00000   0.00000   0.00000   0.00000
  10        1PX         0.00000   0.00000   0.00000   0.00000   0.00000
  11        1PY         0.00000   0.00000   0.00000   0.00000   0.00000
  12        1PZ         0.00000   0.00000   0.00000   0.00000   0.00000
  13 4   C  1S          0.00000   0.00000   0.00000   0.00000   0.00000
  14        1PX         0.00000   0.00000   0.00000   0.00000   0.00000
  15        1PY         0.00000   0.00000   0.00000   0.00000   0.00000
  16        1PZ         0.00000   0.00000   0.00000   0.00000   0.00000
  17 5   C  1S          0.00000   0.00000   0.00000   0.00000   0.00000
  18        1PX         0.00000   0.00000   0.00000   0.00000   0.00000
  19        1PY         0.00000   0.00000   0.00000   0.00000   0.00000
  20        1PZ         0.00000   0.00000   0.00000   0.00000   0.00000
  21 6   H  1S          0.00000   0.00000   0.00000   0.00000   0.00000
  22 7   H  1S          0.00000   0.00000   0.00000   0.00000   0.00000
  23 8   H  1S          0.00000   0.00000   0.00000   0.00000   0.00000
  24 9   H  1S          0.00000   0.00000   0.00000   0.00000   0.00000
                           6         7         8         9        10
   6        1PX         0.87227
   7        1PY         0.00000   0.92831
   8        1PZ         0.00000   0.00000   1.05315
   9 3   O  1S          0.00000   0.00000   0.00000   1.84572
  10        1PX         0.00000   0.00000   0.00000   0.00000   1.14714
  11        1PY         0.00000   0.00000   0.00000   0.00000   0.00000
  12        1PZ         0.00000   0.00000   0.00000   0.00000   0.00000
  13 4   C  1S          0.00000   0.00000   0.00000   0.00000   0.00000
  14        1PX         0.00000   0.00000   0.00000   0.00000   0.00000
  15        1PY         0.00000   0.00000   0.00000   0.00000   0.00000
  16        1PZ         0.00000   0.00000   0.00000   0.00000   0.00000
  17 5   C  1S          0.00000   0.00000   0.00000   0.00000   0.00000
  18        1PX         0.00000   0.00000   0.00000   0.00000   0.00000
  19        1PY         0.00000   0.00000   0.00000   0.00000   0.00000
  20        1PZ         0.00000   0.00000   0.00000   0.00000   0.00000
  21 6   H  1S          0.00000   0.00000   0.00000   0.00000   0.00000
  22 7   H  1S          0.00000   0.00000   0.00000   0.00000   0.00000
  23 8   H  1S          0.00000   0.00000   0.00000   0.00000   0.00000
  24 9   H  1S          0.00000   0.00000   0.00000   0.00000   0.00000
                          11        12        13        14        15
  11        1PY         1.36261
  12        1PZ         0.00000   1.71944
  13 4   C  1S          0.00000   0.00000   1.23103
  14        1PX         0.00000   0.00000   0.00000   0.92175
  15        1PY         0.00000   0.00000   0.00000   0.00000   0.87414
  16        1PZ         0.00000   0.00000   0.00000   0.00000   0.00000
  17 5   C  1S          0.00000   0.00000   0.00000   0.00000   0.00000
  18        1PX         0.00000   0.00000   0.00000   0.00000   0.00000
  19        1PY         0.00000   0.00000   0.00000   0.00000   0.00000
  20        1PZ         0.00000   0.00000   0.00000   0.00000   0.00000
  21 6   H  1S          0.00000   0.00000   0.00000   0.00000   0.00000
  22 7   H  1S          0.00000   0.00000   0.00000   0.00000   0.00000
  23 8   H  1S          0.00000   0.00000   0.00000   0.00000   0.00000
  24 9   H  1S          0.00000   0.00000   0.00000   0.00000   0.00000
                          16        17        18        19        20
  16        1PZ         1.06245
  17 5   C  1S          0.00000   1.22233
  18        1PX         0.00000   0.00000   0.93499
  19        1PY         0.00000   0.00000   0.00000   0.97341
  20        1PZ         0.00000   0.00000   0.00000   0.00000   1.07786
  21 6   H  1S          0.00000   0.00000   0.00000   0.00000   0.00000
  22 7   H  1S          0.00000   0.00000   0.00000   0.00000   0.00000
  23 8   H  1S          0.00000   0.00000   0.00000   0.00000   0.00000
  24 9   H  1S          0.00000   0.00000   0.00000   0.00000   0.00000
                          21        22        23        24
  21 6   H  1S          0.84638
  22 7   H  1S          0.00000   0.81437
  23 8   H  1S          0.00000   0.00000   0.81003
  24 9   H  1S          0.00000   0.00000   0.00000   0.83068
     Gross orbital populations:
                           1
   1 1   C  1S          1.25240
   2        1PX         0.94814
   3        1PY         0.94289
   4        1PZ         1.08229
   5 2   C  1S          1.24621
   6        1PX         0.87227
   7        1PY         0.92831
   8        1PZ         1.05315
   9 3   O  1S          1.84572
  10        1PX         1.14714
  11        1PY         1.36261
  12        1PZ         1.71944
  13 4   C  1S          1.23103
  14        1PX         0.92175
  15        1PY         0.87414
  16        1PZ         1.06245
  17 5   C  1S          1.22233
  18        1PX         0.93499
  19        1PY         0.97341
  20        1PZ         1.07786
  21 6   H  1S          0.84638
  22 7   H  1S          0.81437
  23 8   H  1S          0.81003
  24 9   H  1S          0.83068
          Condensed to atoms (all electrons):
               1          2          3          4          5          6
     1  C    4.225724   0.000000   0.000000   0.000000   0.000000   0.000000
     2  C    0.000000   4.099943   0.000000   0.000000   0.000000   0.000000
     3  O    0.000000   0.000000   6.074918   0.000000   0.000000   0.000000
     4  C    0.000000   0.000000   0.000000   4.089366   0.000000   0.000000
     5  C    0.000000   0.000000   0.000000   0.000000   4.208586   0.000000
     6  H    0.000000   0.000000   0.000000   0.000000   0.000000   0.846382
     7  H    0.000000   0.000000   0.000000   0.000000   0.000000   0.000000
     8  H    0.000000   0.000000   0.000000   0.000000   0.000000   0.000000
     9  H    0.000000   0.000000   0.000000   0.000000   0.000000   0.000000
               7          8          9
     1  C    0.000000   0.000000   0.000000
     2  C    0.000000   0.000000   0.000000
     3  O    0.000000   0.000000   0.000000
     4  C    0.000000   0.000000   0.000000
     5  C    0.000000   0.000000   0.000000
     6  H    0.000000   0.000000   0.000000
     7  H    0.814373   0.000000   0.000000
     8  H    0.000000   0.810032   0.000000
     9  H    0.000000   0.000000   0.830675
 Mulliken charges:
               1
     1  C   -0.225724
     2  C   -0.099943
     3  O   -0.074918
     4  C   -0.089366
     5  C   -0.208586
     6  H    0.153618
     7  H    0.185627
     8  H    0.189968
     9  H    0.169325
 Sum of Mulliken charges =   0.00000
 Mulliken charges with hydrogens summed into heavy atoms:
               1
     1  C   -0.056399
     2  C    0.090025
     3  O   -0.074918
     4  C    0.096261
     5  C   -0.054968
 Charge=              0.0000 electrons
 Dipole moment (field-independent basis, Debye):
    X=             -0.1509    Y=              0.3188    Z=              0.0713  Tot=              0.3598
 N-N= 1.033747213690D+02 E-N=-1.708668755775D+02  KE=-1.655509963996D+01
 Orbital energies and kinetic energies (alpha):
                                 1                 2
   1         O                -1.571050         -1.311291
   2         O                -1.221054         -1.043048
   3         O                -1.109112         -0.967775
   4         O                -0.830492         -0.707603
   5         O                -0.805926         -0.725037
   6         O                -0.688131         -0.602947
   7         O                -0.607881         -0.489918
   8         O                -0.576637         -0.516043
   9         O                -0.512599         -0.438142
  10         O                -0.500791         -0.419840
  11         O                -0.484803         -0.404725
  12         O                -0.384800         -0.335759
  13         O                -0.349311         -0.315421
  14         V                 0.035107         -0.191148
  15         V                 0.059495         -0.194252
  16         V                 0.092919         -0.194864
  17         V                 0.137558         -0.229162
  18         V                 0.148820         -0.177487
  19         V                 0.160008         -0.193071
  20         V                 0.174427         -0.180853
  21         V                 0.184413         -0.189529
  22         V                 0.192881         -0.130005
  23         V                 0.206876         -0.129910
  24         V                 0.229215         -0.035882
 Total kinetic energy from orbitals=-1.655509963996D+01
 Leave Link  601 at Tue Dec 15 16:25:40 2015, MaxMem=    33554432 cpu:         0.0
 (Enter /home/Applications/g09/g09/l701.exe)
 Compute integral first derivatives.
 ... and contract with generalized density number  6.
 Leave Link  701 at Tue Dec 15 16:25:40 2015, MaxMem=    33554432 cpu:         0.0
 (Enter /home/Applications/g09/g09/l702.exe)
 L702 exits ... SP integral derivatives will be done elsewhere.
 Leave Link  702 at Tue Dec 15 16:25:40 2015, MaxMem=    33554432 cpu:         0.0
 (Enter /home/Applications/g09/g09/l703.exe)
 Compute integral first derivatives, UseDBF=F ICtDFT=           0.
 Integral derivatives from FoFJK, PRISM(SPDF).
 Calling FoFJK, ICntrl=  10005127 FMM=F ISym2X=0 I1Cent= 0 IOpClX= 0 NMat=1 NMatS=1 NMatT=0.
 FoFJK:  IHMeth= 8 ICntrl=10005127 DoSepK=F KAlg= 0 I1Cent=   0 FoldK=F
 IRaf=         0 NMat=   1 IRICut=       1 DoRegI=T DoRafI=F ISym2E= 0.
 FoFCou: FMM=F IPFlag=           0 FMFlag=      100000 FMFlg1=         800
         NFxFlg=           0 DoJE=F BraDBF=F KetDBF=F FulRan=T
         wScrn=  0.000000 ICntrl=10005127 IOpCl=  0 I1Cent=           0 NGrid=           0
         NMat0=    1 NMatS0=      1 NMatT0=    0 NMatD0=    1 NMtDS0=    0 NMtDT0=    0
 Symmetry not used in FoFCou.
 Leave Link  703 at Tue Dec 15 16:25:40 2015, MaxMem=    33554432 cpu:         0.0
 (Enter /home/Applications/g09/g09/l716.exe)
 Dipole        =-8.94983694D-02 2.10141876D-01 7.28306174D-02
 ***** Axes restored to original set *****
 -------------------------------------------------------------------
 Center     Atomic                   Forces (Hartrees/Bohr)
 Number     Number              X              Y              Z
 -------------------------------------------------------------------
      1        6           0.066114558    0.063876711   -0.006774250
      2        6           0.010380103   -0.057798300    0.002961770
      3        8          -0.124005351   -0.018361596    0.007035200
      4        6          -0.032645915    0.064246044   -0.002390526
      5        6           0.095315442   -0.099804902    0.002672372
      6        1           0.031611157    0.020138448   -0.001087838
      7        1          -0.014554019    0.019974655   -0.001210103
      8        1          -0.016750200   -0.007775914   -0.002782344
      9        1          -0.015465774    0.015504854    0.001575719
 -------------------------------------------------------------------
 Cartesian Forces:  Max     0.124005351 RMS     0.045059522
 Z-matrix is all fixed cartesians, so copy forces.
 Force constants in Cartesian coordinates: 
                1             2             3             4             5 
      1  0.826721D+00
      2 -0.401803D-01  0.672167D+00
      3 -0.358437D-02  0.452132D-02  0.161298D+00
      4 -0.456158D+00 -0.821902D-01 -0.610247D-02  0.871850D+00
      5 -0.610761D-01 -0.193917D+00 -0.410288D-02 -0.217485D-01  0.931986D+00
      6 -0.570489D-02 -0.350841D-02 -0.853417D-01 -0.119091D-01  0.277598D-01
      7 -0.759888D-02  0.298248D-01  0.225222D-02 -0.291206D+00  0.176412D+00
      8 -0.522331D-02  0.205317D-01  0.766811D-03  0.221538D+00 -0.413017D+00
      9 -0.427445D-03  0.705815D-03  0.737209D-02  0.194265D-01 -0.210030D-01
     10  0.928187D-02  0.218906D-03 -0.491985D-03  0.255565D-01  0.177298D-01
     11  0.336939D-01  0.723141D-03 -0.819687D-03 -0.186162D-01 -0.129178D-01
     12 -0.704928D-03  0.263539D-03 -0.105769D-02 -0.219461D-02 -0.159846D-02
     13 -0.152694D+00  0.154697D-01  0.123290D-02  0.824518D-02 -0.325480D-01
     14 -0.611334D-02 -0.323673D+00  0.376538D-02  0.173472D-03 -0.717511D-03
     15  0.124638D-02  0.478417D-02 -0.631867D-01 -0.176061D-03 -0.691723D-03
     16  0.168573D-01  0.368361D-03  0.381183D-04  0.000000D+00  0.000000D+00
     17 -0.232633D-01 -0.506461D-03  0.115495D-03  0.000000D+00  0.000000D+00
     18  0.573798D-03  0.150858D-03  0.123535D-01 -0.271862D-04  0.201856D-04
     19  0.399965D-05  0.228315D-05  0.196093D-03  0.795515D-05 -0.112860D-05
     20  0.509037D-05  0.290577D-05  0.249569D-03  0.124313D-04 -0.176362D-05
     21  0.151030D-03  0.862135D-04  0.740465D-02  0.415951D-03 -0.590110D-04
     22  0.683564D-02 -0.269338D-01 -0.896618D-04 -0.153974D+00 -0.957456D-01
     23 -0.290026D-02  0.114392D-01 -0.209304D-03 -0.935017D-01 -0.333735D+00
     24  0.510601D-04 -0.127160D-02  0.228430D-01  0.106766D-02 -0.130902D-02
     25 -0.243248D+00  0.103420D+00  0.654916D-02 -0.432047D-02  0.169779D-01
     26  0.105058D+00 -0.186767D+00 -0.428670D-02 -0.566741D-02  0.223194D-01
     27  0.839936D-02 -0.573190D-02 -0.616853D-01 -0.500664D-03  0.984176D-03
                6             7             8             9            10 
      6  0.173356D+00
      7  0.173346D-01  0.558402D+00
      8 -0.224027D-01  0.385494D-03  0.785234D+00
      9 -0.496001D-01 -0.325027D-01  0.760464D-02  0.635586D-01
     10 -0.156263D-02 -0.297371D+00 -0.222724D+00  0.133697D-01  0.998103D+00
     11  0.114031D-02 -0.177977D+00 -0.399438D+00  0.118766D-01 -0.248513D-01
     12 -0.309857D-03  0.138936D-01  0.150103D-01 -0.519553D-01 -0.188164D-01
     13  0.453773D-03 -0.834568D-02  0.606352D-02  0.473866D-03 -0.555590D+00
     14 -0.521407D-04 -0.303505D-01  0.220313D-01  0.768862D-03  0.112902D+00
     15 -0.163661D-03  0.153841D-02 -0.405356D-03  0.837508D-02  0.773087D-02
     16  0.319018D-05  0.298462D-05  0.319276D-05  0.122426D-03 -0.503042D-02
     17  0.208486D-04 -0.144169D-05 -0.154223D-05 -0.591367D-04  0.695458D-02
     18  0.185560D-02  0.196821D-03  0.210547D-03  0.807338D-02  0.749882D-03
     19  0.105981D-03  0.225569D-01 -0.163391D-01  0.161390D-03 -0.174973D+00
     20  0.165613D-03  0.116839D-01 -0.845970D-02  0.165014D-03  0.109782D+00
     21  0.554142D-02 -0.108895D-02  0.967208D-03  0.407093D-02 -0.146033D-02
     22  0.248419D-03  0.235599D-01  0.162958D-01 -0.626456D-03  0.204591D-04
     23 -0.343951D-02 -0.997641D-02 -0.689746D-02  0.217761D-03 -0.134609D-04
     24 -0.664407D-01 -0.164301D-02 -0.141042D-02  0.443159D-02  0.441652D-03
     25  0.103072D-02  0.000000D+00  0.000000D+00  0.270578D-05  0.183450D-05
     26  0.316178D-03  0.000000D+00  0.166248D-04 -0.276524D-03  0.000000D+00
     27  0.211030D-01  0.190943D-04 -0.341108D-03  0.567372D-02  0.392457D-04
               11            12            13            14            15 
     11  0.936565D+00
     12 -0.180714D-01  0.211466D+00
     13  0.914221D-01  0.876838D-02  0.996458D+00
     14 -0.223140D+00 -0.587353D-03  0.352055D-01  0.732485D+00
     15 -0.364560D-03 -0.112918D+00 -0.116941D-01 -0.444562D-02  0.197258D+00
     16 -0.182565D-01  0.340036D-03 -0.311730D+00 -0.139279D+00  0.205567D-02
     17  0.252138D-01 -0.536816D-04 -0.140861D+00 -0.221495D+00  0.171098D-02
     18  0.815310D-03  0.305485D-01  0.134411D-02  0.107838D-02 -0.795288D-01
     19  0.114587D+00 -0.164853D-02  0.747473D-02  0.271126D-01 -0.266079D-03
     20 -0.327009D+00  0.519285D-02  0.388657D-02  0.140559D-01  0.528932D-03
     21  0.546369D-02 -0.835818D-01  0.382759D-03 -0.694071D-03  0.334148D-01
     22 -0.290254D-05  0.272563D-03  0.000000D+00  0.000000D+00 -0.514789D-04
     23  0.190971D-05 -0.179331D-03  0.000000D+00  0.000000D+00 -0.325653D-04
     24 -0.626572D-04  0.588382D-02 -0.736117D-04  0.546562D-04  0.502438D-02
     25  0.104720D-05  0.899411D-04  0.161802D-01  0.348860D-03 -0.383648D-03
     26  0.000000D+00  0.235093D-04  0.213610D-01  0.454092D-03 -0.108426D-02
     27  0.224028D-04  0.192412D-02 -0.888112D-03  0.111910D-03  0.117248D-01
               16            17            18            19            20 
     16  0.299905D+00
     17  0.157170D+00  0.196786D+00
     18 -0.235567D-02 -0.179821D-02  0.426873D-01
     19 -0.526529D-05  0.254335D-05 -0.347220D-03  0.144935D+00
     20 -0.670114D-05  0.323693D-05 -0.441907D-03 -0.125364D+00  0.321408D+00
     21 -0.198821D-03  0.960389D-04 -0.131113D-01  0.179836D-02 -0.586007D-02
     22  0.000000D+00  0.000000D+00  0.000000D+00  0.000000D+00  0.000000D+00
     23  0.000000D+00  0.000000D+00  0.000000D+00  0.000000D+00  0.000000D+00
     24  0.000000D+00  0.000000D+00  0.000000D+00  0.000000D+00  0.000000D+00
     25  0.000000D+00 -0.151162D-05 -0.134540D-03  0.000000D+00  0.000000D+00
     26  0.000000D+00  0.000000D+00 -0.351668D-04  0.000000D+00  0.000000D+00
     27 -0.494830D-05 -0.323383D-04 -0.287823D-02  0.000000D+00  0.000000D+00
               21            22            23            24            25 
     21  0.462613D-01
     22  0.000000D+00  0.123558D+00
     23  0.000000D+00  0.106391D+00  0.329194D+00
     24  0.000000D+00  0.160272D-03  0.358832D-02  0.366851D-01
     25  0.000000D+00  0.000000D+00  0.000000D+00 -0.401890D-05  0.231387D+00
     26  0.000000D+00 -0.420817D-05 -0.266207D-05  0.410721D-03 -0.120746D+00
     27  0.000000D+00  0.863432D-04  0.546203D-04 -0.842717D-02 -0.715032D-02
               26            27 
     26  0.163980D+00
     27  0.493224D-02  0.325651D-01
 Leave Link  716 at Tue Dec 15 16:25:40 2015, MaxMem=    33554432 cpu:         0.0
 (Enter /home/Applications/g09/g09/l103.exe)

 GradGradGradGradGradGradGradGradGradGradGradGradGradGradGradGradGradGrad
 Berny optimization.
 Search for a local minimum.
 Step number   1 out of a maximum of    2
 All quantities printed in internal units (Hartrees-Bohrs-Radians)
 Second derivative matrix not updated -- first step.
 ITU=  0
     Eigenvalues ---    0.01501   0.03187   0.06835   0.07708   0.07994
     Eigenvalues ---    0.08595   0.12687   0.13028   0.16019   0.25002
     Eigenvalues ---    0.26415   0.28898   0.37305   0.44603   0.62734
     Eigenvalues ---    0.83955   1.07616   1.31779   1.40090   1.56022
     Eigenvalues ---    1.71245
 Quadratic step=5.007D-01 exceeds max=3.000D-01 adjusted using Lamda=-1.452D-01.
 Angle between NR and scaled steps=  21.78 degrees.
 Angle between quadratic step and forces=  29.83 degrees.
 Linear search not attempted -- first point.
 TrRot= -0.008582 -0.006626  0.001582  0.180853  0.000424 -0.179625
 Variable       Old X    -DE/DX   Delta X   Delta X   Delta X     New X
                                 (Linear)    (Quad)   (Total)
    X1        1.80463   0.06611   0.00000   0.08036   0.07341   1.87804
    Y1       -1.40332   0.06388   0.00000   0.06560   0.06129  -1.34203
    Z1       -0.01123  -0.00677   0.00000  -0.01466  -0.01376  -0.02499
    X2       -0.73980   0.01038   0.00000  -0.00034  -0.00638  -0.74618
    Y2       -2.04898  -0.05780   0.00000  -0.02888  -0.03642  -2.08540
    Z2       -0.04148   0.00296   0.00000   0.01463   0.01668  -0.02481
    X3       -2.18124  -0.12401   0.00000  -0.17457  -0.18313  -2.36437
    Y3        0.04003  -0.01836   0.00000  -0.02762  -0.03713   0.00290
    Z3        0.08896   0.00704   0.00000   0.00593   0.00850   0.09746
    X4       -0.68788  -0.03265   0.00000  -0.02241  -0.03359  -0.72148
    Y4        2.10079   0.06425   0.00000   0.01670   0.00920   2.10999
    Z4       -0.00119  -0.00239   0.00000  -0.00288  -0.00116  -0.00235
    X5        1.74278   0.09532   0.00000   0.11802   0.10775   1.85054
    Y5        1.43026  -0.09980   0.00000  -0.06851  -0.07285   1.35741
    Z5       -0.04296   0.00267   0.00000   0.00700   0.00771  -0.03525
    X6        3.33345   0.03161   0.00000   0.12878   0.11699   3.45044
    Y6        2.58253   0.02014   0.00000   0.00917   0.00679   2.58931
    Z6       -0.05864  -0.00109   0.00000  -0.00108  -0.00114  -0.05978
    X7       -1.60951  -0.01455   0.00000  -0.02472  -0.03816  -1.64766
    Y7        3.87677   0.01997   0.00000   0.05967   0.05103   3.92780
    Z7       -0.03664  -0.00121   0.00000  -0.00954  -0.00757  -0.04421
    X8       -1.52819  -0.01675   0.00000  -0.03766  -0.04144  -1.56963
    Y8       -3.90751  -0.00778   0.00000  -0.03170  -0.04025  -3.94776
    Z8       -0.06161  -0.00278   0.00000  -0.01064  -0.00810  -0.06971
    X9        3.47855  -0.01547   0.00000   0.00996   0.00455   3.48310
    Y9       -2.67387   0.01550   0.00000   0.06070   0.05836  -2.61551
    Z9       -0.07395   0.00158   0.00000  -0.00147  -0.00115  -0.07510
         Item               Value     Threshold  Converged?
 Maximum Force            0.124005     0.000450     NO 
 RMS     Force            0.045060     0.000300     NO 
 Maximum Displacement     0.183125     0.001800     NO 
 RMS     Displacement     0.057362     0.001200     NO 
 Predicted change in Energy=-3.700224D-02
 GradGradGradGradGradGradGradGradGradGradGradGradGradGradGradGradGradGrad

 Leave Link  103 at Tue Dec 15 16:25:40 2015, MaxMem=    33554432 cpu:         0.0
 (Enter /home/Applications/g09/g09/l9999.exe)
 1\1\GINC-DUSTIN-DESKTOP\Force\RAM1-FC\STO-3G\C4H4O1\DUSTIN\15-Dec-2015
 \0\\#P AM1(Input,print) CIS(Singlets,NStates=15) pop(full) force\\AM1-
 Reparam Input\\0,1\C,0.954969,-0.742605,-0.005942\C,-0.391483,-1.08427
 3,-0.021952\O,-1.154264,0.021184,0.047076\C,-0.364013,1.11169,-0.00062
 9\C,0.922241,0.756863,-0.022733\H,1.763988,1.366614,-0.031031\H,-0.851
 715,2.051497,-0.019389\H,-0.808683,-2.067763,-0.032601\H,1.840769,-1.4
 1495,-0.039133\\Version=ES64L-G09RevD.01\State=1-A\HF=0.0211457\RMSD=7
 .281e-09\RMSF=4.506e-02\Dipole=0.2193601,-0.0579029,-0.0774744\PG=C01 
 [X(C4H4O1)]\\@


 CONFIDENCE: THAT QUIET ASSURED FEELING YOU HAVE
 JUST BEFORE YOU FALL FLAT ON YOUR FACE.
 Job cpu time:       0 days  0 hours  0 minutes  0.5 seconds.
 File lengths (MBytes):  RWF=      7 Int=      0 D2E=      0 Chk=      2 Scr=      1
 Normal termination of Gaussian 09 at Tue Dec 15 16:25:40 2015.
