 Entering Gaussian System, Link 0=g09
 Input=FuranAM1.com
 Output=FuranAM1.log
 Initial command:
 /opt/g09/g09/l1.exe "/opt/g09/scratch/Gau-16141.inp" -scrdir="/opt/g09/scratch/"
 Entering Link 1 = /opt/g09/g09/l1.exe PID=     16142.
  
 Copyright (c) 1988,1990,1992,1993,1995,1998,2003,2009,2013,
            Gaussian, Inc.  All Rights Reserved.
  
 This is part of the Gaussian(R) 09 program.  It is based on
 the Gaussian(R) 03 system (copyright 2003, Gaussian, Inc.),
 the Gaussian(R) 98 system (copyright 1998, Gaussian, Inc.),
 the Gaussian(R) 94 system (copyright 1995, Gaussian, Inc.),
 the Gaussian 92(TM) system (copyright 1992, Gaussian, Inc.),
 the Gaussian 90(TM) system (copyright 1990, Gaussian, Inc.),
 the Gaussian 88(TM) system (copyright 1988, Gaussian, Inc.),
 the Gaussian 86(TM) system (copyright 1986, Carnegie Mellon
 University), and the Gaussian 82(TM) system (copyright 1983,
 Carnegie Mellon University). Gaussian is a federally registered
 trademark of Gaussian, Inc.
  
 This software contains proprietary and confidential information,
 including trade secrets, belonging to Gaussian, Inc.
  
 This software is provided under written license and may be
 used, copied, transmitted, or stored only in accord with that
 written license.
  
 The following legend is applicable only to US Government
 contracts under FAR:
  
                    RESTRICTED RIGHTS LEGEND
  
 Use, reproduction and disclosure by the US Government is
 subject to restrictions as set forth in subparagraphs (a)
 and (c) of the Commercial Computer Software - Restricted
 Rights clause in FAR 52.227-19.
  
 Gaussian, Inc.
 340 Quinnipiac St., Bldg. 40, Wallingford CT 06492
  
  
 ---------------------------------------------------------------
 Warning -- This program may not be used in any manner that
 competes with the business of Gaussian, Inc. or will provide
 assistance to any competitor of Gaussian, Inc.  The licensee
 of this program is prohibited from giving any competitor of
 Gaussian, Inc. access to this program.  By using this program,
 the user acknowledges that Gaussian, Inc. is engaged in the
 business of creating and licensing software in the field of
 computational chemistry and represents and warrants to the
 licensee that it is not a competitor of Gaussian, Inc. and that
 it will not use this program in any manner prohibited above.
 ---------------------------------------------------------------
  

 Cite this work as:
 Gaussian 09, Revision D.01,
 M. J. Frisch, G. W. Trucks, H. B. Schlegel, G. E. Scuseria, 
 M. A. Robb, J. R. Cheeseman, G. Scalmani, V. Barone, B. Mennucci, 
 G. A. Petersson, H. Nakatsuji, M. Caricato, X. Li, H. P. Hratchian, 
 A. F. Izmaylov, J. Bloino, G. Zheng, J. L. Sonnenberg, M. Hada, 
 M. Ehara, K. Toyota, R. Fukuda, J. Hasegawa, M. Ishida, T. Nakajima, 
 Y. Honda, O. Kitao, H. Nakai, T. Vreven, J. A. Montgomery, Jr., 
 J. E. Peralta, F. Ogliaro, M. Bearpark, J. J. Heyd, E. Brothers, 
 K. N. Kudin, V. N. Staroverov, T. Keith, R. Kobayashi, J. Normand, 
 K. Raghavachari, A. Rendell, J. C. Burant, S. S. Iyengar, J. Tomasi, 
 M. Cossi, N. Rega, J. M. Millam, M. Klene, J. E. Knox, J. B. Cross, 
 V. Bakken, C. Adamo, J. Jaramillo, R. Gomperts, R. E. Stratmann, 
 O. Yazyev, A. J. Austin, R. Cammi, C. Pomelli, J. W. Ochterski, 
 R. L. Martin, K. Morokuma, V. G. Zakrzewski, G. A. Voth, 
 P. Salvador, J. J. Dannenberg, S. Dapprich, A. D. Daniels, 
 O. Farkas, J. B. Foresman, J. V. Ortiz, J. Cioslowski, 
 and D. J. Fox, Gaussian, Inc., Wallingford CT, 2013.
 
 ******************************************
 Gaussian 09:  ES64L-G09RevD.01 24-Apr-2013
                 4-Jan-2016 
 ******************************************
 ------------------------------------------------------
 #P AM1(print) CIS(Singlets,NStates=15) pop(full) force
 ------------------------------------------------------
 1/10=7,30=1,38=1/1,3;
 2/12=2,17=6,18=5,40=1/2;
 3/5=2,16=1,25=1,41=700000,71=1,136=1/1,2,8,3;
 4/35=1/1;
 5/5=2,35=1,38=5/2;
 8/6=1,10=1,108=15/1;
 9/15=2,41=15,42=1,48=1,49=10/14;
 10/5=4/2;
 6/7=3,18=1/1;
 7/12=6,13=5,29=1/1,2,3,16;
 1/10=7,30=1/3;
 99//99;
 Leave Link    1 at Mon Jan  4 00:50:41 2016, MaxMem=           0 cpu:         0.0
 (Enter /opt/g09/g09/l101.exe)
 -----------------
 AM1-Reparam Input
 -----------------
 Symbolic Z-matrix:
 Charge =  0 Multiplicity = 1
 6                     0.95548  -0.71596   0. 
 6                    -0.34563  -1.09282   0. 
 8                    -1.15731   0.        0. 
 6                    -0.34563   1.09282   0. 
 6                     0.95548   0.71596   0. 
 1                     1.81044   1.36938   0. 
 1                    -0.84031   2.04688   0. 
 1                    -0.84031  -2.04688   0. 
 1                     1.81044  -1.36938   0. 
 
 NAtoms=      9 NQM=        9 NQMF=       0 NMMI=      0 NMMIF=      0
                NMic=       0 NMicF=      0.
                    Isotopes and Nuclear Properties:
 (Nuclear quadrupole moments (NQMom) in fm**2, nuclear magnetic moments (NMagM)
  in nuclear magnetons)

  Atom         1           2           3           4           5           6           7           8           9
 IAtWgt=          12          12          16          12          12           1           1           1           1
 AtmWgt=  12.0000000  12.0000000  15.9949146  12.0000000  12.0000000   1.0078250   1.0078250   1.0078250   1.0078250
 NucSpn=           0           0           0           0           0           1           1           1           1
 AtZEff=   0.0000000   0.0000000   0.0000000   0.0000000   0.0000000   0.0000000   0.0000000   0.0000000   0.0000000
 NQMom=    0.0000000   0.0000000   0.0000000   0.0000000   0.0000000   0.0000000   0.0000000   0.0000000   0.0000000
 NMagM=    0.0000000   0.0000000   0.0000000   0.0000000   0.0000000   2.7928460   2.7928460   2.7928460   2.7928460
 AtZNuc=   6.0000000   6.0000000   8.0000000   6.0000000   6.0000000   1.0000000   1.0000000   1.0000000   1.0000000
 Leave Link  101 at Mon Jan  4 00:50:41 2016, MaxMem=    33554432 cpu:         0.0
 (Enter /opt/g09/g09/l103.exe)

 GradGradGradGradGradGradGradGradGradGradGradGradGradGradGradGradGradGrad
 Berny optimization.
 Initialization pass.
 Trust Radius=3.00D-01 FncErr=1.00D-07 GrdErr=1.00D-07
 Number of steps in this run=      2 maximum allowed number of steps=      2.
 GradGradGradGradGradGradGradGradGradGradGradGradGradGradGradGradGradGrad

 Leave Link  103 at Mon Jan  4 00:50:41 2016, MaxMem=    33554432 cpu:         0.0
 (Enter /opt/g09/g09/l202.exe)
                          Input orientation:                          
 ---------------------------------------------------------------------
 Center     Atomic      Atomic             Coordinates (Angstroms)
 Number     Number       Type             X           Y           Z
 ---------------------------------------------------------------------
      1          6           0        0.955475   -0.715963    0.000000
      2          6           0       -0.345627   -1.092818    0.000000
      3          8           0       -1.157305    0.000000    0.000000
      4          6           0       -0.345627    1.092818    0.000000
      5          6           0        0.955475    0.715963    0.000000
      6          1           0        1.810438    1.369382    0.000000
      7          1           0       -0.840307    2.046884    0.000000
      8          1           0       -0.840307   -2.046884    0.000000
      9          1           0        1.810438   -1.369382    0.000000
 ---------------------------------------------------------------------
                    Distance matrix (angstroms):
                    1          2          3          4          5
     1  C    0.000000
     2  C    1.354580   0.000000
     3  O    2.230794   1.361276   0.000000
     4  C    2.228128   2.185636   1.361276   0.000000
     5  C    1.431926   2.228128   2.230794   1.354580   0.000000
     6  H    2.253802   3.272773   3.268441   2.173730   1.076066
     7  H    3.295172   3.178433   2.071285   1.074686   2.235214
     8  H    2.235214   1.074686   2.071285   3.178433   3.295172
     9  H    1.076066   2.173730   3.268441   3.272773   2.253802
                    6          7          8          9
     6  H    0.000000
     7  H    2.735957   0.000000
     8  H    4.324040   4.093768   0.000000
     9  H    2.738764   4.324040   2.735957   0.000000
 Stoichiometry    C4H4O
 Framework group  C2V[C2(O),SGV(C4H4)]
 Deg. of freedom     8
 Full point group                 C2V     NOp   4
 Largest Abelian subgroup         C2V     NOp   4
 Largest concise Abelian subgroup C2      NOp   2
                         Standard orientation:                         
 ---------------------------------------------------------------------
 Center     Atomic      Atomic             Coordinates (Angstroms)
 Number     Number       Type             X           Y           Z
 ---------------------------------------------------------------------
      1          6           0        0.000000    0.715963   -0.955475
      2          6           0        0.000000    1.092818    0.345627
      3          8           0        0.000000    0.000000    1.157305
      4          6           0        0.000000   -1.092818    0.345627
      5          6           0        0.000000   -0.715963   -0.955475
      6          1           0        0.000000   -1.369382   -1.810438
      7          1           0        0.000000   -2.046884    0.840307
      8          1           0        0.000000    2.046884    0.840307
      9          1           0        0.000000    1.369382   -1.810438
 ---------------------------------------------------------------------
 Rotational constants (GHZ):      9.5015164      9.3284592      4.7070963
 Leave Link  202 at Mon Jan  4 00:50:41 2016, MaxMem=    33554432 cpu:         0.0
 (Enter /opt/g09/g09/l301.exe)

 Semi-emprical parameters in input format:
 Method=8 CoreType=1 PeptideFC=0.0114505045 RIJScale=0.5291772086
 ****
 H       
 PQN=1 NValence=1 F0ss=0.4721553327 ZetaOverlap=1.1880780000 U=-0.4188110042
 Beta=-0.2268825074 CoreKO=1.0589197790 KON=0,0,0,1.0589197790 KON=1,0,1,1.0589197790
 KON=0,1,1,1.0589197790 KON=2,1,1,1.0589197790 EISol=-0.4188110042 EHeat=0.0830298228
 Alpha=1.5252601686
 GCore=0.0085277107,1.4001425905,2.2676713595
 GCore=0.0003534810,1.4001425905,3.4015070392
 GCore=-0.0012733648,0.5600570362,3.9684248791
 ****
 C       
 PQN=2,2 NValence=4 F0ss=0.4494442496 F0sp=0.4215147623 F0pp=0.3768030831 F2pp=0.1898715146
 G1sp=0.2679025821
 ZetaOverlap=1.8086650000,1.6851160000
 U=-1.9120180828,-1.4557965594
 Beta=-0.5775444233,-0.2836784428 DDN=0,1,0.8236736000 DDN=1,1,0.7268015000
 CoreKO=1.1124284736 KON=0,0,0,1.1124284736 KON=1,0,1,0.8219701441 KON=0,1,1,1.1124284736
 KON=2,1,1,0.7783928119 EISol=-4.4398989268 EHeat=0.2723305520 Alpha=1.4014062429
 DipHyp=1.6472524267
 GCore=0.0007885612,1.4001425905,3.0235618126
 GCore=0.0031892455,1.4001425905,3.4959933458
 GCore=-0.0013931594,1.4001425905,3.8739385724
 GCore=-0.0000875022,1.4001425905,5.0077742521
 ****
 O       
 PQN=2,2 NValence=6 F0ss=0.5666745976 F0sp=0.5321302318 F0pp=0.4958708974 F2pp=0.2358081713
 G1sp=0.4343770262
 ZetaOverlap=3.1080320000,2.5240390000
 U=-3.5951865036,-2.8760896690
 Beta=-1.0757546603,-1.0757546603 DDN=0,1,0.4988896000 DDN=1,1,0.4852322000
 CoreKO=0.8822957477 KON=0,0,0,0.8822957477 KON=1,0,1,0.5019543089 KON=0,1,1,0.8822957477
 KON=2,1,1,0.5515584117 EISol=-11.6164441184 EHeat=0.0949133088 Alpha=2.3576807890
 DipHyp=0.9977217969
 GCore=0.0195117322,1.4001425905,1.6023328031
 GCore=0.0056550009,1.9601996266,2.7307884326
 ****
 
 Standard basis: VSTO-6G (5D, 7F)
 Ernie: Thresh=  0.10000D-02 Tol=  0.10000D-05 Strict=F.
  NNHCO=     0 NNPyr=     0 NCTC=     0               EPep=         0.000000000
    EC=        68.814780182  ECS=         1.835657201   EG=         0.356564984
   EHC=         0.000000000  EAt=       -31.051283843  AtH=         1.516354808
 EPDDG=         0.000000000  ECC=        71.007002367 EAtT=        32.567638650
 There are    10 symmetry adapted cartesian basis functions of A1  symmetry.
 There are     2 symmetry adapted cartesian basis functions of A2  symmetry.
 There are     3 symmetry adapted cartesian basis functions of B1  symmetry.
 There are     9 symmetry adapted cartesian basis functions of B2  symmetry.
 There are    10 symmetry adapted basis functions of A1  symmetry.
 There are     2 symmetry adapted basis functions of A2  symmetry.
 There are     3 symmetry adapted basis functions of B1  symmetry.
 There are     9 symmetry adapted basis functions of B2  symmetry.
    24 basis functions,   144 primitive gaussians,    24 cartesian basis functions
    13 alpha electrons       13 beta electrons
       nuclear repulsion energy       103.5746410173 Hartrees.
 IExCor=    0 DFT=F Ex=HF Corr=None ExCW=0 ScaHFX=  1.000000
 ScaDFX=  1.000000  1.000000  1.000000  1.000000 ScalE2=  1.000000  1.000000
 IRadAn=      0 IRanWt=     -1 IRanGd=            0 ICorTp=0 IEmpDi=  4
 Integral buffers will be    131072 words long.
 Regular integral format.
 Two-electron integral symmetry is turned off.
 Leave Link  301 at Mon Jan  4 00:50:41 2016, MaxMem=    33554432 cpu:         0.0
 (Enter /opt/g09/g09/l302.exe)
 Do NDO integrals.
 NPDir=0 NMtPBC=     1 NCelOv=     1 NCel=       1 NClECP=     1 NCelD=      1
         NCelK=      1 NCelE2=     1 NClLst=     1 CellRange=     0.0.
 One-electron integrals computed using PRISM.
 NBasis=    24 RedAO= T EigKep=  1.00D+00  NBF=    10     2     3     9
 NBsUse=    24 1.00D-06 EigRej= -1.00D+00 NBFU=    10     2     3     9
 Leave Link  302 at Mon Jan  4 00:50:41 2016, MaxMem=    33554432 cpu:         0.0
 (Enter /opt/g09/g09/l308.exe)
 Leave Link  308 at Mon Jan  4 00:50:41 2016, MaxMem=    33554432 cpu:         0.0
 (Enter /opt/g09/g09/l303.exe)
 DipDrv:  MaxL=1.
 Leave Link  303 at Mon Jan  4 00:50:41 2016, MaxMem=    33554432 cpu:         0.0
 (Enter /opt/g09/g09/l401.exe)
 Simple Huckel Guess.
 JPrj=0 DoOrth=F DoCkMO=F.
 Initial guess orbital symmetries:
       Occupied  (A1) (A1) (B2) (B2) (A1) (A1) (B1) (B2) (A1) (B2)
                 (A1) (B1) (A2)
       Virtual   (B1) (A2) (B2) (B2) (A1) (A1) (B2) (B2) (A1) (A1)
                 (B2)
 The electronic state of the initial guess is 1-A1.
 Leave Link  401 at Mon Jan  4 00:50:41 2016, MaxMem=    33554432 cpu:         0.0
 (Enter /opt/g09/g09/l502.exe)
 Closed shell SCF:
 Using DIIS extrapolation, IDIIS=  1040.
 Overlap will be assumed to be unity.
 Two-electron integral symmetry not used.
 Keep J ints in memory in canonical form, NReq=888094.
 IVT=       79487 IEndB=       79487 NGot=    33554432 MDV=    33473461
 LenX=    33473461 LenY=    33472444
 Requested convergence on RMS density matrix=1.00D-08 within 128 cycles.
 Requested convergence on MAX density matrix=1.00D-06.
 Requested convergence on             energy=1.00D-06.
 No special actions if energy rises.
 FoFCou: FMM=F IPFlag=           0 FMFlag=           0 FMFlg1=           0
         NFxFlg=           0 DoJE=F BraDBF=F KetDBF=F FulRan=T
         wScrn=  0.000000 ICntrl=     600 IOpCl=  2 I1Cent=           0 NGrid=           0
         NMat0=    1 NMatS0=     54 NMatT0=    0 NMatD0=    1 NMtDS0=    0 NMtDT0=    0
 Symmetry not used in FoFCou.

 Cycle   1  Pass 1  IDiag  1:
 E= 0.326102942378014    
 DIIS: error= 5.47D-02 at cycle   1 NSaved=   1.
 NSaved= 1 IEnMin= 1 EnMin= 0.326102942378014     IErMin= 1 ErrMin= 5.47D-02
 ErrMax= 5.47D-02  0.00D+00 EMaxC= 1.00D-01 BMatC= 1.12D-01 BMatP= 1.12D-01
 IDIUse=3 WtCom= 4.53D-01 WtEn= 5.47D-01
 Coeff-Com:  0.100D+01
 Coeff-En:   0.100D+01
 Coeff:      0.100D+01
 GapD=    2.000 DampG=2.000 DampE=0.500 DampFc=1.0000 IDamp=-1.
 RMSDP=1.95D-02 MaxDP=1.63D-01              OVMax= 0.00D+00

 Cycle   2  Pass 1  IDiag  1:
 E= 0.442804608304925E-01 Delta-E=       -0.281822481548 Rises=F Damp=F
 DIIS: error= 2.06D-02 at cycle   2 NSaved=   2.
 NSaved= 2 IEnMin= 2 EnMin= 0.442804608304925E-01 IErMin= 2 ErrMin= 2.06D-02
 ErrMax= 2.06D-02  0.00D+00 EMaxC= 1.00D-01 BMatC= 9.72D-03 BMatP= 1.12D-01
 IDIUse=3 WtCom= 7.94D-01 WtEn= 2.06D-01
 Coeff-Com: -0.358D+00 0.136D+01
 Coeff-En:   0.000D+00 0.100D+01
 Coeff:     -0.284D+00 0.128D+01
 RMSDP=8.24D-03 MaxDP=7.71D-02 DE=-2.82D-01 OVMax= 0.00D+00

 Cycle   3  Pass 1  IDiag  1:
 E= 0.131657761037758E-01 Delta-E=       -0.031114684727 Rises=F Damp=F
 DIIS: error= 3.59D-03 at cycle   3 NSaved=   3.
 NSaved= 3 IEnMin= 3 EnMin= 0.131657761037758E-01 IErMin= 3 ErrMin= 3.59D-03
 ErrMax= 3.59D-03  0.00D+00 EMaxC= 1.00D-01 BMatC= 3.91D-04 BMatP= 9.72D-03
 IDIUse=3 WtCom= 9.64D-01 WtEn= 3.59D-02
 Coeff-Com:  0.134D+00-0.603D+00 0.147D+01
 Coeff-En:   0.000D+00 0.000D+00 0.100D+01
 Coeff:      0.129D+00-0.581D+00 0.145D+01
 RMSDP=2.57D-03 MaxDP=3.13D-02 DE=-3.11D-02 OVMax= 0.00D+00

 Cycle   4  Pass 1  IDiag  3:
 E= 0.110474537564897E-01 Delta-E=       -0.002118322347 Rises=F Damp=F
 DIIS: error= 1.11D-03 at cycle   4 NSaved=   4.
 NSaved= 4 IEnMin= 4 EnMin= 0.110474537564897E-01 IErMin= 4 ErrMin= 1.11D-03
 ErrMax= 1.11D-03  0.00D+00 EMaxC= 1.00D-01 BMatC= 2.87D-05 BMatP= 3.91D-04
 IDIUse=3 WtCom= 9.89D-01 WtEn= 1.11D-02
 Coeff-Com:  0.152D-01-0.526D-01-0.201D+00 0.124D+01
 Coeff-En:   0.000D+00 0.000D+00 0.000D+00 0.100D+01
 Coeff:      0.150D-01-0.520D-01-0.199D+00 0.124D+01
 Fock symm off for IB=2 I1=    1 I=   11 J=    5 Cut=1.00D-07 Err=1.48D-03
 Fock matrix is not symmetric: symmetry in diagonalization turned off.
 Gap=     0.379 Goal=   None    Shift=    0.000
 RMSDP=8.32D-04 MaxDP=1.08D-02 DE=-2.12D-03 OVMax= 1.13D-02

 Cycle   5  Pass 1  IDiag  3:
 E= 0.108726987166818E-01 Delta-E=       -0.000174755040 Rises=F Damp=F
 DIIS: error= 1.98D-04 at cycle   5 NSaved=   5.
 NSaved= 5 IEnMin= 5 EnMin= 0.108726987166818E-01 IErMin= 5 ErrMin= 1.98D-04
 ErrMax= 1.98D-04  0.00D+00 EMaxC= 1.00D-01 BMatC= 1.65D-06 BMatP= 2.87D-05
 IDIUse=3 WtCom= 9.98D-01 WtEn= 1.98D-03
 Coeff-Com: -0.823D-02 0.327D-01 0.237D-01-0.476D+00 0.143D+01
 Coeff-En:   0.000D+00 0.000D+00 0.000D+00 0.000D+00 0.100D+01
 Coeff:     -0.821D-02 0.327D-01 0.237D-01-0.475D+00 0.143D+01
 Gap=     0.379 Goal=   None    Shift=    0.000
 RMSDP=2.28D-04 MaxDP=1.98D-03 DE=-1.75D-04 OVMax= 2.40D-03

 Cycle   6  Pass 1  IDiag  3:
 E= 0.108608350888062E-01 Delta-E=       -0.000011863628 Rises=F Damp=F
 DIIS: error= 8.82D-05 at cycle   6 NSaved=   6.
 NSaved= 6 IEnMin= 6 EnMin= 0.108608350888062E-01 IErMin= 6 ErrMin= 8.82D-05
 ErrMax= 8.82D-05  0.00D+00 EMaxC= 1.00D-01 BMatC= 1.58D-07 BMatP= 1.65D-06
 IDIUse=1 WtCom= 1.00D+00 WtEn= 0.00D+00
 Coeff-Com:  0.312D-02-0.122D-01 0.235D-03 0.154D+00-0.697D+00 0.155D+01
 Coeff:      0.312D-02-0.122D-01 0.235D-03 0.154D+00-0.697D+00 0.155D+01
 Gap=     0.379 Goal=   None    Shift=    0.000
 RMSDP=8.69D-05 MaxDP=7.35D-04 DE=-1.19D-05 OVMax= 1.16D-03

 Cycle   7  Pass 1  IDiag  3:
 E= 0.108594017857087E-01 Delta-E=       -0.000001433303 Rises=F Damp=F
 DIIS: error= 3.25D-05 at cycle   7 NSaved=   7.
 NSaved= 7 IEnMin= 7 EnMin= 0.108594017857087E-01 IErMin= 7 ErrMin= 3.25D-05
 ErrMax= 3.25D-05  0.00D+00 EMaxC= 1.00D-01 BMatC= 1.43D-08 BMatP= 1.58D-07
 IDIUse=1 WtCom= 1.00D+00 WtEn= 0.00D+00
 Coeff-Com: -0.432D-03 0.120D-02 0.923D-03-0.278D-01 0.156D+00-0.644D+00
 Coeff-Com:  0.151D+01
 Coeff:     -0.432D-03 0.120D-02 0.923D-03-0.278D-01 0.156D+00-0.644D+00
 Coeff:      0.151D+01
 Gap=     0.379 Goal=   None    Shift=    0.000
 RMSDP=3.19D-05 MaxDP=3.03D-04 DE=-1.43D-06 OVMax= 3.98D-04

 Cycle   8  Pass 1  IDiag  3:
 E= 0.108592579921805E-01 Delta-E=       -0.000000143794 Rises=F Damp=F
 DIIS: error= 6.67D-06 at cycle   8 NSaved=   8.
 NSaved= 8 IEnMin= 8 EnMin= 0.108592579921805E-01 IErMin= 8 ErrMin= 6.67D-06
 ErrMax= 6.67D-06  0.00D+00 EMaxC= 1.00D-01 BMatC= 6.97D-10 BMatP= 1.43D-08
 IDIUse=1 WtCom= 1.00D+00 WtEn= 0.00D+00
 Coeff-Com:  0.295D-04 0.230D-03-0.156D-02 0.102D-01-0.538D-01 0.270D+00
 Coeff-Com: -0.822D+00 0.160D+01
 Coeff:      0.295D-04 0.230D-03-0.156D-02 0.102D-01-0.538D-01 0.270D+00
 Coeff:     -0.822D+00 0.160D+01
 Gap=     0.379 Goal=   None    Shift=    0.000
 RMSDP=6.81D-06 MaxDP=6.62D-05 DE=-1.44D-07 OVMax= 8.67D-05

 Cycle   9  Pass 1  IDiag  3:
 E= 0.108592518402446E-01 Delta-E=       -0.000000006152 Rises=F Damp=F
 DIIS: error= 7.23D-07 at cycle   9 NSaved=   9.
 NSaved= 9 IEnMin= 9 EnMin= 0.108592518402446E-01 IErMin= 9 ErrMin= 7.23D-07
 ErrMax= 7.23D-07  0.00D+00 EMaxC= 1.00D-01 BMatC= 1.90D-11 BMatP= 6.97D-10
 IDIUse=1 WtCom= 1.00D+00 WtEn= 0.00D+00
 Coeff-Com:  0.210D-04-0.232D-03 0.671D-03-0.283D-02 0.154D-01-0.941D-01
 Coeff-Com:  0.316D+00-0.712D+00 0.148D+01
 Coeff:      0.210D-04-0.232D-03 0.671D-03-0.283D-02 0.154D-01-0.941D-01
 Coeff:      0.316D+00-0.712D+00 0.148D+01
 Gap=     0.379 Goal=   None    Shift=    0.000
 RMSDP=8.52D-07 MaxDP=7.06D-06 DE=-6.15D-09 OVMax= 1.20D-05

 Cycle  10  Pass 1  IDiag  3:
 E= 0.108592517168802E-01 Delta-E=       -0.000000000123 Rises=F Damp=F
 DIIS: error= 1.37D-07 at cycle  10 NSaved=  10.
 NSaved=10 IEnMin=10 EnMin= 0.108592517168802E-01 IErMin=10 ErrMin= 1.37D-07
 ErrMax= 1.37D-07  0.00D+00 EMaxC= 1.00D-01 BMatC= 7.70D-13 BMatP= 1.90D-11
 IDIUse=1 WtCom= 1.00D+00 WtEn= 0.00D+00
 Coeff-Com: -0.137D-04 0.112D-03-0.283D-03 0.964D-03-0.491D-02 0.323D-01
 Coeff-Com: -0.112D+00 0.258D+00-0.661D+00 0.149D+01
 Coeff:     -0.137D-04 0.112D-03-0.283D-03 0.964D-03-0.491D-02 0.323D-01
 Coeff:     -0.112D+00 0.258D+00-0.661D+00 0.149D+01
 Gap=     0.379 Goal=   None    Shift=    0.000
 RMSDP=1.46D-07 MaxDP=7.37D-07 DE=-1.23D-10 OVMax= 1.62D-06

 Cycle  11  Pass 1  IDiag  3:
 E= 0.108592517126027E-01 Delta-E=       -0.000000000004 Rises=F Damp=F
 DIIS: error= 2.07D-08 at cycle  11 NSaved=  11.
 NSaved=11 IEnMin=11 EnMin= 0.108592517126027E-01 IErMin=11 ErrMin= 2.07D-08
 ErrMax= 2.07D-08  0.00D+00 EMaxC= 1.00D-01 BMatC= 2.28D-14 BMatP= 7.70D-13
 IDIUse=1 WtCom= 1.00D+00 WtEn= 0.00D+00
 Coeff-Com:  0.371D-05-0.298D-04 0.733D-04-0.246D-03 0.119D-02-0.806D-02
 Coeff-Com:  0.279D-01-0.636D-01 0.172D+00-0.484D+00 0.135D+01
 Coeff:      0.371D-05-0.298D-04 0.733D-04-0.246D-03 0.119D-02-0.806D-02
 Coeff:      0.279D-01-0.636D-01 0.172D+00-0.484D+00 0.135D+01
 Gap=     0.379 Goal=   None    Shift=    0.000
 RMSDP=2.10D-08 MaxDP=1.23D-07 DE=-4.28D-12 OVMax= 1.29D-07

 Cycle  12  Pass 1  IDiag  3:
 E= 0.108592517124180E-01 Delta-E=        0.000000000000 Rises=F Damp=F
 DIIS: error= 4.04D-09 at cycle  12 NSaved=  12.
 NSaved=12 IEnMin=12 EnMin= 0.108592517124180E-01 IErMin=12 ErrMin= 4.04D-09
 ErrMax= 4.04D-09  0.00D+00 EMaxC= 1.00D-01 BMatC= 1.16D-15 BMatP= 2.28D-14
 IDIUse=1 WtCom= 1.00D+00 WtEn= 0.00D+00
 Coeff-Com: -0.303D-06 0.245D-05-0.534D-05 0.184D-04-0.698D-04 0.539D-03
 Coeff-Com: -0.184D-02 0.371D-02-0.120D-01 0.528D-01-0.374D+00 0.133D+01
 Coeff:     -0.303D-06 0.245D-05-0.534D-05 0.184D-04-0.698D-04 0.539D-03
 Coeff:     -0.184D-02 0.371D-02-0.120D-01 0.528D-01-0.374D+00 0.133D+01
 Gap=     0.379 Goal=   None    Shift=    0.000
 RMSDP=4.83D-09 MaxDP=3.24D-08 DE=-1.85D-13 OVMax= 3.40D-08

 Cycle  13  Pass 2  IDiag  1:
 SCF Done:  E(RAM1) =  0.108592517124E-01 A.U. after   13 cycles
            NFock= 12  Conv=0.48D-08     -V/T= 1.0007
 KE=-1.657292780822D+01 PE=-1.712317604639D+02 EE= 8.424090650651D+01
 Leave Link  502 at Mon Jan  4 00:50:41 2016, MaxMem=    33554432 cpu:         0.0
 (Enter /opt/g09/g09/l801.exe)
 Range of M.O.s used for correlation:     1    24
 NBasis=    24 NAE=    13 NBE=    13 NFC=     0 NFV=     0
 NROrb=     24 NOA=    13 NOB=    13 NVA=    11 NVB=    11
 Leave Link  801 at Mon Jan  4 00:50:41 2016, MaxMem=    33554432 cpu:         0.0
 (Enter /opt/g09/g09/l914.exe)
 RHF ground state
 MDV=    33554432 DFT=F DoStab=F Mixed=F DoRPA=F DoScal=F NonHer=F
 Making orbital integer symmetry assigments:
 Orbital symmetries:
       Occupied  (A1) (A1) (B2) (B2) (A1) (A1) (B1) (B2) (A1) (B2)
                 (A1) (B1) (A2)
       Virtual   (B1) (A2) (A1) (B2) (B2) (A1) (B2) (A1) (A1) (B2)
                 (B2)
    60 initial guesses have been made.
 Convergence on wavefunction:    0.000001000000000
 Davidson Disk Diagonalization:  ConvIn= 1.00D-06 SkipCon=T Conv= 1.00D-06.
 Max sub-space:   240 roots to seek:    60 dimension of matrix:          286
 Iteration     1 Dimension    60 NMult     0 NNew     60
 CISAX will form    60 AO SS matrices at one time.
 NMat=    60 NSing=    60 JSym2X= 0.
 FoFJK:  IHMeth= 8 ICntrl=       0 DoSepK=F KAlg= 0 I1Cent=   0 FoldK=F
 IRaf=         1 NMat= 120 IRICut=       1 DoRegI=T DoRafI=F ISym2E= 0.
 FoFCou: FMM=F IPFlag=           0 FMFlag=      100000 FMFlg1=           0
         NFxFlg=           0 DoJE=F BraDBF=F KetDBF=F FulRan=T
         wScrn=  0.000000 ICntrl=       0 IOpCl=  0 I1Cent=           0 NGrid=           0
         NMat0=  120 NMatS0=     60 NMatT0=    0 NMatD0=  120 NMtDS0=    0 NMtDT0=    0
 Symmetry not used in FoFCou.
 New state      2 was old state      4
 New state      3 was old state      2
 New state      4 was old state      7
 New state      5 was old state      8
 New state      6 was old state      9
 New state      7 was old state      3
 New state      8 was old state      5
 New state      9 was old state      6
 New state     10 was old state     13
 New state     11 was old state     16
 New state     12 was old state     15
 New state     13 was old state     24
 New state     14 was old state     18
 New state     15 was old state     19
 Excitation Energies [eV] at current iteration:
 Root      1 :     4.578325211098321
 Root      2 :     5.079871138311636
 Root      3 :     5.112295401276729
 Root      4 :     6.071360323060430
 Root      5 :     6.155255701725605
 Root      6 :     6.217018146343881
 Root      7 :     6.399309793510704
 Root      8 :     6.486518328597488
 Root      9 :     6.582453309226616
 Root     10 :     7.170401090872249
 Root     11 :     7.250923049207597
 Root     12 :     7.540196264237716
 Root     13 :     7.618782920891890
 Root     14 :     7.634944744385226
 Root     15 :     7.780466116070708
 Root     16 :     7.807200512867190
 Root     17 :     7.871887432491402
 Root     18 :     8.137011198170510
 Root     19 :     8.330387179230939
 Root     20 :     8.342850269814845
 Root     21 :     8.813361259040999
 Root     22 :     8.894334265732478
 Root     23 :     8.914028782611513
 Root     24 :     9.176132025170132
 Root     25 :     9.501164464407832
 Root     26 :     9.520744987660661
 Root     27 :     9.630345250188778
 Root     28 :     9.754114972860910
 Root     29 :     9.825578515728683
 Root     30 :     9.891253136221865
 Root     31 :     9.896214999582007
 Root     32 :     9.930513164281846
 Root     33 :    10.025980185891040
 Root     34 :    10.212088704852010
 Root     35 :    10.377392108280820
 Root     36 :    10.443353856738970
 Root     37 :    10.510928037125630
 Root     38 :    10.789668835552550
 Root     39 :    10.878474809068120
 Root     40 :    11.025398889956690
 Root     41 :    11.089019836186180
 Root     42 :    11.215348063442410
 Root     43 :    11.248252935107940
 Root     44 :    11.284496423704490
 Root     45 :    11.470677936385150
 Root     46 :    11.678405464619140
 Root     47 :    11.724585089544120
 Root     48 :    11.852503151075000
 Root     49 :    11.960565909580690
 Root     50 :    12.022876659397440
 Root     51 :    12.241747024467780
 Root     52 :    12.392064969522480
 Root     53 :    12.759068716210010
 Root     54 :    12.767901261647710
 Root     55 :    13.259152854867800
 Root     56 :    13.340249710593700
 Root     57 :    13.530640279002890
 Root     58 :    13.645265601608810
 Root     59 :    13.647542935619920
 Root     60 :    13.760358137123870
 Iteration     2 Dimension   113 NMult    60 NNew     53
 CISAX will form    53 AO SS matrices at one time.
 NMat=    53 NSing=    53 JSym2X= 0.
 Root      1 not converged, maximum delta is    0.041597135095112
 Root      2 not converged, maximum delta is    0.035513466770495
 Root      3 not converged, maximum delta is    0.017296006473505
 Root      4 not converged, maximum delta is    0.068113889182671
 Root      5 not converged, maximum delta is    0.074787968353308
 Root      6 not converged, maximum delta is    0.060839525227916
 Root      7 not converged, maximum delta is    0.042359074474766
 Root      8 not converged, maximum delta is    0.028946410278306
 Root      9 not converged, maximum delta is    0.046393038000447
 Root     10 not converged, maximum delta is    0.063356862057127
 Root     11 not converged, maximum delta is    0.028506411251218
 Root     12 not converged, maximum delta is    0.105567413538547
 Root     13 not converged, maximum delta is    0.146217677983067
 Root     14 not converged, maximum delta is    0.050647936912032
 New state     15 was old state     16
 Root     15 not converged, maximum delta is    0.080518825960054
 Excitation Energies [eV] at current iteration:
 Root      1 :     4.494602904677505   Change is   -0.083722306420816
 Root      2 :     5.050041872129603   Change is   -0.029829266182034
 Root      3 :     5.097504953974010   Change is   -0.014790447302719
 Root      4 :     5.995489664640668   Change is   -0.075870658419762
 Root      5 :     6.047981166102046   Change is   -0.107274535623559
 Root      6 :     6.082120270949386   Change is   -0.134897875394495
 Root      7 :     6.270890890547533   Change is   -0.128418902963170
 Root      8 :     6.425640959665556   Change is   -0.060877368931932
 Root      9 :     6.527261517265968   Change is   -0.055191791960648
 Root     10 :     7.058891835216166   Change is   -0.111509255656083
 Root     11 :     7.202753796534365   Change is   -0.048169252673232
 Root     12 :     7.416521506845602   Change is   -0.123674757392114
 Root     13 :     7.490549940731005   Change is   -0.128232980160885
 Root     14 :     7.586183297008212   Change is   -0.048761447377014
 Root     15 :     7.656292969257232   Change is   -0.150907543609957
 Root     16 :     7.727740864640180   Change is   -0.052725251430529
 Root     17 :     7.818308638268674   Change is   -0.053578794222728
 Root     18 :     8.036975305408751   Change is   -0.100035892761761
 Root     19 :     8.132966759584910   Change is   -0.197420419646029
 Root     20 :     8.226626990117010   Change is   -0.116223279697836
 Root     21 :     8.516630660035204   Change is   -0.296730599005793
 Root     22 :     8.768273771393412   Change is   -0.145755011218102
 Root     23 :     8.866758521133258   Change is   -0.027575744599221
 Root     24 :     9.044950403440433   Change is   -0.131181621729700
 Root     25 :     9.124787277662401   Change is   -0.395957709998260
 Root     26 :     9.346582967040041   Change is   -0.407532005820867
 Root     27 :     9.354635057413420   Change is   -0.146529406994414
 Root     28 :     9.435323535736318   Change is   -0.495189628545528
 Root     29 :     9.622419379850509   Change is   -0.007925870338270
 Root     30 :     9.648233328956048   Change is   -0.377746856934994
 Root     31 :     9.716079617676904   Change is   -0.727274239062068
 Root     32 :     9.741664770688972   Change is   -0.083913745039710
 Root     33 :     9.759757950962840   Change is   -0.452330753889170
 Root     34 :     9.794255812871315   Change is   -0.096997323350550
 Root     35 :     9.797307753202478   Change is   -0.098907246379529
 Root     36 :     9.902544113876631   Change is   -0.474847994404193
 Root     37 :    10.202333225094300   Change is   -0.308594812031330
 Root     38 :    10.264046458833980   Change is   -0.614428350234141
 Root     39 :    10.371177012087880   Change is   -0.418491823464665
 Root     40 :    10.709955877420500   Change is   -0.315443012536190
 Root     41 :    10.732329386063330   Change is   -0.552167037641167
 Root     42 :    10.869916724020220   Change is   -0.345431339422192
 Root     43 :    10.919325517692870   Change is   -0.328927417415074
 Root     44 :    10.942603889644640   Change is   -0.528074046740509
 Root     45 :    10.990893446792020   Change is   -0.098126389394167
 Root     46 :    11.380271340488260   Change is   -0.298134124130881
 Root     47 :    11.409424512154870   Change is   -0.315160577389243
 Root     48 :    11.605507731045970   Change is   -0.246995420029032
 Root     49 :    11.780268904498610   Change is   -0.242607754898823
 Root     50 :    11.815494404494700   Change is   -0.145071505085982
 Root     51 :    11.916571162972030   Change is   -0.325175861495746
 Root     52 :    12.073705190712160   Change is   -0.318359778810319
 Root     53 :    12.415597826019490   Change is   -0.343470890190523
 Root     54 :    12.429966745575880   Change is   -0.337934516071835
 Root     55 :    12.842209078543010
 Root     56 :    13.038169508289840   Change is   -0.220983346577952
 Root     57 :    13.041138007226340
 Root     58 :    13.080287362677370   Change is   -0.259962347916333
 Root     59 :    13.106112895516310   Change is   -0.541430040103613
 Root     60 :    13.410719522853900   Change is   -0.119920756148998
 Iteration     3 Dimension   117 NMult   113 NNew      4
 CISAX will form     4 AO SS matrices at one time.
 NMat=     4 NSing=     4 JSym2X= 0.
 Root      1 not converged, maximum delta is    0.003251216517259
 Root      2 has converged.
 Root      3 not converged, maximum delta is    0.000364979176474
 Root      4 has converged.
 Root      5 has converged.
 Root      6 has converged.
 Root      7 not converged, maximum delta is    0.001692406310779
 Root      8 not converged, maximum delta is    0.004361045076188
 Root      9 has converged.
 Root     10 has converged.
 Root     11 has converged.
 Root     12 has converged.
 Root     13 has converged.
 Root     14 has converged.
 Root     15 has converged.
 Excitation Energies [eV] at current iteration:
 Root      1 :     4.493931502015672   Change is   -0.000671402661833
 Root      2 :     5.050041872129627   Change is    0.000000000000024
 Root      3 :     5.097466117705507   Change is   -0.000038836268502
 Root      4 :     5.995489664640650   Change is   -0.000000000000018
 Root      5 :     6.047981166102034   Change is   -0.000000000000012
 Root      6 :     6.082120270949356   Change is   -0.000000000000030
 Root      7 :     6.270086079457803   Change is   -0.000804811089730
 Root      8 :     6.424564814057905   Change is   -0.001076145607652
 Root      9 :     6.527261517265992   Change is    0.000000000000024
 Root     10 :     7.058891835216148   Change is   -0.000000000000018
 Root     11 :     7.202753796534347   Change is   -0.000000000000018
 Root     12 :     7.416521506845577   Change is   -0.000000000000024
 Root     13 :     7.490549940730999   Change is   -0.000000000000006
 Root     14 :     7.586183297008230   Change is    0.000000000000018
 Root     15 :     7.656292969257227   Change is   -0.000000000000006
 Iteration     4 Dimension   121 NMult   117 NNew      4
 CISAX will form     4 AO SS matrices at one time.
 NMat=     4 NSing=     4 JSym2X= 0.
 Root      1 not converged, maximum delta is    0.000166981805755
 Root      2 has converged.
 Root      3 not converged, maximum delta is    0.000030649427360
 Root      4 has converged.
 Root      5 has converged.
 Root      6 has converged.
 Root      7 not converged, maximum delta is    0.000183644671566
 Root      8 not converged, maximum delta is    0.000266601465187
 Root      9 has converged.
 Root     10 has converged.
 Root     11 has converged.
 Root     12 has converged.
 Root     13 has converged.
 Root     14 has converged.
 Root     15 has converged.
 Excitation Energies [eV] at current iteration:
 Root      1 :     4.493926326637381   Change is   -0.000005175378291
 Root      2 :     5.050041872129657   Change is    0.000000000000030
 Root      3 :     5.097465979527924   Change is   -0.000000138177583
 Root      4 :     5.995489664640644   Change is   -0.000000000000006
 Root      5 :     6.047981166102052   Change is    0.000000000000018
 Root      6 :     6.082120270949381   Change is    0.000000000000024
 Root      7 :     6.270079127018245   Change is   -0.000006952439558
 Root      8 :     6.424554407348094   Change is   -0.000010406709810
 Root      9 :     6.527261517265968   Change is   -0.000000000000024
 Root     10 :     7.058891835216130   Change is   -0.000000000000018
 Root     11 :     7.202753796534360   Change is    0.000000000000012
 Root     12 :     7.416521506845590   Change is    0.000000000000012
 Root     13 :     7.490549940731005   Change is    0.000000000000006
 Root     14 :     7.586183297008224   Change is   -0.000000000000006
 Root     15 :     7.656292969257184   Change is   -0.000000000000042
 Iteration     5 Dimension   125 NMult   121 NNew      4
 CISAX will form     4 AO SS matrices at one time.
 NMat=     4 NSing=     4 JSym2X= 0.
 Root      1 not converged, maximum delta is    0.000013425800399
 Root      2 has converged.
 Root      3 not converged, maximum delta is    0.000001933167156
 Root      4 has converged.
 Root      5 has converged.
 Root      6 has converged.
 Root      7 not converged, maximum delta is    0.000023051947653
 Root      8 not converged, maximum delta is    0.000050749676212
 Root      9 has converged.
 Root     10 has converged.
 Root     11 has converged.
 Root     12 has converged.
 Root     13 has converged.
 Root     14 has converged.
 Root     15 has converged.
 Excitation Energies [eV] at current iteration:
 Root      1 :     4.493926293347190   Change is   -0.000000033290191
 Root      2 :     5.050041872129584   Change is   -0.000000000000073
 Root      3 :     5.097465978508591   Change is   -0.000000001019333
 Root      4 :     5.995489664640644   Change is    0.000000000000000
 Root      5 :     6.047981166102027   Change is   -0.000000000000024
 Root      6 :     6.082120270949381   Change is    0.000000000000000
 Root      7 :     6.270079014761471   Change is   -0.000000112256774
 Root      8 :     6.424554109268918   Change is   -0.000000298079176
 Root      9 :     6.527261517266004   Change is    0.000000000000036
 Root     10 :     7.058891835216154   Change is    0.000000000000024
 Root     11 :     7.202753796534365   Change is    0.000000000000006
 Root     12 :     7.416521506845577   Change is   -0.000000000000012
 Root     13 :     7.490549940731005   Change is    0.000000000000000
 Root     14 :     7.586183297008218   Change is   -0.000000000000006
 Root     15 :     7.656292969257215   Change is    0.000000000000030
 Iteration     6 Dimension   129 NMult   125 NNew      4
 CISAX will form     4 AO SS matrices at one time.
 NMat=     4 NSing=     4 JSym2X= 0.
 Root      1 has converged.
 Root      2 has converged.
 Root      3 has converged.
 Root      4 has converged.
 Root      5 has converged.
 Root      6 has converged.
 Root      7 not converged, maximum delta is    0.000001346503415
 Root      8 not converged, maximum delta is    0.000006722907718
 Root      9 has converged.
 Root     10 has converged.
 Root     11 has converged.
 Root     12 has converged.
 Root     13 has converged.
 Root     14 has converged.
 Root     15 has converged.
 Excitation Energies [eV] at current iteration:
 Root      1 :     4.493926293244848   Change is   -0.000000000102342
 Root      2 :     5.050041872129603   Change is    0.000000000000018
 Root      3 :     5.097465978507286   Change is   -0.000000000001305
 Root      4 :     5.995489664640668   Change is    0.000000000000024
 Root      5 :     6.047981166102057   Change is    0.000000000000030
 Root      6 :     6.082120270949381   Change is    0.000000000000000
 Root      7 :     6.270079014455068   Change is   -0.000000000306403
 Root      8 :     6.424554106082582   Change is   -0.000000003186335
 Root      9 :     6.527261517265968   Change is   -0.000000000000036
 Root     10 :     7.058891835216166   Change is    0.000000000000012
 Root     11 :     7.202753796534371   Change is    0.000000000000006
 Root     12 :     7.416521506845584   Change is    0.000000000000006
 Root     13 :     7.490549940731005   Change is    0.000000000000000
 Root     14 :     7.586183297008212   Change is   -0.000000000000006
 Root     15 :     7.656292969257197   Change is   -0.000000000000018
 Iteration     7 Dimension   131 NMult   129 NNew      2
 CISAX will form     2 AO SS matrices at one time.
 NMat=     2 NSing=     2 JSym2X= 0.
 Root      1 has converged.
 Root      2 has converged.
 Root      3 has converged.
 Root      4 has converged.
 Root      5 has converged.
 Root      6 has converged.
 Root      7 has converged.
 Root      8 has converged.
 Root      9 has converged.
 Root     10 has converged.
 Root     11 has converged.
 Root     12 has converged.
 Root     13 has converged.
 Root     14 has converged.
 Root     15 has converged.
 Excitation Energies [eV] at current iteration:
 Root      1 :     4.493926293244462   Change is   -0.000000000000387
 Root      2 :     5.050041872129584   Change is   -0.000000000000018
 Root      3 :     5.097465978507195   Change is   -0.000000000000091
 Root      4 :     5.995489664640662   Change is   -0.000000000000006
 Root      5 :     6.047981166102052   Change is   -0.000000000000006
 Root      6 :     6.082120270949399   Change is    0.000000000000018
 Root      7 :     6.270079014453745   Change is   -0.000000000001323
 Root      8 :     6.424554106052686   Change is   -0.000000000029897
 Root      9 :     6.527261517265980   Change is    0.000000000000012
 Root     10 :     7.058891835216160   Change is   -0.000000000000006
 Root     11 :     7.202753796534360   Change is   -0.000000000000012
 Root     12 :     7.416521506845590   Change is    0.000000000000006
 Root     13 :     7.490549940730993   Change is   -0.000000000000012
 Root     14 :     7.586183297008212   Change is    0.000000000000000
 Root     15 :     7.656292969257227   Change is    0.000000000000030
 Convergence achieved on expansion vectors.
 ***********************************************************************
 Excited states from <AA,BB:AA,BB> singles matrix:
 ***********************************************************************
 
 1PDM for each excited state written to RWF  633
 Ground to excited state transition densities written to RWF  633
 Ground to excited state transition electric dipole moments (Au):
       state          X           Y           Z        Dip. S.      Osc.
         1         0.0000     -0.8849      0.0000      0.7831      0.0862
         2         0.0000      0.0000      0.0000      0.0000      0.0000
         3         0.0000      0.0000      0.2373      0.0563      0.0070
         4        -0.1315      0.0000      0.0000      0.0173      0.0025
         5         0.0111      0.0000      0.0000      0.0001      0.0000
         6         0.0000      0.0000      0.0000      0.0000      0.0000
         7         0.0000      0.0000     -1.6209      2.6273      0.4036
         8         0.0000     -0.9093      0.0000      0.8267      0.1301
         9         0.0625      0.0000      0.0000      0.0039      0.0006
        10         0.0000      0.0000      0.0000      0.0000      0.0000
        11         0.1060      0.0000      0.0000      0.0112      0.0020
        12         0.0000      0.0000      0.0000      0.0000      0.0000
        13         0.0000      0.0000      0.0000      0.0000      0.0000
        14         0.0366      0.0000      0.0000      0.0013      0.0002
        15         0.0000      0.0000      0.0000      0.0000      0.0000
 Ground to excited state transition velocity dipole moments (Au):
       state          X           Y           Z        Dip. S.      Osc.
         1         0.0000      0.0468      0.0000      0.0022      0.0088
         2         0.0000      0.0000      0.0000      0.0000      0.0000
         3         0.0000      0.0000     -0.0104      0.0001      0.0004
         4         0.0886      0.0000      0.0000      0.0079      0.0238
         5         0.0220      0.0000      0.0000      0.0005      0.0014
         6         0.0000      0.0000      0.0000      0.0000      0.0000
         7         0.0000      0.0000      0.3352      0.1123      0.3251
         8         0.0000      0.1620      0.0000      0.0262      0.0741
         9        -0.1833      0.0000      0.0000      0.0336      0.0934
        10         0.0000      0.0000      0.0000      0.0000      0.0000
        11         0.0196      0.0000      0.0000      0.0004      0.0010
        12         0.0000      0.0000      0.0000      0.0000      0.0000
        13         0.0000      0.0000      0.0000      0.0000      0.0000
        14         0.0617      0.0000      0.0000      0.0038      0.0091
        15         0.0000      0.0000      0.0000      0.0000      0.0000
 Ground to excited state transition magnetic dipole moments (Au):
       state          X           Y           Z
         1         0.6718      0.0000      0.0000
         2         0.0000      0.0000     -0.6453
         3         0.0000      0.0000      0.0000
         4         0.0000      0.3330      0.0000
         5         0.0000     -0.1495      0.0000
         6         0.0000      0.0000      0.0937
         7         0.0000      0.0000      0.0000
         8         0.0610      0.0000      0.0000
         9         0.0000      0.1168      0.0000
        10         0.0000      0.0000      0.8326
        11         0.0000     -1.8401      0.0000
        12         0.0000      0.0000      0.8128
        13         0.0000      0.0000      0.0276
        14         0.0000     -0.4647      0.0000
        15         0.0000      0.0000      0.2142
 Ground to excited state transition velocity quadrupole moments (Au):
       state          XX          YY          ZZ          XY          XZ          YZ
         1         0.0000      0.0000      0.0000      0.0000      0.0000      0.4878
         2         0.0000      0.0000      0.0000     -0.1608      0.0000      0.0000
         3        -0.0742     -0.0904      0.1409      0.0000      0.0000      0.0000
         4         0.0000      0.0000      0.0000      0.0000      0.3109      0.0000
         5         0.0000      0.0000      0.0000      0.0000     -0.1242      0.0000
         6         0.0000      0.0000      0.0000     -0.1517      0.0000      0.0000
         7        -0.0409      0.4746     -0.2755      0.0000      0.0000      0.0000
         8         0.0000      0.0000      0.0000      0.0000      0.0000     -0.5408
         9         0.0000      0.0000      0.0000      0.0000     -0.0418      0.0000
        10         0.0000      0.0000      0.0000     -0.3064      0.0000      0.0000
        11         0.0000      0.0000      0.0000      0.0000      0.0776      0.0000
        12         0.0000      0.0000      0.0000      0.1894      0.0000      0.0000
        13         0.0000      0.0000      0.0000     -0.1485      0.0000      0.0000
        14         0.0000      0.0000      0.0000      0.0000     -0.3501      0.0000
        15         0.0000      0.0000      0.0000     -0.0466      0.0000      0.0000
 <0|del|b> * <b|rxdel|0> + <0|del|b> * <b|delr+rdel|0>
 Rotatory Strengths (R) in cgs (10**-40 erg-esu-cm/Gauss)
       state          XX          YY          ZZ    R(velocity)    E-M Angle
         1         0.0000      0.0000      0.0000      0.0000       90.00
         2         0.0000      0.0000      0.0000      0.0000       90.00
         3         0.0000      0.0000      0.0000      0.0000       90.00
         4         0.0000      0.0000      0.0000      0.0000       90.00
         5         0.0000      0.0000      0.0000      0.0000       90.00
         6         0.0000      0.0000      0.0000      0.0000       90.00
         7         0.0000      0.0000      0.0000      0.0000       90.00
         8         0.0000      0.0000      0.0000      0.0000       90.00
         9         0.0000      0.0000      0.0000      0.0000       90.00
        10         0.0000      0.0000      0.0000      0.0000       90.00
        11         0.0000      0.0000      0.0000      0.0000       90.00
        12         0.0000      0.0000      0.0000      0.0000       90.00
        13         0.0000      0.0000      0.0000      0.0000       90.00
        14         0.0000      0.0000      0.0000      0.0000       90.00
        15         0.0000      0.0000      0.0000      0.0000       90.00
 1/2[<0|r|b>*<b|rxdel|0> + (<0|rxdel|b>*<b|r|0>)*]
 Rotatory Strengths (R) in cgs (10**-40 erg-esu-cm/Gauss)
       state          XX          YY          ZZ     R(length)
         1         0.0000      0.0000      0.0000      0.0000
         2         0.0000      0.0000      0.0000      0.0000
         3         0.0000      0.0000      0.0000      0.0000
         4         0.0000      0.0000      0.0000      0.0000
         5         0.0000      0.0000      0.0000      0.0000
         6         0.0000      0.0000      0.0000      0.0000
         7         0.0000      0.0000      0.0000      0.0000
         8         0.0000      0.0000      0.0000      0.0000
         9         0.0000      0.0000      0.0000      0.0000
        10         0.0000      0.0000      0.0000      0.0000
        11         0.0000      0.0000      0.0000      0.0000
        12         0.0000      0.0000      0.0000      0.0000
        13         0.0000      0.0000      0.0000      0.0000
        14         0.0000      0.0000      0.0000      0.0000
        15         0.0000      0.0000      0.0000      0.0000
  1/2[<0|del|b>*<b|r|0> + (<0|r|b>*<b|del|0>)*] (Au)
       state          X           Y           Z        Dip. S.   Osc.(frdel)
         1         0.0000     -0.0414      0.0000      0.0414      0.0276
         2         0.0000      0.0000      0.0000      0.0000      0.0000
         3         0.0000      0.0000     -0.0025      0.0025      0.0016
         4        -0.0117      0.0000      0.0000      0.0117      0.0078
         5         0.0002      0.0000      0.0000     -0.0002     -0.0002
         6         0.0000      0.0000      0.0000      0.0000      0.0000
         7         0.0000      0.0000     -0.5433      0.5433      0.3622
         8         0.0000     -0.1473      0.0000      0.1473      0.0982
         9        -0.0114      0.0000      0.0000      0.0114      0.0076
        10         0.0000      0.0000      0.0000      0.0000      0.0000
        11         0.0021      0.0000      0.0000     -0.0021     -0.0014
        12         0.0000      0.0000      0.0000      0.0000      0.0000
        13         0.0000      0.0000      0.0000      0.0000      0.0000
        14         0.0023      0.0000      0.0000     -0.0023     -0.0015
        15         0.0000      0.0000      0.0000      0.0000      0.0000

 Excitation energies and oscillator strengths:
 
 Excited State   1:      Singlet-B2     4.4939 eV  275.89 nm  f=0.0862  <S**2>=0.000
      12 -> 15        -0.20672
      13 -> 14         0.66913
 This state for optimization and/or second-order correction.
 Total Energy, E(CIS) =  0.176008011374    
 Copying the excited state density for this state as the 1-particle RhoCI density.
 
 Excited State   2:      Singlet-A2     5.0500 eV  245.51 nm  f=0.0000  <S**2>=0.000
      13 -> 16         0.68817
      13 -> 22        -0.11763
 
 Excited State   3:      Singlet-A1     5.0975 eV  243.23 nm  f=0.0070  <S**2>=0.000
      12 -> 14         0.42227
      13 -> 15         0.56290
 
 Excited State   4:      Singlet-B1     5.9955 eV  206.80 nm  f=0.0025  <S**2>=0.000
       7 -> 16        -0.11656
      12 -> 16         0.46583
      12 -> 22        -0.20762
      13 -> 17         0.17882
      13 -> 18        -0.36003
      13 -> 23        -0.17387
 
 Excited State   5:      Singlet-B1     6.0480 eV  205.00 nm  f=0.0000  <S**2>=0.000
       7 -> 16        -0.14878
      12 -> 16         0.45932
      12 -> 19         0.17927
      12 -> 21        -0.13385
      13 -> 17        -0.17481
      13 -> 18         0.33960
      13 -> 23         0.22256
 
 Excited State   6:      Singlet-A2     6.0821 eV  203.85 nm  f=0.0000  <S**2>=0.000
      12 -> 17        -0.11439
      12 -> 18         0.23616
      12 -> 23         0.15040
      13 -> 19         0.45524
      13 -> 21        -0.26557
      13 -> 22         0.32133
 
 Excited State   7:      Singlet-A1     6.2701 eV  197.74 nm  f=0.4036  <S**2>=0.000
       9 -> 16        -0.12570
      12 -> 14         0.53144
      13 -> 15        -0.40609
 
 Excited State   8:      Singlet-B2     6.4246 eV  192.98 nm  f=0.1301  <S**2>=0.000
      12 -> 15         0.66741
      13 -> 14         0.19313
 
 Excited State   9:      Singlet-B1     6.5273 eV  189.95 nm  f=0.0006  <S**2>=0.000
      12 -> 19        -0.10598
      13 -> 17         0.56205
      13 -> 18         0.36775
      13 -> 23        -0.10053
 
 Excited State  10:      Singlet-A2     7.0589 eV  175.64 nm  f=0.0000  <S**2>=0.000
      12 -> 17         0.40524
      12 -> 18         0.40035
      12 -> 20         0.22237
      12 -> 23        -0.12798
      13 -> 19        -0.25304
      13 -> 22         0.17371
 
 Excited State  11:      Singlet-B1     7.2028 eV  172.13 nm  f=0.0020  <S**2>=0.000
       9 -> 14         0.51162
      10 -> 15        -0.30439
      11 -> 14         0.32917
 
 Excited State  12:      Singlet-A2     7.4165 eV  167.17 nm  f=0.0000  <S**2>=0.000
       8 -> 14         0.11047
       9 -> 15        -0.13640
      10 -> 14         0.51527
      11 -> 15        -0.38941
      13 -> 22         0.14632
 
 Excited State  13:      Singlet-A2     7.4905 eV  165.52 nm  f=0.0000  <S**2>=0.000
       9 -> 15        -0.14321
      10 -> 14         0.19272
      12 -> 17         0.30706
      12 -> 18        -0.26198
      12 -> 20         0.27001
      12 -> 23        -0.17602
      13 -> 19         0.34659
      13 -> 21         0.16343
 
 Excited State  14:      Singlet-B1     7.5862 eV  163.43 nm  f=0.0002  <S**2>=0.000
       9 -> 14        -0.14178
      12 -> 19         0.38235
      12 -> 22         0.25816
      13 -> 17         0.20866
      13 -> 18        -0.25475
      13 -> 20         0.27385
      13 -> 24        -0.26265
 
 Excited State  15:      Singlet-A2     7.6563 eV  161.94 nm  f=0.0000  <S**2>=0.000
      11 -> 15         0.10951
      12 -> 17         0.10553
      12 -> 18        -0.30195
      12 -> 20        -0.14752
      13 -> 16         0.10392
      13 -> 19        -0.15489
      13 -> 21         0.11860
      13 -> 22         0.52897
 SavETr:  write IOETrn=   770 NScale= 10 NData=  16 NLR=1 NState=   15 LETran=     280.
 The selected state is a singlet
 CISAX will form     1 AO SS matrices at one time.
 NMat=     1 NSing=     1 JSym2X= 0.
 Leave Link  914 at Mon Jan  4 00:50:41 2016, MaxMem=    33554432 cpu:         0.1
 (Enter /opt/g09/g09/l1002.exe)
 Minotr:  Closed shell wavefunction.
          Computing CIS/TD-HF/TD-KS derivatives.
          Using Z-Vector for PSCF gradient.
          Skipping F1 and S1 gradient terms here.
          IDoAtm=111111111
          Direct CPHF calculation.
          Differentiating once with respect to electric field.
                with respect to dipole field.
          Differentiating once with respect to nuclear coordinates.
          Electric field/nuclear overlap derivatives assumed to be zero.
          Requested convergence is 1.0D-10 RMS, and 1.0D-09 maximum.
          NewPWx=T KeepS1=F KeepF1=F KeepIn=T MapXYZ=F SortEE=F KeepMc=T.
          MDV=      33495423 using IRadAn=       0.
 Keep J ints in memory in canonical form, NReq=871758.
 FoFCou: FMM=F IPFlag=           0 FMFlag=           0 FMFlg1=           0
         NFxFlg=           0 DoJE=F BraDBF=F KetDBF=F FulRan=T
         wScrn=  0.000000 ICntrl=     600 IOpCl=  2 I1Cent=           0 NGrid=           0
         NMat0=    1 NMatS0=     54 NMatT0=    0 NMatD0=    1 NMtDS0=    0 NMtDT0=    0
 Symmetry not used in FoFCou.
          Solving linear equations separately, MaxMat=       0.
          There are     1 degrees of freedom in the 1st order CPHF.  IDoFFX=0 NUNeed=     1.
 LinEq1:  Iter=  0 NonCon=     1 RMS=1.15D-02 Max=8.51D-02 NDo=     1
 AX will form     1 AO Fock derivatives at one time.
 LinEq1:  Iter=  1 NonCon=     1 RMS=2.15D-03 Max=1.56D-02 NDo=     1
 LinEq1:  Iter=  2 NonCon=     1 RMS=3.42D-04 Max=2.63D-03 NDo=     1
 LinEq1:  Iter=  3 NonCon=     1 RMS=4.44D-05 Max=2.51D-04 NDo=     1
 LinEq1:  Iter=  4 NonCon=     1 RMS=3.90D-06 Max=1.65D-05 NDo=     1
 LinEq1:  Iter=  5 NonCon=     1 RMS=4.36D-07 Max=2.06D-06 NDo=     1
 LinEq1:  Iter=  6 NonCon=     1 RMS=4.89D-08 Max=1.90D-07 NDo=     1
 LinEq1:  Iter=  7 NonCon=     1 RMS=5.11D-09 Max=2.83D-08 NDo=     1
 LinEq1:  Iter=  8 NonCon=     1 RMS=5.01D-10 Max=2.29D-09 NDo=     1
 LinEq1:  Iter=  9 NonCon=     0 RMS=4.19D-11 Max=1.74D-10 NDo=     1
 Linear equations converged to 1.000D-10 1.000D-09 after     9 iterations.
 End of Minotr F.D. properties file   721 does not exist.
 End of Minotr F.D. properties file   722 does not exist.
 End of Minotr F.D. properties file   788 does not exist.
 Leave Link 1002 at Mon Jan  4 00:50:41 2016, MaxMem=    33554432 cpu:         0.0
 (Enter /opt/g09/g09/l601.exe)
 Copying SCF densities to generalized density rwf, IOpCl= 0 IROHF=0.

 **********************************************************************

            Population analysis using the SCF density.

 **********************************************************************

 Orbital symmetries:
       Occupied  (A1) (A1) (B2) (B2) (A1) (A1) (B1) (B2) (A1) (B2)
                 (A1) (B1) (A2)
       Virtual   (B1) (A2) (A1) (B2) (B2) (A1) (B2) (A1) (A1) (B2)
                 (B2)
 The electronic state is 1-A1.
 Alpha  occ. eigenvalues --   -1.56990  -1.23725  -1.10195  -0.82517  -0.81473
 Alpha  occ. eigenvalues --   -0.68658  -0.60371  -0.56598  -0.50775  -0.50730
 Alpha  occ. eigenvalues --   -0.49860  -0.39473  -0.34779
 Alpha virt. eigenvalues --    0.03154   0.06415   0.09836   0.14070   0.14951
 Alpha virt. eigenvalues --    0.15335   0.18077   0.18272   0.18989   0.20723
 Alpha virt. eigenvalues --    0.22421
     Molecular Orbital Coefficients:
                           1         2         3         4         5
                        (A1)--O   (A1)--O   (B2)--O   (B2)--O   (A1)--O
     Eigenvalues --    -1.56990  -1.23725  -1.10195  -0.82517  -0.81473
   1 1   C  1S          0.28155  -0.47045   0.29259  -0.34651  -0.24895
   2        1PX         0.00000   0.00000   0.00000   0.00000   0.00000
   3        1PY        -0.06567   0.08916   0.15248  -0.19149   0.19443
   4        1PZ         0.11233  -0.03543   0.12380   0.02198   0.27960
   5 2   C  1S          0.36695  -0.12188   0.51534   0.11375   0.39173
   6        1PX         0.00000   0.00000   0.00000   0.00000   0.00000
   7        1PY        -0.18383  -0.05163   0.01029  -0.08391   0.13346
   8        1PZ         0.01217   0.23567  -0.02648   0.36476   0.00857
   9 3   O  1S          0.64039   0.58839   0.00000   0.00000  -0.29945
  10        1PX         0.00000   0.00000   0.00000   0.00000   0.00000
  11        1PY         0.00000   0.00000   0.33188   0.51058   0.00000
  12        1PZ        -0.20078   0.02606   0.00000   0.00000  -0.18517
  13 4   C  1S          0.36695  -0.12188  -0.51534  -0.11375   0.39173
  14        1PX         0.00000   0.00000   0.00000   0.00000   0.00000
  15        1PY         0.18383   0.05163   0.01029  -0.08391  -0.13346
  16        1PZ         0.01217   0.23567   0.02648  -0.36476   0.00857
  17 5   C  1S          0.28155  -0.47045  -0.29259   0.34651  -0.24895
  18        1PX         0.00000   0.00000   0.00000   0.00000   0.00000
  19        1PY         0.06567  -0.08916   0.15248  -0.19149  -0.19443
  20        1PZ         0.11233  -0.03543  -0.12380  -0.02198   0.27960
  21 6   H  1S          0.06039  -0.14921  -0.11375   0.22232  -0.16820
  22 7   H  1S          0.07970  -0.02653  -0.20353  -0.09988   0.24583
  23 8   H  1S          0.07970  -0.02653   0.20353   0.09988   0.24583
  24 9   H  1S          0.06039  -0.14921   0.11375  -0.22232  -0.16820
                           6         7         8         9        10
                        (A1)--O   (B1)--O   (B2)--O   (A1)--O   (B2)--O
     Eigenvalues --    -0.68658  -0.60371  -0.56598  -0.50775  -0.50730
   1 1   C  1S          0.08235   0.00000   0.17913   0.04045  -0.01738
   2        1PX         0.00000   0.22513   0.00000   0.00000   0.00000
   3        1PY         0.19682   0.00000   0.07086  -0.16002  -0.07744
   4        1PZ        -0.21822   0.00000  -0.16601   0.34175   0.40865
   5 2   C  1S          0.09165   0.00000  -0.14445  -0.04230   0.08897
   6        1PX         0.00000   0.38517   0.00000   0.00000   0.00000
   7        1PY         0.36867   0.00000  -0.39435   0.10885  -0.26988
   8        1PZ         0.09419   0.00000   0.08009  -0.24995  -0.29740
   9 3   O  1S          0.18804   0.00000   0.00000   0.18658   0.00000
  10        1PX         0.00000   0.77583   0.00000   0.00000   0.00000
  11        1PY         0.00000   0.00000   0.45306   0.00000   0.00566
  12        1PZ         0.47710   0.00000   0.00000   0.60966   0.00000
  13 4   C  1S          0.09165   0.00000   0.14445  -0.04230  -0.08897
  14        1PX         0.00000   0.38517   0.00000   0.00000   0.00000
  15        1PY        -0.36867   0.00000  -0.39435  -0.10885  -0.26988
  16        1PZ         0.09419   0.00000  -0.08009  -0.24995   0.29740
  17 5   C  1S          0.08235   0.00000  -0.17913   0.04045   0.01738
  18        1PX         0.00000   0.22513   0.00000   0.00000   0.00000
  19        1PY        -0.19682   0.00000   0.07086   0.16002  -0.07744
  20        1PZ        -0.21822   0.00000   0.16601   0.34175  -0.40865
  21 6   H  1S          0.22030   0.00000  -0.23001  -0.27266   0.31075
  22 7   H  1S          0.27138   0.00000   0.31145  -0.04745   0.24683
  23 8   H  1S          0.27138   0.00000  -0.31145  -0.04745  -0.24683
  24 9   H  1S          0.22030   0.00000   0.23001  -0.27266  -0.31075
                          11        12        13        14        15
                        (A1)--O   (B1)--O   (A2)--O   (B1)--V   (A2)--V
     Eigenvalues --    -0.49860  -0.39473  -0.34779   0.03154   0.06415
   1 1   C  1S         -0.01197   0.00000   0.00000   0.00000   0.00000
   2        1PX         0.00000   0.58415   0.38412  -0.32876   0.59368
   3        1PY         0.53648   0.00000   0.00000   0.00000   0.00000
   4        1PZ         0.11362   0.00000   0.00000   0.00000   0.00000
   5 2   C  1S         -0.04037   0.00000   0.00000   0.00000   0.00000
   6        1PX         0.00000   0.17109   0.59368   0.56778  -0.38412
   7        1PY        -0.10949   0.00000   0.00000   0.00000   0.00000
   8        1PZ        -0.30572   0.00000   0.00000   0.00000   0.00000
   9 3   O  1S          0.10891   0.00000   0.00000   0.00000   0.00000
  10        1PX         0.00000  -0.50891   0.00000  -0.37296   0.00000
  11        1PY         0.00000   0.00000   0.00000   0.00000   0.00000
  12        1PZ         0.02822   0.00000   0.00000   0.00000   0.00000
  13 4   C  1S         -0.04037   0.00000   0.00000   0.00000   0.00000
  14        1PX         0.00000   0.17109  -0.59368   0.56778   0.38412
  15        1PY         0.10949   0.00000   0.00000   0.00000   0.00000
  16        1PZ        -0.30572   0.00000   0.00000   0.00000   0.00000
  17 5   C  1S         -0.01197   0.00000   0.00000   0.00000   0.00000
  18        1PX         0.00000   0.58415  -0.38412  -0.32876  -0.59368
  19        1PY        -0.53648   0.00000   0.00000   0.00000   0.00000
  20        1PZ         0.11362   0.00000   0.00000   0.00000   0.00000
  21 6   H  1S          0.17787   0.00000   0.00000   0.00000   0.00000
  22 7   H  1S         -0.23256   0.00000   0.00000   0.00000   0.00000
  23 8   H  1S         -0.23256   0.00000   0.00000   0.00000   0.00000
  24 9   H  1S          0.17787   0.00000   0.00000   0.00000   0.00000
                          16        17        18        19        20
                        (A1)--V   (B2)--V   (B2)--V   (A1)--V   (B2)--V
     Eigenvalues --     0.09836   0.14070   0.14951   0.15335   0.18077
   1 1   C  1S         -0.04984  -0.31956   0.18354   0.02749  -0.29909
   2        1PX         0.00000   0.00000   0.00000   0.00000   0.00000
   3        1PY        -0.01018   0.21862   0.37237   0.02332   0.27728
   4        1PZ         0.03881  -0.01509   0.08954   0.36753   0.31623
   5 2   C  1S          0.28538   0.25844  -0.25489  -0.28979  -0.20514
   6        1PX         0.00000   0.00000   0.00000   0.00000   0.00000
   7        1PY        -0.22765   0.24705   0.27766  -0.22978  -0.11435
   8        1PZ         0.32708   0.00447   0.07988   0.17813  -0.10567
   9 3   O  1S         -0.23831   0.00000   0.00000  -0.06202   0.00000
  10        1PX         0.00000   0.00000   0.00000   0.00000   0.00000
  11        1PY         0.00000  -0.00139   0.34927   0.00000   0.14002
  12        1PZ         0.48964   0.00000   0.00000   0.09142   0.00000
  13 4   C  1S          0.28538  -0.25844   0.25489  -0.28979   0.20514
  14        1PX         0.00000   0.00000   0.00000   0.00000   0.00000
  15        1PY         0.22765   0.24705   0.27766   0.22978  -0.11435
  16        1PZ         0.32708  -0.00447  -0.07988   0.17813   0.10567
  17 5   C  1S         -0.04984   0.31956  -0.18354   0.02749   0.29909
  18        1PX         0.00000   0.00000   0.00000   0.00000   0.00000
  19        1PY         0.01018   0.21862   0.37237  -0.02332   0.27728
  20        1PZ         0.03881   0.01509  -0.08954   0.36753  -0.31623
  21 6   H  1S          0.13042  -0.15274   0.32692   0.26152  -0.30064
  22 7   H  1S         -0.30063   0.44574   0.05763   0.34730  -0.25914
  23 8   H  1S         -0.30063  -0.44574  -0.05763   0.34730   0.25914
  24 9   H  1S          0.13042   0.15274  -0.32692   0.26152   0.30064
                          21        22        23        24
                        (A1)--V   (A1)--V   (B2)--V   (B2)--V
     Eigenvalues --     0.18272   0.18989   0.20723   0.22421
   1 1   C  1S         -0.32936   0.13095   0.17973  -0.06612
   2        1PX         0.00000   0.00000   0.00000   0.00000
   3        1PY        -0.31133   0.01403  -0.31880  -0.25315
   4        1PZ         0.06273   0.30018   0.39849  -0.15032
   5 2   C  1S          0.10732  -0.09102  -0.11581  -0.07387
   6        1PX         0.00000   0.00000   0.00000   0.00000
   7        1PY         0.10463   0.41280   0.24047   0.23552
   8        1PZ        -0.25340   0.27659   0.22191  -0.45230
   9 3   O  1S          0.06405   0.08515   0.00000   0.00000
  10        1PX         0.00000   0.00000   0.00000   0.00000
  11        1PY         0.00000   0.00000   0.06110   0.52777
  12        1PZ        -0.05035  -0.27198   0.00000   0.00000
  13 4   C  1S          0.10732  -0.09102   0.11581   0.07387
  14        1PX         0.00000   0.00000   0.00000   0.00000
  15        1PY        -0.10463  -0.41280   0.24047   0.23552
  16        1PZ        -0.25340   0.27659  -0.22191   0.45230
  17 5   C  1S         -0.32936   0.13095  -0.17973   0.06612
  18        1PX         0.00000   0.00000   0.00000   0.00000
  19        1PY         0.31133  -0.01403  -0.31880  -0.25315
  20        1PZ         0.06273   0.30018  -0.39849   0.15032
  21 6   H  1S          0.44478   0.08970  -0.25362  -0.05707
  22 7   H  1S         -0.05325  -0.29782   0.14353  -0.03023
  23 8   H  1S         -0.05325  -0.29782  -0.14353   0.03023
  24 9   H  1S          0.44478   0.08970   0.25362   0.05707
     Density Matrix:
                           1         2         3         4         5
   1 1   C  1S          1.21841
   2        1PX         0.00000   1.07893
   3        1PY         0.03897   0.00000   0.94633
   4        1PZ        -0.07010   0.00000  -0.04320   0.95947
   5 2   C  1S          0.30679   0.00000   0.16804   0.48532   1.24414
   6        1PX         0.00000   0.82940   0.00000   0.00000   0.00000
   7        1PY        -0.11697   0.00000   0.08083  -0.16517   0.10687
   8        1PZ        -0.44580   0.00000  -0.25755  -0.55077   0.00093
   9 3   O  1S         -0.00045   0.00000   0.03553   0.00493   0.10183
  10        1PX         0.00000  -0.24523   0.00000   0.00000   0.00000
  11        1PY         0.00248   0.00000  -0.03099  -0.04117   0.32834
  12        1PZ         0.08184   0.00000  -0.01802   0.06440  -0.26518
  13 4   C  1S         -0.02898   0.00000   0.00935  -0.02123   0.01498
  14        1PX         0.00000  -0.08276   0.00000   0.00000   0.00000
  15        1PY        -0.01848   0.00000  -0.03847  -0.01640   0.00798
  16        1PZ         0.01270   0.00000  -0.07684  -0.03042   0.04166
  17 5   C  1S          0.26613   0.00000  -0.46107  -0.03716  -0.02898
  18        1PX         0.00000   0.48875   0.00000   0.00000   0.00000
  19        1PY         0.46107   0.00000  -0.66258  -0.07177  -0.00935
  20        1PZ        -0.03716   0.00000   0.07177   0.11801  -0.02123
  21 6   H  1S         -0.04573   0.00000   0.06433  -0.00006   0.05309
  22 7   H  1S          0.04698   0.00000  -0.06502  -0.00293   0.05154
  23 8   H  1S         -0.05926   0.00000  -0.02921  -0.09001   0.60865
  24 9   H  1S          0.58196   0.00000   0.46545  -0.62397  -0.05709
                           6         7         8         9        10
   6        1PX         1.06017
   7        1PY         0.00000   0.89904
   8        1PZ         0.00000   0.09105   0.89838
   9 3   O  1S          0.00000  -0.22071   0.16334   1.85602
  10        1PX         0.42352   0.00000   0.00000   0.00000   1.72180
  11        1PY         0.00000  -0.43924   0.42411   0.00000   0.00000
  12        1PZ         0.00000   0.50003  -0.22793   0.29748   0.00000
  13 4   C  1S          0.00000  -0.00798   0.04166   0.10183   0.00000
  14        1PX        -0.34965   0.00000   0.00000   0.00000   0.42352
  15        1PY         0.00000   0.04295  -0.01986   0.22071   0.00000
  16        1PZ         0.00000   0.01986  -0.01608   0.16334   0.00000
  17 5   C  1S          0.00000   0.01848   0.01270  -0.00045   0.00000
  18        1PX        -0.08276   0.00000   0.00000   0.00000  -0.24523
  19        1PY         0.00000  -0.03847   0.07684  -0.03553   0.00000
  20        1PZ         0.00000   0.01640  -0.03042   0.00493   0.00000
  21 6   H  1S          0.00000  -0.01354  -0.05616   0.02235   0.00000
  22 7   H  1S          0.00000  -0.08655   0.05168  -0.04267   0.00000
  23 8   H  1S          0.00000   0.64605   0.36970  -0.04267   0.00000
  24 9   H  1S          0.00000   0.03841   0.05077   0.02235   0.00000
                          11        12        13        14        15
  11        1PY         1.15225
  12        1PZ         0.00000   1.35078
  13 4   C  1S         -0.32834  -0.26518   1.24414
  14        1PX         0.00000   0.00000   0.00000   1.06017
  15        1PY        -0.43924  -0.50003  -0.10687   0.00000   0.89904
  16        1PZ        -0.42411  -0.22793   0.00093   0.00000  -0.09105
  17 5   C  1S         -0.00248   0.08184   0.30679   0.00000   0.11697
  18        1PX         0.00000   0.00000   0.00000   0.82940   0.00000
  19        1PY        -0.03099   0.01802  -0.16804   0.00000   0.08083
  20        1PZ         0.04117   0.06440   0.48532   0.00000   0.16517
  21 6   H  1S         -0.05337  -0.08195  -0.05709   0.00000  -0.03841
  22 7   H  1S          0.04792   0.06354   0.60865   0.00000  -0.64605
  23 8   H  1S         -0.04792   0.06354   0.05154   0.00000   0.08655
  24 9   H  1S          0.05337  -0.08195   0.05309   0.00000   0.01354
                          16        17        18        19        20
  16        1PZ         0.89838
  17 5   C  1S         -0.44580   1.21841
  18        1PX         0.00000   0.00000   1.07893
  19        1PY         0.25755  -0.03897   0.00000   0.94633
  20        1PZ        -0.55077  -0.07010   0.00000   0.04320   0.95947
  21 6   H  1S          0.05077   0.58196   0.00000  -0.46545  -0.62397
  22 7   H  1S          0.36970  -0.05926   0.00000   0.02921  -0.09001
  23 8   H  1S          0.05168   0.04698   0.00000   0.06502  -0.00293
  24 9   H  1S         -0.05616  -0.04573   0.00000  -0.06433  -0.00006
                          21        22        23        24
  21 6   H  1S          0.84111
  22 7   H  1S          0.00958   0.81359
  23 8   H  1S         -0.01446  -0.02371   0.81359
  24 9   H  1S         -0.00623  -0.01446   0.00958   0.84111
    Full Mulliken population analysis:
                           1         2         3         4         5
   1 1   C  1S          1.21841
   2        1PX         0.00000   1.07893
   3        1PY         0.00000   0.00000   0.94633
   4        1PZ         0.00000   0.00000   0.00000   0.95947
   5 2   C  1S          0.00000   0.00000   0.00000   0.00000   1.24414
   6        1PX         0.00000   0.00000   0.00000   0.00000   0.00000
   7        1PY         0.00000   0.00000   0.00000   0.00000   0.00000
   8        1PZ         0.00000   0.00000   0.00000   0.00000   0.00000
   9 3   O  1S          0.00000   0.00000   0.00000   0.00000   0.00000
  10        1PX         0.00000   0.00000   0.00000   0.00000   0.00000
  11        1PY         0.00000   0.00000   0.00000   0.00000   0.00000
  12        1PZ         0.00000   0.00000   0.00000   0.00000   0.00000
  13 4   C  1S          0.00000   0.00000   0.00000   0.00000   0.00000
  14        1PX         0.00000   0.00000   0.00000   0.00000   0.00000
  15        1PY         0.00000   0.00000   0.00000   0.00000   0.00000
  16        1PZ         0.00000   0.00000   0.00000   0.00000   0.00000
  17 5   C  1S          0.00000   0.00000   0.00000   0.00000   0.00000
  18        1PX         0.00000   0.00000   0.00000   0.00000   0.00000
  19        1PY         0.00000   0.00000   0.00000   0.00000   0.00000
  20        1PZ         0.00000   0.00000   0.00000   0.00000   0.00000
  21 6   H  1S          0.00000   0.00000   0.00000   0.00000   0.00000
  22 7   H  1S          0.00000   0.00000   0.00000   0.00000   0.00000
  23 8   H  1S          0.00000   0.00000   0.00000   0.00000   0.00000
  24 9   H  1S          0.00000   0.00000   0.00000   0.00000   0.00000
                           6         7         8         9        10
   6        1PX         1.06017
   7        1PY         0.00000   0.89904
   8        1PZ         0.00000   0.00000   0.89838
   9 3   O  1S          0.00000   0.00000   0.00000   1.85602
  10        1PX         0.00000   0.00000   0.00000   0.00000   1.72180
  11        1PY         0.00000   0.00000   0.00000   0.00000   0.00000
  12        1PZ         0.00000   0.00000   0.00000   0.00000   0.00000
  13 4   C  1S          0.00000   0.00000   0.00000   0.00000   0.00000
  14        1PX         0.00000   0.00000   0.00000   0.00000   0.00000
  15        1PY         0.00000   0.00000   0.00000   0.00000   0.00000
  16        1PZ         0.00000   0.00000   0.00000   0.00000   0.00000
  17 5   C  1S          0.00000   0.00000   0.00000   0.00000   0.00000
  18        1PX         0.00000   0.00000   0.00000   0.00000   0.00000
  19        1PY         0.00000   0.00000   0.00000   0.00000   0.00000
  20        1PZ         0.00000   0.00000   0.00000   0.00000   0.00000
  21 6   H  1S          0.00000   0.00000   0.00000   0.00000   0.00000
  22 7   H  1S          0.00000   0.00000   0.00000   0.00000   0.00000
  23 8   H  1S          0.00000   0.00000   0.00000   0.00000   0.00000
  24 9   H  1S          0.00000   0.00000   0.00000   0.00000   0.00000
                          11        12        13        14        15
  11        1PY         1.15225
  12        1PZ         0.00000   1.35078
  13 4   C  1S          0.00000   0.00000   1.24414
  14        1PX         0.00000   0.00000   0.00000   1.06017
  15        1PY         0.00000   0.00000   0.00000   0.00000   0.89904
  16        1PZ         0.00000   0.00000   0.00000   0.00000   0.00000
  17 5   C  1S          0.00000   0.00000   0.00000   0.00000   0.00000
  18        1PX         0.00000   0.00000   0.00000   0.00000   0.00000
  19        1PY         0.00000   0.00000   0.00000   0.00000   0.00000
  20        1PZ         0.00000   0.00000   0.00000   0.00000   0.00000
  21 6   H  1S          0.00000   0.00000   0.00000   0.00000   0.00000
  22 7   H  1S          0.00000   0.00000   0.00000   0.00000   0.00000
  23 8   H  1S          0.00000   0.00000   0.00000   0.00000   0.00000
  24 9   H  1S          0.00000   0.00000   0.00000   0.00000   0.00000
                          16        17        18        19        20
  16        1PZ         0.89838
  17 5   C  1S          0.00000   1.21841
  18        1PX         0.00000   0.00000   1.07893
  19        1PY         0.00000   0.00000   0.00000   0.94633
  20        1PZ         0.00000   0.00000   0.00000   0.00000   0.95947
  21 6   H  1S          0.00000   0.00000   0.00000   0.00000   0.00000
  22 7   H  1S          0.00000   0.00000   0.00000   0.00000   0.00000
  23 8   H  1S          0.00000   0.00000   0.00000   0.00000   0.00000
  24 9   H  1S          0.00000   0.00000   0.00000   0.00000   0.00000
                          21        22        23        24
  21 6   H  1S          0.84111
  22 7   H  1S          0.00000   0.81359
  23 8   H  1S          0.00000   0.00000   0.81359
  24 9   H  1S          0.00000   0.00000   0.00000   0.84111
     Gross orbital populations:
                           1
   1 1   C  1S          1.21841
   2        1PX         1.07893
   3        1PY         0.94633
   4        1PZ         0.95947
   5 2   C  1S          1.24414
   6        1PX         1.06017
   7        1PY         0.89904
   8        1PZ         0.89838
   9 3   O  1S          1.85602
  10        1PX         1.72180
  11        1PY         1.15225
  12        1PZ         1.35078
  13 4   C  1S          1.24414
  14        1PX         1.06017
  15        1PY         0.89904
  16        1PZ         0.89838
  17 5   C  1S          1.21841
  18        1PX         1.07893
  19        1PY         0.94633
  20        1PZ         0.95947
  21 6   H  1S          0.84111
  22 7   H  1S          0.81359
  23 8   H  1S          0.81359
  24 9   H  1S          0.84111
          Condensed to atoms (all electrons):
               1          2          3          4          5          6
     1  C    4.203139   0.000000   0.000000   0.000000   0.000000   0.000000
     2  C    0.000000   4.101729   0.000000   0.000000   0.000000   0.000000
     3  O    0.000000   0.000000   6.080849   0.000000   0.000000   0.000000
     4  C    0.000000   0.000000   0.000000   4.101729   0.000000   0.000000
     5  C    0.000000   0.000000   0.000000   0.000000   4.203139   0.000000
     6  H    0.000000   0.000000   0.000000   0.000000   0.000000   0.841114
     7  H    0.000000   0.000000   0.000000   0.000000   0.000000   0.000000
     8  H    0.000000   0.000000   0.000000   0.000000   0.000000   0.000000
     9  H    0.000000   0.000000   0.000000   0.000000   0.000000   0.000000
               7          8          9
     1  C    0.000000   0.000000   0.000000
     2  C    0.000000   0.000000   0.000000
     3  O    0.000000   0.000000   0.000000
     4  C    0.000000   0.000000   0.000000
     5  C    0.000000   0.000000   0.000000
     6  H    0.000000   0.000000   0.000000
     7  H    0.813593   0.000000   0.000000
     8  H    0.000000   0.813593   0.000000
     9  H    0.000000   0.000000   0.841114
 Mulliken charges:
               1
     1  C   -0.203139
     2  C   -0.101729
     3  O   -0.080849
     4  C   -0.101729
     5  C   -0.203139
     6  H    0.158886
     7  H    0.186407
     8  H    0.186407
     9  H    0.158886
 Sum of Mulliken charges =   0.00000
 Mulliken charges with hydrogens summed into heavy atoms:
               1
     1  C   -0.044253
     2  C    0.084678
     3  O   -0.080849
     4  C    0.084678
     5  C   -0.044253
 Charge=              0.0000 electrons
 Dipole moment (field-independent basis, Debye):
    X=              0.0000    Y=              0.0000    Z=             -0.3564  Tot=              0.3564
 N-N= 1.035746410173D+02 E-N=-1.712317603743D+02  KE=-1.657292780822D+01
 Symmetry A1   KE=-9.064385645522D+00
 Symmetry A2   KE=-6.266794402698D-01
 Symmetry B1   KE=-1.660398779463D+00
 Symmetry B2   KE=-5.221463942969D+00
 Orbital energies and kinetic energies (alpha):
                                 1                 2
   1         (A1)--O          -1.569898         -1.317259
   2         (A1)--O          -1.237254         -1.050994
   3         (B2)--O          -1.101948         -0.962231
   4         (B2)--O          -0.825173         -0.703628
   5         (A1)--O          -0.814733         -0.726807
   6         (A1)--O          -0.686577         -0.604451
   7         (B1)--O          -0.603709         -0.488196
   8         (B2)--O          -0.565981         -0.506173
   9         (A1)--O          -0.507746         -0.416618
  10         (B2)--O          -0.507302         -0.438700
  11         (A1)--O          -0.498599         -0.416063
  12         (B1)--O          -0.394731         -0.342004
  13         (A2)--O          -0.347785         -0.313340
  14         (B1)--V           0.031541         -0.192973
  15         (A2)--V           0.064146         -0.190376
  16         (A1)--V           0.098356         -0.189440
  17         (B2)--V           0.140700         -0.238333
  18         (B2)--V           0.149510         -0.167148
  19         (A1)--V           0.153352         -0.195135
  20         (B2)--V           0.180770         -0.183344
  21         (A1)--V           0.182724         -0.194450
  22         (A1)--V           0.189888         -0.123362
  23         (B2)--V           0.207234         -0.123605
  24         (B2)--V           0.224206         -0.043096
 Total kinetic energy from orbitals=-1.657292780822D+01
 Leave Link  601 at Mon Jan  4 00:50:41 2016, MaxMem=    33554432 cpu:         0.0
 (Enter /opt/g09/g09/l701.exe)
 Compute integral first derivatives.
 ... and contract with generalized density number  6.
 Leave Link  701 at Mon Jan  4 00:50:41 2016, MaxMem=    33554432 cpu:         0.0
 (Enter /opt/g09/g09/l702.exe)
 L702 exits ... SP integral derivatives will be done elsewhere.
 Leave Link  702 at Mon Jan  4 00:50:41 2016, MaxMem=    33554432 cpu:         0.0
 (Enter /opt/g09/g09/l703.exe)
 Compute integral first derivatives, UseDBF=F ICtDFT=           0.
 Integral derivatives from FoFJK, PRISM(SPDF).
 Calling FoFJK, ICntrl=  10005127 FMM=F ISym2X=1 I1Cent= 0 IOpClX= 0 NMat=1 NMatS=1 NMatT=0.
 FoFJK:  IHMeth= 8 ICntrl=10005127 DoSepK=F KAlg= 0 I1Cent=   0 FoldK=F
 IRaf=         0 NMat=   1 IRICut=       1 DoRegI=T DoRafI=F ISym2E= 1.
 FoFCou: FMM=F IPFlag=           0 FMFlag=      100000 FMFlg1=         800
         NFxFlg=           0 DoJE=F BraDBF=F KetDBF=F FulRan=T
         wScrn=  0.000000 ICntrl=10005127 IOpCl=  0 I1Cent=           0 NGrid=           0
         NMat0=    1 NMatS0=      1 NMatT0=    0 NMatD0=    1 NMtDS0=    0 NMtDT0=    0
 Symmetry not used in FoFCou.
 Leave Link  703 at Mon Jan  4 00:50:41 2016, MaxMem=    33554432 cpu:         0.0
 (Enter /opt/g09/g09/l716.exe)
 Dipole        = 3.87346192D-16 3.10862447D-15-2.44832356D-01
 ***** Axes restored to original set *****
 -------------------------------------------------------------------
 Center     Atomic                   Forces (Hartrees/Bohr)
 Number     Number              X              Y              Z
 -------------------------------------------------------------------
      1        6           0.092176824    0.034220858    0.000000000
      2        6          -0.045492145   -0.064043558    0.000000000
      3        8          -0.097639275    0.000000000    0.000000000
      4        6          -0.045492145    0.064043558    0.000000000
      5        6           0.092176824   -0.034220858    0.000000000
      6        1           0.008855201    0.002989715    0.000000000
      7        1          -0.006720243    0.008545457    0.000000000
      8        1          -0.006720243   -0.008545457    0.000000000
      9        1           0.008855201   -0.002989715    0.000000000
 -------------------------------------------------------------------
 Cartesian Forces:  Max     0.097639275 RMS     0.039262648
 Z-matrix is all fixed cartesians, so copy forces.
 Force constants in Cartesian coordinates: 
                1             2             3             4             5 
      1  0.924213D+00
      2 -0.280496D-01  0.794695D+00
      3  0.000000D+00  0.000000D+00  0.206887D+00
      4 -0.512400D+00 -0.107252D+00  0.000000D+00  0.940723D+00
      5 -0.840374D-01 -0.216108D+00  0.000000D+00  0.222648D-01  0.891463D+00
      6  0.000000D+00  0.000000D+00 -0.105153D+00  0.000000D+00  0.000000D+00
      7 -0.847936D-02  0.292752D-01  0.000000D+00 -0.289302D+00  0.168432D+00
      8 -0.629794D-02  0.217438D-01  0.000000D+00  0.212644D+00 -0.374940D+00
      9  0.000000D+00  0.000000D+00  0.744560D-02  0.000000D+00  0.000000D+00
     10  0.100412D-01  0.000000D+00  0.000000D+00  0.243474D-01  0.180838D-01
     11  0.346676D-01  0.000000D+00  0.000000D+00 -0.180838D-01 -0.134315D-01
     12  0.000000D+00  0.000000D+00 -0.114437D-02  0.000000D+00  0.000000D+00
     13 -0.167385D+00  0.115645D-01  0.000000D+00  0.100412D-01 -0.346676D-01
     14 -0.115645D-01 -0.407138D+00  0.000000D+00  0.000000D+00  0.000000D+00
     15  0.000000D+00  0.000000D+00 -0.812287D-01  0.000000D+00  0.000000D+00
     16  0.176569D-01  0.000000D+00  0.000000D+00  0.000000D+00  0.000000D+00
     17 -0.231031D-01  0.000000D+00  0.000000D+00  0.000000D+00  0.000000D+00
     18  0.000000D+00  0.000000D+00  0.180027D-01  0.000000D+00  0.000000D+00
     19  0.000000D+00  0.000000D+00  0.000000D+00  0.000000D+00  0.000000D+00
     20  0.000000D+00  0.000000D+00  0.000000D+00  0.000000D+00  0.000000D+00
     21  0.000000D+00  0.000000D+00  0.703148D-02  0.000000D+00  0.000000D+00
     22  0.760156D-02 -0.262446D-01  0.000000D+00 -0.168217D+00 -0.108004D+00
     23 -0.394138D-02  0.136077D-01  0.000000D+00 -0.102778D+00 -0.310441D+00
     24  0.000000D+00  0.000000D+00  0.295845D-01  0.000000D+00  0.000000D+00
     25 -0.271249D+00  0.120707D+00  0.000000D+00 -0.519280D-02  0.179283D-01
     26  0.122326D+00 -0.206800D+00  0.000000D+00 -0.679449D-02  0.234582D-01
     27  0.000000D+00  0.000000D+00 -0.814255D-01  0.000000D+00  0.000000D+00
                6             7             8             9            10 
      6  0.197193D+00
      7  0.000000D+00  0.551909D+00
      8  0.000000D+00  0.000000D+00  0.723204D+00
      9 -0.472115D-01  0.000000D+00  0.000000D+00  0.567211D-01
     10  0.000000D+00 -0.289302D+00 -0.212644D+00  0.000000D+00  0.940723D+00
     11  0.000000D+00 -0.168432D+00 -0.374940D+00  0.000000D+00 -0.222648D-01
     12 -0.169673D-02  0.000000D+00  0.000000D+00 -0.472115D-01  0.000000D+00
     13  0.000000D+00 -0.847936D-02  0.629794D-02  0.000000D+00 -0.512400D+00
     14  0.000000D+00 -0.292752D-01  0.217438D-01  0.000000D+00  0.107252D+00
     15 -0.114437D-02  0.000000D+00  0.000000D+00  0.744560D-02  0.000000D+00
     16  0.000000D+00  0.000000D+00  0.000000D+00  0.000000D+00 -0.519280D-02
     17  0.000000D+00  0.000000D+00  0.000000D+00  0.000000D+00  0.679449D-02
     18  0.419500D-02  0.000000D+00  0.000000D+00  0.682264D-02  0.000000D+00
     19  0.000000D+00  0.218269D-01 -0.162117D-01  0.000000D+00 -0.168217D+00
     20  0.000000D+00  0.113172D-01 -0.840572D-02  0.000000D+00  0.102778D+00
     21  0.490261D-02  0.000000D+00  0.000000D+00  0.458270D-02  0.000000D+00
     22  0.000000D+00  0.218269D-01  0.162117D-01  0.000000D+00  0.000000D+00
     23  0.000000D+00 -0.113172D-01 -0.840572D-02  0.000000D+00  0.000000D+00
     24 -0.772883D-01  0.000000D+00  0.000000D+00  0.458270D-02  0.000000D+00
     25  0.000000D+00  0.000000D+00  0.000000D+00  0.000000D+00  0.000000D+00
     26  0.000000D+00  0.000000D+00  0.000000D+00  0.000000D+00  0.000000D+00
     27  0.262030D-01  0.000000D+00  0.000000D+00  0.682264D-02  0.000000D+00
               11            12            13            14            15 
     11  0.891463D+00
     12  0.000000D+00  0.197193D+00
     13  0.840374D-01  0.000000D+00  0.924213D+00
     14 -0.216108D+00  0.000000D+00  0.280496D-01  0.794695D+00
     15  0.000000D+00 -0.105153D+00  0.000000D+00  0.000000D+00  0.206887D+00
     16 -0.179283D-01  0.000000D+00 -0.271249D+00 -0.120707D+00  0.000000D+00
     17  0.234582D-01  0.000000D+00 -0.122326D+00 -0.206800D+00  0.000000D+00
     18  0.000000D+00  0.262030D-01  0.000000D+00  0.000000D+00 -0.814255D-01
     19  0.108004D+00  0.000000D+00  0.760156D-02  0.262446D-01  0.000000D+00
     20 -0.310441D+00  0.000000D+00  0.394138D-02  0.136077D-01  0.000000D+00
     21  0.000000D+00 -0.772883D-01  0.000000D+00  0.000000D+00  0.295845D-01
     22  0.000000D+00  0.000000D+00  0.000000D+00  0.000000D+00  0.000000D+00
     23  0.000000D+00  0.000000D+00  0.000000D+00  0.000000D+00  0.000000D+00
     24  0.000000D+00  0.490261D-02  0.000000D+00  0.000000D+00  0.703148D-02
     25  0.000000D+00  0.000000D+00  0.176569D-01  0.000000D+00  0.000000D+00
     26  0.000000D+00  0.000000D+00  0.231031D-01  0.000000D+00  0.000000D+00
     27  0.000000D+00  0.419500D-02  0.000000D+00  0.000000D+00  0.180027D-01
               16            17            18            19            20 
     16  0.258784D+00
     17  0.138635D+00  0.183342D+00
     18  0.000000D+00  0.000000D+00  0.437604D-01
     19  0.000000D+00  0.000000D+00  0.000000D+00  0.138789D+00
     20  0.000000D+00  0.000000D+00  0.000000D+00 -0.118037D+00  0.305239D+00
     21  0.000000D+00  0.000000D+00 -0.111742D-01  0.000000D+00  0.000000D+00
     22  0.000000D+00  0.000000D+00  0.000000D+00  0.000000D+00  0.000000D+00
     23  0.000000D+00  0.000000D+00  0.000000D+00  0.000000D+00  0.000000D+00
     24  0.000000D+00  0.000000D+00  0.000000D+00  0.000000D+00  0.000000D+00
     25  0.000000D+00  0.000000D+00  0.000000D+00  0.000000D+00  0.000000D+00
     26  0.000000D+00  0.000000D+00  0.000000D+00  0.000000D+00  0.000000D+00
     27  0.000000D+00  0.000000D+00 -0.638405D-02  0.000000D+00  0.000000D+00
               21            22            23            24            25 
     21  0.423613D-01
     22  0.000000D+00  0.138789D+00
     23  0.000000D+00  0.118037D+00  0.305239D+00
     24  0.000000D+00  0.000000D+00  0.000000D+00  0.423613D-01
     25  0.000000D+00  0.000000D+00  0.000000D+00  0.000000D+00  0.258784D+00
     26  0.000000D+00  0.000000D+00  0.000000D+00  0.000000D+00 -0.138635D+00
     27  0.000000D+00  0.000000D+00  0.000000D+00 -0.111742D-01  0.000000D+00
               26            27 
     26  0.183342D+00
     27  0.000000D+00  0.437604D-01
 Leave Link  716 at Mon Jan  4 00:50:41 2016, MaxMem=    33554432 cpu:         0.0
 (Enter /opt/g09/g09/l103.exe)

 GradGradGradGradGradGradGradGradGradGradGradGradGradGradGradGradGradGrad
 Berny optimization.
 Search for a local minimum.
 Step number   1 out of a maximum of    2
 All quantities printed in internal units (Hartrees-Bohrs-Radians)
 Second derivative matrix not updated -- first step.
 ITU=  0
     Eigenvalues ---    0.01909   0.03141   0.07126   0.07691   0.07808
     Eigenvalues ---    0.08747   0.13104   0.14637   0.16226   0.24533
     Eigenvalues ---    0.26538   0.31677   0.39564   0.44355   0.64083
     Eigenvalues ---    0.84260   1.09116   1.36585   1.42549   1.55968
     Eigenvalues ---    1.63590
 Quadratic step=4.058D-01 exceeds max=3.000D-01 adjusted using Lamda=-8.626D-02.
 Angle between NR and scaled steps=  11.23 degrees.
 Angle between quadratic step and forces=  35.54 degrees.
 ClnCor:  largest displacement from symmetrization is 4.45D-15 for atom     9.
 Linear search not attempted -- first point.
 ClnCor:  largest displacement from symmetrization is 2.22D-16 for atom     5.
 TrRot= -0.011719  0.000000  0.000000  0.000000  0.000000  0.000000
 Variable       Old X    -DE/DX   Delta X   Delta X   Delta X     New X
                                 (Linear)    (Quad)   (Total)
    X1        1.80559   0.09218   0.00000   0.10957   0.09785   1.90343
    Y1       -1.35297   0.03422   0.00000   0.00976   0.00976  -1.34321
    Z1        0.00000   0.00000   0.00000   0.00000   0.00000   0.00000
    X2       -0.65314  -0.04549   0.00000  -0.04337  -0.05509  -0.70823
    Y2       -2.06513  -0.06404   0.00000  -0.04469  -0.04469  -2.10981
    Z2        0.00000   0.00000   0.00000   0.00000   0.00000   0.00000
    X3       -2.18699  -0.09764   0.00000  -0.16410  -0.17582  -2.36281
    Y3        0.00000   0.00000   0.00000   0.00000   0.00000   0.00000
    Z3        0.00000   0.00000   0.00000   0.00000   0.00000   0.00000
    X4       -0.65314  -0.04549   0.00000  -0.04337  -0.05509  -0.70823
    Y4        2.06513   0.06404   0.00000   0.04469   0.04469   2.10981
    Z4        0.00000   0.00000   0.00000   0.00000   0.00000   0.00000
    X5        1.80559   0.09218   0.00000   0.10957   0.09785   1.90343
    Y5        1.35297  -0.03422   0.00000  -0.00976  -0.00976   1.34321
    Z5        0.00000   0.00000   0.00000   0.00000   0.00000   0.00000
    X6        3.42123   0.00886   0.00000   0.10360   0.09188   3.51312
    Y6        2.58776   0.00299   0.00000   0.00664   0.00664   2.59439
    Z6        0.00000   0.00000   0.00000   0.00000   0.00000   0.00000
    X7       -1.58795  -0.00672   0.00000  -0.03502  -0.04673  -1.63468
    Y7        3.86805   0.00855   0.00000   0.06207   0.06207   3.93012
    Z7        0.00000   0.00000   0.00000   0.00000   0.00000   0.00000
    X8       -1.58795  -0.00672   0.00000  -0.03502  -0.04673  -1.63468
    Y8       -3.86805  -0.00855   0.00000  -0.06207  -0.06207  -3.93012
    Z8        0.00000   0.00000   0.00000   0.00000   0.00000   0.00000
    X9        3.42123   0.00886   0.00000   0.10360   0.09188   3.51312
    Y9       -2.58776  -0.00299   0.00000  -0.00664  -0.00664  -2.59439
    Z9        0.00000   0.00000   0.00000   0.00000   0.00000   0.00000
         Item               Value     Threshold  Converged?
 Maximum Force            0.097639     0.000450     NO 
 RMS     Force            0.039263     0.000300     NO 
 Maximum Displacement     0.175821     0.001800     NO 
 RMS     Displacement     0.057530     0.001200     NO 
 Predicted change in Energy=-2.889020D-02
 GradGradGradGradGradGradGradGradGradGradGradGradGradGradGradGradGradGrad

 Leave Link  103 at Mon Jan  4 00:50:41 2016, MaxMem=    33554432 cpu:         0.0
 (Enter /opt/g09/g09/l9999.exe)
 1\1\GINC-LINUX-CBNE\Force\RAM1-FC\STO-3G\C4H4O1\DUSTIN\04-Jan-2016\0\\
 #P AM1(print) CIS(Singlets,NStates=15) pop(full) force\\AM1-Reparam In
 put\\0,1\C,0.955475,-0.715963,0.\C,-0.345627,-1.092818,0.\O,-1.157305,
 0.,0.\C,-0.345627,1.092818,0.\C,0.955475,0.715963,0.\H,1.810438,1.3693
 82,0.\H,-0.840307,2.046884,0.\H,-0.840307,-2.046884,0.\H,1.810438,-1.3
 69382,0.\\Version=ES64L-G09RevD.01\State=1-A1\HF=0.0108593\RMSD=4.829e
 -09\RMSF=3.926e-02\Dipole=0.2448324,0.,0.\PG=C02V [C2(O1),SGV(C4H4)]\\
 @


 I WOULD TAKE COUNSEL OF MYSELF.
 I WOULD STOP AND LOOK WITHIN
 AND LOOKING WITHIN, LOOK BACK, ALSO
 THAT I MAY LOOK AHEAD WITH CLEARER UNDERSTANDING
 OF THE WAY I HAVE BEEN MOVING, AND IN WHAT DIRECTION.
 I NEED TO KNOW IF I AM GOING FORWARD OR RETREATING,
 WHETHER I HAVE BEEN WASTING, OR ENJOYING
 THE PRECIOUS MOMENTS OF LIFE.  THERE HAVE BEEN FRICTIONS,
 ANNOYANCES AND SOMETIMES WRATH,
 BUT WERE THEY BECAUSE I WAS RIGHT AND OTHERS WRONG.....
 HAVE I HAD MY THOUGHTS TOO SHARPLY FOCUSED
 ON THAT WHICH PLEASED ME, SERVED MY SELF-ESTEEM,
 UNDERGIRDED MY SECURITY,
 OF WHICH I DID NOT INQUIRE WHETHER IT SERVED OR HAMPERED OTHERS.....
 HAVE I BEEN TRYING TO STOP THE CLOCK
 TO HOLD THE WORLD
 IN PERPETUATION OF WHAT WAS AN IS ALREADY SLIPPING AWAY.....
 HAVE I BEEN CRITICAL OF OTHERS FOR WHAT REALLY NEEDED CHANGING IN ME...
 LET ME INDEED TAKE COUNSEL OF MYSELF
 AND SET MY DIRECTIONS STRAIGHT.

                          R.T. WESTON AS ADAPTED BY D. OSBORN 1967
 Job cpu time:       0 days  0 hours  0 minutes  0.4 seconds.
 File lengths (MBytes):  RWF=      7 Int=      0 D2E=      0 Chk=      2 Scr=      1
 Normal termination of Gaussian 09 at Mon Jan  4 00:50:41 2016.
