 Entering Gaussian System, Link 0=g09
 Input=FuranDFT_60.com
 Output=FuranDFT_60.log
 Initial command:
 /home/Applications/g09/g09/l1.exe "/home/Applications/g09/scratch/Gau-6072.inp" -scrdir="/home/Applications/g09/scratch/"
 Entering Link 1 = /home/Applications/g09/g09/l1.exe PID=      6074.
  
 Copyright (c) 1988,1990,1992,1993,1995,1998,2003,2009,2013,
            Gaussian, Inc.  All Rights Reserved.
  
 This is part of the Gaussian(R) 09 program.  It is based on
 the Gaussian(R) 03 system (copyright 2003, Gaussian, Inc.),
 the Gaussian(R) 98 system (copyright 1998, Gaussian, Inc.),
 the Gaussian(R) 94 system (copyright 1995, Gaussian, Inc.),
 the Gaussian 92(TM) system (copyright 1992, Gaussian, Inc.),
 the Gaussian 90(TM) system (copyright 1990, Gaussian, Inc.),
 the Gaussian 88(TM) system (copyright 1988, Gaussian, Inc.),
 the Gaussian 86(TM) system (copyright 1986, Carnegie Mellon
 University), and the Gaussian 82(TM) system (copyright 1983,
 Carnegie Mellon University). Gaussian is a federally registered
 trademark of Gaussian, Inc.
  
 This software contains proprietary and confidential information,
 including trade secrets, belonging to Gaussian, Inc.
  
 This software is provided under written license and may be
 used, copied, transmitted, or stored only in accord with that
 written license.
  
 The following legend is applicable only to US Government
 contracts under FAR:
  
                    RESTRICTED RIGHTS LEGEND
  
 Use, reproduction and disclosure by the US Government is
 subject to restrictions as set forth in subparagraphs (a)
 and (c) of the Commercial Computer Software - Restricted
 Rights clause in FAR 52.227-19.
  
 Gaussian, Inc.
 340 Quinnipiac St., Bldg. 40, Wallingford CT 06492
  
  
 ---------------------------------------------------------------
 Warning -- This program may not be used in any manner that
 competes with the business of Gaussian, Inc. or will provide
 assistance to any competitor of Gaussian, Inc.  The licensee
 of this program is prohibited from giving any competitor of
 Gaussian, Inc. access to this program.  By using this program,
 the user acknowledges that Gaussian, Inc. is engaged in the
 business of creating and licensing software in the field of
 computational chemistry and represents and warrants to the
 licensee that it is not a competitor of Gaussian, Inc. and that
 it will not use this program in any manner prohibited above.
 ---------------------------------------------------------------
  

 Cite this work as:
 Gaussian 09, Revision D.01,
 M. J. Frisch, G. W. Trucks, H. B. Schlegel, G. E. Scuseria, 
 M. A. Robb, J. R. Cheeseman, G. Scalmani, V. Barone, B. Mennucci, 
 G. A. Petersson, H. Nakatsuji, M. Caricato, X. Li, H. P. Hratchian, 
 A. F. Izmaylov, J. Bloino, G. Zheng, J. L. Sonnenberg, M. Hada, 
 M. Ehara, K. Toyota, R. Fukuda, J. Hasegawa, M. Ishida, T. Nakajima, 
 Y. Honda, O. Kitao, H. Nakai, T. Vreven, J. A. Montgomery, Jr., 
 J. E. Peralta, F. Ogliaro, M. Bearpark, J. J. Heyd, E. Brothers, 
 K. N. Kudin, V. N. Staroverov, T. Keith, R. Kobayashi, J. Normand, 
 K. Raghavachari, A. Rendell, J. C. Burant, S. S. Iyengar, J. Tomasi, 
 M. Cossi, N. Rega, J. M. Millam, M. Klene, J. E. Knox, J. B. Cross, 
 V. Bakken, C. Adamo, J. Jaramillo, R. Gomperts, R. E. Stratmann, 
 O. Yazyev, A. J. Austin, R. Cammi, C. Pomelli, J. W. Ochterski, 
 R. L. Martin, K. Morokuma, V. G. Zakrzewski, G. A. Voth, 
 P. Salvador, J. J. Dannenberg, S. Dapprich, A. D. Daniels, 
 O. Farkas, J. B. Foresman, J. V. Ortiz, J. Cioslowski, 
 and D. J. Fox, Gaussian, Inc., Wallingford CT, 2013.
 
 ******************************************
 Gaussian 09:  ES64L-G09RevD.01 24-Apr-2013
                15-Dec-2015 
 ******************************************
 -------------------------------------------------------
 #P B3LYP/3-21G CIS(Singlets,NStates=15) pop(full) force
 -------------------------------------------------------
 1/10=7,30=1,38=1/1,3;
 2/12=2,17=6,18=5,40=1/2;
 3/5=5,11=9,16=1,25=1,30=1,71=1,74=-5/1,2,8,3;
 4//1;
 5/5=2,38=5/2;
 8/6=1,10=1,108=15/1;
 9/15=2,41=15,42=1,48=1/14;
 10/5=4/2;
 6/7=3,18=1/1;
 7/12=6,13=5,29=1/1,2,3,16;
 1/10=7,30=1/3;
 99//99;
 Leave Link    1 at Tue Dec 15 16:23:03 2015, MaxMem=           0 cpu:         0.0
 (Enter /home/Applications/g09/g09/l101.exe)
 --------
 FuranDFT
 --------
 Symbolic Z-matrix:
 Charge =  0 Multiplicity = 1
 6                     0.96407  -0.6902    0.04665 
 6                    -0.38008  -1.04309   0.01954 
 8                    -1.18844  -0.02265   0.00926 
 6                    -0.35639   1.0654    0.04339 
 6                     0.96261   0.70231   0.04212 
 1                     1.8383    1.38486   0.04833 
 1                    -0.81577   2.06849   0.02137 
 1                    -0.80592  -1.99927   0.03051 
 1                     1.79127  -1.39701  -0.01248 
 
 NAtoms=      9 NQM=        9 NQMF=       0 NMMI=      0 NMMIF=      0
                NMic=       0 NMicF=      0.
                    Isotopes and Nuclear Properties:
 (Nuclear quadrupole moments (NQMom) in fm**2, nuclear magnetic moments (NMagM)
  in nuclear magnetons)

  Atom         1           2           3           4           5           6           7           8           9
 IAtWgt=          12          12          16          12          12           1           1           1           1
 AtmWgt=  12.0000000  12.0000000  15.9949146  12.0000000  12.0000000   1.0078250   1.0078250   1.0078250   1.0078250
 NucSpn=           0           0           0           0           0           1           1           1           1
 AtZEff=   0.0000000   0.0000000   0.0000000   0.0000000   0.0000000   0.0000000   0.0000000   0.0000000   0.0000000
 NQMom=    0.0000000   0.0000000   0.0000000   0.0000000   0.0000000   0.0000000   0.0000000   0.0000000   0.0000000
 NMagM=    0.0000000   0.0000000   0.0000000   0.0000000   0.0000000   2.7928460   2.7928460   2.7928460   2.7928460
 AtZNuc=   6.0000000   6.0000000   8.0000000   6.0000000   6.0000000   1.0000000   1.0000000   1.0000000   1.0000000
 Leave Link  101 at Tue Dec 15 16:23:03 2015, MaxMem=    33554432 cpu:         0.0
 (Enter /home/Applications/g09/g09/l103.exe)

 GradGradGradGradGradGradGradGradGradGradGradGradGradGradGradGradGradGrad
 Berny optimization.
 Initialization pass.
 Trust Radius=3.00D-01 FncErr=1.00D-07 GrdErr=1.00D-07
 Number of steps in this run=      2 maximum allowed number of steps=      2.
 GradGradGradGradGradGradGradGradGradGradGradGradGradGradGradGradGradGrad

 Leave Link  103 at Tue Dec 15 16:23:03 2015, MaxMem=    33554432 cpu:         0.0
 (Enter /home/Applications/g09/g09/l202.exe)
                          Input orientation:                          
 ---------------------------------------------------------------------
 Center     Atomic      Atomic             Coordinates (Angstroms)
 Number     Number       Type             X           Y           Z
 ---------------------------------------------------------------------
      1          6           0        0.964074   -0.690201    0.046651
      2          6           0       -0.380080   -1.043094    0.019540
      3          8           0       -1.188442   -0.022654    0.009263
      4          6           0       -0.356388    1.065400    0.043385
      5          6           0        0.962608    0.702308    0.042123
      6          1           0        1.838300    1.384862    0.048333
      7          1           0       -0.815771    2.068490    0.021372
      8          1           0       -0.805915   -1.999270    0.030511
      9          1           0        1.791271   -1.397012   -0.012479
 ---------------------------------------------------------------------
                    Distance matrix (angstroms):
                    1          2          3          4          5
     1  C    0.000000
     2  C    1.389971   0.000000
     3  O    2.253961   1.301865   0.000000
     4  C    2.196762   2.108762   1.370160   0.000000
     5  C    1.392517   2.202215   2.270169   1.368060   0.000000
     6  H    2.251702   3.288922   3.338232   2.217822   1.110295
     7  H    3.283118   3.141940   2.124127   1.103498   2.242658
     8  H    2.201541   1.046770   2.013402   3.097490   3.228983
     9  H    1.089648   2.200238   3.281466   3.267879   2.257611
                    6          7          8          9
     6  H    0.000000
     7  H    2.740833   0.000000
     8  H    4.294711   4.067782   0.000000
     9  H    2.782936   4.336764   2.666447   0.000000
 Stoichiometry    C4H4O
 Framework group  C1[X(C4H4O)]
 Deg. of freedom    21
 Full point group                 C1      NOp   1
 Largest Abelian subgroup         C1      NOp   1
 Largest concise Abelian subgroup C1      NOp   1
                         Standard orientation:                         
 ---------------------------------------------------------------------
 Center     Atomic      Atomic             Coordinates (Angstroms)
 Number     Number       Type             X           Y           Z
 ---------------------------------------------------------------------
      1          6           0        0.620232    1.021634   -0.011508
      2          6           0       -0.753987    0.813278   -0.000132
      3          8           0       -1.092145   -0.443872    0.008531
      4          6           0        0.103143   -1.113403   -0.010312
      5          6           0        1.170354   -0.257542    0.001872
      6          1           0        2.244777   -0.537404    0.008794
      7          1           0        0.078390   -2.216367    0.013477
      8          1           0       -1.523544    1.522542   -0.021462
      9          1           0        1.099085    1.998400    0.051417
 ---------------------------------------------------------------------
 Rotational constants (GHZ):     10.0129199      9.0097999      4.7430949
 Leave Link  202 at Tue Dec 15 16:23:03 2015, MaxMem=    33554432 cpu:         0.0
 (Enter /home/Applications/g09/g09/l301.exe)
 Standard basis: 3-21G (6D, 7F)
 Ernie: Thresh=  0.10000D-02 Tol=  0.10000D-05 Strict=F.
 There are    53 symmetry adapted cartesian basis functions of A   symmetry.
 There are    53 symmetry adapted basis functions of A   symmetry.
    53 basis functions,    87 primitive gaussians,    53 cartesian basis functions
    18 alpha electrons       18 beta electrons
       nuclear repulsion energy       161.9419423428 Hartrees.
 IExCor=  402 DFT=T Ex+Corr=B3LYP ExCW=0 ScaHFX=  0.200000
 ScaDFX=  0.800000  0.720000  1.000000  0.810000 ScalE2=  1.000000  1.000000
 IRadAn=      0 IRanWt=     -1 IRanGd=            0 ICorTp=0 IEmpDi=  4
 NAtoms=    9 NActive=    9 NUniq=    9 SFac= 1.00D+00 NAtFMM=   60 NAOKFM=F Big=F
 Integral buffers will be    131072 words long.
 Regular integral format.
 Two-electron integral symmetry is turned on.
 Leave Link  301 at Tue Dec 15 16:23:03 2015, MaxMem=    33554432 cpu:         0.0
 (Enter /home/Applications/g09/g09/l302.exe)
 NPDir=0 NMtPBC=     1 NCelOv=     1 NCel=       1 NClECP=     1 NCelD=      1
         NCelK=      1 NCelE2=     1 NClLst=     1 CellRange=     0.0.
 One-electron integrals computed using PRISM.
 NBasis=    53 RedAO= T EigKep=  3.22D-03  NBF=    53
 NBsUse=    53 1.00D-06 EigRej= -1.00D+00 NBFU=    53
 Precomputing XC quadrature grid using
 IXCGrd= 4 IRadAn=           0 IRanWt=          -1 IRanGd=           0 AccXCQ= 0.00D+00.
 Generated NRdTot=       0 NPtTot=           0 NUsed=           0 NTot=          32
 NSgBfM=    53    53    53    53    53 MxSgAt=     9 MxSgA2=     9.
 Leave Link  302 at Tue Dec 15 16:23:03 2015, MaxMem=    33554432 cpu:         0.1
 (Enter /home/Applications/g09/g09/l308.exe)
 Leave Link  308 at Tue Dec 15 16:23:03 2015, MaxMem=    33554432 cpu:         0.0
 (Enter /home/Applications/g09/g09/l303.exe)
 DipDrv:  MaxL=1.
 Leave Link  303 at Tue Dec 15 16:23:03 2015, MaxMem=    33554432 cpu:         0.0
 (Enter /home/Applications/g09/g09/l401.exe)
 ExpMin= 1.83D-01 ExpMax= 3.22D+02 ExpMxC= 3.22D+02 IAcc=1 IRadAn=         1 AccDes= 0.00D+00
 Harris functional with IExCor=  402 and IRadAn=       1 diagonalized for initial guess.
 HarFok:  IExCor=  402 AccDes= 0.00D+00 IRadAn=         1 IDoV= 1 UseB2=F ITyADJ=14
 ICtDFT=  3500011 ScaDFX=  1.000000  1.000000  1.000000  1.000000
 FoFCou: FMM=F IPFlag=           0 FMFlag=      100000 FMFlg1=           0
         NFxFlg=           0 DoJE=T BraDBF=F KetDBF=T FulRan=T
         wScrn=  0.000000 ICntrl=     500 IOpCl=  0 I1Cent=   200000004 NGrid=           0
         NMat0=    1 NMatS0=      1 NMatT0=    0 NMatD0=    1 NMtDS0=    0 NMtDT0=    0
 Petite list used in FoFCou.
 Harris En= -228.725715789862    
 JPrj=0 DoOrth=F DoCkMO=F.
 Leave Link  401 at Tue Dec 15 16:23:03 2015, MaxMem=    33554432 cpu:         0.2
 (Enter /home/Applications/g09/g09/l502.exe)
 Closed shell SCF:
 Using DIIS extrapolation, IDIIS=  1040.
 Integral symmetry usage will be decided dynamically.
 Keep R1 ints in memory in canonical form, NReq=1925595.
 IVT=       27707 IEndB=       27707 NGot=    33554432 MDV=    32502130
 LenX=    32502130 LenY=    32498880
 Requested convergence on RMS density matrix=1.00D-08 within 128 cycles.
 Requested convergence on MAX density matrix=1.00D-06.
 Requested convergence on             energy=1.00D-06.
 No special actions if energy rises.
 FoFCou: FMM=F IPFlag=           0 FMFlag=           0 FMFlg1=           0
         NFxFlg=           0 DoJE=F BraDBF=F KetDBF=F FulRan=T
         wScrn=  0.000000 ICntrl=     600 IOpCl=  0 I1Cent=           0 NGrid=           0
         NMat0=    1 NMatS0=   1431 NMatT0=    0 NMatD0=    1 NMtDS0=    0 NMtDT0=    0
 Symmetry not used in FoFCou.
 Integral accuracy reduced to 1.0D-05 until final iterations.

 Cycle   1  Pass 0  IDiag  1:
 E= -228.655736668967    
 DIIS: error= 3.29D-02 at cycle   1 NSaved=   1.
 NSaved= 1 IEnMin= 1 EnMin= -228.655736668967     IErMin= 1 ErrMin= 3.29D-02
 ErrMax= 3.29D-02  0.00D+00 EMaxC= 1.00D-01 BMatC= 7.80D-02 BMatP= 7.80D-02
 IDIUse=3 WtCom= 6.71D-01 WtEn= 3.29D-01
 Coeff-Com:  0.100D+01
 Coeff-En:   0.100D+01
 Coeff:      0.100D+01
 Gap=     0.218 Goal=   None    Shift=    0.000
 GapD=    0.218 DampG=1.000 DampE=0.500 DampFc=0.5000 IDamp=-1.
 Damping current iteration by 5.00D-01
 RMSDP=1.26D-02 MaxDP=1.22D-01              OVMax= 2.09D-01

 Cycle   2  Pass 0  IDiag  1:
 E= -228.685229480890     Delta-E=       -0.029492811923 Rises=F Damp=T
 DIIS: error= 1.42D-02 at cycle   2 NSaved=   2.
 NSaved= 2 IEnMin= 2 EnMin= -228.685229480890     IErMin= 2 ErrMin= 1.42D-02
 ErrMax= 1.42D-02  0.00D+00 EMaxC= 1.00D-01 BMatC= 1.02D-02 BMatP= 7.80D-02
 IDIUse=3 WtCom= 8.58D-01 WtEn= 1.42D-01
 Coeff-Com:  0.142D+00 0.858D+00
 Coeff-En:   0.241D+00 0.759D+00
 Coeff:      0.156D+00 0.844D+00
 Gap=     0.237 Goal=   None    Shift=    0.000
 RMSDP=4.31D-03 MaxDP=3.41D-02 DE=-2.95D-02 OVMax= 1.76D-01

 Cycle   3  Pass 0  IDiag  1:
 E= -228.727880732005     Delta-E=       -0.042651251115 Rises=F Damp=F
 DIIS: error= 1.71D-02 at cycle   3 NSaved=   3.
 NSaved= 3 IEnMin= 3 EnMin= -228.727880732005     IErMin= 2 ErrMin= 1.42D-02
 ErrMax= 1.71D-02  0.00D+00 EMaxC= 1.00D-01 BMatC= 1.07D-02 BMatP= 1.02D-02
 IDIUse=3 WtCom= 8.29D-01 WtEn= 1.71D-01
 Coeff-Com:  0.292D-03 0.507D+00 0.493D+00
 Coeff-En:   0.000D+00 0.000D+00 0.100D+01
 Coeff:      0.242D-03 0.420D+00 0.580D+00
 Gap=     0.240 Goal=   None    Shift=    0.000
 RMSDP=2.72D-03 MaxDP=2.20D-02 DE=-4.27D-02 OVMax= 5.28D-02

 Cycle   4  Pass 0  IDiag  1:
 E= -228.735880065956     Delta-E=       -0.007999333951 Rises=F Damp=F
 DIIS: error= 7.83D-03 at cycle   4 NSaved=   4.
 NSaved= 4 IEnMin= 4 EnMin= -228.735880065956     IErMin= 4 ErrMin= 7.83D-03
 ErrMax= 7.83D-03  0.00D+00 EMaxC= 1.00D-01 BMatC= 2.03D-03 BMatP= 1.02D-02
 IDIUse=3 WtCom= 9.22D-01 WtEn= 7.83D-02
 Coeff-Com:  0.620D-02 0.489D-01 0.310D+00 0.635D+00
 Coeff-En:   0.000D+00 0.000D+00 0.181D+00 0.819D+00
 Coeff:      0.572D-02 0.451D-01 0.300D+00 0.650D+00
 Gap=     0.245 Goal=   None    Shift=    0.000
 RMSDP=8.45D-04 MaxDP=8.07D-03 DE=-8.00D-03 OVMax= 1.69D-02

 Cycle   5  Pass 0  IDiag  1:
 E= -228.737565841802     Delta-E=       -0.001685775846 Rises=F Damp=F
 DIIS: error= 1.27D-03 at cycle   5 NSaved=   5.
 NSaved= 5 IEnMin= 5 EnMin= -228.737565841802     IErMin= 5 ErrMin= 1.27D-03
 ErrMax= 1.27D-03  0.00D+00 EMaxC= 1.00D-01 BMatC= 7.58D-05 BMatP= 2.03D-03
 IDIUse=3 WtCom= 9.87D-01 WtEn= 1.27D-02
 Coeff-Com:  0.431D-02 0.673D-02 0.152D+00 0.382D+00 0.455D+00
 Coeff-En:   0.000D+00 0.000D+00 0.000D+00 0.000D+00 0.100D+01
 Coeff:      0.425D-02 0.665D-02 0.150D+00 0.377D+00 0.462D+00
 Gap=     0.244 Goal=   None    Shift=    0.000
 RMSDP=1.30D-04 MaxDP=1.57D-03 DE=-1.69D-03 OVMax= 2.46D-03

 Cycle   6  Pass 0  IDiag  1:
 E= -228.737623135256     Delta-E=       -0.000057293454 Rises=F Damp=F
 DIIS: error= 1.25D-04 at cycle   6 NSaved=   6.
 NSaved= 6 IEnMin= 6 EnMin= -228.737623135256     IErMin= 6 ErrMin= 1.25D-04
 ErrMax= 1.25D-04  0.00D+00 EMaxC= 1.00D-01 BMatC= 1.04D-06 BMatP= 7.58D-05
 IDIUse=3 WtCom= 9.99D-01 WtEn= 1.25D-03
 Coeff-Com:  0.122D-02-0.379D-02 0.107D-01 0.456D-01 0.136D+00 0.810D+00
 Coeff-En:   0.000D+00 0.000D+00 0.000D+00 0.000D+00 0.000D+00 0.100D+01
 Coeff:      0.122D-02-0.379D-02 0.107D-01 0.456D-01 0.136D+00 0.810D+00
 Gap=     0.244 Goal=   None    Shift=    0.000
 RMSDP=2.85D-05 MaxDP=3.31D-04 DE=-5.73D-05 OVMax= 6.82D-04

 Cycle   7  Pass 0  IDiag  1:
 E= -228.737624083444     Delta-E=       -0.000000948189 Rises=F Damp=F
 DIIS: error= 6.39D-05 at cycle   7 NSaved=   7.
 NSaved= 7 IEnMin= 7 EnMin= -228.737624083444     IErMin= 7 ErrMin= 6.39D-05
 ErrMax= 6.39D-05  0.00D+00 EMaxC= 1.00D-01 BMatC= 1.74D-07 BMatP= 1.04D-06
 IDIUse=1 WtCom= 1.00D+00 WtEn= 0.00D+00
 Coeff-Com:  0.696D-03-0.242D-02 0.424D-02 0.217D-01 0.739D-01 0.490D+00
 Coeff-Com:  0.412D+00
 Coeff:      0.696D-03-0.242D-02 0.424D-02 0.217D-01 0.739D-01 0.490D+00
 Coeff:      0.412D+00
 Gap=     0.244 Goal=   None    Shift=    0.000
 RMSDP=8.50D-06 MaxDP=1.01D-04 DE=-9.48D-07 OVMax= 2.65D-04

 Initial convergence to 1.0D-05 achieved.  Increase integral accuracy.
 Cycle   8  Pass 1  IDiag  1:
 E= -228.737616397999     Delta-E=        0.000007685445 Rises=F Damp=F
 DIIS: error= 1.13D-05 at cycle   1 NSaved=   1.
 NSaved= 1 IEnMin= 1 EnMin= -228.737616397999     IErMin= 1 ErrMin= 1.13D-05
 ErrMax= 1.13D-05  0.00D+00 EMaxC= 1.00D-01 BMatC= 7.50D-09 BMatP= 7.50D-09
 IDIUse=1 WtCom= 1.00D+00 WtEn= 0.00D+00
 Coeff-Com:  0.100D+01
 Coeff:      0.100D+01
 Gap=     0.244 Goal=   None    Shift=    0.000
 RMSDP=8.50D-06 MaxDP=1.01D-04 DE= 7.69D-06 OVMax= 8.08D-05

 Cycle   9  Pass 1  IDiag  1:
 E= -228.737616397624     Delta-E=        0.000000000375 Rises=F Damp=F
 DIIS: error= 1.71D-05 at cycle   2 NSaved=   2.
 NSaved= 2 IEnMin= 1 EnMin= -228.737616397999     IErMin= 1 ErrMin= 1.13D-05
 ErrMax= 1.71D-05  0.00D+00 EMaxC= 1.00D-01 BMatC= 9.96D-09 BMatP= 7.50D-09
 IDIUse=1 WtCom= 1.00D+00 WtEn= 0.00D+00
 Coeff-Com:  0.546D+00 0.454D+00
 Coeff:      0.546D+00 0.454D+00
 Gap=     0.244 Goal=   None    Shift=    0.000
 RMSDP=2.63D-06 MaxDP=2.58D-05 DE= 3.75D-10 OVMax= 6.60D-05

 Cycle  10  Pass 1  IDiag  1:
 E= -228.737616407083     Delta-E=       -0.000000009458 Rises=F Damp=F
 DIIS: error= 6.06D-06 at cycle   3 NSaved=   3.
 NSaved= 3 IEnMin= 3 EnMin= -228.737616407083     IErMin= 3 ErrMin= 6.06D-06
 ErrMax= 6.06D-06  0.00D+00 EMaxC= 1.00D-01 BMatC= 1.26D-09 BMatP= 7.50D-09
 IDIUse=1 WtCom= 1.00D+00 WtEn= 0.00D+00
 Coeff-Com:  0.174D-01 0.257D+00 0.725D+00
 Coeff:      0.174D-01 0.257D+00 0.725D+00
 Gap=     0.244 Goal=   None    Shift=    0.000
 RMSDP=7.67D-07 MaxDP=8.17D-06 DE=-9.46D-09 OVMax= 1.65D-05

 Cycle  11  Pass 1  IDiag  1:
 E= -228.737616408155     Delta-E=       -0.000000001072 Rises=F Damp=F
 DIIS: error= 2.63D-06 at cycle   4 NSaved=   4.
 NSaved= 4 IEnMin= 4 EnMin= -228.737616408155     IErMin= 4 ErrMin= 2.63D-06
 ErrMax= 2.63D-06  0.00D+00 EMaxC= 1.00D-01 BMatC= 2.01D-10 BMatP= 1.26D-09
 IDIUse=1 WtCom= 1.00D+00 WtEn= 0.00D+00
 Coeff-Com: -0.162D-01 0.144D+00 0.454D+00 0.418D+00
 Coeff:     -0.162D-01 0.144D+00 0.454D+00 0.418D+00
 Gap=     0.244 Goal=   None    Shift=    0.000
 RMSDP=2.11D-07 MaxDP=1.99D-06 DE=-1.07D-09 OVMax= 4.05D-06

 Cycle  12  Pass 1  IDiag  1:
 E= -228.737616408306     Delta-E=       -0.000000000151 Rises=F Damp=F
 DIIS: error= 2.68D-07 at cycle   5 NSaved=   5.
 NSaved= 5 IEnMin= 5 EnMin= -228.737616408306     IErMin= 5 ErrMin= 2.68D-07
 ErrMax= 2.68D-07  0.00D+00 EMaxC= 1.00D-01 BMatC= 1.52D-12 BMatP= 2.01D-10
 IDIUse=1 WtCom= 1.00D+00 WtEn= 0.00D+00
 Coeff-Com: -0.577D-02 0.309D-01 0.971D-01 0.127D+00 0.751D+00
 Coeff:     -0.577D-02 0.309D-01 0.971D-01 0.127D+00 0.751D+00
 Gap=     0.244 Goal=   None    Shift=    0.000
 RMSDP=4.66D-08 MaxDP=5.15D-07 DE=-1.51D-10 OVMax= 8.54D-07

 Cycle  13  Pass 1  IDiag  1:
 E= -228.737616408309     Delta-E=       -0.000000000004 Rises=F Damp=F
 DIIS: error= 1.16D-07 at cycle   6 NSaved=   6.
 NSaved= 6 IEnMin= 6 EnMin= -228.737616408309     IErMin= 6 ErrMin= 1.16D-07
 ErrMax= 1.16D-07  0.00D+00 EMaxC= 1.00D-01 BMatC= 5.65D-13 BMatP= 1.52D-12
 IDIUse=1 WtCom= 1.00D+00 WtEn= 0.00D+00
 Coeff-Com: -0.182D-02 0.598D-02 0.198D-01 0.332D-01 0.416D+00 0.527D+00
 Coeff:     -0.182D-02 0.598D-02 0.198D-01 0.332D-01 0.416D+00 0.527D+00
 Gap=     0.244 Goal=   None    Shift=    0.000
 RMSDP=1.75D-08 MaxDP=2.48D-07 DE=-3.52D-12 OVMax= 5.15D-07

 Cycle  14  Pass 1  IDiag  1:
 E= -228.737616408309     Delta-E=        0.000000000000 Rises=F Damp=F
 DIIS: error= 2.78D-08 at cycle   7 NSaved=   7.
 NSaved= 7 IEnMin= 7 EnMin= -228.737616408309     IErMin= 7 ErrMin= 2.78D-08
 ErrMax= 2.78D-08  0.00D+00 EMaxC= 1.00D-01 BMatC= 5.10D-14 BMatP= 5.65D-13
 IDIUse=1 WtCom= 1.00D+00 WtEn= 0.00D+00
 Coeff-Com: -0.347D-03-0.640D-03-0.267D-03-0.175D-03 0.121D+00 0.270D+00
 Coeff-Com:  0.610D+00
 Coeff:     -0.347D-03-0.640D-03-0.267D-03-0.175D-03 0.121D+00 0.270D+00
 Coeff:      0.610D+00
 Gap=     0.244 Goal=   None    Shift=    0.000
 RMSDP=4.17D-09 MaxDP=3.45D-08 DE=-1.71D-13 OVMax= 6.38D-08

 SCF Done:  E(RB3LYP) =  -228.737616408     A.U. after   14 cycles
            NFock= 14  Conv=0.42D-08     -V/T= 2.0077
 KE= 2.269866788864D+02 PE=-8.563680261275D+02 EE= 2.387017884899D+02
 Leave Link  502 at Tue Dec 15 16:23:07 2015, MaxMem=    33554432 cpu:         4.0
 (Enter /home/Applications/g09/g09/l801.exe)
 DoSCS=F DFT=T ScalE2(SS,OS)=  1.000000  1.000000
 ExpMin= 1.83D-01 ExpMax= 3.22D+02 ExpMxC= 3.22D+02 IAcc=3 IRadAn=         5 AccDes= 0.00D+00
 HarFok:  IExCor=  205 AccDes= 0.00D+00 IRadAn=         5 IDoV=-2 UseB2=F ITyADJ=14
 ICtDFT= 12500011 ScaDFX=  1.000000  1.000000  1.000000  1.000000
 Largest valence mixing into a core orbital is  1.78D-04
 Largest core mixing into a valence orbital is  4.29D-05
 Range of M.O.s used for correlation:     6    53
 NBasis=    53 NAE=    18 NBE=    18 NFC=     5 NFV=     0
 NROrb=     48 NOA=    13 NOB=    13 NVA=    35 NVB=    35
 Leave Link  801 at Tue Dec 15 16:23:07 2015, MaxMem=    33554432 cpu:         0.2
 (Enter /home/Applications/g09/g09/l914.exe)
 RHF ground state
 MDV=    33554432 DFT=T DoStab=F Mixed=T DoRPA=F DoScal=F NonHer=F
 Keep R1, R2, and R3 ints in memory in canonical form, NReq=5596273.
 FoFCou: FMM=F IPFlag=           0 FMFlag=           0 FMFlg1=           0
         NFxFlg=           0 DoJE=F BraDBF=F KetDBF=F FulRan=T
         wScrn=  0.000000 ICntrl=     600 IOpCl=  0 I1Cent=           0 NGrid=           0
         NMat0=    1 NMatS0=   1431 NMatT0=    0 NMatD0=    1 NMtDS0=    0 NMtDT0=    0
 Symmetry not used in FoFCou.
 Making orbital integer symmetry assigments:
 Orbital symmetries:
       Occupied  (A) (A) (A) (A) (A) (A) (A) (A) (A) (A) (A) (A)
                 (A) (A) (A) (A) (A) (A)
       Virtual   (A) (A) (A) (A) (A) (A) (A) (A) (A) (A) (A) (A)
                 (A) (A) (A) (A) (A) (A) (A) (A) (A) (A) (A) (A)
                 (A) (A) (A) (A) (A) (A) (A) (A) (A) (A) (A)
    60 initial guesses have been made.
 Convergence on wavefunction:    0.000001000000000
 Davidson Disk Diagonalization:  ConvIn= 1.00D-06 SkipCon=T Conv= 1.00D-06.
 Max sub-space:   240 roots to seek:    60 dimension of matrix:          910
 Iteration     1 Dimension    60 NMult     0 NNew     60
 CISAX will form    60 AO SS matrices at one time.
 NMat=    60 NSing=    60 JSym2X= 0.
 New state      1 was old state      2
 New state      2 was old state      1
 New state      3 was old state      4
 New state      4 was old state      7
 New state      5 was old state      6
 New state      6 was old state      8
 New state      7 was old state     11
 New state      8 was old state     10
 New state     10 was old state     12
 New state     11 was old state      5
 New state     12 was old state     13
 New state     13 was old state     15
 New state     15 was old state      3
 Excitation Energies [eV] at current iteration:
 Root      1 :     7.369656667384061
 Root      2 :     7.988704415934353
 Root      3 :     8.297744904569612
 Root      4 :     9.036573236896455
 Root      5 :     9.193705098531318
 Root      6 :     9.769532220142008
 Root      7 :     9.993615342479144
 Root      8 :    10.039492392969390
 Root      9 :    10.106035027937630
 Root     10 :    10.295070957305580
 Root     11 :    10.584391492454900
 Root     12 :    10.799231038592050
 Root     13 :    10.812375455549760
 Root     14 :    10.947102601490140
 Root     15 :    11.149540314993780
 Root     16 :    11.358597559076490
 Root     17 :    11.508116643321410
 Root     18 :    11.593673379494280
 Root     19 :    11.709944547150720
 Root     20 :    11.807569751236720
 Root     21 :    11.904752251564070
 Root     22 :    12.343860471640960
 Root     23 :    12.554343504763550
 Root     24 :    13.036431867551520
 Root     25 :    13.120792494531920
 Root     26 :    13.297094396460520
 Root     27 :    13.533649786627390
 Root     28 :    13.819555809910890
 Root     29 :    13.874253482950370
 Root     30 :    13.955027393955170
 Root     31 :    14.032747606295980
 Root     32 :    14.097538471679610
 Root     33 :    14.146573503434530
 Root     34 :    14.216984917121960
 Root     35 :    14.359200771741150
 Root     36 :    14.725117163435480
 Root     37 :    14.924996206534090
 Root     38 :    15.007886780871880
 Root     39 :    15.169637573888900
 Root     40 :    15.257545812463550
 Root     41 :    15.268845103414500
 Root     42 :    15.390444239680890
 Root     43 :    15.395311532841530
 Root     44 :    15.500558254878220
 Root     45 :    15.518929797842330
 Root     46 :    15.548067440097930
 Root     47 :    15.777601692271500
 Root     48 :    15.808287417401590
 Root     49 :    15.856223784185510
 Root     50 :    15.896065123889250
 Root     51 :    16.230088449993110
 Root     52 :    16.261896121867160
 Root     53 :    16.375298501258810
 Root     54 :    16.408645954348010
 Root     55 :    16.595518268883680
 Root     56 :    16.633261744402260
 Root     57 :    16.711608492040540
 Root     58 :    17.297528381413330
 Root     59 :    17.665476527609840
 Root     60 :    18.108012593432220
 Iteration     2 Dimension   120 NMult    60 NNew     60
 CISAX will form    60 AO SS matrices at one time.
 NMat=    60 NSing=    60 JSym2X= 0.
 New state      1 was old state      2
 Root      1 not converged, maximum delta is    0.292728374851596
 New state      2 was old state      1
 Root      2 not converged, maximum delta is    0.397479611477179
 Root      3 not converged, maximum delta is    0.069872321716023
 Root      4 not converged, maximum delta is    0.014391203247982
 Root      5 not converged, maximum delta is    0.020842212046877
 Root      6 not converged, maximum delta is    0.329697612623229
 New state      7 was old state     15
 Root      7 not converged, maximum delta is    0.360715122216309
 New state      8 was old state      7
 Root      8 not converged, maximum delta is    0.416540061750099
 New state      9 was old state      8
 Root      9 not converged, maximum delta is    0.523376521480277
 New state     10 was old state     11
 Root     10 not converged, maximum delta is    0.354561125506778
 New state     11 was old state      9
 Root     11 not converged, maximum delta is    0.174101717857454
 New state     12 was old state     10
 Root     12 not converged, maximum delta is    0.059735404417807
 New state     13 was old state     12
 Root     13 not converged, maximum delta is    0.256031641552672
 New state     14 was old state     13
 Root     14 not converged, maximum delta is    0.247205077191190
 New state     15 was old state     14
 Root     15 not converged, maximum delta is    0.099420321596877
 Excitation Energies [eV] at current iteration:
 Root      1 :     7.062583636350197   Change is   -0.926120779584156
 Root      2 :     7.299013472506437   Change is   -0.070643194877624
 Root      3 :     8.285942442832475   Change is   -0.011802461737138
 Root      4 :     9.006875392270718   Change is   -0.029697844625738
 Root      5 :     9.167990430397690   Change is   -0.025714668133627
 Root      6 :     9.696193545591823   Change is   -0.073338674550184
 Root      7 :     9.798824966424180   Change is   -1.350715348569594
 Root      8 :     9.943727550041004   Change is   -0.049887792438140
 Root      9 :    10.004392915475390   Change is   -0.035099477493999
 Root     10 :    10.043718995922500   Change is   -0.540672496532403
 Root     11 :    10.102858384155670   Change is   -0.003176643781963
 Root     12 :    10.283758755603210   Change is   -0.011312201702364
 Root     13 :    10.789095816980890   Change is   -0.010135221611160
 Root     14 :    10.800509474513670   Change is   -0.011865981036094
 Root     15 :    10.932376657898290   Change is   -0.014725943591846
 Root     16 :    11.312101356979660   Change is   -0.046496202096830
 Root     17 :    11.479210709652970   Change is   -0.028905933668432
 Root     18 :    11.582654251765390   Change is   -0.011019127728891
 Root     19 :    11.675450578317260   Change is   -0.034493968833459
 Root     20 :    11.798534311179160   Change is   -0.009035440057563
 Root     21 :    11.873614433381730   Change is   -0.031137818182342
 Root     22 :    12.233613500918810   Change is   -0.110246970722151
 Root     23 :    12.527343520455140   Change is   -0.026999984308409
 Root     24 :    12.877648824742210   Change is   -0.158783042809315
 Root     25 :    13.099741577120110   Change is   -0.021050917411815
 Root     26 :    13.158084092241190   Change is   -0.375565694386198
 Root     27 :    13.251662322827530   Change is   -0.045432073632993
 Root     28 :    13.548530702442990   Change is   -0.271025107467893
 Root     29 :    13.819137022412650   Change is   -0.135890371542517
 Root     30 :    13.841472915921560   Change is   -0.032780567028812
 Root     31 :    13.896057727426340   Change is   -0.463143044314811
 Root     32 :    13.954709356870270   Change is   -0.078038249425716
 Root     33 :    14.015016402340810   Change is   -0.131557101093718
 Root     34 :    14.058739142482390   Change is   -0.038799329197220
 Root     35 :    14.146029025350070   Change is   -0.070955891771888
 Root     36 :    14.367220879360190   Change is   -0.357896284075298
 Root     37 :    14.736718855079110   Change is   -0.271167925792776
 Root     38 :    14.901499031153130   Change is   -0.023497175380960
 Root     39 :    15.049395615394850   Change is   -0.120241958494042
 Root     40 :    15.112133382227050   Change is   -0.145412430236502
 Root     41 :    15.168190128540520   Change is   -0.100654974873977
 Root     42 :    15.207997767558770   Change is   -0.187313765282761
 Root     43 :    15.222985329653900   Change is   -0.325082110444033
 Root     44 :    15.373079526913470   Change is   -0.017364712767414
 Root     45 :    15.383839643833920   Change is   -0.135090154008411
 Root     46 :    15.439069211507340   Change is   -0.061489043370876
 Root     47 :    15.459755607188920   Change is   -0.436309516700321
 Root     48 :    15.584738842224470   Change is   -0.223548575177122
 Root     49 :    15.617064488301090   Change is   -0.160537203970411
 Root     50 :    15.765589298274280   Change is   -0.090634485911224
 Root     51 :    16.031325828706320   Change is   -0.230570293160837
 Root     52 :    16.203337670424930   Change is   -0.026750779568184
 Root     53 :    16.234538429269900   Change is   -0.174107525078112
 Root     54 :    16.316359842569760   Change is   -0.058938658689058
 Root     55 :    16.383051010015020   Change is   -0.250210734387233
 Root     56 :    16.504900501977980   Change is   -0.792627879435353
 Root     57 :    16.535168296044360   Change is   -0.060349972839321
 Root     58 :    16.657935834925300   Change is   -1.007540692684540
 Root     59 :    16.687452493200390   Change is   -0.024155998840150
 Root     60 :    16.917402291451260   Change is   -1.190610301980961
 Iteration     3 Dimension   135 NMult   120 NNew     15
 CISAX will form    15 AO SS matrices at one time.
 NMat=    15 NSing=    15 JSym2X= 0.
 Root      1 not converged, maximum delta is    0.002526756103641
 Root      2 not converged, maximum delta is    0.001240450841621
 Root      3 not converged, maximum delta is    0.000129872317125
 Root      4 not converged, maximum delta is    0.000347238480713
 Root      5 not converged, maximum delta is    0.000213207716198
 Root      6 not converged, maximum delta is    0.009043897072651
 Root      7 not converged, maximum delta is    0.007443188800045
 Root      8 not converged, maximum delta is    0.006182718247663
 Root      9 not converged, maximum delta is    0.007771538852089
 Root     10 not converged, maximum delta is    0.005780408675032
 Root     11 not converged, maximum delta is    0.003851919224244
 Root     12 not converged, maximum delta is    0.000412434100785
 Root     13 not converged, maximum delta is    0.000358989981927
 Root     14 not converged, maximum delta is    0.000226711119024
 Root     15 not converged, maximum delta is    0.000345340531262
 Excitation Energies [eV] at current iteration:
 Root      1 :     7.060717696580228   Change is   -0.001865939769969
 Root      2 :     7.298048243472959   Change is   -0.000965229033478
 Root      3 :     8.285928491846251   Change is   -0.000013950986223
 Root      4 :     9.006841700920726   Change is   -0.000033691349993
 Root      5 :     9.167960166682398   Change is   -0.000030263715293
 Root      6 :     9.693072689511631   Change is   -0.003120856080192
 Root      7 :     9.797045401460879   Change is   -0.001779564963301
 Root      8 :     9.942150403341143   Change is   -0.001577146699860
 Root      9 :    10.004096674862080   Change is   -0.000296240613315
 Root     10 :    10.043121784867920   Change is   -0.000597211054585
 Root     11 :    10.102583043957270   Change is   -0.000275340198391
 Root     12 :    10.283698196605330   Change is   -0.000060558997880
 Root     13 :    10.789058791119360   Change is   -0.000037025861529
 Root     14 :    10.800500373812850   Change is   -0.000009100700817
 Root     15 :    10.932342383853870   Change is   -0.000034274044418
 Iteration     4 Dimension   150 NMult   135 NNew     15
 CISAX will form    15 AO SS matrices at one time.
 NMat=    15 NSing=    15 JSym2X= 0.
 Root      1 not converged, maximum delta is    0.000082663701335
 Root      2 not converged, maximum delta is    0.000058332834149
 Root      3 not converged, maximum delta is    0.000005065710274
 Root      4 not converged, maximum delta is    0.000005116960687
 Root      5 not converged, maximum delta is    0.000006262037249
 Root      6 not converged, maximum delta is    0.000082847607830
 Root      7 not converged, maximum delta is    0.000064443505716
 Root      8 not converged, maximum delta is    0.000054466697016
 Root      9 not converged, maximum delta is    0.000029007145186
 Root     10 not converged, maximum delta is    0.000038417841222
 Root     11 not converged, maximum delta is    0.000025036834428
 Root     12 not converged, maximum delta is    0.000010904716194
 Root     13 not converged, maximum delta is    0.000012784611860
 Root     14 not converged, maximum delta is    0.000005040887586
 Root     15 not converged, maximum delta is    0.000005351832288
 Excitation Energies [eV] at current iteration:
 Root      1 :     7.060715236105771   Change is   -0.000002460474456
 Root      2 :     7.298046962015031   Change is   -0.000001281457928
 Root      3 :     8.285928474760416   Change is   -0.000000017085835
 Root      4 :     9.006841684395688   Change is   -0.000000016525037
 Root      5 :     9.167960139330322   Change is   -0.000000027352076
 Root      6 :     9.693067950882506   Change is   -0.000004738629125
 Root      7 :     9.797042807302379   Change is   -0.000002594158501
 Root      8 :     9.942148026489017   Change is   -0.000002376852127
 Root      9 :    10.004096227546390   Change is   -0.000000447315689
 Root     10 :    10.043120918422600   Change is   -0.000000866445314
 Root     11 :    10.102582640235140   Change is   -0.000000403722135
 Root     12 :    10.283698127191070   Change is   -0.000000069414267
 Root     13 :    10.789058737810970   Change is   -0.000000053308396
 Root     14 :    10.800500363899170   Change is   -0.000000009913684
 Root     15 :    10.932342360044670   Change is   -0.000000023809199
 Iteration     5 Dimension   165 NMult   150 NNew     15
 CISAX will form    15 AO SS matrices at one time.
 NMat=    15 NSing=    15 JSym2X= 0.
 Root      1 not converged, maximum delta is    0.000002372747875
 Root      2 not converged, maximum delta is    0.000001174478492
 Root      3 has converged.
 Root      4 has converged.
 Root      5 has converged.
 Root      6 not converged, maximum delta is    0.000002257490033
 Root      7 not converged, maximum delta is    0.000001714411705
 Root      8 not converged, maximum delta is    0.000002378108676
 Root      9 not converged, maximum delta is    0.000001170433503
 Root     10 not converged, maximum delta is    0.000001532788910
 Root     11 has converged.
 Root     12 has converged.
 Root     13 has converged.
 Root     14 has converged.
 Root     15 has converged.
 Excitation Energies [eV] at current iteration:
 Root      1 :     7.060715233213367   Change is   -0.000000002892405
 Root      2 :     7.298046960791541   Change is   -0.000000001223490
 Root      3 :     8.285928474745846   Change is   -0.000000000014571
 Root      4 :     9.006841684387336   Change is   -0.000000000008353
 Root      5 :     9.167960139306869   Change is   -0.000000000023454
 Root      6 :     9.693067946885488   Change is   -0.000000003997017
 Root      7 :     9.797042805020531   Change is   -0.000000002281848
 Root      8 :     9.942148023771663   Change is   -0.000000002717353
 Root      9 :    10.004096227078800   Change is   -0.000000000467592
 Root     10 :    10.043120917451930   Change is   -0.000000000970674
 Root     11 :    10.102582639752790   Change is   -0.000000000482352
 Root     12 :    10.283698127115630   Change is   -0.000000000075439
 Root     13 :    10.789058737749400   Change is   -0.000000000061566
 Root     14 :    10.800500363888180   Change is   -0.000000000010992
 Root     15 :    10.932342360021300   Change is   -0.000000000023374
 Iteration     6 Dimension   172 NMult   165 NNew      7
 CISAX will form     7 AO SS matrices at one time.
 NMat=     7 NSing=     7 JSym2X= 0.
 Root      1 has converged.
 Root      2 has converged.
 Root      3 has converged.
 Root      4 has converged.
 Root      5 has converged.
 Root      6 has converged.
 Root      7 has converged.
 Root      8 has converged.
 Root      9 has converged.
 Root     10 has converged.
 Root     11 has converged.
 Root     12 has converged.
 Root     13 has converged.
 Root     14 has converged.
 Root     15 has converged.
 Excitation Energies [eV] at current iteration:
 Root      1 :     7.060715233211742   Change is   -0.000000000001625
 Root      2 :     7.298046960791125   Change is   -0.000000000000415
 Root      3 :     8.285928474745836   Change is   -0.000000000000011
 Root      4 :     9.006841684387325   Change is   -0.000000000000011
 Root      5 :     9.167960139306851   Change is   -0.000000000000017
 Root      6 :     9.693067946882730   Change is   -0.000000000002760
 Root      7 :     9.797042805018858   Change is   -0.000000000001672
 Root      8 :     9.942148023769382   Change is   -0.000000000002281
 Root      9 :    10.004096227078420   Change is   -0.000000000000375
 Root     10 :    10.043120917451160   Change is   -0.000000000000772
 Root     11 :    10.102582639752380   Change is   -0.000000000000408
 Root     12 :    10.283698127115590   Change is   -0.000000000000039
 Root     13 :    10.789058737749340   Change is   -0.000000000000063
 Root     14 :    10.800500363888170   Change is   -0.000000000000005
 Root     15 :    10.932342360021280   Change is   -0.000000000000024
 Convergence achieved on expansion vectors.
 ***********************************************************************
 Excited states from <AA,BB:AA,BB> singles matrix:
 ***********************************************************************
 
 1PDM for each excited state written to RWF  633
 Ground to excited state transition densities written to RWF  633
 Ground to excited state transition electric dipole moments (Au):
       state          X           Y           Z        Dip. S.      Osc.
         1        -0.4665      0.9508      0.0313      1.1226      0.1942
         2        -0.2608      0.3793      0.0144      0.2121      0.0379
         3         0.0228      0.0658     -0.0212      0.0053      0.0011
         4        -0.0317     -0.0041     -0.1419      0.0211      0.0047
         5        -0.0700     -0.0477     -0.0909      0.0154      0.0035
         6        -0.9377     -0.7805      0.0261      1.4891      0.3536
         7        -0.7447     -0.5130      0.0264      0.8185      0.1965
         8         0.6791     -0.3085      0.0549      0.5594      0.1363
         9        -0.1280      0.2847      0.0389      0.0989      0.0243
        10         0.2957     -0.3142      0.0048      0.1862      0.0458
        11         0.3164     -0.1060      0.0138      0.1115      0.0276
        12         0.0995      0.0732      0.0608      0.0190      0.0048
        13        -0.0895      0.0370      0.0464      0.0115      0.0031
        14         0.0090      0.0285      0.0059      0.0009      0.0002
        15         0.0513      0.0034     -0.1257      0.0185      0.0049
 Ground to excited state transition velocity dipole moments (Au):
       state          X           Y           Z        Dip. S.      Osc.
         1        -0.0258     -0.0155      0.0010      0.0009      0.0023
         2         0.0359      0.0163     -0.0010      0.0016      0.0039
         3         0.0032     -0.0019      0.0046      0.0000      0.0001
         4         0.0013     -0.0018      0.0809      0.0066      0.0132
         5        -0.0002      0.0049      0.0138      0.0002      0.0004
         6         0.0154      0.0482      0.0299      0.0035      0.0065
         7         0.0198      0.0331     -0.0508      0.0041      0.0075
         8        -0.0450      0.0525     -0.0048      0.0048      0.0088
         9         0.0173     -0.0345     -0.0098      0.0016      0.0029
        10        -0.0246      0.0411     -0.0082      0.0024      0.0043
        11        -0.0252      0.0217      0.0069      0.0012      0.0021
        12        -0.0034     -0.0067     -0.0053      0.0001      0.0001
        13         0.0095     -0.0074      0.0346      0.0013      0.0023
        14         0.0017     -0.0026     -0.0150      0.0002      0.0004
        15        -0.0041      0.0024      0.0019      0.0000      0.0000
 Ground to excited state transition magnetic dipole moments (Au):
       state          X           Y           Z
         1         0.0116      0.0013     -0.3717
         2         0.0143     -0.0092     -0.1340
         3        -0.4558     -0.1892     -0.0178
         4        -0.5091      1.5451      0.0008
         5        -0.1869      0.1717     -0.0207
         6         0.0334     -0.1579     -0.0488
         7         0.0032      0.1926     -0.0342
         8         0.1056     -0.0670     -0.1325
         9         0.6107     -0.0009      0.0878
        10         0.2501      0.1822     -0.0690
        11         0.0077      0.1014     -0.0464
        12        -0.0518      0.2888      0.0036
        13         0.0352      0.2187      0.0389
        14         0.4592      0.4792      0.0430
        15        -0.3097     -0.1141      0.0258
 Ground to excited state transition velocity quadrupole moments (Au):
       state          XX          YY          ZZ          XY          XZ          YZ
         1        -0.1334      0.1424      0.0120      0.1226      0.0006     -0.0031
         2        -0.0648      0.0822     -0.0158      0.0935     -0.0002      0.0032
         3        -0.0214      0.0243     -0.0023      0.0043      0.0128     -0.0801
         4        -0.0004     -0.0018      0.0035      0.0067     -0.1686     -0.1030
         5         0.0018     -0.0103      0.0018      0.0115     -0.1074      0.1539
         6         0.0647     -0.0831      0.0399      0.2243      0.0219      0.0094
         7         0.0843     -0.1029      0.0265      0.1531      0.0046     -0.0297
         8        -0.2893      0.2783     -0.0140      0.1260      0.0539      0.0102
         9         0.1270     -0.1330      0.0024     -0.1063      0.0579      0.0416
        10        -0.1735      0.1678     -0.0066      0.1072     -0.1089     -0.0075
        11        -0.1245      0.1134     -0.0025      0.0373      0.0669      0.0165
        12        -0.0045      0.0000     -0.0043     -0.0314     -0.1163     -0.0104
        13         0.0412     -0.0404      0.0025     -0.0153     -0.0410     -0.0454
        14        -0.0012     -0.0086      0.0011     -0.0050     -0.0455      0.0523
        15        -0.0192      0.0201      0.0047     -0.0233     -0.0487     -0.0259
 <0|del|b> * <b|rxdel|0> + <0|del|b> * <b|delr+rdel|0>
 Rotatory Strengths (R) in cgs (10**-40 erg-esu-cm/Gauss)
       state          XX          YY          ZZ    R(velocity)    E-M Angle
         1        -0.3478     -0.9556     -0.5578     -0.6204       93.50
         2        -0.1423      1.1246      0.3211      0.4345       84.67
         3         0.3802     -2.1259     -1.0138     -0.9198      114.00
         4        -2.6239     -1.3856     -3.2060     -2.4051       91.47
         5         1.2971     -0.4562      0.4173      0.4194       80.73
         6        -3.4008     -7.4443     -6.1458     -5.6636      149.70
         7         0.1742      8.8232      7.0467      5.3481       49.08
         8        -6.1078     -3.8363     -4.8201     -4.9214      127.16
         9         2.1265      8.9924      7.5557      6.2249       66.74
        10        11.1565     -4.3417     -3.1870      1.2093       82.94
        11         0.6541     -1.1302      3.6902      1.0714       63.63
        12        -2.4087      0.0213     -0.9539     -1.1138      131.45
        13        -0.9829      1.5858     -0.4883      0.0382       90.00
        14        -1.7092      0.1461     -0.3653     -0.6428       96.10
        15        -0.1320      1.3008      0.6918      0.6202       51.44
 1/2[<0|r|b>*<b|rxdel|0> + (<0|rxdel|b>*<b|r|0>)*]
 Rotatory Strengths (R) in cgs (10**-40 erg-esu-cm/Gauss)
       state          XX          YY          ZZ     R(length)
         1         3.8165     -0.9035      8.2252      3.7127
         2         2.6355      2.4749      1.3607      2.1570
         3         7.3532      8.8052     -0.2668      5.2972
         4       -11.4008      4.4798      0.0776     -2.2811
         5        -9.2581      5.7927     -1.3270     -1.5975
         6        22.1370    -87.1310      0.9013    -21.3642
         7         1.6966     69.8736      0.6381     24.0694
         8       -50.7227    -14.6166      5.1447    -20.0649
         9        55.2680      0.1740     -2.4129     17.6764
        10       -52.2931     40.4850      0.2352     -3.8576
        11        -1.7209      7.5979      0.4533      2.1101
        12         3.6421    -14.9547     -0.1555     -3.8227
        13         2.2298     -5.7180     -1.2790     -1.5891
        14        -2.9239     -9.6469     -0.1809     -4.2506
        15        11.2416      0.2767      2.2897      4.6027
  1/2[<0|del|b>*<b|r|0> + (<0|r|b>*<b|del|0>)*] (Au)
       state          X           Y           Z        Dip. S.   Osc.(frdel)
         1         0.0120     -0.0147      0.0000      0.0026      0.0018
         2        -0.0094      0.0062      0.0000      0.0032      0.0021
         3         0.0001     -0.0001     -0.0001      0.0002      0.0001
         4         0.0000      0.0000     -0.0115      0.0115      0.0077
         5         0.0000     -0.0002     -0.0013      0.0015      0.0010
         6        -0.0145     -0.0377      0.0008      0.0513      0.0342
         7        -0.0147     -0.0170     -0.0013      0.0330      0.0220
         8        -0.0306     -0.0162     -0.0003      0.0470      0.0314
         9        -0.0022     -0.0098     -0.0004      0.0124      0.0083
        10        -0.0073     -0.0129      0.0000      0.0202      0.0135
        11        -0.0080     -0.0023      0.0001      0.0102      0.0068
        12        -0.0003     -0.0005     -0.0003      0.0011      0.0008
        13        -0.0009     -0.0003      0.0016     -0.0005     -0.0003
        14         0.0000     -0.0001     -0.0001      0.0001      0.0001
        15        -0.0002      0.0000     -0.0002      0.0004      0.0003

 Excitation energies and oscillator strengths:
 
 Excited State   1:      Singlet-A      7.0607 eV  175.60 nm  f=0.1942  <S**2>=0.000
      17 -> 19         0.18009
      18 -> 19         0.63353
      18 -> 20        -0.19833
 This state for optimization and/or second-order correction.
 Total Energy, E(CIS) =  -228.478139887    
 Copying the excited state density for this state as the 1-particle RhoCI density.
 
 Excited State   2:      Singlet-A      7.2980 eV  169.89 nm  f=0.0379  <S**2>=0.000
      17 -> 19        -0.44818
      18 -> 19         0.26178
      18 -> 20         0.46869
 
 Excited State   3:      Singlet-A      8.2859 eV  149.63 nm  f=0.0011  <S**2>=0.000
      18 -> 21         0.69867
 
 Excited State   4:      Singlet-A      9.0068 eV  137.66 nm  f=0.0047  <S**2>=0.000
      16 -> 19         0.68938
      18 -> 22        -0.12356
 
 Excited State   5:      Singlet-A      9.1680 eV  135.24 nm  f=0.0035  <S**2>=0.000
      16 -> 19         0.11695
      18 -> 22         0.68315
 
 Excited State   6:      Singlet-A      9.6931 eV  127.91 nm  f=0.3536  <S**2>=0.000
      17 -> 19         0.36188
      17 -> 20         0.18657
      17 -> 21        -0.23900
      18 -> 20         0.35583
      18 -> 23        -0.29691
      18 -> 24        -0.13205
 
 Excited State   7:      Singlet-A      9.7970 eV  126.55 nm  f=0.1965  <S**2>=0.000
      17 -> 19         0.26036
      17 -> 21         0.25208
      18 -> 20         0.25346
      18 -> 23         0.40954
      18 -> 24         0.30291
 
 Excited State   8:      Singlet-A      9.9421 eV  124.71 nm  f=0.1363  <S**2>=0.000
      15 -> 19         0.13385
      17 -> 19        -0.13971
      17 -> 20         0.50188
      17 -> 21        -0.33914
      18 -> 20        -0.11066
      18 -> 23         0.21175
      18 -> 24         0.10621
 
 Excited State   9:      Singlet-A     10.0041 eV  123.93 nm  f=0.0243  <S**2>=0.000
      15 -> 19         0.60240
      16 -> 20         0.14045
      17 -> 20        -0.23817
      17 -> 21        -0.13269
      18 -> 23        -0.10444
      18 -> 24         0.13565
 
 Excited State  10:      Singlet-A     10.0431 eV  123.45 nm  f=0.0458  <S**2>=0.000
      15 -> 19         0.25766
      17 -> 20         0.30281
      17 -> 21         0.45429
      18 -> 24        -0.30101
 
 Excited State  11:      Singlet-A     10.1026 eV  122.73 nm  f=0.0276  <S**2>=0.000
      14 -> 19         0.13308
      17 -> 20         0.15997
      17 -> 21         0.16581
      18 -> 23        -0.41517
      18 -> 24         0.48212
 
 Excited State  12:      Singlet-A     10.2837 eV  120.56 nm  f=0.0048  <S**2>=0.000
      14 -> 19         0.67692
      18 -> 24        -0.14132
 
 Excited State  13:      Singlet-A     10.7891 eV  114.92 nm  f=0.0031  <S**2>=0.000
      16 -> 20         0.18153
      17 -> 22         0.66581
 
 Excited State  14:      Singlet-A     10.8005 eV  114.79 nm  f=0.0002  <S**2>=0.000
      15 -> 19        -0.15837
      16 -> 20         0.63959
      17 -> 22        -0.19075
 
 Excited State  15:      Singlet-A     10.9323 eV  113.41 nm  f=0.0049  <S**2>=0.000
      18 -> 25         0.68634
 SavETr:  write IOETrn=   770 NScale= 10 NData=  16 NLR=1 NState=   15 LETran=     280.
 The selected state is a singlet
 CISAX will form     1 AO SS matrices at one time.
 NMat=     1 NSing=     1 JSym2X= 0.
 CISAX will form     1 AO SS matrices at one time.
 NMat=     1 NSing=     1 JSym2X= 0.
 Leave Link  914 at Tue Dec 15 16:23:41 2015, MaxMem=    33554432 cpu:        33.8
 (Enter /home/Applications/g09/g09/l1002.exe)
 Minotr:  Closed shell wavefunction.
          Computing CIS/TD-HF/TD-KS derivatives.
          Using Z-Vector for PSCF gradient.
          Skipping F1 and S1 gradient terms here.
          IDoAtm=111111111
          Frozen-core window.
          Direct CPHF calculation.
          Differentiating once with respect to electric field.
                with respect to dipole field.
          Differentiating once with respect to nuclear coordinates.
          Requested convergence is 1.0D-10 RMS, and 1.0D-09 maximum.
          NewPWx=F KeepS1=T KeepF1=T KeepIn=T MapXYZ=F SortEE=F KeepMc=T.
          MDV=      33554290 using IRadAn=       0.
 Using stored XC quadrature information.
 Keep R1 ints in memory in canonical form, NReq=1898913.
 FoFCou: FMM=F IPFlag=           0 FMFlag=           0 FMFlg1=           0
         NFxFlg=           0 DoJE=F BraDBF=F KetDBF=F FulRan=T
         wScrn=  0.000000 ICntrl=     600 IOpCl=  0 I1Cent=           0 NGrid=           0
         NMat0=    1 NMatS0=   1431 NMatT0=    0 NMatD0=    1 NMtDS0=    0 NMtDT0=    0
 Symmetry not used in FoFCou.
          Solving linear equations separately, MaxMat=       0.
          There are     1 degrees of freedom in the 1st order CPHF.  IDoFFX=0 NUNeed=     1.
 LinEq1:  Iter=  0 NonCon=     1 RMS=4.01D-02 Max=5.11D-01 NDo=     1
 AX will form     1 AO Fock derivatives at one time.
 LinEq1:  Iter=  1 NonCon=     1 RMS=2.25D-02 Max=4.32D-01 NDo=     1
 LinEq1:  Iter=  2 NonCon=     1 RMS=1.69D-02 Max=2.82D-01 NDo=     1
 LinEq1:  Iter=  3 NonCon=     1 RMS=5.82D-03 Max=6.86D-02 NDo=     1
 LinEq1:  Iter=  4 NonCon=     1 RMS=4.34D-03 Max=5.57D-02 NDo=     1
 LinEq1:  Iter=  5 NonCon=     1 RMS=1.29D-03 Max=1.93D-02 NDo=     1
 LinEq1:  Iter=  6 NonCon=     1 RMS=6.03D-04 Max=3.59D-03 NDo=     1
 LinEq1:  Iter=  7 NonCon=     1 RMS=2.74D-04 Max=2.59D-03 NDo=     1
 LinEq1:  Iter=  8 NonCon=     1 RMS=1.04D-04 Max=6.89D-04 NDo=     1
 LinEq1:  Iter=  9 NonCon=     1 RMS=1.60D-05 Max=1.02D-04 NDo=     1
 LinEq1:  Iter= 10 NonCon=     1 RMS=1.46D-06 Max=9.73D-06 NDo=     1
 LinEq1:  Iter= 11 NonCon=     1 RMS=1.80D-07 Max=1.14D-06 NDo=     1
 LinEq1:  Iter= 12 NonCon=     1 RMS=1.64D-08 Max=9.97D-08 NDo=     1
 LinEq1:  Iter= 13 NonCon=     1 RMS=2.31D-09 Max=1.42D-08 NDo=     1
 LinEq1:  Iter= 14 NonCon=     1 RMS=3.44D-10 Max=1.83D-09 NDo=     1
 LinEq1:  Iter= 15 NonCon=     0 RMS=3.86D-11 Max=2.08D-10 NDo=     1
 Linear equations converged to 1.000D-10 1.000D-09 after    15 iterations.
 End of Minotr F.D. properties file   721 does not exist.
 End of Minotr F.D. properties file   722 does not exist.
 End of Minotr F.D. properties file   788 does not exist.
 Leave Link 1002 at Tue Dec 15 16:23:52 2015, MaxMem=    33554432 cpu:        10.9
 (Enter /home/Applications/g09/g09/l601.exe)
 Copying SCF densities to generalized density rwf, IOpCl= 0 IROHF=0.

 **********************************************************************

            Population analysis using the SCF density.

 **********************************************************************

 Orbital symmetries:
       Occupied  (A) (A) (A) (A) (A) (A) (A) (A) (A) (A) (A) (A)
                 (A) (A) (A) (A) (A) (A)
       Virtual   (A) (A) (A) (A) (A) (A) (A) (A) (A) (A) (A) (A)
                 (A) (A) (A) (A) (A) (A) (A) (A) (A) (A) (A) (A)
                 (A) (A) (A) (A) (A) (A) (A) (A) (A) (A) (A)
 The electronic state is 1-A.
 Alpha  occ. eigenvalues --  -19.12822 -10.17541 -10.17212 -10.12893 -10.12267
 Alpha  occ. eigenvalues --   -1.15656  -0.81548  -0.74741  -0.60489  -0.57091
 Alpha  occ. eigenvalues --   -0.54638  -0.46403  -0.44710  -0.41207  -0.40490
 Alpha  occ. eigenvalues --   -0.36912  -0.28673  -0.22423
 Alpha virt. eigenvalues --    0.02025   0.08240   0.12631   0.15254   0.18364
 Alpha virt. eigenvalues --    0.18609   0.22564   0.24737   0.33709   0.42427
 Alpha virt. eigenvalues --    0.47339   0.69275   0.70010   0.72298   0.74538
 Alpha virt. eigenvalues --    0.76954   0.78633   0.80229   0.80974   0.83850
 Alpha virt. eigenvalues --    0.95932   0.97663   1.00167   1.00728   1.19351
 Alpha virt. eigenvalues --    1.21352   1.34248   1.38175   1.49625   1.58318
 Alpha virt. eigenvalues --    1.60800   1.71351   1.95418   2.11771   3.22774
     Molecular Orbital Coefficients:
                           1         2         3         4         5
                           O         O         O         O         O
     Eigenvalues --   -19.12822 -10.17541 -10.17212 -10.12893 -10.12267
   1 1   C  1S          0.00021   0.00041  -0.01113  -0.09840   0.98108
   2        2S          0.00095   0.00031  -0.00468  -0.01522   0.10912
   3        2PX         0.00110   0.00035   0.00238  -0.00009  -0.00101
   4        2PY        -0.00095   0.00017  -0.00031   0.00183  -0.00170
   5        2PZ        -0.00005  -0.00002  -0.00002   0.00002   0.00013
   6        3S         -0.00410  -0.01867   0.03226   0.04916  -0.09849
   7        3PX         0.00344   0.00951  -0.01641  -0.00104   0.01519
   8        3PY         0.00916   0.00824  -0.00279  -0.02699   0.02640
   9        3PZ         0.00024  -0.00005   0.00012  -0.00002  -0.00056
  10 2   C  1S         -0.00022  -0.05311   0.98397  -0.00082   0.01083
  11        2S          0.00025  -0.00899   0.10678  -0.00019  -0.00285
  12        2PX        -0.00090  -0.00100   0.00030  -0.00084  -0.00189
  13        2PY        -0.00277   0.00062  -0.00279  -0.00045  -0.00018
  14        2PZ         0.00000   0.00000  -0.00008  -0.00003   0.00001
  15        3S          0.01810   0.02108  -0.07052  -0.01131   0.03652
  16        3PX         0.00428   0.01857  -0.01639  -0.00398   0.02208
  17        3PY        -0.01615  -0.01321  -0.00016   0.00332  -0.00628
  18        3PZ         0.00007  -0.00004   0.00033   0.00022  -0.00003
  19 3   O  1S          0.98285   0.00026   0.00040   0.00008   0.00010
  20        2S          0.10852   0.00196   0.00224   0.00039   0.00049
  21        2PX         0.00403   0.00091   0.00035  -0.00003  -0.00004
  22        2PY         0.00201  -0.00018   0.00019  -0.00001  -0.00004
  23        2PZ        -0.00008  -0.00002  -0.00001  -0.00001   0.00001
  24        3S         -0.06339  -0.00174  -0.00253  -0.00327  -0.00463
  25        3PX        -0.01315  -0.00375  -0.00369  -0.00258  -0.00154
  26        3PY        -0.00706  -0.00108  -0.00340   0.00129  -0.00251
  27        3PZ         0.00023   0.00011   0.00009   0.00006  -0.00001
  28 4   C  1S         -0.00040   0.98413   0.05190   0.01170   0.00134
  29        2S         -0.00027   0.10685   0.00233  -0.00311  -0.00087
  30        2PX        -0.00237  -0.00127  -0.00034  -0.00131  -0.00117
  31        2PY         0.00115   0.00251  -0.00096  -0.00137  -0.00057
  32        2PZ         0.00005   0.00012   0.00004   0.00000   0.00002
  33        3S          0.01615  -0.07561   0.01371   0.04017  -0.00362
  34        3PX        -0.00650  -0.01163   0.00263   0.01104   0.00180
  35        3PY         0.01284  -0.01724   0.01981   0.02153  -0.00128
  36        3PZ         0.00016  -0.00040  -0.00010   0.00013  -0.00011
  37 5   C  1S          0.00019  -0.01207  -0.00092   0.98113   0.09796
  38        2S          0.00087  -0.00538  -0.00031   0.11002   0.00666
  39        2PX         0.00002   0.00161   0.00054  -0.00228   0.00076
  40        2PY         0.00137   0.00210   0.00039   0.00065  -0.00121
  41        2PZ         0.00001   0.00002  -0.00001  -0.00007   0.00002
  42        3S         -0.00336   0.03847  -0.01415  -0.10826   0.02908
  43        3PX         0.00873  -0.01691   0.01004   0.03385  -0.01356
  44        3PY        -0.00204  -0.01006   0.00136  -0.00973   0.01583
  45        3PZ        -0.00011  -0.00019   0.00020   0.00059  -0.00014
  46 6   H  1S         -0.00106  -0.00100  -0.00053  -0.00322  -0.00061
  47        2S         -0.00334   0.00164  -0.00157   0.00347   0.00463
  48 7   H  1S          0.00034  -0.00320   0.00132  -0.00027  -0.00011
  49        2S          0.00337   0.00759   0.00796   0.00464   0.00077
  50 8   H  1S          0.00023   0.00178  -0.00374   0.00002  -0.00037
  51        2S          0.00395   0.00812   0.01044  -0.00004   0.00505
  52 9   H  1S         -0.00113  -0.00046  -0.00121   0.00017  -0.00357
  53        2S         -0.00355  -0.00209   0.00084   0.00426   0.00476
                           6         7         8         9        10
                           O         O         O         O         O
     Eigenvalues --    -1.15656  -0.81548  -0.74741  -0.60489  -0.57091
   1 1   C  1S         -0.02437   0.14090  -0.07612   0.10767   0.04408
   2        2S          0.02229  -0.15130   0.08167  -0.10921  -0.04529
   3        2PX        -0.02340   0.01727  -0.07449   0.06317  -0.16110
   4        2PY        -0.01933   0.09439   0.01551  -0.08481   0.08577
   5        2PZ         0.00048  -0.00274   0.00182  -0.00465  -0.00289
   6        3S          0.03794  -0.27615   0.15379  -0.36695  -0.14133
   7        3PX        -0.01803   0.02485   0.01385   0.04251  -0.05751
   8        3PY        -0.04607   0.03279  -0.01483   0.00240   0.03762
   9        3PZ        -0.00068  -0.00194   0.00141  -0.00337  -0.00186
  10 2   C  1S         -0.08442   0.03657  -0.14986  -0.01004  -0.10484
  11        2S          0.09023  -0.04408   0.16310   0.01069   0.11563
  12        2PX        -0.00404  -0.11872  -0.00802  -0.18251  -0.04035
  13        2PY        -0.10380  -0.04462  -0.02353  -0.12243   0.15816
  14        2PZ         0.00025   0.00085  -0.00092   0.00091  -0.00476
  15        3S          0.05861  -0.04585   0.36125   0.06094   0.32879
  16        3PX        -0.01923  -0.03381   0.04189  -0.05123  -0.01453
  17        3PY         0.04517   0.00501  -0.00303  -0.04241   0.08798
  18        3PZ        -0.00045   0.00037  -0.00127   0.00015  -0.00299
  19 3   O  1S         -0.21143  -0.08311   0.01601   0.00645   0.05207
  20        2S          0.19157   0.08018  -0.01389  -0.00463  -0.05312
  21        2PX         0.10510  -0.03291  -0.09109  -0.10696   0.00800
  22        2PY         0.06168   0.01661   0.22266   0.23895  -0.02126
  23        2PZ        -0.00189  -0.00029   0.00022   0.00104  -0.00178
  24        3S          0.67937   0.30590  -0.06218  -0.02899  -0.22403
  25        3PX         0.13429  -0.01341  -0.08168  -0.09651   0.00312
  26        3PY         0.07182   0.01858   0.18151   0.20579  -0.01983
  27        3PZ        -0.00248  -0.00035   0.00051   0.00084  -0.00179
  28 4   C  1S         -0.06935   0.06919   0.14068  -0.00409  -0.10960
  29        2S          0.07568  -0.07961  -0.14949   0.00848   0.12019
  30        2PX        -0.05875  -0.09958   0.04041   0.21768   0.05458
  31        2PY         0.06012  -0.06669  -0.01779   0.02403  -0.11018
  32        2PZ         0.00122  -0.00067  -0.00315  -0.00096   0.00187
  33        3S          0.05258  -0.11208  -0.35705  -0.03313   0.34681
  34        3PX         0.00934  -0.02363  -0.01618   0.07185   0.04312
  35        3PY        -0.03497  -0.03041  -0.03643  -0.01314  -0.05658
  36        3PZ         0.00014  -0.00054  -0.00164  -0.00055   0.00172
  37 5   C  1S         -0.02379   0.15302   0.04590  -0.10788   0.05201
  38        2S          0.02241  -0.16501  -0.04996   0.11002  -0.05249
  39        2PX        -0.02916   0.09114   0.03376   0.02031  -0.06008
  40        2PY        -0.00294  -0.03848   0.07957  -0.11916  -0.17155
  41        2PZ        -0.00013   0.00143   0.00035  -0.00143   0.00000
  42        3S          0.03020  -0.30416  -0.08416   0.37197  -0.17486
  43        3PX        -0.04088   0.04361  -0.00421  -0.02684  -0.01334
  44        3PY         0.00840  -0.01272  -0.01829  -0.03590  -0.06309
  45        3PZ         0.00015   0.00109  -0.00013  -0.00089  -0.00023
  46 6   H  1S          0.00643  -0.05283  -0.02295   0.10182  -0.04822
  47        2S          0.01537  -0.01284  -0.00634   0.05922  -0.02907
  48 7   H  1S          0.00982  -0.02095  -0.07761  -0.00683   0.14347
  49        2S         -0.01866  -0.00793  -0.03184  -0.01131   0.07563
  50 8   H  1S          0.01500  -0.00862   0.09449   0.02925   0.16300
  51        2S         -0.02490  -0.00618   0.03476   0.01812   0.08058
  52 9   H  1S          0.00729  -0.04977   0.03986  -0.10305  -0.03327
  53        2S          0.01741  -0.01107   0.01090  -0.06036  -0.01863
                          11        12        13        14        15
                           O         O         O         O         O
     Eigenvalues --    -0.54638  -0.46403  -0.44710  -0.41207  -0.40490
   1 1   C  1S         -0.04882  -0.00357  -0.04767   0.02498   0.00326
   2        2S          0.04522   0.00399   0.04961  -0.02695  -0.00848
   3        2PX         0.15188   0.00062   0.04429  -0.11679   0.15834
   4        2PY         0.12389   0.01636   0.10886   0.23445   0.22785
   5        2PZ         0.00562   0.10246  -0.00550   0.00346   0.00856
   6        3S          0.21608   0.00634   0.16742  -0.11817  -0.00843
   7        3PX         0.06000   0.00469   0.04262  -0.02707   0.08548
   8        3PY         0.08547   0.01723   0.06860   0.12918   0.18044
   9        3PZ         0.00544   0.07090  -0.00346   0.00185   0.00683
  10 2   C  1S          0.01297   0.00213   0.02847  -0.02449   0.03897
  11        2S         -0.01656  -0.00179  -0.02644   0.02978  -0.04644
  12        2PX        -0.14218   0.01146   0.06957   0.12415  -0.17932
  13        2PY         0.11891  -0.02543  -0.23609  -0.05564   0.04721
  14        2PZ         0.00149   0.19966  -0.01873  -0.00176   0.00044
  15        3S         -0.01844  -0.00716  -0.10951   0.09214  -0.13818
  16        3PX        -0.14569   0.01437   0.06259   0.15452  -0.11534
  17        3PY         0.06243  -0.01680  -0.12918  -0.00052   0.04277
  18        3PZ         0.00015   0.17939  -0.01960  -0.00242  -0.00067
  19 3   O  1S         -0.05557   0.00078   0.00725   0.02001  -0.00455
  20        2S          0.05438  -0.00070  -0.00640  -0.02489   0.00295
  21        2PX        -0.18313  -0.00044  -0.05894   0.24220   0.02571
  22        2PY        -0.09803   0.02970   0.24260   0.06280   0.00689
  23        2PZ         0.00342   0.39088  -0.04884  -0.01018  -0.00647
  24        3S          0.21297  -0.00243  -0.02342  -0.03882   0.02998
  25        3PX        -0.16575  -0.00027  -0.05722   0.25167   0.02608
  26        3PY        -0.08779   0.02782   0.23050   0.06542   0.01396
  27        3PZ         0.00351   0.39020  -0.04967  -0.01090  -0.00672
  28 4   C  1S          0.00523  -0.00375  -0.03823   0.00912  -0.03318
  29        2S         -0.00818   0.00410   0.03976  -0.00902   0.04207
  30        2PX        -0.02698   0.01682   0.10858  -0.04856   0.13331
  31        2PY        -0.16412  -0.02035  -0.20150   0.05126   0.25834
  32        2PZ         0.00181   0.17520  -0.02160  -0.00149  -0.00280
  33        3S          0.00888   0.01086   0.13618  -0.01737   0.11548
  34        3PX        -0.05539   0.01166   0.07527   0.03819   0.09006
  35        3PY        -0.13046  -0.01834  -0.13141   0.06435   0.18644
  36        3PZ         0.00213   0.16197  -0.02040  -0.00265  -0.00290
  37 5   C  1S         -0.04622   0.00598   0.04993   0.00886   0.00181
  38        2S          0.04343  -0.00699  -0.05288  -0.01341   0.00185
  39        2PX         0.18938  -0.00792  -0.05068   0.25852  -0.19631
  40        2PY         0.02978  -0.00923  -0.02459  -0.21475  -0.15794
  41        2PZ         0.00268   0.10042  -0.01141   0.00470  -0.00049
  42        3S          0.20103  -0.01495  -0.18367  -0.05732  -0.01657
  43        3PX         0.11112  -0.01244  -0.04081   0.19427  -0.12580
  44        3PY        -0.00967  -0.00121  -0.01290  -0.11829  -0.05226
  45        3PZ         0.00029   0.06996  -0.00869   0.00408  -0.00046
  46 6   H  1S          0.12312  -0.00918  -0.08211   0.20045  -0.10925
  47        2S          0.06715  -0.00371  -0.05772   0.18623  -0.10138
  48 7   H  1S          0.07377   0.01846   0.17178  -0.05107  -0.14304
  49        2S          0.03046   0.01115   0.13638  -0.03857  -0.13446
  50 8   H  1S          0.08008  -0.02106  -0.17578  -0.06217   0.06536
  51        2S          0.02816  -0.01215  -0.13452  -0.05094   0.06240
  52 9   H  1S          0.12822   0.01600   0.12681   0.07866   0.19173
  53        2S          0.07061   0.00792   0.09546   0.07835   0.17421
                          16        17        18        19        20
                           O         O         O         V         V
     Eigenvalues --    -0.36912  -0.28673  -0.22423   0.02025   0.08240
   1 1   C  1S          0.01578  -0.00300  -0.00305  -0.00285  -0.00845
   2        2S         -0.01429   0.00347   0.00359   0.00208   0.00577
   3        2PX         0.24417   0.00662   0.00298   0.00487   0.01145
   4        2PY        -0.05694   0.00970   0.00628   0.00473   0.02151
   5        2PZ         0.00431  -0.27535  -0.21816  -0.16016  -0.34024
   6        3S         -0.11442   0.00543   0.00854   0.02470   0.06649
   7        3PX         0.17726   0.00585   0.00637   0.01078   0.03261
   8        3PY        -0.06022   0.00950   0.01043   0.01217   0.07213
   9        3PZ         0.00216  -0.28090  -0.24247  -0.25935  -0.68771
  10 2   C  1S         -0.01334   0.00084   0.00223  -0.00104  -0.00097
  11        2S          0.01724  -0.00118  -0.00270   0.00087  -0.00227
  12        2PX        -0.23482  -0.00335  -0.00174  -0.00223  -0.00968
  13        2PY        -0.06003  -0.00144  -0.00487   0.00620   0.00854
  14        2PZ         0.00161  -0.02898  -0.32540   0.32332   0.22021
  15        3S          0.03564  -0.00049  -0.00544   0.01149   0.03678
  16        3PX        -0.07206   0.00175   0.00284  -0.00419  -0.00602
  17        3PY         0.02725   0.00125  -0.00562   0.01856   0.01373
  18        3PZ         0.00072   0.00009  -0.34853   0.49067   0.41401
  19 3   O  1S          0.06737  -0.00025  -0.00092  -0.00089   0.00092
  20        2S         -0.06672  -0.00003   0.00120   0.00071  -0.00088
  21        2PX         0.32342   0.01005   0.00100   0.00198   0.00024
  22        2PY         0.12589   0.00391   0.00217  -0.00079   0.00809
  23        2PZ        -0.00247   0.28644   0.03857  -0.30003  -0.01321
  24        3S         -0.25817   0.00371   0.00392   0.00762  -0.00577
  25        3PX         0.35041   0.01142   0.00020   0.00223   0.00067
  26        3PY         0.13597   0.00399   0.00245   0.00114   0.01205
  27        3PZ        -0.00291   0.32463   0.04974  -0.41923  -0.02278
  28 4   C  1S         -0.02587  -0.00137   0.00227   0.00254  -0.00776
  29        2S          0.02952   0.00135  -0.00253  -0.00134   0.00597
  30        2PX        -0.18251   0.00019   0.00441   0.00247  -0.00482
  31        2PY        -0.05508   0.00071   0.00148   0.00301  -0.00540
  32        2PZ         0.00431  -0.10996   0.33032   0.31837  -0.20722
  33        3S          0.10260   0.00734  -0.00857  -0.02037   0.06674
  34        3PX        -0.02114   0.00434   0.00558   0.00206  -0.00588
  35        3PY        -0.01112   0.00041   0.00293   0.01042  -0.02484
  36        3PZ         0.00297  -0.07481   0.36455   0.48088  -0.41045
  37 5   C  1S          0.01165   0.00206  -0.00002  -0.00073  -0.00060
  38        2S         -0.00987  -0.00270   0.00009   0.00095  -0.00347
  39        2PX         0.05480   0.00571  -0.00302   0.00011   0.00695
  40        2PY         0.19917  -0.00331  -0.00341  -0.00436  -0.00254
  41        2PZ         0.00403  -0.31319   0.15118  -0.17903   0.34103
  42        3S         -0.09766  -0.00669   0.00024   0.00500   0.04390
  43        3PX         0.02717   0.00370  -0.00260   0.00435  -0.00160
  44        3PY         0.17195   0.00240   0.00064  -0.00748   0.01110
  45        3PZ         0.00468  -0.31660   0.16378  -0.29682   0.69005
  46 6   H  1S         -0.01186   0.00050  -0.00154  -0.00203  -0.00506
  47        2S          0.00397   0.00176  -0.00190  -0.00980  -0.03041
  48 7   H  1S          0.08190  -0.00070   0.00175   0.00394  -0.00921
  49        2S          0.08307  -0.00121   0.00213   0.01273  -0.06199
  50 8   H  1S          0.12525   0.00003  -0.00011  -0.00394  -0.00735
  51        2S          0.11923   0.00025   0.00071  -0.01533  -0.03800
  52 9   H  1S          0.02652   0.00232   0.00027  -0.00675  -0.01959
  53        2S          0.04413   0.00497  -0.00060  -0.02253  -0.10338
                          21        22        23        24        25
                           V         V         V         V         V
     Eigenvalues --     0.12631   0.15254   0.18364   0.18609   0.22564
   1 1   C  1S          0.04763   0.00622   0.08284  -0.08264  -0.01254
   2        2S         -0.02817  -0.00751  -0.05631   0.07741   0.00682
   3        2PX        -0.09876  -0.01689  -0.10791   0.02363  -0.13396
   4        2PY        -0.11970   0.00155  -0.18565  -0.01334   0.20028
   5        2PZ        -0.03234   0.00597  -0.02503   0.00960   0.01084
   6        3S         -0.59832  -0.08181  -0.96973   0.57616   0.20377
   7        3PX        -0.28412  -0.06291  -0.41996   0.25147  -0.73644
   8        3PY        -0.33032   0.01016  -0.77044   0.38224   0.93274
   9        3PZ        -0.08431   0.01529  -0.07850   0.02710   0.02880
  10 2   C  1S          0.03082  -0.06598  -0.00141   0.09128   0.08965
  11        2S         -0.02310   0.03955   0.01724  -0.07289  -0.05669
  12        2PX         0.02375  -0.10626   0.13698   0.14038   0.00836
  13        2PY        -0.09238  -0.03867  -0.13779  -0.13102  -0.06878
  14        2PZ         0.02037  -0.00581   0.01078   0.00436  -0.00081
  15        3S         -0.44132   0.71440  -0.35064  -1.02917  -1.32182
  16        3PX         0.01338  -0.43229   0.33107   0.64602  -0.13758
  17        3PY        -0.25285  -0.05910  -0.27659  -0.71596  -0.38242
  18        3PZ         0.05009  -0.01507   0.04036   0.00798  -0.00006
  19 3   O  1S          0.03280   0.08932   0.00584  -0.02626   0.05437
  20        2S         -0.02074  -0.06485  -0.00488   0.01852  -0.02467
  21        2PX        -0.10188  -0.15494   0.00001   0.02481  -0.12106
  22        2PY        -0.01605   0.02907  -0.03959   0.03061   0.19742
  23        2PZ        -0.00262   0.00042  -0.00424  -0.00425   0.00209
  24        3S         -0.29252  -0.74485  -0.04423   0.22145  -0.57709
  25        3PX        -0.18744  -0.24598  -0.01512   0.06094  -0.30715
  26        3PY        -0.03333   0.03415  -0.03944  -0.00078   0.37009
  27        3PZ        -0.00468   0.00119  -0.00929  -0.00846   0.00546
  28 4   C  1S          0.02637  -0.13669  -0.00383  -0.03658  -0.03848
  29        2S         -0.01364   0.09970  -0.01544   0.03724   0.03521
  30        2PX        -0.07334  -0.16776  -0.00714   0.07979  -0.25265
  31        2PY         0.16165  -0.08747  -0.19762  -0.16187   0.14116
  32        2PZ        -0.00995   0.01751   0.00086   0.00481   0.00459
  33        3S         -0.46748   1.29453   0.35200   0.37240   0.19354
  34        3PX        -0.19148  -0.37046  -0.06012   0.31453  -0.78905
  35        3PY         0.35188  -0.51038  -0.44895  -0.71501   0.35690
  36        3PZ        -0.02723   0.04107   0.00055   0.01495   0.01482
  37 5   C  1S          0.05452   0.04615  -0.06208   0.07810  -0.08263
  38        2S         -0.03199  -0.05105   0.04508  -0.06796   0.02174
  39        2PX        -0.20188  -0.02500   0.15103  -0.02775   0.09630
  40        2PY         0.03923   0.03906  -0.01386  -0.01255   0.01320
  41        2PZ         0.01789  -0.01100   0.00774  -0.00338  -0.00706
  42        3S         -0.66306  -0.27116   0.66061  -0.58831   1.54450
  43        3PX        -0.57490  -0.32204   0.64207  -0.42031   0.12632
  44        3PY         0.11994   0.24511  -0.12724   0.05130   0.32266
  45        3PZ         0.04638  -0.03178   0.03186  -0.01926  -0.02965
  46 6   H  1S          0.10889   0.05917  -0.03994   0.01980   0.06028
  47        2S          1.14411   0.58581  -1.03169   0.68058  -0.62092
  48 7   H  1S          0.05199  -0.09192  -0.01924  -0.03640   0.01923
  49        2S          0.69811  -1.29426  -0.70194  -0.94426   0.26566
  50 8   H  1S          0.02834  -0.06442   0.01169   0.06646  -0.04049
  51        2S          0.48896  -0.75862   0.71091   1.62869   0.74949
  52 9   H  1S          0.08669   0.01773   0.05851  -0.03865  -0.00017
  53        2S          0.92279   0.09487   1.47581  -0.72972  -0.61799
                          26        27        28        29        30
                           V         V         V         V         V
     Eigenvalues --     0.24737   0.33709   0.42427   0.47339   0.69275
   1 1   C  1S         -0.07797   0.07576   0.02846   0.12217   0.05443
   2        2S          0.01294  -0.04129   0.01702  -0.01511  -0.06137
   3        2PX         0.05738   0.10970   0.24931   0.07599   0.50226
   4        2PY         0.01128   0.11843  -0.08312   0.21075  -0.09209
   5        2PZ         0.00110   0.00543   0.00638   0.01234   0.05376
   6        3S          1.59133  -1.21361  -1.02623  -3.11055  -0.33519
   7        3PX         0.25341   1.26840   1.87039   0.48250  -0.20506
   8        3PY        -0.37811   0.33913  -0.11264   2.54321   0.49101
   9        3PZ         0.01664   0.00089   0.00622  -0.00582  -0.03334
  10 2   C  1S         -0.05376  -0.07933  -0.03683  -0.08998  -0.05891
  11        2S          0.03939  -0.00391   0.02577   0.02471  -0.01443
  12        2PX        -0.07875   0.28325   0.12071  -0.03561   0.01672
  13        2PY        -0.27141  -0.04562   0.04642  -0.28580  -0.16950
  14        2PZ         0.00368   0.00238  -0.00081   0.00515   0.07235
  15        3S          0.39853   1.40708   1.11278   1.59169   0.33923
  16        3PX        -0.46278   1.26767   1.71006   1.20243   0.39314
  17        3PY        -0.94627  -0.48246   0.78551  -0.96057  -0.04223
  18        3PZ         0.00613  -0.00212  -0.02239  -0.00906  -0.06577
  19 3   O  1S          0.08345   0.05362  -0.00726   0.01155   0.02515
  20        2S         -0.03966  -0.02589   0.00064   0.00040  -0.07784
  21        2PX         0.02979  -0.16848  -0.08543   0.10173  -0.17819
  22        2PY        -0.21981  -0.05931   0.19640  -0.22053  -0.05776
  23        2PZ         0.00225   0.00067   0.00281  -0.00288   0.00641
  24        3S         -0.90963  -0.67539   0.13617  -0.19706   0.12060
  25        3PX        -0.00988  -0.46720  -0.21943   0.14054  -0.04312
  26        3PY        -0.51043  -0.18320   0.54515  -0.46295  -0.13355
  27        3PZ         0.00605   0.00313   0.00615  -0.00117   0.01401
  28 4   C  1S          0.06503  -0.07548   0.04539   0.08647  -0.03338
[...]
  53        2S          0.34530
          Condensed to atoms (all electrons):
               1          2          3          4          5          6
     1  C    5.254805   0.481861  -0.070073  -0.160631   0.425457  -0.025798
     2  C    0.481861   5.081607   0.282138  -0.178477  -0.147398   0.004847
     3  O   -0.070073   0.282138   8.099390   0.296310  -0.071341   0.001496
     4  C   -0.160631  -0.178477   0.296310   5.135452   0.477470  -0.025710
     5  C    0.425457  -0.147398  -0.071341   0.477470   5.237418   0.380071
     6  H   -0.025798   0.004847   0.001496  -0.025710   0.380071   0.476164
     7  H    0.003574   0.004192  -0.024669   0.383114  -0.039722  -0.000530
     8  H   -0.042397   0.390250  -0.033076   0.005443   0.003564  -0.000036
     9  H    0.382878  -0.027877   0.001792   0.005103  -0.025693  -0.001323
               7          8          9
     1  C    0.003574  -0.042397   0.382878
     2  C    0.004192   0.390250  -0.027877
     3  O   -0.024669  -0.033076   0.001792
     4  C    0.383114   0.005443   0.005103
     5  C   -0.039722   0.003564  -0.025693
     6  H   -0.000530  -0.000036  -0.001323
     7  H    0.465427  -0.000081  -0.000038
     8  H   -0.000081   0.461567  -0.000503
     9  H   -0.000038  -0.000503   0.479796
 Mulliken charges:
               1
     1  C   -0.249676
     2  C    0.108856
     3  O   -0.481967
     4  C    0.061926
     5  C   -0.239826
     6  H    0.190819
     7  H    0.208733
     8  H    0.215269
     9  H    0.185866
 Sum of Mulliken charges =   0.00000
 Mulliken charges with hydrogens summed into heavy atoms:
               1
     1  C   -0.063810
     2  C    0.324125
     3  O   -0.481967
     4  C    0.270659
     5  C   -0.049007
 Electronic spatial extent (au):  <R**2>=            288.3692
 Charge=              0.0000 electrons
 Dipole moment (field-independent basis, Debye):
    X=              0.6486    Y=              0.2681    Z=              0.0551  Tot=              0.7040
 Quadrupole moment (field-independent basis, Debye-Ang):
   XX=            -27.3645   YY=            -24.7572   ZZ=            -31.8019
   XY=             -1.5566   XZ=              0.1446   YZ=              0.0381
 Traceless Quadrupole moment (field-independent basis, Debye-Ang):
   XX=              0.6100   YY=              3.2173   ZZ=             -3.8274
   XY=             -1.5566   XZ=              0.1446   YZ=              0.0381
 Octapole moment (field-independent basis, Debye-Ang**2):
  XXX=              0.2122  YYY=             -3.3296  ZZZ=              0.1543  XYY=             -1.4712
  XXY=              2.6021  XXZ=              0.0832  XZZ=             -3.3997  YZZ=             -1.1708
  YYZ=              0.3512  XYZ=              0.1871
 Hexadecapole moment (field-independent basis, Debye-Ang**3):
 XXXX=           -154.8332 YYYY=           -145.9165 ZZZZ=            -30.9072 XXXY=             -6.5869
 XXXZ=              0.3508 YYYX=              3.4983 YYYZ=              0.1838 ZZZX=              0.0706
 ZZZY=             -0.0015 XXYY=            -51.4606 XXZZ=            -35.6252 YYZZ=            -37.6456
 XXYZ=              0.0652 YYXZ=              0.4233 ZZXY=              1.1594
 N-N= 1.619419423428D+02 E-N=-8.563680278060D+02  KE= 2.269866788864D+02
 Orbital energies and kinetic energies (alpha):
                                 1                 2
   1         O               -19.128225         28.828551
   2         O               -10.175407         15.802582
   3         O               -10.172121         15.797366
   4         O               -10.128929         15.805516
   5         O               -10.122667         15.807070
   6         O                -1.156556          2.557790
   7         O                -0.815484          1.772528
   8         O                -0.747408          1.839259
   9         O                -0.604893          1.688536
  10         O                -0.570906          1.448170
  11         O                -0.546376          1.325171
  12         O                -0.464034          1.641324
  13         O                -0.447096          1.497255
  14         O                -0.412067          1.552599
  15         O                -0.404897          1.343400
  16         O                -0.369119          2.079141
  17         O                -0.286735          1.476313
  18         O                -0.224227          1.230767
  19         V                 0.020247          1.867044
  20         V                 0.082398          1.494859
  21         V                 0.126315          1.136722
  22         V                 0.152538          1.774133
  23         V                 0.183644          1.187499
  24         V                 0.186089          1.298034
  25         V                 0.225644          1.875497
  26         V                 0.247374          1.965122
  27         V                 0.337087          2.024741
  28         V                 0.424267          1.711371
  29         V                 0.473393          2.740259
  30         V                 0.692746          2.590879
  31         V                 0.700097          2.512359
  32         V                 0.722984          2.857865
  33         V                 0.745385          2.600406
  34         V                 0.769538          2.509036
  35         V                 0.786327          2.565563
  36         V                 0.802294          2.716291
  37         V                 0.809738          2.651342
  38         V                 0.838503          2.597504
  39         V                 0.959316          2.934350
  40         V                 0.976631          3.340678
  41         V                 1.001673          3.068596
  42         V                 1.007278          3.053841
  43         V                 1.193506          2.708094
  44         V                 1.213516          2.915636
  45         V                 1.342484          2.568735
  46         V                 1.381747          2.845006
  47         V                 1.496254          4.950609
  48         V                 1.583180          3.483336
  49         V                 1.607996          3.529345
  50         V                 1.713506          4.450360
  51         V                 1.954184          4.163968
  52         V                 2.117713          4.057510
  53         V                 3.227740          6.845919
 Total kinetic energy from orbitals= 2.269866788864D+02
 No NMR shielding tensors so no spin-rotation constants.
 Leave Link  601 at Tue Dec 15 16:23:52 2015, MaxMem=    33554432 cpu:         0.1
 (Enter /home/Applications/g09/g09/l701.exe)
 Compute integral first derivatives.
 ... and contract with generalized density number  6.
 Leave Link  701 at Tue Dec 15 16:23:52 2015, MaxMem=    33554432 cpu:         0.1
 (Enter /home/Applications/g09/g09/l702.exe)
 L702 exits ... SP integral derivatives will be done elsewhere.
 Leave Link  702 at Tue Dec 15 16:23:52 2015, MaxMem=    33554432 cpu:         0.0
 (Enter /home/Applications/g09/g09/l703.exe)
 Compute integral first derivatives, UseDBF=F ICtDFT=           0.
 Integral derivatives from FoFJK, PRISM(SPDF).
 Calling FoFJK, ICntrl=  10005127 FMM=F ISym2X=0 I1Cent= 0 IOpClX= 0 NMat=1 NMatS=1 NMatT=0.
 FoFJK:  IHMeth= 1 ICntrl=10005127 DoSepK=F KAlg= 0 I1Cent=   0 FoldK=F
 IRaf=         0 NMat=   1 IRICut=       1 DoRegI=T DoRafI=F ISym2E= 0.
 FoFCou: FMM=F IPFlag=           0 FMFlag=      100000 FMFlg1=         800
         NFxFlg=           0 DoJE=F BraDBF=F KetDBF=F FulRan=T
         wScrn=  0.000000 ICntrl=10005127 IOpCl=  0 I1Cent=           0 NGrid=           0
         NMat0=    1 NMatS0=      1 NMatT0=    0 NMatD0=    1 NMtDS0=    0 NMtDT0=    0
 Symmetry not used in FoFCou.
 Leave Link  703 at Tue Dec 15 16:23:54 2015, MaxMem=    33554432 cpu:         1.2
 (Enter /home/Applications/g09/g09/l716.exe)
 Dipole        = 7.37164414D-02 6.23234826D-01 3.43399835D-02
 ***** Axes restored to original set *****
 -------------------------------------------------------------------
 Center     Atomic                   Forces (Hartrees/Bohr)
 Number     Number              X              Y              Z
 -------------------------------------------------------------------
      1        6           0.041978270   -0.010056950   -0.005136626
      2        6           0.014789434   -0.086819476    0.003043639
      3        8          -0.113627917   -0.003290707   -0.003786569
      4        6          -0.005711314    0.121628066    0.001354886
      5        6           0.094506564    0.027812518    0.003000174
      6        1          -0.019630335   -0.014830144   -0.000745977
      7        1           0.004392881   -0.019254187    0.000607822
      8        1          -0.010669564   -0.022416987   -0.000736119
      9        1          -0.006028019    0.007227867    0.002398770
 -------------------------------------------------------------------
 Cartesian Forces:  Max     0.121628066 RMS     0.042531522
 Z-matrix is all fixed cartesians, so copy forces.
 Force constants in Cartesian coordinates: 
                1             2             3             4             5 
      1  0.847989D+00
      2 -0.475053D-01  0.843805D+00
      3 -0.411341D-02  0.112744D-01  0.206321D+00
      4 -0.453930D+00 -0.834858D-01 -0.780257D-02  0.955204D+00
      5 -0.613253D-01 -0.198439D+00 -0.299986D-02 -0.639389D-01  0.997326D+00
      6 -0.972134D-02 -0.319092D-02 -0.917466D-01  0.106096D-01 -0.384081D-02
      7 -0.768967D-02  0.293111D-01 -0.250059D-03 -0.364316D+00  0.233273D+00
      8 -0.609802D-02  0.232333D-01  0.430722D-04  0.277593D+00 -0.451830D+00
      9 -0.669120D-03  0.134231D-02  0.110263D-01 -0.349433D-02  0.185842D-02
     10  0.974900D-02  0.921718D-05  0.712813D-05  0.244146D-01  0.193511D-01
     11  0.354260D-01  0.355280D-04 -0.407512D-03 -0.186772D-01 -0.148040D-01
     12 -0.772113D-03  0.321738D-04 -0.221508D-02  0.302402D-03  0.174890D-03
     13 -0.174122D+00  0.129090D-01  0.946969D-03  0.917217D-02 -0.349736D-01
     14 -0.122344D-01 -0.468819D+00  0.169834D-02  0.782199D-05 -0.415621D-04
     15  0.252155D-03  0.425699D-02 -0.926964D-01  0.324026D-03 -0.109111D-02
     16  0.178030D-01  0.187206D-04 -0.676860D-05  0.105041D-05  0.000000D+00
     17 -0.228518D-01 -0.246844D-04 -0.192688D-03  0.000000D+00  0.000000D+00
     18  0.123129D-02  0.732664D-04  0.221332D-01 -0.109211D-03  0.167814D-04
     19  0.000000D+00  0.000000D+00  0.496017D-04  0.550189D-05  0.227627D-05
     20  0.000000D+00  0.000000D+00  0.158657D-03  0.000000D+00  0.000000D+00
     21  0.114751D-04  0.201548D-04  0.619455D-02 -0.126198D-03 -0.522112D-04
     22  0.712573D-02 -0.271689D-01  0.355463D-03 -0.165645D+00 -0.110938D+00
     23 -0.317337D-02  0.120795D-01  0.100840D-03 -0.105817D+00 -0.353814D+00
     24  0.776235D-05 -0.176472D-02  0.225858D-01  0.102824D-02  0.465141D-02
     25 -0.246925D+00  0.115912D+00  0.108136D-01 -0.490702D-02  0.185498D-01
     26  0.117762D+00 -0.211872D+00 -0.967526D-02 -0.568156D-02  0.216020D-01
     27  0.137733D-01 -0.120437D-01 -0.816030D-01 -0.731966D-03  0.128250D-02
                6             7             8             9            10 
      6  0.187261D+00
      7 -0.484916D-02  0.622835D+00
      8  0.379416D-02 -0.725962D-01  0.779702D+00
      9 -0.510312D-01  0.132298D-01  0.535764D-02  0.597801D-01
     10  0.105873D-02 -0.287852D+00 -0.207207D+00 -0.981584D-02  0.895710D+00
     11 -0.838207D-03 -0.160717D+00 -0.357158D+00 -0.895687D-02  0.165375D-03
     12 -0.305715D-02 -0.797753D-02 -0.895261D-02 -0.488455D-01  0.104056D-01
     13  0.473140D-03 -0.787348D-02  0.601735D-02  0.147059D-03 -0.490205D+00
     14  0.108447D-03 -0.285922D-01  0.218590D-01  0.185054D-03  0.964188D-01
     15 -0.175048D-03 -0.100903D-02  0.475481D-03  0.795841D-02  0.201880D-02
     16 -0.499778D-04  0.000000D+00  0.000000D+00 -0.710734D-05 -0.481309D-02
     17  0.168438D-04  0.000000D+00  0.125706D-05 -0.474161D-04  0.617315D-02
     18  0.519619D-02 -0.394033D-04 -0.164737D-03  0.621383D-02  0.205838D-03
     19 -0.206746D-03  0.213513D-01 -0.163572D-01  0.941034D-03 -0.147004D+00
     20  0.938491D-05  0.979533D-02 -0.750747D-02  0.536075D-03  0.850910D-01
     21  0.474217D-02  0.779705D-03 -0.746463D-03  0.478974D-02 -0.370983D-02
     22  0.852628D-03  0.235444D-01  0.186477D-01 -0.339422D-03  0.000000D+00
     23  0.343519D-02 -0.104829D-01 -0.830225D-02  0.200605D-03 -0.198267D-05
     24 -0.707857D-01  0.225218D-03  0.221810D-03  0.430920D-02 -0.180752D-03
     25  0.183311D-02  0.000000D+00  0.000000D+00  0.795734D-05  0.000000D+00
     26  0.505914D-03  0.898629D-05  0.232660D-05 -0.475822D-03  0.000000D+00
     27  0.195968D-01 -0.109520D-03 -0.283554D-04  0.579906D-02  0.103564D-04
               11            12            13            14            15 
     11  0.848220D+00
     12  0.465416D-02  0.182305D+00
     13  0.727772D-01  0.888834D-03  0.879844D+00
     14 -0.206405D+00 -0.480058D-03  0.235749D-01  0.832192D+00
     15 -0.128929D-02 -0.959351D-01  0.490549D-03  0.881988D-04  0.210218D+00
     16 -0.174837D-01 -0.199502D-03 -0.243063D+00 -0.105203D+00 -0.110709D-02
     17  0.224249D-01  0.510582D-04 -0.105988D+00 -0.190705D+00 -0.794653D-03
     18  0.669466D-03  0.225205D-01 -0.186747D-02 -0.125052D-02 -0.822323D-01
     19  0.885082D-01 -0.307090D-02  0.715902D-02  0.260091D-01 -0.770285D-03
     20 -0.292312D+00  0.442726D-02  0.327645D-02  0.119017D-01  0.184618D-03
     21  0.622484D-02 -0.671552D-01 -0.978837D-04 -0.440691D-03  0.244876D-01
     22  0.000000D+00  0.769864D-05  0.311526D-05  0.000000D+00 -0.148222D-03
     23  0.000000D+00  0.745033D-04 -0.274900D-05  0.000000D+00  0.130796D-03
     24 -0.747815D-04  0.679215D-02 -0.118671D-03  0.182351D-04  0.564630D-02
     25  0.135202D-05  0.415541D-03  0.190861D-01  0.199279D-04 -0.509079D-04
     26  0.000000D+00  0.186166D-04  0.224091D-01  0.172151D-04 -0.196103D-02
     27  0.181900D-04  0.559067D-02 -0.862526D-03  0.729995D-04  0.227290D-01
               16            17            18            19            20 
     16  0.230066D+00
     17  0.122668D+00  0.168301D+00
     18  0.127887D-02  0.922877D-03  0.439156D-01
     19  0.000000D+00  0.000000D+00 -0.747581D-04  0.118488D+00
     20  0.000000D+00  0.182468D-05 -0.239122D-03 -0.981631D-01  0.287916D+00
     21  0.106787D-04  0.712423D-04 -0.933623D-02  0.313205D-02 -0.507687D-02
     22  0.000000D+00  0.000000D+00  0.000000D+00  0.000000D+00  0.000000D+00
     23  0.000000D+00  0.000000D+00  0.000000D+00  0.000000D+00  0.000000D+00
     24  0.000000D+00  0.000000D+00  0.000000D+00  0.000000D+00  0.000000D+00
     25  0.601281D-05 -0.202647D-05 -0.625152D-03  0.000000D+00  0.000000D+00
     26  0.000000D+00  0.000000D+00 -0.280073D-04  0.000000D+00  0.000000D+00
     27  0.808959D-04 -0.272640D-04 -0.841076D-02  0.000000D+00  0.000000D+00
               21            22            23            24            25 
     21  0.362774D-01
     22  0.000000D+00  0.134971D+00
     23  0.000000D+00  0.119478D+00  0.350021D+00
     24  0.000000D+00 -0.950195D-03 -0.374599D-02  0.399109D-01
     25  0.000000D+00  0.000000D+00  0.000000D+00 -0.116067D-04  0.232739D+00
     26  0.000000D+00 -0.182195D-04  0.160774D-04  0.694043D-03 -0.134481D+00
     27  0.000000D+00  0.222049D-03 -0.195943D-03 -0.845862D-02 -0.123826D-01
               26            27 
     26  0.190234D+00
     27  0.109215D-01  0.447568D-01
 Leave Link  716 at Tue Dec 15 16:23:54 2015, MaxMem=    33554432 cpu:         0.0
 (Enter /home/Applications/g09/g09/l103.exe)

 GradGradGradGradGradGradGradGradGradGradGradGradGradGradGradGradGradGrad
 Berny optimization.
 Search for a local minimum.
 Step number   1 out of a maximum of    2
 All quantities printed in internal units (Hartrees-Bohrs-Radians)
 Second derivative matrix not updated -- first step.
 ITU=  0
     Eigenvalues ---    0.01936   0.03042   0.06881   0.07327   0.07855
     Eigenvalues ---    0.07945   0.13035   0.13969   0.16036   0.22899
     Eigenvalues ---    0.25425   0.28781   0.38931   0.41843   0.62461
     Eigenvalues ---    0.82325   1.12617   1.37821   1.45511   1.52200
     Eigenvalues ---    1.71674
 Quadratic step=3.775D-01 exceeds max=3.000D-01 adjusted using Lamda=-5.971D-02.
 Angle between NR and scaled steps=   8.80 degrees.
 Angle between quadratic step and forces=  37.06 degrees.
 Linear search not attempted -- first point.
 TrRot= -0.003528  0.006349 -0.000847 -0.286213  0.000399  0.285678
 Variable       Old X    -DE/DX   Delta X   Delta X   Delta X     New X
                                 (Linear)    (Quad)   (Total)
    X1        1.82184   0.04198   0.00000   0.04110   0.03690   1.85874
    Y1       -1.30429  -0.01006   0.00000  -0.00435   0.00100  -1.30329
    Z1        0.08816  -0.00514   0.00000  -0.01396  -0.01566   0.07249
    X2       -0.71825   0.01479   0.00000  -0.03113  -0.03576  -0.75401
    Y2       -1.97116  -0.08682   0.00000  -0.11731  -0.11056  -2.08172
    Z2        0.03693   0.00304   0.00000   0.00757   0.00678   0.04370
    X3       -2.24583  -0.11363   0.00000  -0.11082  -0.11437  -2.36020
    Y3       -0.04281  -0.00329   0.00000  -0.01600  -0.00839  -0.05120
    Z3        0.01750  -0.00379   0.00000  -0.00502  -0.00498   0.01253
    X4       -0.67348  -0.00571   0.00000   0.00302   0.00067  -0.67281
    Y4        2.01331   0.12163   0.00000   0.12387   0.13057   2.14388
    Z4        0.08199   0.00135   0.00000  -0.00054  -0.00089   0.08110
    X5        1.81907   0.09451   0.00000   0.10504   0.10229   1.92135
    Y5        1.32717   0.02781   0.00000   0.05593   0.06124   1.38841
    Z5        0.07960   0.00300   0.00000   0.00699   0.00557   0.08517
    X6        3.47388  -0.01963   0.00000   0.04750   0.04540   3.51929
    Y6        2.61701  -0.01483   0.00000  -0.00375   0.00070   2.61771
    Z6        0.09134  -0.00075   0.00000   0.00367   0.00177   0.09311
    X7       -1.54158   0.00439   0.00000  -0.01019  -0.01159  -1.55317
    Y7        3.90888  -0.01925   0.00000   0.04441   0.05158   3.96046
    Z7        0.04039   0.00061   0.00000   0.00099   0.00118   0.04156
    X8       -1.52296  -0.01067   0.00000  -0.03861  -0.04422  -1.56718
    Y8       -3.77807  -0.02242   0.00000  -0.15610  -0.14892  -3.92699
    Z8        0.05766  -0.00074   0.00000   0.00175   0.00105   0.05871
    X9        3.38501  -0.00603   0.00000   0.02562   0.02068   3.40569
    Y9       -2.63997   0.00723   0.00000   0.01825   0.02278  -2.61719
    Z9       -0.02358   0.00240   0.00000   0.00763   0.00518  -0.01840
         Item               Value     Threshold  Converged?
 Maximum Force            0.121628     0.000450     NO 
 RMS     Force            0.042532     0.000300     NO 
 Maximum Displacement     0.148919     0.001800     NO 
 RMS     Displacement     0.057605     0.001200     NO 
 Predicted change in Energy=-2.915458D-02
 GradGradGradGradGradGradGradGradGradGradGradGradGradGradGradGradGradGrad

 Leave Link  103 at Tue Dec 15 16:23:54 2015, MaxMem=    33554432 cpu:         0.0
 (Enter /home/Applications/g09/g09/l9999.exe)
 1\1\GINC-DUSTIN-DESKTOP\Force\RB3LYP-FC\3-21G\C4H4O1\DUSTIN\15-Dec-201
 5\0\\#P B3LYP/3-21G CIS(Singlets,NStates=15) pop(full) force\\FuranDFT
 \\0,1\C,0.964074,-0.690201,0.046651\C,-0.38008,-1.043094,0.01954\O,-1.
 188442,-0.022654,0.009263\C,-0.356388,1.0654,0.043385\C,0.962608,0.702
 308,0.042123\H,1.8383,1.384862,0.048333\H,-0.815771,2.06849,0.021372\H
 ,-0.805915,-1.99927,0.030511\H,1.791271,-1.397012,-0.012479\\Version=E
 S64L-G09RevD.01\State=1-A\HF=-228.7376164\RMSD=4.171e-09\RMSF=4.253e-0
 2\Dipole=0.3148968,-0.5428398,-0.0346393\PG=C01 [X(C4H4O1)]\\@


 BLACK HOLES SUCK.
 Job cpu time:       0 days  0 hours  0 minutes 50.8 seconds.
 File lengths (MBytes):  RWF=     14 Int=      0 D2E=      0 Chk=      3 Scr=      1
 Normal termination of Gaussian 09 at Tue Dec 15 16:23:54 2015.
