 Entering Gaussian System, Link 0=g09
 Input=FuranAM1_90P6.com
 Output=FuranAM1_90P6.log
 Initial command:
 /home/Applications/g09/g09/l1.exe "/home/Applications/g09/scratch/Gau-8336.inp" -scrdir="/home/Applications/g09/scratch/"
 Entering Link 1 = /home/Applications/g09/g09/l1.exe PID=      8338.
  
 Copyright (c) 1988,1990,1992,1993,1995,1998,2003,2009,2013,
            Gaussian, Inc.  All Rights Reserved.
  
 This is part of the Gaussian(R) 09 program.  It is based on
 the Gaussian(R) 03 system (copyright 2003, Gaussian, Inc.),
 the Gaussian(R) 98 system (copyright 1998, Gaussian, Inc.),
 the Gaussian(R) 94 system (copyright 1995, Gaussian, Inc.),
 the Gaussian 92(TM) system (copyright 1992, Gaussian, Inc.),
 the Gaussian 90(TM) system (copyright 1990, Gaussian, Inc.),
 the Gaussian 88(TM) system (copyright 1988, Gaussian, Inc.),
 the Gaussian 86(TM) system (copyright 1986, Carnegie Mellon
 University), and the Gaussian 82(TM) system (copyright 1983,
 Carnegie Mellon University). Gaussian is a federally registered
 trademark of Gaussian, Inc.
  
 This software contains proprietary and confidential information,
 including trade secrets, belonging to Gaussian, Inc.
  
 This software is provided under written license and may be
 used, copied, transmitted, or stored only in accord with that
 written license.
  
 The following legend is applicable only to US Government
 contracts under FAR:
  
                    RESTRICTED RIGHTS LEGEND
  
 Use, reproduction and disclosure by the US Government is
 subject to restrictions as set forth in subparagraphs (a)
 and (c) of the Commercial Computer Software - Restricted
 Rights clause in FAR 52.227-19.
  
 Gaussian, Inc.
 340 Quinnipiac St., Bldg. 40, Wallingford CT 06492
  
  
 ---------------------------------------------------------------
 Warning -- This program may not be used in any manner that
 competes with the business of Gaussian, Inc. or will provide
 assistance to any competitor of Gaussian, Inc.  The licensee
 of this program is prohibited from giving any competitor of
 Gaussian, Inc. access to this program.  By using this program,
 the user acknowledges that Gaussian, Inc. is engaged in the
 business of creating and licensing software in the field of
 computational chemistry and represents and warrants to the
 licensee that it is not a competitor of Gaussian, Inc. and that
 it will not use this program in any manner prohibited above.
 ---------------------------------------------------------------
  

 Cite this work as:
 Gaussian 09, Revision D.01,
 M. J. Frisch, G. W. Trucks, H. B. Schlegel, G. E. Scuseria, 
 M. A. Robb, J. R. Cheeseman, G. Scalmani, V. Barone, B. Mennucci, 
 G. A. Petersson, H. Nakatsuji, M. Caricato, X. Li, H. P. Hratchian, 
 A. F. Izmaylov, J. Bloino, G. Zheng, J. L. Sonnenberg, M. Hada, 
 M. Ehara, K. Toyota, R. Fukuda, J. Hasegawa, M. Ishida, T. Nakajima, 
 Y. Honda, O. Kitao, H. Nakai, T. Vreven, J. A. Montgomery, Jr., 
 J. E. Peralta, F. Ogliaro, M. Bearpark, J. J. Heyd, E. Brothers, 
 K. N. Kudin, V. N. Staroverov, T. Keith, R. Kobayashi, J. Normand, 
 K. Raghavachari, A. Rendell, J. C. Burant, S. S. Iyengar, J. Tomasi, 
 M. Cossi, N. Rega, J. M. Millam, M. Klene, J. E. Knox, J. B. Cross, 
 V. Bakken, C. Adamo, J. Jaramillo, R. Gomperts, R. E. Stratmann, 
 O. Yazyev, A. J. Austin, R. Cammi, C. Pomelli, J. W. Ochterski, 
 R. L. Martin, K. Morokuma, V. G. Zakrzewski, G. A. Voth, 
 P. Salvador, J. J. Dannenberg, S. Dapprich, A. D. Daniels, 
 O. Farkas, J. B. Foresman, J. V. Ortiz, J. Cioslowski, 
 and D. J. Fox, Gaussian, Inc., Wallingford CT, 2013.
 
 ******************************************
 Gaussian 09:  ES64L-G09RevD.01 24-Apr-2013
                15-Dec-2015 
 ******************************************
 ------------------------------------------------------------
 #P AM1(Input,print) CIS(Singlets,NStates=15) pop(full) force
 ------------------------------------------------------------
 1/10=7,30=1,38=1/1,3;
 2/12=2,17=6,18=5,40=1/2;
 3/5=2,16=1,25=1,41=700000,71=1,135=100,136=1/1,2,8,3;
 4/35=1/1;
 5/5=2,35=1,38=5/2;
 8/6=1,10=1,108=15/1;
 9/15=2,41=15,42=1,48=1,49=10/14;
 10/5=4/2;
 6/7=3,18=1/1;
 7/12=6,13=5,29=1/1,2,3,16;
 1/10=7,30=1/3;
 99//99;
 Leave Link    1 at Tue Dec 15 17:06:26 2015, MaxMem=           0 cpu:         0.0
 (Enter /home/Applications/g09/g09/l101.exe)
 -----------------
 AM1-Reparam Input
 -----------------
 Symbolic Z-matrix:
 Charge =  0 Multiplicity = 1
 6                     0.92628  -0.67964  -0.01283 
 6                    -0.36053  -1.05481   0.03577 
 8                    -1.13172   0.02027  -0.01731 
 6                    -0.36997   1.06964   0.03949 
 6                     0.98257   0.68459   0.04271 
 1                     1.85673   1.40124  -0.03785 
 1                    -0.8211    2.01599   0.0444 
 1                    -0.87049  -2.03595   0.04283 
 1                     1.84386  -1.33915  -0.02853 
 
 NAtoms=      9 NQM=        9 NQMF=       0 NMMI=      0 NMMIF=      0
                NMic=       0 NMicF=      0.
                    Isotopes and Nuclear Properties:
 (Nuclear quadrupole moments (NQMom) in fm**2, nuclear magnetic moments (NMagM)
  in nuclear magnetons)

  Atom         1           2           3           4           5           6           7           8           9
 IAtWgt=          12          12          16          12          12           1           1           1           1
 AtmWgt=  12.0000000  12.0000000  15.9949146  12.0000000  12.0000000   1.0078250   1.0078250   1.0078250   1.0078250
 NucSpn=           0           0           0           0           0           1           1           1           1
 AtZEff=   0.0000000   0.0000000   0.0000000   0.0000000   0.0000000   0.0000000   0.0000000   0.0000000   0.0000000
 NQMom=    0.0000000   0.0000000   0.0000000   0.0000000   0.0000000   0.0000000   0.0000000   0.0000000   0.0000000
 NMagM=    0.0000000   0.0000000   0.0000000   0.0000000   0.0000000   2.7928460   2.7928460   2.7928460   2.7928460
 AtZNuc=   6.0000000   6.0000000   8.0000000   6.0000000   6.0000000   1.0000000   1.0000000   1.0000000   1.0000000
 Leave Link  101 at Tue Dec 15 17:06:26 2015, MaxMem=    33554432 cpu:         0.0
 (Enter /home/Applications/g09/g09/l103.exe)

 GradGradGradGradGradGradGradGradGradGradGradGradGradGradGradGradGradGrad
 Berny optimization.
 Initialization pass.
 Trust Radius=3.00D-01 FncErr=1.00D-07 GrdErr=1.00D-07
 Number of steps in this run=      2 maximum allowed number of steps=      2.
 GradGradGradGradGradGradGradGradGradGradGradGradGradGradGradGradGradGrad

 Leave Link  103 at Tue Dec 15 17:06:26 2015, MaxMem=    33554432 cpu:         0.0
 (Enter /home/Applications/g09/g09/l202.exe)
                          Input orientation:                          
 ---------------------------------------------------------------------
 Center     Atomic      Atomic             Coordinates (Angstroms)
 Number     Number       Type             X           Y           Z
 ---------------------------------------------------------------------
      1          6           0        0.926283   -0.679638   -0.012828
      2          6           0       -0.360531   -1.054810    0.035767
      3          8           0       -1.131721    0.020270   -0.017310
      4          6           0       -0.369969    1.069637    0.039491
      5          6           0        0.982572    0.684591    0.042709
      6          1           0        1.856729    1.401238   -0.037854
      7          1           0       -0.821098    2.015985    0.044398
      8          1           0       -0.870486   -2.035950    0.042830
      9          1           0        1.843856   -1.339146   -0.028525
 ---------------------------------------------------------------------
                    Distance matrix (angstroms):
                    1          2          3          4          5
     1  C    0.000000
     2  C    1.341270   0.000000
     3  O    2.173769   1.324141   0.000000
     4  C    2.177836   2.124471   1.297946   0.000000
     5  C    1.366519   2.197610   2.217016   1.406285   0.000000
     6  H    2.279562   3.309658   3.292162   2.252582   1.133236
     7  H    3.212942   3.105154   2.020686   1.048387   2.241838
     8  H    2.251901   1.105776   2.073620   3.145664   3.291682
     9  H    1.130105   2.223579   3.271421   3.272290   2.200544
                    6          7          8          9
     6  H    0.000000
     7  H    2.748715   0.000000
     8  H    4.388448   4.052236   0.000000
     9  H    2.740430   4.285347   2.803262   0.000000
 Stoichiometry    C4H4O
 Framework group  C1[X(C4H4O)]
 Deg. of freedom    21
 Full point group                 C1      NOp   1
 Largest Abelian subgroup         C1      NOp   1
 Largest concise Abelian subgroup C1      NOp   1
                         Standard orientation:                         
 ---------------------------------------------------------------------
 Center     Atomic      Atomic             Coordinates (Angstroms)
 Number     Number       Type             X           Y           Z
 ---------------------------------------------------------------------
      1          6           0        0.136899    1.145612    0.021080
      2          6           0       -1.020423    0.469537   -0.029252
      3          8           0       -0.771031   -0.829433    0.032619
      4          6           0        0.514860   -0.998840   -0.016891
      5          6           0        1.165948    0.247622   -0.024180
      6          1           0        2.287033    0.389486    0.061056
      7          1           0        0.891306   -1.977307   -0.014250
      8          1           0       -2.083258    0.774374   -0.043303
      9          1           0        0.289466    2.265327    0.031001
 ---------------------------------------------------------------------
 Rotational constants (GHZ):     10.0380026      9.3721319      4.8513607
 Leave Link  202 at Tue Dec 15 17:06:26 2015, MaxMem=    33554432 cpu:         0.0
 (Enter /home/Applications/g09/g09/l301.exe)

 Semi-emprical parameters in input format:
 Method=8 CoreType=1 PeptideFC=0.0106250000 RIJScale=0.5404210000
 ****
 H       
 PQN=1 NValence=1 F0ss=0.4721550000 ZetaOverlap=1.0856700000 U=-0.4219420000
 Beta=-0.2344680000 CoreKO=1.1349760000 KON=0,0,0,1.0458670000 KON=1,0,1,1.0589200000
 KON=0,1,1,1.0589200000 KON=2,1,1,1.0697690000 EISol=-0.4188110042 EHeat=0.0830298228
 Alpha=1.4609850000
 GCore=0.0079790000,1.5127750000,2.2676710000
 GCore=0.0003530000,1.4368830000,3.4779940000
 GCore=-0.0011950000,0.5600570000,3.5861320000
 ****
 C       
 PQN=2,2 NValence=4 F0ss=0.4494440000 F0sp=0.4215150000 F0pp=0.3497590000 F2pp=0.1878900000
 G1sp=0.2701540000
 ZetaOverlap=1.8086650000,1.3781170000
 U=-1.7687090000,-1.4557970000
 Beta=-0.5453250000,-0.3063130000 DDN=0,1,0.7474020000 DDN=1,1,0.7268010000
 CoreKO=1.1356210000 KON=0,0,0,1.1124280000 KON=1,0,1,0.8998210000 KON=0,1,1,1.1124280000
 KON=2,1,1,0.8516400000 EISol=-4.4398989268 EHeat=0.2723305520 Alpha=1.2789610000
 DipHyp=1.4947180026
 GCore=0.0007260000,1.3361580000,2.6678360000
 GCore=0.0028980000,1.4001430000,3.2840710000
 GCore=-0.0015090000,1.3017660000,3.8739390000
 GCore=-0.0001030000,1.4822700000,4.6744780000
 ****
 O       
 PQN=2,2 NValence=6 F0ss=0.5666750000 F0sp=0.5321300000 F0pp=0.4826590000 F2pp=0.2358080000
 G1sp=0.4216980000
 ZetaOverlap=2.6354490000,2.4967270000
 U=-3.3169990000,-1.9779290000
 Beta=-1.1573400000,-1.2994290000 DDN=0,1,0.4953610000 DDN=1,1,0.4852320000
 CoreKO=0.8515990000 KON=0,0,0,0.8822960000 KON=1,0,1,0.5019540000 KON=0,1,1,0.8682050000
 KON=2,1,1,0.5068780000 EISol=-11.6164441184 EHeat=0.0949133088 Alpha=2.4031680000
 DipHyp=0.9906650029
 GCore=0.0204720000,1.4001430000,1.6023330000
 GCore=0.0051530000,1.9602000000,2.7307880000
 ****
 
 Standard basis: VSTO-6G (5D, 7F)
 Ernie: Thresh=  0.10000D-02 Tol=  0.10000D-05 Strict=F.
  NNHCO=     0 NNPyr=     0 NCTC=     0               EPep=         0.000000000
    EC=        69.097841105  ECS=         2.507262246   EG=         0.376415110
   EHC=         0.000000000  EAt=       -31.051283842  AtH=         1.516354808
 EPDDG=         0.000000000  ECC=        71.981518460 EAtT=        32.567638650
 There are    24 symmetry adapted cartesian basis functions of A   symmetry.
 There are    24 symmetry adapted basis functions of A   symmetry.
    24 basis functions,   144 primitive gaussians,    24 cartesian basis functions
    13 alpha electrons       13 beta electrons
       nuclear repulsion energy       104.5491571108 Hartrees.
 IExCor=    0 DFT=F Ex=HF Corr=None ExCW=0 ScaHFX=  1.000000
 ScaDFX=  1.000000  1.000000  1.000000  1.000000 ScalE2=  1.000000  1.000000
 IRadAn=      0 IRanWt=     -1 IRanGd=            0 ICorTp=0 IEmpDi=  4
 Integral buffers will be    131072 words long.
 Regular integral format.
 Two-electron integral symmetry is turned off.
 Leave Link  301 at Tue Dec 15 17:06:26 2015, MaxMem=    33554432 cpu:         0.0
 (Enter /home/Applications/g09/g09/l302.exe)
 Do NDO integrals.
 NPDir=0 NMtPBC=     1 NCelOv=     1 NCel=       1 NClECP=     1 NCelD=      1
         NCelK=      1 NCelE2=     1 NClLst=     1 CellRange=     0.0.
 One-electron integrals computed using PRISM.
 NBasis=    24 RedAO= F EigKep=  0.00D+00  NBF=    24
 NBsUse=    24 1.00D-04 EigRej=  0.00D+00 NBFU=    24
 Leave Link  302 at Tue Dec 15 17:06:26 2015, MaxMem=    33554432 cpu:         0.0
 (Enter /home/Applications/g09/g09/l308.exe)
 Leave Link  308 at Tue Dec 15 17:06:26 2015, MaxMem=    33554432 cpu:         0.0
 (Enter /home/Applications/g09/g09/l303.exe)
 DipDrv:  MaxL=1.
 Leave Link  303 at Tue Dec 15 17:06:26 2015, MaxMem=    33554432 cpu:         0.0
 (Enter /home/Applications/g09/g09/l401.exe)
 Simple Huckel Guess.
 JPrj=0 DoOrth=F DoCkMO=F.
 Leave Link  401 at Tue Dec 15 17:06:26 2015, MaxMem=    33554432 cpu:         0.0
 (Enter /home/Applications/g09/g09/l502.exe)
 Closed shell SCF:
 Using DIIS extrapolation, IDIIS=  1040.
 Overlap will be assumed to be unity.
 Two-electron integral symmetry not used.
 Keep J ints in memory in canonical form, NReq=888082.
 IVT=       79475 IEndB=       79475 NGot=    33554432 MDV=    33473473
 LenX=    33473473 LenY=    33472456
 Requested convergence on RMS density matrix=1.00D-08 within 128 cycles.
 Requested convergence on MAX density matrix=1.00D-06.
 Requested convergence on             energy=1.00D-06.
 No special actions if energy rises.
 FoFCou: FMM=F IPFlag=           0 FMFlag=           0 FMFlg1=           0
         NFxFlg=           0 DoJE=F BraDBF=F KetDBF=F FulRan=T
         wScrn=  0.000000 ICntrl=     600 IOpCl=  2 I1Cent=           0 NGrid=           0
         NMat0=    1 NMatS0=     54 NMatT0=    0 NMatD0=    1 NMtDS0=    0 NMtDT0=    0
 Symmetry not used in FoFCou.

 Cycle   1  Pass 1  IDiag  1:
 E=  4.78033043934025    
 DIIS: error= 1.46D-01 at cycle   1 NSaved=   1.
 NSaved= 1 IEnMin= 1 EnMin=  4.78033043934025     IErMin= 1 ErrMin= 1.46D-01
 ErrMax= 1.46D-01  0.00D+00 EMaxC= 1.00D-01 BMatC= 4.83D-01 BMatP= 4.83D-01
 IDIUse=3 WtCom= 0.00D+00 WtEn= 1.00D+00
 Coeff-Com:  0.100D+01
 Coeff-En:   0.100D+01
 Coeff:      0.100D+01
 GapD=    2.000 DampG=2.000 DampE=0.250 DampFc=0.5000 IDamp=-1.
 Damping current iteration by 5.00D-01
 RMSDP=6.14D-02 MaxDP=6.56D-01              OVMax= 0.00D+00

 Cycle   2  Pass 1  IDiag  1:
 E=  3.85104829474318     Delta-E=       -0.929282144597 Rises=F Damp=T
 DIIS: error= 9.22D-02 at cycle   2 NSaved=   2.
 NSaved= 2 IEnMin= 2 EnMin=  3.85104829474318     IErMin= 2 ErrMin= 9.22D-02
 ErrMax= 9.22D-02  0.00D+00 EMaxC= 1.00D-01 BMatC= 1.78D-01 BMatP= 4.83D-01
 IDIUse=3 WtCom= 7.79D-02 WtEn= 9.22D-01
 Coeff-Com: -0.124D+01 0.224D+01
 Coeff-En:   0.000D+00 0.100D+01
 Coeff:     -0.964D-01 0.110D+01
 RMSDP=3.61D-02 MaxDP=3.46D-01 DE=-9.29D-01 OVMax= 0.00D+00

 Cycle   3  Pass 1  IDiag  1:
 E=  2.60201211964640     Delta-E=       -1.249036175097 Rises=F Damp=F
 DIIS: error= 2.72D-02 at cycle   3 NSaved=   3.
 NSaved= 3 IEnMin= 3 EnMin=  2.60201211964640     IErMin= 3 ErrMin= 2.72D-02
 ErrMax= 2.72D-02  0.00D+00 EMaxC= 1.00D-01 BMatC= 1.85D-02 BMatP= 1.78D-01
 IDIUse=3 WtCom= 7.28D-01 WtEn= 2.72D-01
 Coeff-Com:  0.506D+00-0.117D+01 0.167D+01
 Coeff-En:   0.000D+00 0.000D+00 0.100D+01
 Coeff:      0.368D+00-0.853D+00 0.148D+01
 RMSDP=1.31D-02 MaxDP=5.79D-02 DE=-1.25D+00 OVMax= 0.00D+00

 Cycle   4  Pass 1  IDiag  1:
 E=  2.52910105273216     Delta-E=       -0.072911066914 Rises=F Damp=F
 DIIS: error= 6.18D-03 at cycle   4 NSaved=   4.
 NSaved= 4 IEnMin= 4 EnMin=  2.52910105273216     IErMin= 4 ErrMin= 6.18D-03
 ErrMax= 6.18D-03  0.00D+00 EMaxC= 1.00D-01 BMatC= 1.23D-03 BMatP= 1.85D-02
 IDIUse=3 WtCom= 9.38D-01 WtEn= 6.18D-02
 Coeff-Com: -0.873D-01 0.184D+00-0.448D+00 0.135D+01
 Coeff-En:   0.000D+00 0.000D+00 0.000D+00 0.100D+01
 Coeff:     -0.819D-01 0.172D+00-0.420D+00 0.133D+01
 RMSDP=4.06D-03 MaxDP=2.24D-02 DE=-7.29D-02 OVMax= 0.00D+00

 Cycle   5  Pass 1  IDiag  3:
 E=  2.52373803506431     Delta-E=       -0.005363017668 Rises=F Damp=F
 DIIS: error= 1.28D-03 at cycle   5 NSaved=   5.
 NSaved= 5 IEnMin= 5 EnMin=  2.52373803506431     IErMin= 5 ErrMin= 1.28D-03
 ErrMax= 1.28D-03  0.00D+00 EMaxC= 1.00D-01 BMatC= 4.59D-05 BMatP= 1.23D-03
 IDIUse=3 WtCom= 9.87D-01 WtEn= 1.28D-02
 Coeff-Com:  0.194D-01-0.358D-01 0.946D-01-0.456D+00 0.138D+01
 Coeff-En:   0.000D+00 0.000D+00 0.000D+00 0.000D+00 0.100D+01
 Coeff:      0.192D-01-0.353D-01 0.933D-01-0.450D+00 0.137D+01
 Gap=     0.425 Goal=   None    Shift=    0.000
 RMSDP=8.91D-04 MaxDP=5.78D-03 DE=-5.36D-03 OVMax= 5.53D-03

 Cycle   6  Pass 1  IDiag  3:
 E=  2.52350746541910     Delta-E=       -0.000230569645 Rises=F Damp=F
 DIIS: error= 2.51D-04 at cycle   6 NSaved=   6.
 NSaved= 6 IEnMin= 6 EnMin=  2.52350746541910     IErMin= 6 ErrMin= 2.51D-04
 ErrMax= 2.51D-04  0.00D+00 EMaxC= 1.00D-01 BMatC= 1.97D-06 BMatP= 4.59D-05
 IDIUse=3 WtCom= 9.97D-01 WtEn= 2.51D-03
 Coeff-Com: -0.215D-02 0.373D-02-0.171D-01 0.115D+00-0.528D+00 0.143D+01
 Coeff-En:   0.000D+00 0.000D+00 0.000D+00 0.000D+00 0.000D+00 0.100D+01
 Coeff:     -0.215D-02 0.372D-02-0.171D-01 0.114D+00-0.527D+00 0.143D+01
 Gap=     0.426 Goal=   None    Shift=    0.000
 RMSDP=1.88D-04 MaxDP=1.29D-03 DE=-2.31D-04 OVMax= 1.36D-03

 Cycle   7  Pass 1  IDiag  3:
 E=  2.52349820899237     Delta-E=       -0.000009256427 Rises=F Damp=F
 DIIS: error= 3.56D-05 at cycle   7 NSaved=   7.
 NSaved= 7 IEnMin= 7 EnMin=  2.52349820899237     IErMin= 7 ErrMin= 3.56D-05
 ErrMax= 3.56D-05  0.00D+00 EMaxC= 1.00D-01 BMatC= 4.25D-08 BMatP= 1.97D-06
 IDIUse=1 WtCom= 1.00D+00 WtEn= 0.00D+00
 Coeff-Com:  0.160D-03-0.274D-03 0.567D-02-0.414D-01 0.196D+00-0.589D+00
 Coeff-Com:  0.143D+01
 Coeff:      0.160D-03-0.274D-03 0.567D-02-0.414D-01 0.196D+00-0.589D+00
 Coeff:      0.143D+01
 Gap=     0.426 Goal=   None    Shift=    0.000
 RMSDP=2.59D-05 MaxDP=1.48D-04 DE=-9.26D-06 OVMax= 1.86D-04

 Cycle   8  Pass 1  IDiag  3:
 E=  2.52349802117143     Delta-E=       -0.000000187821 Rises=F Damp=F
 DIIS: error= 6.26D-06 at cycle   8 NSaved=   8.
 NSaved= 8 IEnMin= 8 EnMin=  2.52349802117143     IErMin= 8 ErrMin= 6.26D-06
 ErrMax= 6.26D-06  0.00D+00 EMaxC= 1.00D-01 BMatC= 7.98D-10 BMatP= 4.25D-08
 IDIUse=1 WtCom= 1.00D+00 WtEn= 0.00D+00
 Coeff-Com:  0.184D-04-0.703D-04-0.130D-02 0.105D-01-0.515D-01 0.156D+00
 Coeff-Com: -0.425D+00 0.131D+01
 Coeff:      0.184D-04-0.703D-04-0.130D-02 0.105D-01-0.515D-01 0.156D+00
 Coeff:     -0.425D+00 0.131D+01
 Gap=     0.426 Goal=   None    Shift=    0.000
 RMSDP=3.13D-06 MaxDP=2.60D-05 DE=-1.88D-07 OVMax= 1.51D-05

 Cycle   9  Pass 1  IDiag  3:
 E=  2.52349801790942     Delta-E=       -0.000000003262 Rises=F Damp=F
 DIIS: error= 1.44D-06 at cycle   9 NSaved=   9.
 NSaved= 9 IEnMin= 9 EnMin=  2.52349801790942     IErMin= 9 ErrMin= 1.44D-06
 ErrMax= 1.44D-06  0.00D+00 EMaxC= 1.00D-01 BMatC= 3.65D-11 BMatP= 7.98D-10
 IDIUse=1 WtCom= 1.00D+00 WtEn= 0.00D+00
 Coeff-Com:  0.222D-05 0.611D-05 0.210D-04-0.230D-03 0.139D-02-0.339D-02
 Coeff-Com:  0.103D-01-0.196D+00 0.119D+01
 Coeff:      0.222D-05 0.611D-05 0.210D-04-0.230D-03 0.139D-02-0.339D-02
 Coeff:      0.103D-01-0.196D+00 0.119D+01
 Gap=     0.426 Goal=   None    Shift=    0.000
 RMSDP=7.20D-07 MaxDP=5.69D-06 DE=-3.26D-09 OVMax= 4.05D-06

 Cycle  10  Pass 1  IDiag  3:
 E=  2.52349801773978     Delta-E=       -0.000000000170 Rises=F Damp=F
 DIIS: error= 3.60D-07 at cycle  10 NSaved=  10.
 NSaved=10 IEnMin=10 EnMin=  2.52349801773978     IErMin=10 ErrMin= 3.60D-07
 ErrMax= 3.60D-07  0.00D+00 EMaxC= 1.00D-01 BMatC= 3.27D-12 BMatP= 3.65D-11
 IDIUse=1 WtCom= 1.00D+00 WtEn= 0.00D+00
 Coeff-Com:  0.418D-06-0.314D-05 0.897D-05-0.912D-04 0.426D-03-0.187D-02
 Coeff-Com:  0.459D-02 0.578D-01-0.589D+00 0.153D+01
 Coeff:      0.418D-06-0.314D-05 0.897D-05-0.912D-04 0.426D-03-0.187D-02
 Coeff:      0.459D-02 0.578D-01-0.589D+00 0.153D+01
 Gap=     0.426 Goal=   None    Shift=    0.000
 RMSDP=2.65D-07 MaxDP=2.10D-06 DE=-1.70D-10 OVMax= 2.16D-06

 Cycle  11  Pass 1  IDiag  3:
 E=  2.52349801772080     Delta-E=       -0.000000000019 Rises=F Damp=F
 DIIS: error= 1.14D-07 at cycle  11 NSaved=  11.
 NSaved=11 IEnMin=11 EnMin=  2.52349801772080     IErMin=11 ErrMin= 1.14D-07
 ErrMax= 1.14D-07  0.00D+00 EMaxC= 1.00D-01 BMatC= 2.46D-13 BMatP= 3.27D-12
 IDIUse=1 WtCom= 1.00D+00 WtEn= 0.00D+00
 Coeff-Com: -0.638D-06 0.137D-05-0.452D-05 0.661D-04-0.357D-03 0.142D-02
 Coeff-Com: -0.359D-02-0.208D-01 0.263D+00-0.890D+00 0.165D+01
 Coeff:     -0.638D-06 0.137D-05-0.452D-05 0.661D-04-0.357D-03 0.142D-02
 Coeff:     -0.359D-02-0.208D-01 0.263D+00-0.890D+00 0.165D+01
 Gap=     0.426 Goal=   None    Shift=    0.000
 RMSDP=9.07D-08 MaxDP=7.98D-07 DE=-1.90D-11 OVMax= 8.92D-07

 Cycle  12  Pass 1  IDiag  3:
 E=  2.52349801771914     Delta-E=       -0.000000000002 Rises=F Damp=F
 DIIS: error= 1.58D-08 at cycle  12 NSaved=  12.
 NSaved=12 IEnMin=12 EnMin=  2.52349801771914     IErMin=12 ErrMin= 1.58D-08
 ErrMax= 1.58D-08  0.00D+00 EMaxC= 1.00D-01 BMatC= 7.99D-15 BMatP= 2.46D-13
 IDIUse=1 WtCom= 1.00D+00 WtEn= 0.00D+00
 Coeff-Com:  0.620D-07-0.933D-07 0.110D-05-0.256D-04 0.146D-03-0.595D-03
 Coeff-Com:  0.156D-02 0.747D-02-0.101D+00 0.360D+00-0.784D+00 0.152D+01
 Coeff:      0.620D-07-0.933D-07 0.110D-05-0.256D-04 0.146D-03-0.595D-03
 Coeff:      0.156D-02 0.747D-02-0.101D+00 0.360D+00-0.784D+00 0.152D+01
 Gap=     0.426 Goal=   None    Shift=    0.000
 RMSDP=1.48D-08 MaxDP=1.26D-07 DE=-1.66D-12 OVMax= 1.38D-07

 Cycle  13  Pass 1  IDiag  3:
 E=  2.52349801771901     Delta-E=        0.000000000000 Rises=F Damp=F
 DIIS: error= 2.31D-09 at cycle  13 NSaved=  13.
 NSaved=13 IEnMin=13 EnMin=  2.52349801771901     IErMin=13 ErrMin= 2.31D-09
 ErrMax= 2.31D-09  0.00D+00 EMaxC= 1.00D-01 BMatC= 1.87D-16 BMatP= 7.99D-15
 IDIUse=1 WtCom= 1.00D+00 WtEn= 0.00D+00
 Coeff-Com:  0.460D-08-0.848D-08-0.460D-06 0.957D-05-0.531D-04 0.215D-03
 Coeff-Com: -0.574D-03-0.253D-02 0.356D-01-0.128D+00 0.281D+00-0.607D+00
 Coeff-Com:  0.142D+01
 Coeff:      0.460D-08-0.848D-08-0.460D-06 0.957D-05-0.531D-04 0.215D-03
 Coeff:     -0.574D-03-0.253D-02 0.356D-01-0.128D+00 0.281D+00-0.607D+00
 Coeff:      0.142D+01
 Gap=     0.426 Goal=   None    Shift=    0.000
 RMSDP=1.87D-09 MaxDP=1.17D-08 DE=-1.28D-13 OVMax= 1.27D-08

 Cycle  14  Pass 2  IDiag  1:
 SCF Done:  E(RAM1) =   2.52349801772     A.U. after   14 cycles
            NFock= 13  Conv=0.19D-08     -V/T= 1.1672
 KE=-1.509546098544D+01 PE=-1.700051755646D+02 EE= 8.307497745689D+01
 Leave Link  502 at Tue Dec 15 17:06:26 2015, MaxMem=    33554432 cpu:         0.0
 (Enter /home/Applications/g09/g09/l801.exe)
 Range of M.O.s used for correlation:     1    24
 NBasis=    24 NAE=    13 NBE=    13 NFC=     0 NFV=     0
 NROrb=     24 NOA=    13 NOB=    13 NVA=    11 NVB=    11
 Leave Link  801 at Tue Dec 15 17:06:26 2015, MaxMem=    33554432 cpu:         0.0
 (Enter /home/Applications/g09/g09/l914.exe)
 RHF ground state
 MDV=    33554432 DFT=F DoStab=F Mixed=F DoRPA=F DoScal=F NonHer=F
 Making orbital integer symmetry assigments:
 Orbital symmetries:
       Occupied  (A) (A) (A) (A) (A) (A) (A) (A) (A) (A) (A) (A)
                 (A)
       Virtual   (A) (A) (A) (A) (A) (A) (A) (A) (A) (A) (A)
    60 initial guesses have been made.
 Convergence on wavefunction:    0.000001000000000
 Davidson Disk Diagonalization:  ConvIn= 1.00D-06 SkipCon=T Conv= 1.00D-06.
 Max sub-space:   240 roots to seek:    60 dimension of matrix:          286
 Iteration     1 Dimension    60 NMult     0 NNew     60
 CISAX will form    60 AO SS matrices at one time.
 NMat=    60 NSing=    60 JSym2X= 0.
 FoFJK:  IHMeth= 8 ICntrl=       0 DoSepK=F KAlg= 0 I1Cent=   0 FoldK=F
 IRaf=         1 NMat= 120 IRICut=       1 DoRegI=T DoRafI=F ISym2E= 0.
 FoFCou: FMM=F IPFlag=           0 FMFlag=      100000 FMFlg1=           0
         NFxFlg=           0 DoJE=F BraDBF=F KetDBF=F FulRan=T
         wScrn=  0.000000 ICntrl=       0 IOpCl=  0 I1Cent=           0 NGrid=           0
         NMat0=  120 NMatS0=     60 NMatT0=    0 NMatD0=  120 NMtDS0=    0 NMtDT0=    0
 Symmetry not used in FoFCou.
 New state      5 was old state      6
 New state      6 was old state      8
 New state      7 was old state      5
 New state      8 was old state      7
 New state      9 was old state     11
 New state     10 was old state      9
 New state     11 was old state     10
 New state     12 was old state     18
 New state     13 was old state     16
 New state     15 was old state     17
 Excitation Energies [eV] at current iteration:
 Root      1 :     5.801132274958775
 Root      2 :     6.747722963850626
 Root      3 :     6.928668353858746
 Root      4 :     7.062926525423586
 Root      5 :     7.854485591901179
 Root      6 :     8.361259746146272
 Root      7 :     8.528435926074636
 Root      8 :     8.867791067177983
 Root      9 :     9.192090788836556
 Root     10 :     9.570140710238217
 Root     11 :     9.623910840001441
 Root     12 :     9.707082209951144
 Root     13 :     9.809268151483634
 Root     14 :     9.934206447556456
 Root     15 :     9.967995426749253
 Root     16 :    10.041636361121730
 Root     17 :    10.239810337997970
 Root     18 :    10.333884477406720
 Root     19 :    10.705316893052360
 Root     20 :    11.122493006829500
 Root     21 :    11.360748872882000
 Root     22 :    11.485148174194250
 Root     23 :    11.779648495769260
 Root     24 :    11.824964056146670
 Root     25 :    11.932375588472060
 Root     26 :    12.035693371330000
 Root     27 :    12.306198613680660
 Root     28 :    12.438522741847680
 Root     29 :    12.542602126355450
 Root     30 :    12.736017661389770
 Root     31 :    12.905645152297700
 Root     32 :    12.980612685127800
 Root     33 :    13.031673329168990
 Root     34 :    13.284187675553550
 Root     35 :    13.384706659580820
 Root     36 :    13.696146168604720
 Root     37 :    13.851519702731930
 Root     38 :    13.990659062365330
 Root     39 :    14.053851034330940
 Root     40 :    14.324600608105810
 Root     41 :    14.362655701722320
 Root     42 :    14.417164715293320
 Root     43 :    14.665553270288230
 Root     44 :    15.009830150649660
 Root     45 :    15.388207311360150
 Root     46 :    15.434368983589230
 Root     47 :    15.598236201139570
 Root     48 :    15.694215628679000
 Root     49 :    16.087747777710880
 Root     50 :    16.226381937574330
 Root     51 :    16.234493643663600
 Root     52 :    16.363885622810980
 Root     53 :    16.656795649426370
 Root     54 :    16.888119671886610
 Root     55 :    17.349124625634840
 Root     56 :    17.444882609380430
 Root     57 :    17.601099267631670
 Root     58 :    17.655217556455250
 Root     59 :    17.687959061805590
 Root     60 :    17.860076783331590
 Iteration     2 Dimension   120 NMult    60 NNew     60
 CISAX will form    60 AO SS matrices at one time.
 NMat=    60 NSing=    60 JSym2X= 0.
 Root      1 not converged, maximum delta is    0.019927788863213
 Root      2 not converged, maximum delta is    0.033462406728811
 Root      3 not converged, maximum delta is    0.027825658722203
 Root      4 not converged, maximum delta is    0.023139598097319
 Root      5 not converged, maximum delta is    0.017535791623057
 Root      6 not converged, maximum delta is    0.045306337679114
 Root      7 not converged, maximum delta is    0.042191791876368
 Root      8 not converged, maximum delta is    0.024400218006497
 Root      9 not converged, maximum delta is    0.038611765351188
 New state     10 was old state     11
 Root     10 not converged, maximum delta is    0.351859594792123
 New state     11 was old state     10
 Root     11 not converged, maximum delta is    0.181440048960149
 Root     12 not converged, maximum delta is    0.065365142449175
 Root     13 not converged, maximum delta is    0.076295937299046
 Root     14 not converged, maximum delta is    0.171215530324460
 Root     15 not converged, maximum delta is    0.137000660588640
 Excitation Energies [eV] at current iteration:
 Root      1 :     5.736438984249117   Change is   -0.064693290709659
 Root      2 :     6.710809016985078   Change is   -0.036913946865547
 Root      3 :     6.902078854643347   Change is   -0.026589499215399
 Root      4 :     7.043907817625485   Change is   -0.019018707798101
 Root      5 :     7.840179650628461   Change is   -0.014305941272718
 Root      6 :     8.321486112496739   Change is   -0.039773633649533
 Root      7 :     8.503602481680682   Change is   -0.024833444393953
 Root      8 :     8.840851516581813   Change is   -0.026939550596170
 Root      9 :     9.158806017380810   Change is   -0.033284771455746
 Root     10 :     9.346852357532002   Change is   -0.277058482469438
 Root     11 :     9.528958826009401   Change is   -0.041181884228817
 Root     12 :     9.659930796674052   Change is   -0.047151413277091
 Root     13 :     9.732047460062237   Change is   -0.077220691421398
 Root     14 :     9.888907797011189   Change is   -0.045298650545265
 Root     15 :     9.953223924641369   Change is   -0.014771502107884
 Root     16 :     9.995908710832026   Change is   -0.045727650289704
 Root     17 :    10.115074050565820   Change is   -0.218810426840901
 Root     18 :    10.233003408332040   Change is   -0.006806929665929
 Root     19 :    10.521402210904220   Change is   -0.183914682148149
 Root     20 :    10.872699006133270   Change is   -0.249794000696232
 Root     21 :    11.197348660320260   Change is   -0.163400212561739
 Root     22 :    11.310031781978670   Change is   -0.175116392215587
 Root     23 :    11.672432976641840   Change is   -0.152531079504830
 Root     24 :    11.698978293636940   Change is   -0.080670202132317
 Root     25 :    11.792737398450300   Change is   -0.242955972879698
 Root     26 :    11.895489004146180   Change is   -0.036886584325881
 Root     27 :    12.142206859383110   Change is   -0.163991754297547
 Root     28 :    12.290075254628170   Change is   -0.148447487219510
 Root     29 :    12.364965970339490   Change is   -0.177636156015958
 Root     30 :    12.566020495683250   Change is   -0.169997165706519
 Root     31 :    12.674737867031970   Change is   -0.230907285265724
 Root     32 :    12.782565995110690   Change is   -0.198046690017106
 Root     33 :    12.930553271052410   Change is   -0.101120058116581
 Root     34 :    13.047478218754080   Change is   -0.236709456799467
 Root     35 :    13.253794077982300   Change is   -0.130912581598526
 Root     36 :    13.466550634122700   Change is   -0.229595534482024
 Root     37 :    13.743349195041450   Change is   -0.108170507690486
 Root     38 :    13.870737916425340   Change is   -0.183113117905595
 Root     39 :    13.898080669266680   Change is   -0.092578393098654
 Root     40 :    14.190275058775290   Change is   -0.134325549330521
 Root     41 :    14.234284231585050   Change is   -0.128371470137270
 Root     42 :    14.359060374531680   Change is   -0.058104340761644
 Root     43 :    14.640653038509620   Change is   -0.024900231778605
 Root     44 :    14.990054521272540   Change is   -0.019775629377120
 Root     45 :    15.123457075139550   Change is   -0.264750236220604
 Root     46 :    15.223788440711280   Change is   -0.210580542877950
 Root     47 :    15.400663680303430   Change is   -0.197572520836146
 Root     48 :    15.514814152206920   Change is   -0.711567785367407
 Root     49 :    15.556893459265120   Change is   -0.137322169413888
 Root     50 :    15.826170436050780   Change is   -0.261577341660108
 Root     51 :    16.129985621443470   Change is   -0.104508022220128
 Root     52 :    16.294348392789260   Change is   -0.069537230021717
 Root     53 :    16.494356381975050   Change is   -0.162439267451319
 Root     54 :    16.715509843697770   Change is   -0.172609828188841
 Root     55 :    17.026007811084870   Change is   -0.323116814549973
 Root     56 :    17.231644240309570   Change is   -0.213238369070857
 Root     57 :    17.286832988854230   Change is   -0.314266278777439
 Root     58 :    17.340896933836310
 Root     59 :    17.563991197845430   Change is   -0.123967863960152
 Root     60 :    17.600744329787850   Change is   -0.259332453543743
 Iteration     3 Dimension   135 NMult   120 NNew     15
 CISAX will form    15 AO SS matrices at one time.
 NMat=    15 NSing=    15 JSym2X= 0.
 Root      1 not converged, maximum delta is    0.000705467890588
 Root      2 not converged, maximum delta is    0.000121203824129
 Root      3 not converged, maximum delta is    0.000050395635699
 Root      4 not converged, maximum delta is    0.000056488145468
 Root      5 not converged, maximum delta is    0.000069740155158
 Root      6 not converged, maximum delta is    0.000034231819654
 Root      7 not converged, maximum delta is    0.000110516772654
 Root      8 not converged, maximum delta is    0.000651813325649
 Root      9 not converged, maximum delta is    0.000076364622050
 Root     10 not converged, maximum delta is    0.003058753730299
 Root     11 not converged, maximum delta is    0.000991803712771
 Root     12 not converged, maximum delta is    0.000264664174667
 Root     13 not converged, maximum delta is    0.001450502816833
 Root     14 not converged, maximum delta is    0.000272986681655
 Root     15 not converged, maximum delta is    0.000144311572824
 Excitation Energies [eV] at current iteration:
 Root      1 :     5.736275904675752   Change is   -0.000163079573364
 Root      2 :     6.710806375369281   Change is   -0.000002641615797
 Root      3 :     6.902078192380346   Change is   -0.000000662263001
 Root      4 :     7.043907004031366   Change is   -0.000000813594119
 Root      5 :     7.840177758325429   Change is   -0.000001892303033
 Root      6 :     8.321485651904206   Change is   -0.000000460592532
 Root      7 :     8.503599037214261   Change is   -0.000003444466420
 Root      8 :     8.840749685650721   Change is   -0.000101830931091
 Root      9 :     9.158804438367941   Change is   -0.000001579012869
 Root     10 :     9.345561884771078   Change is   -0.001290472760926
 Root     11 :     9.528675009289211   Change is   -0.000283816720190
 Root     12 :     9.659914634751921   Change is   -0.000016161922131
 Root     13 :     9.731790185529057   Change is   -0.000257274533180
 Root     14 :     9.888891161639693   Change is   -0.000016635371497
 Root     15 :     9.953218950076337   Change is   -0.000004974565032
 Iteration     4 Dimension   143 NMult   135 NNew      8
 CISAX will form     8 AO SS matrices at one time.
 NMat=     8 NSing=     8 JSym2X= 0.
 Root      1 not converged, maximum delta is    0.000028156548498
 Root      2 not converged, maximum delta is    0.000001792201720
 Root      3 not converged, maximum delta is    0.000003161632155
 Root      4 not converged, maximum delta is    0.000002777797294
 Root      5 not converged, maximum delta is    0.000003372699209
 Root      6 not converged, maximum delta is    0.000002244391764
 Root      7 not converged, maximum delta is    0.000004487023147
 Root      8 not converged, maximum delta is    0.000020050256556
 Root      9 not converged, maximum delta is    0.000001641546057
 Root     10 not converged, maximum delta is    0.000078651332740
 Root     11 not converged, maximum delta is    0.000045307613129
 Root     12 not converged, maximum delta is    0.000006875313389
 Root     13 not converged, maximum delta is    0.000029501914768
 Root     14 not converged, maximum delta is    0.000011190437200
 Root     15 not converged, maximum delta is    0.000009029856623
 Excitation Energies [eV] at current iteration:
 Root      1 :     5.736275596940175   Change is   -0.000000307735578
 Root      2 :     6.710806373364598   Change is   -0.000000002004683
 Root      3 :     6.902078189287416   Change is   -0.000000003092930
 Root      4 :     7.043907001602901   Change is   -0.000000002428465
 Root      5 :     7.840177756828686   Change is   -0.000000001496743
 Root      6 :     8.321485650662879   Change is   -0.000000001241328
 Root      7 :     8.503599033269959   Change is   -0.000000003944304
 Root      8 :     8.840749543736699   Change is   -0.000000141914022
 Root      9 :     9.158804437489126   Change is   -0.000000000878816
 Root     10 :     9.345560407153437   Change is   -0.000001477617639
 Root     11 :     9.528674591729160   Change is   -0.000000417560051
 Root     12 :     9.659914621921260   Change is   -0.000000012830662
 Root     13 :     9.731789992199930   Change is   -0.000000193329127
 Root     14 :     9.888891142084148   Change is   -0.000000019555545
 Root     15 :     9.953218934213604   Change is   -0.000000015862733
 Convergence achieved on expansion vectors.
 ***********************************************************************
 Excited states from <AA,BB:AA,BB> singles matrix:
 ***********************************************************************
 
 1PDM for each excited state written to RWF  633
 Ground to excited state transition densities written to RWF  633
 Ground to excited state transition electric dipole moments (Au):
       state          X           Y           Z        Dip. S.      Osc.
         1         1.1940     -0.9344     -0.0834      2.3057      0.3240
         2        -0.0318      0.0275      0.1796      0.0340      0.0056
         3         0.0303     -0.0265      0.0176      0.0019      0.0003
         4         0.0562     -0.0004     -0.0386      0.0047      0.0008
         5        -0.0026     -0.0156      0.1490      0.0224      0.0043
         6         0.0225     -0.0074     -0.0019      0.0006      0.0001
         7        -0.0087     -0.0051     -0.1658      0.0276      0.0057
         8         0.3866      0.3701      0.0156      0.2867      0.0621
         9        -0.0052      0.0400      0.0149      0.0018      0.0004
        10         0.0212      0.5572      0.0214      0.3114      0.0713
        11        -0.6321      0.1870     -0.0331      0.4356      0.1017
        12        -0.0812     -0.0183      0.1368      0.0256      0.0061
        13         0.2892     -0.4461     -0.0207      0.2831      0.0675
        14        -0.0302      0.0818     -0.3936      0.1626      0.0394
        15        -0.1147      0.0790      0.0306      0.0203      0.0050
 Ground to excited state transition velocity dipole moments (Au):
       state          X           Y           Z        Dip. S.      Osc.
         1        -0.1655      0.1241      0.0072      0.0428      0.1355
         2         0.0090     -0.0034     -0.1992      0.0398      0.1076
         3        -0.0108     -0.0015      0.0325      0.0012      0.0031
         4        -0.0160      0.0009     -0.0111      0.0004      0.0010
         5        -0.0055      0.0026      0.0079      0.0001      0.0002
         6        -0.0006      0.0010      0.0069      0.0000      0.0001
         7        -0.0038     -0.0034      0.0114      0.0002      0.0003
         8        -0.1431     -0.1542     -0.0068      0.0443      0.0909
         9        -0.0008     -0.0145      0.0308      0.0012      0.0023
        10        -0.0423     -0.0872      0.0113      0.0095      0.0185
        11         0.0633     -0.0601     -0.0175      0.0079      0.0151
        12         0.0096      0.0015      0.0179      0.0004      0.0008
        13        -0.0694      0.0344     -0.0142      0.0062      0.0116
        14        -0.0008     -0.0128     -0.0732      0.0055      0.0101
        15         0.0166     -0.0116     -0.0143      0.0006      0.0011
 Ground to excited state transition magnetic dipole moments (Au):
       state          X           Y           Z
         1         0.0162     -0.0129      0.5870
         2        -0.2582      0.1642     -0.0298
         3         0.1663      0.2734      0.0023
         4         0.7018      0.4661      0.0396
         5        -0.4507      0.7303      0.0020
         6        -0.5302     -0.4339     -0.0052
         7         0.3223     -0.4772     -0.0081
         8        -0.0561      0.0034      0.0636
         9        -0.2333     -0.2407     -0.0120
        10        -0.0378      0.0062     -0.1642
        11        -0.0183     -0.0443     -0.0175
        12        -0.2016     -0.1685     -0.0330
        13         0.0574      0.0213      0.1281
        14         0.0559     -0.0523     -0.0804
        15         0.4895      0.5484      0.0004
 Ground to excited state transition velocity quadrupole moments (Au):
       state          XX          YY          ZZ          XY          XZ          YZ
         1        -0.3536      0.3257      0.0049     -0.0526      0.0135      0.0198
         2        -0.0001      0.0046      0.0055      0.0034     -0.1037     -0.1010
         3         0.0031      0.0031     -0.0098     -0.0183     -0.1949      0.1786
         4        -0.0392      0.0104     -0.0124     -0.0148      0.1011     -0.1558
         5        -0.0395     -0.0054     -0.0009     -0.0015      0.1489      0.0543
         6        -0.0129      0.0224     -0.0167     -0.0122      0.3431     -0.3655
         7        -0.0259     -0.0048      0.0120     -0.0076      0.2312      0.0988
         8         0.0059     -0.0296      0.0187     -0.2101      0.0185      0.0030
         9        -0.0006     -0.0251     -0.0006     -0.0243      0.0183     -0.0059
        10         0.0912     -0.3127     -0.0128     -0.0994      0.0090     -0.0036
        11        -0.0221     -0.3811     -0.0458      0.1333      0.0258     -0.0161
        12         0.0069      0.0257      0.0180      0.0085      0.0429     -0.0431
        13        -0.3632     -0.0253     -0.0488      0.0751     -0.0369      0.0390
        14         0.0808     -0.0080     -0.0002      0.0037     -0.1563      0.2043
        15         0.0952     -0.0542     -0.0022      0.0148     -0.0496      0.0888
 <0|del|b> * <b|rxdel|0> + <0|del|b> * <b|delr+rdel|0>
 Rotatory Strengths (R) in cgs (10**-40 erg-esu-cm/Gauss)
       state          XX          YY          ZZ    R(velocity)    E-M Angle
         1         0.9443     -2.2596      1.1247     -0.0635       90.00
         2         6.2585      4.8671     -2.3155      2.9367       87.13
         3        -1.7313     -4.2822      0.0176     -1.9986      101.28
         4         0.0505    -12.7442    -18.0659    -10.2532      133.34
         5         1.8555      2.7137      6.2126      3.5939       59.01
         6        -1.0646      0.7253      0.0149     -0.1081       91.68
         7         2.5284     -1.8210     -0.0142      0.2310       87.56
         8         3.6349      6.2282      5.5290      5.1307       66.68
         9         2.7802      0.5983      3.5874      2.3220       73.12
        10        -2.8036      1.0552      0.1268     -0.5405       92.74
        11         2.2087      0.4639      0.9778      1.2168       66.55
        12        -0.7426     -3.0787     -1.6975     -1.8396      120.94
        13        -0.8784     -7.3632     -1.7925     -3.3447      116.98
        14         4.1672      5.7883      2.7119      4.2225       37.94
        15        -6.9367      9.4773      0.8181      1.1196       84.53
 1/2[<0|r|b>*<b|rxdel|0> + (<0|rxdel|b>*<b|r|0>)*]
 Rotatory Strengths (R) in cgs (10**-40 erg-esu-cm/Gauss)
       state          XX          YY          ZZ     R(length)
         1       -13.6568     -8.5321     34.6164      4.1425
         2        -5.8119     -3.1997      3.7897     -1.7406
         3        -3.5664      5.1252     -0.0286      0.5101
         4       -27.9109      0.1161      1.0804     -8.9048
         5        -0.8435      8.0530     -0.2118      2.3326
         6         8.4386     -2.2698     -0.0071      2.0539
         7         1.9935     -1.7059     -0.9554     -0.2226
         8        15.3362     -0.8819     -0.7001      4.5847
         9        -0.8570      6.8018      0.1269      2.0239
        10         0.5670     -2.4406      2.4871      0.2045
        11        -8.1925      5.8589     -0.4104     -0.9147
        12       -11.5739     -2.1766      3.1927     -3.5193
        13       -11.7370      6.7120      1.8740     -1.0503
        14         1.1946      3.0258    -22.3727     -6.0508
        15        39.7045    -30.6277     -0.0080      3.0229
  1/2[<0|del|b>*<b|r|0> + (<0|r|b>*<b|del|0>)*] (Au)
       state          X           Y           Z        Dip. S.   Osc.(frdel)
         1        -0.1976     -0.1160     -0.0006      0.3142      0.2094
         2        -0.0003     -0.0001     -0.0358      0.0362      0.0241
         3        -0.0003      0.0000      0.0006     -0.0003     -0.0002
         4        -0.0009      0.0000      0.0004      0.0005      0.0003
         5         0.0000      0.0000      0.0012     -0.0011     -0.0008
         6         0.0000      0.0000      0.0000      0.0000      0.0000
         7         0.0000      0.0000     -0.0019      0.0018      0.0012
         8        -0.0553     -0.0571     -0.0001      0.1125      0.0750
         9         0.0000     -0.0006      0.0005      0.0001      0.0001
        10        -0.0009     -0.0486      0.0002      0.0492      0.0328
        11        -0.0400     -0.0112      0.0006      0.0507      0.0338
        12        -0.0008      0.0000      0.0024     -0.0016     -0.0011
        13        -0.0201     -0.0154      0.0003      0.0352      0.0234
        14         0.0000     -0.0010      0.0288     -0.0278     -0.0185
        15        -0.0019     -0.0009     -0.0004      0.0033      0.0022

 Excitation energies and oscillator strengths:
 
 Excited State   1:      Singlet-A      5.7363 eV  216.14 nm  f=0.3240  <S**2>=0.000
      13 -> 14         0.69145
 This state for optimization and/or second-order correction.
 Total Energy, E(CIS) =   2.73430227620    
 Copying the excited state density for this state as the 1-particle RhoCI density.
 
 Excited State   2:      Singlet-A      6.7108 eV  184.75 nm  f=0.0056  <S**2>=0.000
      13 -> 15         0.52315
      13 -> 16         0.39754
      13 -> 17        -0.20892
 
 Excited State   3:      Singlet-A      6.9021 eV  179.63 nm  f=0.0003  <S**2>=0.000
      10 -> 15        -0.12770
      13 -> 15        -0.40491
      13 -> 16         0.52007
      13 -> 19         0.16400
 
 Excited State   4:      Singlet-A      7.0439 eV  176.02 nm  f=0.0008  <S**2>=0.000
       9 -> 14         0.14203
      12 -> 14         0.68766
 
 Excited State   5:      Singlet-A      7.8402 eV  158.14 nm  f=0.0043  <S**2>=0.000
      10 -> 14         0.28403
      11 -> 14         0.63193
 
 Excited State   6:      Singlet-A      8.3215 eV  148.99 nm  f=0.0001  <S**2>=0.000
      13 -> 17        -0.23957
      13 -> 18         0.55213
      13 -> 21        -0.32386
 
 Excited State   7:      Singlet-A      8.5036 eV  145.80 nm  f=0.0057  <S**2>=0.000
      10 -> 16        -0.13596
      13 -> 15         0.13579
      13 -> 17         0.60090
      13 -> 18         0.24021
 
 Excited State   8:      Singlet-A      8.8407 eV  140.24 nm  f=0.0621  <S**2>=0.000
      10 -> 14         0.60830
      11 -> 14        -0.27525
      12 -> 15         0.10368
 
 Excited State   9:      Singlet-A      9.1588 eV  135.37 nm  f=0.0004  <S**2>=0.000
      10 -> 15         0.13648
      10 -> 16         0.10579
      13 -> 16        -0.10833
      13 -> 18        -0.11411
      13 -> 19         0.62376
      13 -> 20         0.12827
      13 -> 21        -0.11607
 
 Excited State  10:      Singlet-A      9.3456 eV  132.67 nm  f=0.0713  <S**2>=0.000
       8 -> 15        -0.10915
       9 -> 16         0.13859
      10 -> 14         0.14721
      10 -> 15        -0.14797
      10 -> 17         0.11908
      11 -> 15        -0.23256
      11 -> 16        -0.13802
      11 -> 17         0.23645
      12 -> 16         0.32044
      12 -> 17        -0.13352
      12 -> 18         0.26326
 
 Excited State  11:      Singlet-A      9.5287 eV  130.12 nm  f=0.1017  <S**2>=0.000
       9 -> 15        -0.12252
      11 -> 15        -0.13507
      12 -> 15         0.62244
      12 -> 16        -0.15466
 
 Excited State  12:      Singlet-A      9.6599 eV  128.35 nm  f=0.0061  <S**2>=0.000
       9 -> 14        -0.22105
      13 -> 18         0.31579
      13 -> 19         0.16074
      13 -> 20        -0.15031
      13 -> 21         0.51905
 
 Excited State  13:      Singlet-A      9.7318 eV  127.40 nm  f=0.0675  <S**2>=0.000
       9 -> 16        -0.11747
      11 -> 15         0.14934
      11 -> 16         0.45669
      11 -> 19         0.11494
      12 -> 15         0.12367
      12 -> 16         0.40889
      12 -> 17        -0.10993
 
 Excited State  14:      Singlet-A      9.8889 eV  125.38 nm  f=0.0394  <S**2>=0.000
       9 -> 14        -0.27143
      10 -> 15        -0.21877
      10 -> 16        -0.38218
      11 -> 16         0.11432
      12 -> 16        -0.11371
      13 -> 16        -0.11351
      13 -> 20         0.39315
 
 Excited State  15:      Singlet-A      9.9532 eV  124.57 nm  f=0.0050  <S**2>=0.000
       9 -> 14         0.55438
      10 -> 15        -0.23901
      10 -> 16        -0.17840
      12 -> 14        -0.10964
      13 -> 16        -0.10339
      13 -> 19         0.16746
      13 -> 21         0.10426
 SavETr:  write IOETrn=   770 NScale= 10 NData=  16 NLR=1 NState=   15 LETran=     280.
 The selected state is a singlet
 CISAX will form     1 AO SS matrices at one time.
 NMat=     1 NSing=     1 JSym2X= 0.
 Leave Link  914 at Tue Dec 15 17:06:26 2015, MaxMem=    33554432 cpu:         0.1
 (Enter /home/Applications/g09/g09/l1002.exe)
 Minotr:  Closed shell wavefunction.
          Computing CIS/TD-HF/TD-KS derivatives.
          Using Z-Vector for PSCF gradient.
          Skipping F1 and S1 gradient terms here.
          IDoAtm=111111111
          Direct CPHF calculation.
          Differentiating once with respect to electric field.
                with respect to dipole field.
          Differentiating once with respect to nuclear coordinates.
          Electric field/nuclear overlap derivatives assumed to be zero.
          Requested convergence is 1.0D-10 RMS, and 1.0D-09 maximum.
          NewPWx=T KeepS1=F KeepF1=F KeepIn=T MapXYZ=F SortEE=F KeepMc=T.
          MDV=      33495423 using IRadAn=       0.
 Keep J ints in memory in canonical form, NReq=871704.
 FoFCou: FMM=F IPFlag=           0 FMFlag=           0 FMFlg1=           0
         NFxFlg=           0 DoJE=F BraDBF=F KetDBF=F FulRan=T
         wScrn=  0.000000 ICntrl=     600 IOpCl=  2 I1Cent=           0 NGrid=           0
         NMat0=    1 NMatS0=     54 NMatT0=    0 NMatD0=    1 NMtDS0=    0 NMtDT0=    0
 Symmetry not used in FoFCou.
          Solving linear equations separately, MaxMat=       0.
          There are     1 degrees of freedom in the 1st order CPHF.  IDoFFX=0 NUNeed=     1.
 LinEq1:  Iter=  0 NonCon=     1 RMS=6.45D-03 Max=4.14D-02 NDo=     1
 AX will form     1 AO Fock derivatives at one time.
 LinEq1:  Iter=  1 NonCon=     1 RMS=5.31D-04 Max=1.97D-03 NDo=     1
 LinEq1:  Iter=  2 NonCon=     1 RMS=6.22D-05 Max=4.27D-04 NDo=     1
 LinEq1:  Iter=  3 NonCon=     1 RMS=6.96D-06 Max=2.16D-05 NDo=     1
 LinEq1:  Iter=  4 NonCon=     1 RMS=1.08D-06 Max=4.74D-06 NDo=     1
 LinEq1:  Iter=  5 NonCon=     1 RMS=1.18D-07 Max=4.28D-07 NDo=     1
 LinEq1:  Iter=  6 NonCon=     1 RMS=1.49D-08 Max=5.31D-08 NDo=     1
 LinEq1:  Iter=  7 NonCon=     1 RMS=1.70D-09 Max=7.78D-09 NDo=     1
 LinEq1:  Iter=  8 NonCon=     1 RMS=1.76D-10 Max=6.84D-10 NDo=     1
 LinEq1:  Iter=  9 NonCon=     0 RMS=2.00D-11 Max=7.54D-11 NDo=     1
 Linear equations converged to 1.000D-10 1.000D-09 after     9 iterations.
 End of Minotr F.D. properties file   721 does not exist.
 End of Minotr F.D. properties file   722 does not exist.
 End of Minotr F.D. properties file   788 does not exist.
 Leave Link 1002 at Tue Dec 15 17:06:26 2015, MaxMem=    33554432 cpu:         0.0
 (Enter /home/Applications/g09/g09/l601.exe)
 Copying SCF densities to generalized density rwf, IOpCl= 0 IROHF=0.

 **********************************************************************

            Population analysis using the SCF density.

 **********************************************************************

 Orbital symmetries:
       Occupied  (A) (A) (A) (A) (A) (A) (A) (A) (A) (A) (A) (A)
                 (A)
       Virtual   (A) (A) (A) (A) (A) (A) (A) (A) (A) (A) (A)
 The electronic state is 1-A.
 Alpha  occ. eigenvalues --   -1.77421  -1.17272  -0.95948  -0.81259  -0.76316
 Alpha  occ. eigenvalues --   -0.67638  -0.66309  -0.55656  -0.49326  -0.44219
 Alpha  occ. eigenvalues --   -0.43756  -0.41346  -0.31069
 Alpha virt. eigenvalues --    0.11526   0.17061   0.17645   0.23979   0.25752
 Alpha virt. eigenvalues --    0.27949   0.29543   0.32028   0.42987   0.51848
 Alpha virt. eigenvalues --    0.56915
     Molecular Orbital Coefficients:
                           1         2         3         4         5
                           O         O         O         O         O
     Eigenvalues --    -1.77421  -1.17272  -0.95948  -0.81259  -0.76316
   1 1   C  1S          0.13103   0.49478  -0.19316   0.28270  -0.13475
   2        1PX        -0.03904   0.06575   0.23442  -0.18187  -0.37541
   3        1PY        -0.14692  -0.16609  -0.03681   0.18657  -0.10976
   4        1PZ        -0.00106  -0.00914   0.00205  -0.00510  -0.01427
   5 2   C  1S          0.29689   0.18609  -0.51903  -0.06840   0.38919
   6        1PX         0.12173   0.28718   0.09029   0.19355  -0.16260
   7        1PY        -0.26765   0.18172   0.04543   0.48150   0.09177
   8        1PZ         0.01432   0.00261  -0.02155  -0.00803  -0.01316
   9 3   O  1S          0.73851  -0.34213  -0.01582  -0.00851  -0.26365
  10        1PX         0.06659   0.08926   0.19880   0.18744   0.06495
  11        1PY         0.06573   0.10712  -0.18110  -0.18274   0.07945
  12        1PZ        -0.00501  -0.00177   0.00010   0.00279  -0.01493
  13 4   C  1S          0.30727   0.14653   0.53113   0.09934   0.38186
  14        1PX        -0.28497   0.16962  -0.02390  -0.44769   0.14640
  15        1PY         0.10389   0.29219  -0.08986  -0.25572  -0.16054
  16        1PZ         0.01089  -0.00237   0.01454   0.01582  -0.02235
  17 5   C  1S          0.12250   0.46901   0.22697  -0.29073  -0.13364
  18        1PX        -0.13877  -0.18447   0.04506  -0.17399  -0.05560
  19        1PY        -0.04716   0.06004  -0.20353   0.15937  -0.37537
  20        1PZ         0.00392   0.00880   0.00598  -0.00449  -0.02140
  21 6   H  1S          0.01037   0.13832   0.11342  -0.21154  -0.11108
  22 7   H  1S          0.06425   0.00355   0.27957   0.05329   0.30375
  23 8   H  1S          0.05785   0.01163  -0.26112  -0.02668   0.28593
  24 9   H  1S          0.01149   0.15490  -0.09258   0.21228  -0.14030
                           6         7         8         9        10
                           O         O         O         O         O
     Eigenvalues --    -0.67638  -0.66309  -0.55656  -0.49326  -0.44219
   1 1   C  1S         -0.18688  -0.07771   0.14016  -0.02641  -0.03354
   2        1PX        -0.11346  -0.08212  -0.05763  -0.39196  -0.09922
   3        1PY        -0.25693  -0.12160   0.01154   0.08662  -0.15881
   4        1PZ        -0.15305   0.35815   0.00409  -0.02157  -0.20922
   5 2   C  1S         -0.07624  -0.03065   0.05878  -0.11961   0.08349
   6        1PX         0.31823   0.13477   0.47869   0.24764   0.14175
   7        1PY        -0.15545  -0.04225  -0.33260   0.43631   0.04703
   8        1PZ        -0.21591   0.52594   0.04638   0.01228  -0.59428
   9 3   O  1S         -0.19990  -0.08955   0.02111   0.37090  -0.00875
  10        1PX         0.14081   0.06625  -0.12288  -0.09735   0.02101
  11        1PY         0.12916   0.06575   0.09696  -0.11610  -0.00758
  12        1PZ        -0.10319   0.22402  -0.00351   0.01773   0.01401
  13 4   C  1S         -0.04869  -0.01683  -0.09274  -0.12269  -0.07173
  14        1PX        -0.21296  -0.05864   0.37682   0.36683  -0.06041
  15        1PY         0.31204   0.12643  -0.44888   0.25429  -0.12056
  16        1PZ        -0.22097   0.52188  -0.05410  -0.04404   0.62314
  17 5   C  1S         -0.19501  -0.10042  -0.14893  -0.00791   0.02555
  18        1PX        -0.25143  -0.09538  -0.04268   0.17422   0.18923
  19        1PY        -0.13421  -0.08485   0.06639  -0.36151   0.09725
  20        1PZ        -0.15473   0.33975  -0.01919  -0.04087   0.15092
  21 6   H  1S         -0.26830  -0.10572  -0.10199   0.08669   0.17960
  22 7   H  1S         -0.24557  -0.09469   0.30986  -0.10677   0.00809
  23 8   H  1S         -0.24406  -0.10739  -0.33243  -0.11251  -0.02186
  24 9   H  1S         -0.26232  -0.11910   0.07644   0.01205  -0.15393
                          11        12        13        14        15
                           O         O         O         V         V
     Eigenvalues --    -0.43756  -0.41346  -0.31069   0.11526   0.17061
   1 1   C  1S         -0.08087  -0.03135   0.01864   0.02091  -0.14442
   2        1PX        -0.18799  -0.13539  -0.01394  -0.00874   0.25173
   3        1PY        -0.24515   0.52648  -0.02330  -0.02426   0.12320
   4        1PZ         0.08396   0.00631   0.56594   0.68853   0.00169
   5 2   C  1S          0.14738   0.10183  -0.00671  -0.00495  -0.15178
   6        1PX         0.21218   0.11360   0.00787   0.00570   0.50885
   7        1PY         0.08005  -0.32875   0.01222  -0.00725  -0.01089
   8        1PZ         0.27575  -0.05880  -0.38756  -0.20990   0.01182
   9 3   O  1S         -0.09371  -0.20296   0.01647   0.00023   0.02273
  10        1PX         0.08529   0.12044  -0.01075   0.00252   0.09257
  11        1PY         0.01073   0.16021  -0.01383  -0.00426   0.06347
  12        1PZ        -0.01749  -0.02224  -0.19107  -0.00495   0.00435
  13 4   C  1S         -0.06448   0.16886  -0.01464  -0.00151  -0.03324
  14        1PX        -0.30023  -0.19217   0.01050   0.00302   0.05790
  15        1PY        -0.18923   0.19908  -0.00385   0.00276   0.13921
  16        1PZ        -0.30120   0.05572  -0.32735   0.17949  -0.00883
  17 5   C  1S          0.08182  -0.08963  -0.01686   0.01445  -0.12156
  18        1PX         0.45942   0.31998  -0.01724   0.03066   0.13723
  19        1PY         0.18440  -0.21494  -0.02581   0.01543   0.07344
  20        1PZ        -0.05821   0.02239   0.61829  -0.66818   0.01230
  21 6   H  1S          0.42619   0.18415   0.00488  -0.01841  -0.10030
  22 7   H  1S         -0.02317  -0.09604  -0.00182   0.00435   0.16101
  23 8   H  1S         -0.03774  -0.12045   0.00254   0.01226   0.70817
  24 9   H  1S         -0.25639   0.40479  -0.00407  -0.00327  -0.06843
                          16        17        18        19        20
                           V         V         V         V         V
     Eigenvalues --     0.17645   0.23979   0.25752   0.27949   0.29543
   1 1   C  1S         -0.04772  -0.03073   0.10678  -0.05189   0.32271
   2        1PX        -0.10301  -0.16653  -0.19632  -0.41629  -0.41080
   3        1PY         0.10167  -0.36522   0.40600  -0.25399   0.13273
   4        1PZ         0.00440  -0.01342   0.01467  -0.01230  -0.02131
   5 2   C  1S          0.04992  -0.28233  -0.13501  -0.30195  -0.31554
   6        1PX        -0.14146  -0.04656   0.00947  -0.07315  -0.06762
   7        1PY         0.08185  -0.12423  -0.11427  -0.14952  -0.27304
   8        1PZ        -0.00699   0.00146  -0.00067  -0.00186   0.00660
   9 3   O  1S          0.01818  -0.03292  -0.00553   0.01316  -0.05452
  10        1PX         0.01288   0.01239  -0.01279   0.00681  -0.07521
  11        1PY         0.08267   0.01685   0.00778   0.03080  -0.07115
  12        1PZ        -0.00147   0.00697  -0.00298   0.00068  -0.01577
  13 4   C  1S         -0.08699  -0.35787   0.05515   0.38665  -0.15642
  14        1PX        -0.03351  -0.18868   0.06258   0.25438  -0.17910
  15        1PY         0.50911   0.00764  -0.02060   0.07511  -0.05009
  16        1PZ        -0.00528   0.00680   0.00534  -0.01027   0.00780
  17 5   C  1S         -0.11550  -0.05984  -0.10207  -0.13103   0.43633
  18        1PX         0.07586  -0.24917  -0.49543   0.07248   0.17733
  19        1PY         0.36473  -0.26096   0.10395   0.51293  -0.09414
  20        1PZ         0.01194  -0.02058  -0.02325   0.01438   0.02322
  21 6   H  1S         -0.04045   0.35348   0.52752  -0.02076  -0.36834
  22 7   H  1S          0.67172   0.30785  -0.05994  -0.22350   0.09702
  23 8   H  1S         -0.23067   0.17046   0.10087   0.12843   0.15325
  24 9   H  1S         -0.11807   0.43834  -0.43207   0.25834  -0.23966
                          21        22        23        24
                           V         V         V         V
     Eigenvalues --     0.32028   0.42987   0.51848   0.56915
   1 1   C  1S          0.62117   0.01166   0.05669   0.01977
   2        1PX         0.20259  -0.00627  -0.00468  -0.03770
   3        1PY        -0.20641   0.00967   0.04449  -0.00393
   4        1PZ        -0.02840   0.02092  -0.00286  -0.00219
   5 2   C  1S         -0.14808  -0.00149  -0.14811   0.17314
   6        1PX        -0.14442  -0.01070  -0.16824  -0.04749
   7        1PY        -0.09427  -0.01557   0.13823  -0.22074
   8        1PZ         0.00192  -0.21497  -0.00053   0.01298
   9 3   O  1S         -0.00483  -0.00123   0.16193   0.00710
  10        1PX        -0.01416   0.04010   0.60395   0.67547
  11        1PY        -0.00794   0.05116   0.67158  -0.60897
  12        1PZ        -0.00227   0.94689  -0.06402   0.00400
  13 4   C  1S          0.10824   0.00018  -0.14631  -0.18739
  14        1PX         0.04553  -0.01288   0.13680   0.22288
  15        1PY         0.12160  -0.01328  -0.17268   0.05569
  16        1PZ        -0.00134  -0.22548   0.00290  -0.01273
  17 5   C  1S         -0.52108   0.00865   0.05804  -0.01593
  18        1PX         0.29337   0.00605   0.03723   0.00265
  19        1PY        -0.21184  -0.00310  -0.01083   0.03581
  20        1PZ        -0.00879   0.02192  -0.00173   0.00106
  21 6   H  1S          0.09622  -0.00541  -0.03496  -0.00434
  22 7   H  1S         -0.00670  -0.00189  -0.03164  -0.01220
  23 8   H  1S          0.01372  -0.00204  -0.02878   0.00920
  24 9   H  1S         -0.19265  -0.00830  -0.03805   0.00376
     Density Matrix:
                           1         2         3         4         5
   1 1   C  1S          0.93531
   2        1PX         0.06736   0.95017
   3        1PY         0.07644  -0.02226   1.09771
   4        1PZ         0.01584  -0.00279  -0.00211   1.04730
   5 2   C  1S          0.33888  -0.49943  -0.18577  -0.02604   1.22385
   6        1PX         0.36502  -0.36025  -0.20206  -0.02346  -0.01812
   7        1PY         0.29298  -0.39020  -0.06838  -0.01088  -0.28573
   8        1PZ         0.00948  -0.00946  -0.00766   0.29852   0.00117
   9 3   O  1S          0.03138  -0.05067  -0.02401  -0.00253   0.00262
  10        1PX         0.00207  -0.03811  -0.03751  -0.00229  -0.07205
  11        1PY         0.03149  -0.07493  -0.06095   0.00145   0.40390
  12        1PZ         0.00049  -0.00132  -0.00249  -0.03365  -0.02318
  13 4   C  1S         -0.02101   0.03530   0.01379  -0.00093  -0.00021
  14        1PX         0.04984  -0.01016  -0.01055  -0.00745  -0.05131
  15        1PY         0.00029   0.00383   0.00233  -0.00151  -0.03051
  16        1PZ        -0.01029   0.00550   0.00875  -0.23767   0.00782
  17 5   C  1S          0.31738   0.43763  -0.30965  -0.03141  -0.02194
  18        1PX        -0.33978  -0.24265   0.27999  -0.00952   0.01260
  19        1PY         0.39418   0.43044  -0.16714  -0.03796   0.03875
  20        1PZ         0.03340   0.00355  -0.03677   0.92003  -0.00205
  21 6   H  1S         -0.00270   0.00707  -0.00798   0.00932   0.09009
  22 7   H  1S          0.06877   0.03150  -0.04181  -0.00433   0.05861
  23 8   H  1S          0.07127  -0.07978  -0.05149  -0.00521   0.52823
  24 9   H  1S          0.51350   0.08248   0.83062   0.01556   0.05695
                           6         7         8         9        10
   6        1PX         1.31464
   7        1PY        -0.03590   1.58154
   8        1PZ        -0.01383   0.00116   1.81864
   9 3   O  1S          0.02734  -0.08034   0.00014   1.93719
  10        1PX         0.16578   0.09088   0.00041  -0.21761   0.32481
  11        1PY         0.12208  -0.49030   0.03742  -0.22207  -0.01805
  12        1PZ        -0.00766   0.04142   0.40493   0.02154  -0.00745
  13 4   C  1S         -0.02549  -0.05448   0.00793   0.00558   0.42281
  14        1PX         0.00588   0.02124  -0.00798  -0.08643  -0.49803
  15        1PY        -0.01033   0.00686  -0.00193   0.02428   0.08968
  16        1PZ         0.00009  -0.00632  -0.02128   0.00081   0.03389
  17 5   C  1S         -0.00524   0.05631   0.00731   0.03209   0.02766
  18        1PX        -0.00014  -0.01923   0.01013  -0.02271  -0.04905
  19        1PY         0.00282  -0.01822   0.01243  -0.05546  -0.07615
  20        1PZ        -0.00030  -0.00485  -0.27142   0.00036   0.00264
  21 6   H  1S          0.07641   0.03092  -0.00409   0.00783   0.02057
  22 7   H  1S          0.02258  -0.05542   0.00382   0.01468   0.01601
  23 8   H  1S         -0.73752   0.25540  -0.01792   0.01117  -0.08268
  24 9   H  1S          0.02240  -0.05007  -0.00211   0.00895  -0.00967
                          11        12        13        14        15
  11        1PY         0.31643
  12        1PZ        -0.00889   0.19785
  13 4   C  1S         -0.04629  -0.01720   1.23600
  14        1PX         0.05220   0.03677  -0.28296   1.57716
  15        1PY         0.18955   0.00155  -0.02415  -0.02170   1.32980
  16        1PZ         0.00861   0.42952   0.01015   0.00870   0.00604
  17 5   C  1S          0.00189   0.00384   0.30195   0.25830   0.36025
  18        1PX        -0.03555  -0.00004  -0.15347  -0.05429  -0.18397
  19        1PY        -0.05219   0.00442  -0.49985  -0.38411  -0.42641
  20        1PZ        -0.00452  -0.04762  -0.01336   0.00092  -0.01037
  21 6   H  1S         -0.00824  -0.00657   0.04918  -0.04240   0.01663
  22 7   H  1S         -0.08561  -0.00107   0.54535   0.31314  -0.70069
  23 8   H  1S          0.00521  -0.00367   0.05855  -0.05380   0.02090
  24 9   H  1S          0.02359  -0.00644   0.09353   0.02830   0.08505
                          16        17        18        19        20
  16        1PZ         1.83284
  17 5   C  1S         -0.01439   0.94980
  18        1PX         0.00300   0.08468   1.08548
  19        1PY         0.01306   0.08990  -0.01950   0.92839
  20        1PZ         0.25057  -0.00794  -0.00282  -0.00989   1.10193
  21 6   H  1S         -0.00280   0.53709   0.81353   0.11186   0.03742
  22 7   H  1S         -0.00228   0.07190  -0.04799  -0.09575  -0.00249
  23 8   H  1S          0.00204   0.07741  -0.05413   0.03349   0.00558
  24 9   H  1S          0.00248   0.00118  -0.00929   0.02198  -0.00138
                          21        22        23        24
  21 6   H  1S          0.87620
  22 7   H  1S         -0.00645   0.72784
  23 8   H  1S          0.01056   0.01512   0.72964
  24 9   H  1S         -0.00890   0.01605  -0.00964   0.87945
    Full Mulliken population analysis:
                           1         2         3         4         5
   1 1   C  1S          0.93531
   2        1PX         0.00000   0.95017
   3        1PY         0.00000   0.00000   1.09771
   4        1PZ         0.00000   0.00000   0.00000   1.04730
   5 2   C  1S          0.00000   0.00000   0.00000   0.00000   1.22385
   6        1PX         0.00000   0.00000   0.00000   0.00000   0.00000
   7        1PY         0.00000   0.00000   0.00000   0.00000   0.00000
   8        1PZ         0.00000   0.00000   0.00000   0.00000   0.00000
   9 3   O  1S          0.00000   0.00000   0.00000   0.00000   0.00000
  10        1PX         0.00000   0.00000   0.00000   0.00000   0.00000
  11        1PY         0.00000   0.00000   0.00000   0.00000   0.00000
  12        1PZ         0.00000   0.00000   0.00000   0.00000   0.00000
  13 4   C  1S          0.00000   0.00000   0.00000   0.00000   0.00000
  14        1PX         0.00000   0.00000   0.00000   0.00000   0.00000
  15        1PY         0.00000   0.00000   0.00000   0.00000   0.00000
  16        1PZ         0.00000   0.00000   0.00000   0.00000   0.00000
  17 5   C  1S          0.00000   0.00000   0.00000   0.00000   0.00000
  18        1PX         0.00000   0.00000   0.00000   0.00000   0.00000
  19        1PY         0.00000   0.00000   0.00000   0.00000   0.00000
  20        1PZ         0.00000   0.00000   0.00000   0.00000   0.00000
  21 6   H  1S          0.00000   0.00000   0.00000   0.00000   0.00000
  22 7   H  1S          0.00000   0.00000   0.00000   0.00000   0.00000
  23 8   H  1S          0.00000   0.00000   0.00000   0.00000   0.00000
  24 9   H  1S          0.00000   0.00000   0.00000   0.00000   0.00000
                           6         7         8         9        10
   6        1PX         1.31464
   7        1PY         0.00000   1.58154
   8        1PZ         0.00000   0.00000   1.81864
   9 3   O  1S          0.00000   0.00000   0.00000   1.93719
  10        1PX         0.00000   0.00000   0.00000   0.00000   0.32481
  11        1PY         0.00000   0.00000   0.00000   0.00000   0.00000
  12        1PZ         0.00000   0.00000   0.00000   0.00000   0.00000
  13 4   C  1S          0.00000   0.00000   0.00000   0.00000   0.00000
  14        1PX         0.00000   0.00000   0.00000   0.00000   0.00000
  15        1PY         0.00000   0.00000   0.00000   0.00000   0.00000
  16        1PZ         0.00000   0.00000   0.00000   0.00000   0.00000
  17 5   C  1S          0.00000   0.00000   0.00000   0.00000   0.00000
  18        1PX         0.00000   0.00000   0.00000   0.00000   0.00000
  19        1PY         0.00000   0.00000   0.00000   0.00000   0.00000
  20        1PZ         0.00000   0.00000   0.00000   0.00000   0.00000
  21 6   H  1S          0.00000   0.00000   0.00000   0.00000   0.00000
  22 7   H  1S          0.00000   0.00000   0.00000   0.00000   0.00000
  23 8   H  1S          0.00000   0.00000   0.00000   0.00000   0.00000
  24 9   H  1S          0.00000   0.00000   0.00000   0.00000   0.00000
                          11        12        13        14        15
  11        1PY         0.31643
  12        1PZ         0.00000   0.19785
  13 4   C  1S          0.00000   0.00000   1.23600
  14        1PX         0.00000   0.00000   0.00000   1.57716
  15        1PY         0.00000   0.00000   0.00000   0.00000   1.32980
  16        1PZ         0.00000   0.00000   0.00000   0.00000   0.00000
  17 5   C  1S          0.00000   0.00000   0.00000   0.00000   0.00000
  18        1PX         0.00000   0.00000   0.00000   0.00000   0.00000
  19        1PY         0.00000   0.00000   0.00000   0.00000   0.00000
  20        1PZ         0.00000   0.00000   0.00000   0.00000   0.00000
  21 6   H  1S          0.00000   0.00000   0.00000   0.00000   0.00000
  22 7   H  1S          0.00000   0.00000   0.00000   0.00000   0.00000
  23 8   H  1S          0.00000   0.00000   0.00000   0.00000   0.00000
  24 9   H  1S          0.00000   0.00000   0.00000   0.00000   0.00000
                          16        17        18        19        20
  16        1PZ         1.83284
  17 5   C  1S          0.00000   0.94980
  18        1PX         0.00000   0.00000   1.08548
  19        1PY         0.00000   0.00000   0.00000   0.92839
  20        1PZ         0.00000   0.00000   0.00000   0.00000   1.10193
  21 6   H  1S          0.00000   0.00000   0.00000   0.00000   0.00000
  22 7   H  1S          0.00000   0.00000   0.00000   0.00000   0.00000
  23 8   H  1S          0.00000   0.00000   0.00000   0.00000   0.00000
  24 9   H  1S          0.00000   0.00000   0.00000   0.00000   0.00000
                          21        22        23        24
  21 6   H  1S          0.87620
  22 7   H  1S          0.00000   0.72784
  23 8   H  1S          0.00000   0.00000   0.72964
  24 9   H  1S          0.00000   0.00000   0.00000   0.87945
     Gross orbital populations:
                           1
   1 1   C  1S          0.93531
   2        1PX         0.95017
   3        1PY         1.09771
   4        1PZ         1.04730
   5 2   C  1S          1.22385
   6        1PX         1.31464
   7        1PY         1.58154
   8        1PZ         1.81864
   9 3   O  1S          1.93719
  10        1PX         0.32481
  11        1PY         0.31643
  12        1PZ         0.19785
  13 4   C  1S          1.23600
  14        1PX         1.57716
  15        1PY         1.32980
  16        1PZ         1.83284
  17 5   C  1S          0.94980
  18        1PX         1.08548
  19        1PY         0.92839
  20        1PZ         1.10193
  21 6   H  1S          0.87620
  22 7   H  1S          0.72784
  23 8   H  1S          0.72964
  24 9   H  1S          0.87945
          Condensed to atoms (all electrons):
               1          2          3          4          5          6
     1  C    4.030501   0.000000   0.000000   0.000000   0.000000   0.000000
     2  C    0.000000   5.938675   0.000000   0.000000   0.000000   0.000000
     3  O    0.000000   0.000000   2.776289   0.000000   0.000000   0.000000
     4  C    0.000000   0.000000   0.000000   5.975814   0.000000   0.000000
     5  C    0.000000   0.000000   0.000000   0.000000   4.065589   0.000000
     6  H    0.000000   0.000000   0.000000   0.000000   0.000000   0.876202
     7  H    0.000000   0.000000   0.000000   0.000000   0.000000   0.000000
     8  H    0.000000   0.000000   0.000000   0.000000   0.000000   0.000000
     9  H    0.000000   0.000000   0.000000   0.000000   0.000000   0.000000
               7          8          9
     1  C    0.000000   0.000000   0.000000
     2  C    0.000000   0.000000   0.000000
     3  O    0.000000   0.000000   0.000000
     4  C    0.000000   0.000000   0.000000
     5  C    0.000000   0.000000   0.000000
     6  H    0.000000   0.000000   0.000000
     7  H    0.727838   0.000000   0.000000
     8  H    0.000000   0.729638   0.000000
     9  H    0.000000   0.000000   0.879454
 Mulliken charges:
               1
     1  C   -0.030501
     2  C   -1.938675
     3  O    3.223711
     4  C   -1.975814
     5  C   -0.065589
     6  H    0.123798
     7  H    0.272162
     8  H    0.270362
     9  H    0.120546
 Sum of Mulliken charges =   0.00000
 Mulliken charges with hydrogens summed into heavy atoms:
               1
     1  C    0.090045
     2  C   -1.668313
     3  O    3.223711
     4  C   -1.703652
     5  C    0.058208
 Charge=              0.0000 electrons
 Dipole moment (field-independent basis, Debye):
    X=             -6.6087    Y=             -6.9134    Z=              0.7944  Tot=              9.5970
 N-N= 1.045491571108D+02 E-N=-1.700051755640D+02  KE=-1.509546098544D+01
 Orbital energies and kinetic energies (alpha):
                                 1                 2
   1         O                -1.774205         -1.294615
   2         O                -1.172724         -1.018451
   3         O                -0.959478         -0.848162
   4         O                -0.812588         -0.621557
   5         O                -0.763161         -0.685205
   6         O                -0.676384         -0.579152
   7         O                -0.663088         -0.538614
   8         O                -0.556560         -0.393853
   9         O                -0.493257         -0.250551
  10         O                -0.442191         -0.338150
  11         O                -0.437558         -0.391233
  12         O                -0.413456         -0.308228
  13         O                -0.310691         -0.279960
  14         V                 0.115264         -0.170224
  15         V                 0.170609         -0.192038
  16         V                 0.176446         -0.185945
  17         V                 0.239792         -0.175110
  18         V                 0.257518         -0.178653
  19         V                 0.279493         -0.093813
  20         V                 0.295430         -0.117838
  21         V                 0.320281         -0.091941
  22         V                 0.429872          0.521064
  23         V                 0.518482          0.561050
  24         V                 0.569151          0.625463
 Total kinetic energy from orbitals=-1.509546098544D+01
 Leave Link  601 at Tue Dec 15 17:06:26 2015, MaxMem=    33554432 cpu:         0.0
 (Enter /home/Applications/g09/g09/l701.exe)
 Compute integral first derivatives.
 ... and contract with generalized density number  6.
 Leave Link  701 at Tue Dec 15 17:06:26 2015, MaxMem=    33554432 cpu:         0.0
 (Enter /home/Applications/g09/g09/l702.exe)
 L702 exits ... SP integral derivatives will be done elsewhere.
 Leave Link  702 at Tue Dec 15 17:06:26 2015, MaxMem=    33554432 cpu:         0.0
 (Enter /home/Applications/g09/g09/l703.exe)
 Compute integral first derivatives, UseDBF=F ICtDFT=           0.
 Integral derivatives from FoFJK, PRISM(SPDF).
 Calling FoFJK, ICntrl=  10005127 FMM=F ISym2X=0 I1Cent= 0 IOpClX= 0 NMat=1 NMatS=1 NMatT=0.
 FoFJK:  IHMeth= 8 ICntrl=10005127 DoSepK=F KAlg= 0 I1Cent=   0 FoldK=F
 IRaf=         0 NMat=   1 IRICut=       1 DoRegI=T DoRafI=F ISym2E= 0.
 FoFCou: FMM=F IPFlag=           0 FMFlag=      100000 FMFlg1=         800
         NFxFlg=           0 DoJE=F BraDBF=F KetDBF=F FulRan=T
         wScrn=  0.000000 ICntrl=10005127 IOpCl=  0 I1Cent=           0 NGrid=           0
         NMat0=    1 NMatS0=      1 NMatT0=    0 NMatD0=    1 NMtDS0=    0 NMtDT0=    0
 Symmetry not used in FoFCou.
 Leave Link  703 at Tue Dec 15 17:06:26 2015, MaxMem=    33554432 cpu:         0.0
 (Enter /home/Applications/g09/g09/l716.exe)
 Dipole        =-2.85333834D+00-3.01550695D+00 3.03470380D-01
 ***** Axes restored to original set *****
 -------------------------------------------------------------------
 Center     Atomic                   Forces (Hartrees/Bohr)
 Number     Number              X              Y              Z
 -------------------------------------------------------------------
      1        6           0.242315877   -0.148387790   -0.003353902
      2        6          -0.266032257   -0.164473120   -0.003780800
      3        8           0.012113822   -0.022614242    0.004758339
      4        6          -0.165981359    0.135519671   -0.000705880
      5        6           0.158290547    0.167713476   -0.000990440
      6        1           0.011763807    0.007996169    0.002346406
      7        1          -0.011587036    0.082141817    0.002136034
      8        1           0.004421634   -0.040045673    0.002882351
      9        1           0.014694964   -0.017850308   -0.003292108
 -------------------------------------------------------------------
 Cartesian Forces:  Max     0.266032257 RMS     0.103214674
 Z-matrix is all fixed cartesians, so copy forces.
 Force constants in Cartesian coordinates: 
                1             2             3             4             5 
      1  0.927927D+00
      2  0.188756D-01  0.874381D+00
      3 -0.217887D-01  0.155282D-01  0.232413D+00
      4 -0.538210D+00 -0.116377D+00  0.189432D-01  0.979014D+00
      5 -0.881998D-01 -0.221740D+00  0.551286D-02 -0.153525D-01  0.929290D+00
      6  0.187188D-01  0.527802D-02 -0.115143D+00 -0.351591D-02 -0.250248D-01
      7 -0.902260D-02  0.306532D-01 -0.218224D-02 -0.315694D+00  0.199799D+00
      8 -0.642594D-02  0.219088D-01 -0.765484D-03  0.248218D+00 -0.437061D+00
      9  0.101669D-02 -0.138405D-02  0.104391D-01 -0.171068D-01  0.184573D-01
     10  0.995543D-02 -0.391818D-03  0.422528D-03  0.265854D-01  0.191622D-01
     11  0.349646D-01 -0.145426D-02  0.310605D-03 -0.193992D-01 -0.140018D-01
     12  0.202444D-02 -0.532031D-03 -0.136592D-02  0.184063D-02  0.170715D-02
     13 -0.178664D+00 -0.208137D-02  0.199191D-02  0.105077D-01 -0.364848D-01
     14 -0.279388D-01 -0.514887D+00 -0.211853D-01 -0.425396D-03  0.141030D-02
     15  0.219979D-02 -0.197528D-01 -0.966046D-01 -0.230386D-03  0.233480D-02
     16  0.179872D-01 -0.746856D-03  0.115243D-03  0.422502D-04 -0.359806D-04
     17 -0.221981D-01  0.816709D-03  0.243676D-02 -0.149810D-04  0.127580D-04
     18 -0.229075D-02 -0.838810D-03  0.229266D-01  0.325176D-03 -0.276923D-03
     19  0.000000D+00  0.000000D+00 -0.239452D-04  0.213785D-04  0.000000D+00
     20  0.000000D+00  0.157545D-05 -0.392490D-04  0.129150D-04  0.000000D+00
     21 -0.741126D-04 -0.215471D-03  0.536800D-02 -0.525302D-03 -0.151741D-04
     22  0.749351D-02 -0.256797D-01  0.173507D-03 -0.157469D+00 -0.954051D-01
     23 -0.389129D-02  0.133628D-01  0.122759D-03 -0.899506D-01 -0.280933D+00
     24  0.488788D-03  0.215491D-02  0.295801D-01 -0.127061D-02 -0.894109D-03
     25 -0.237466D+00  0.957472D-01  0.234844D-02 -0.479708D-02  0.165158D-01
     26  0.948132D-01 -0.172389D+00 -0.192113D-02 -0.671083D-02  0.230213D-01
     27 -0.294977D-03 -0.237952D-03 -0.876134D-01  0.153994D-02 -0.180110D-02
                6             7             8             9            10 
      6  0.214687D+00
      7 -0.149876D-01  0.634449D+00
      8  0.194196D-01  0.310115D-01  0.890226D+00
      9 -0.558193D-01  0.354089D-01  0.344918D-02  0.702262D-01
     10  0.200115D-02 -0.347268D+00 -0.277340D+00 -0.201588D-01  0.913057D+00
     11 -0.132175D-02 -0.231669D+00 -0.480232D+00 -0.203407D-01  0.587117D-01
     12 -0.271635D-02 -0.191589D-01 -0.226590D-01 -0.537366D-01  0.191464D-01
     13 -0.320821D-02 -0.848094D-02  0.615414D-02 -0.558934D-03 -0.425300D+00
     14  0.270170D-03 -0.297874D-01  0.216919D-01 -0.757201D-03  0.848458D-01
     15 -0.296748D-02 -0.219234D-02  0.403070D-03  0.998073D-02  0.813282D-03
     16  0.841016D-03 -0.159403D-05 -0.469563D-05  0.108127D-03 -0.487673D-02
     17 -0.298207D-03 -0.620516D-05 -0.182790D-04  0.420910D-03  0.592288D-02
     18  0.647284D-02 -0.724940D-04 -0.213551D-03  0.491744D-02 -0.228628D-03
     19 -0.298113D-03  0.239942D-01 -0.174478D-01  0.555236D-03 -0.172169D+00
     20 -0.180094D-03  0.114301D-01 -0.831063D-02  0.246796D-03  0.109097D+00
     21  0.732511D-02  0.156046D-02 -0.131950D-02  0.344981D-02 -0.147661D-02
     22 -0.311477D-04  0.220196D-01  0.158204D-01  0.506842D-03  0.151216D-04
     23  0.182886D-02 -0.114342D-01 -0.821391D-02 -0.239321D-03 -0.110529D-04
     24 -0.787116D-01  0.148522D-02  0.123078D-02  0.334981D-02 -0.443588D-03
     25  0.479965D-03  0.442124D-05  0.144650D-04  0.228752D-03  0.000000D+00
     26  0.281717D-04  0.284243D-05  0.929961D-05  0.147065D-03  0.304446D-05
     27  0.268729D-01  0.139021D-03  0.454836D-03  0.719283D-02 -0.756906D-04
               11            12            13            14            15 
     11  0.101516D+01
     12  0.239292D-01  0.186918D+00
     13  0.593197D-01 -0.528111D-02  0.798766D+00
     14 -0.194178D+00  0.431837D-03  0.434182D-01  0.858631D+00
     15 -0.721639D-03 -0.890326D-01 -0.133711D-01  0.852140D-02  0.206781D+00
     16 -0.171108D-01  0.234818D-02 -0.221254D+00 -0.957824D-01  0.124239D-01
     17  0.207985D-01 -0.788469D-03 -0.973356D-01 -0.184294D+00  0.988017D-02
     18 -0.648774D-03  0.184653D-01  0.166637D-01  0.129716D-01 -0.798914D-01
     19  0.115180D+00 -0.644005D-03  0.751124D-02  0.263842D-01 -0.449383D-04
     20 -0.346097D+00 -0.202231D-02  0.357929D-02  0.125718D-01 -0.135479D-03
     21 -0.974062D-03 -0.701998D-01  0.261551D-03  0.110258D-02  0.219966D-01
     22  0.000000D+00 -0.210864D-03  0.163048D-04 -0.138853D-04  0.324557D-03
     23  0.000000D+00  0.154127D-03 -0.568222D-05  0.483902D-05 -0.113108D-03
     24 -0.128136D-04  0.618564D-02  0.387888D-03 -0.330329D-03  0.772116D-02
     25  0.259733D-05 -0.647071D-04  0.168980D-01 -0.700370D-03  0.773139D-04
     26  0.885129D-05 -0.220512D-03  0.234361D-01 -0.950034D-03 -0.416443D-03
     27 -0.220058D-03  0.548230D-02  0.311438D-02 -0.102477D-02  0.220162D-01
               16            17            18            19            20 
     16  0.208089D+00
     17  0.113634D+00  0.162696D+00
     18 -0.145341D-01 -0.114005D-01  0.434700D-01
     19  0.000000D+00  0.291257D-05  0.340272D-04  0.140641D+00
     20  0.122639D-05  0.477404D-05  0.557745D-04 -0.124121D+00  0.341829D+00
     21 -0.167731D-03 -0.652937D-03 -0.762817D-02  0.421739D-03  0.207456D-02
     22  0.000000D+00  0.000000D+00  0.000000D+00  0.000000D+00  0.000000D+00
     23  0.000000D+00  0.000000D+00  0.000000D+00  0.000000D+00  0.000000D+00
     24  0.000000D+00  0.000000D+00  0.000000D+00  0.000000D+00  0.000000D+00
     25  0.133920D-04 -0.474851D-05  0.103071D-03  0.000000D+00  0.000000D+00
     26  0.456377D-04 -0.161822D-04  0.351249D-03  0.000000D+00  0.000000D+00
     27 -0.113463D-02  0.402317D-03 -0.873265D-02  0.000000D+00  0.000000D+00
               21            22            23            24            25 
     21  0.396884D-01
     22  0.000000D+00  0.127940D+00
     23  0.000000D+00  0.105288D+00  0.275776D+00
     24  0.000000D+00 -0.289638D-03 -0.191824D-02  0.431336D-01
     25  0.000000D+00 -0.150508D-04  0.524522D-05 -0.358057D-03  0.225361D+00
     26  0.000000D+00 -0.967622D-05  0.337217D-05 -0.230196D-03 -0.111580D+00
     27  0.000000D+00 -0.473256D-03  0.164930D-03 -0.112587D-01 -0.281477D-02
               26            27 
     26  0.150313D+00
     27  0.226179D-02  0.460405D-01
 Leave Link  716 at Tue Dec 15 17:06:26 2015, MaxMem=    33554432 cpu:         0.0
 (Enter /home/Applications/g09/g09/l103.exe)

 GradGradGradGradGradGradGradGradGradGradGradGradGradGradGradGradGradGrad
 Berny optimization.
 Search for a local minimum.
 Step number   1 out of a maximum of    2
 All quantities printed in internal units (Hartrees-Bohrs-Radians)
 Second derivative matrix not updated -- first step.
 ITU=  0
     Eigenvalues ---    0.02035   0.03613   0.06635   0.07227   0.07824
     Eigenvalues ---    0.08886   0.12955   0.15962   0.16999   0.24377
     Eigenvalues ---    0.25052   0.30930   0.41737   0.41807   0.62774
     Eigenvalues ---    0.80011   1.17378   1.40773   1.49927   1.63025
     Eigenvalues ---    1.78536
 Quadratic step=1.340D+00 exceeds max=3.000D-01 adjusted using Lamda=-9.354D-01.
 Angle between NR and scaled steps=  30.75 degrees.
 Angle between quadratic step and forces=  18.90 degrees.
 Linear search not attempted -- first point.
 TrRot= -0.001541 -0.001689  0.000014  0.000135 -0.000016  0.000135
 Variable       Old X    -DE/DX   Delta X   Delta X   Delta X     New X
                                 (Linear)    (Quad)   (Total)
    X1        1.75042   0.24232   0.00000   0.10786   0.10669   1.85711
    Y1       -1.28433  -0.14839   0.00000  -0.08199  -0.08318  -1.36751
    Z1       -0.02424  -0.00335   0.00000   0.00255   0.00259  -0.02165
    X2       -0.68130  -0.26603   0.00000  -0.11607  -0.11704  -0.79835
    Y2       -1.99330  -0.16447   0.00000  -0.10130  -0.10321  -2.09651
    Z2        0.06759  -0.00378   0.00000  -0.00618  -0.00617   0.06142
    X3       -2.13864   0.01211   0.00000  -0.00253  -0.00408  -2.14272
    Y3        0.03830  -0.02261   0.00000  -0.00752  -0.00979   0.02852
    Z3       -0.03271   0.00476   0.00000   0.00444   0.00442  -0.02829
    X4       -0.69914  -0.16598   0.00000  -0.08383  -0.08594  -0.78508
    Y4        2.02132   0.13552   0.00000   0.09151   0.08961   2.11093
    Z4        0.07463  -0.00071   0.00000  -0.00041  -0.00040   0.07422
    X5        1.85679   0.15829   0.00000   0.08179   0.07987   1.93666
    Y5        1.29369   0.16771   0.00000   0.08854   0.08738   1.38107
    Z5        0.08071  -0.00099   0.00000  -0.00221  -0.00217   0.07854
    X6        3.50871   0.01176   0.00000   0.03130   0.02903   3.53774
    Y6        2.64796   0.00800   0.00000   0.02744   0.02671   2.67466
    Z6       -0.07153   0.00235   0.00000   0.00074   0.00081  -0.07072
    X7       -1.55165  -0.01159   0.00000  -0.02451  -0.02711  -1.57876
    Y7        3.80966   0.08214   0.00000   0.09372   0.09160   3.90126
    Z7        0.08390   0.00214   0.00000   0.00208   0.00207   0.08597
    X8       -1.64498   0.00442   0.00000  -0.01842  -0.01890  -1.66388
    Y8       -3.84739  -0.04005   0.00000  -0.06137  -0.06351  -3.91089
    Z8        0.08094   0.00288   0.00000   0.00184   0.00183   0.08277
    X9        3.48438   0.01469   0.00000   0.03834   0.03749   3.52187
    Y9       -2.53062  -0.01785   0.00000  -0.03488  -0.03561  -2.56623
    Z9       -0.05390  -0.00329   0.00000  -0.00305  -0.00298  -0.05689
         Item               Value     Threshold  Converged?
 Maximum Force            0.266032     0.000450     NO 
 RMS     Force            0.103215     0.000300     NO 
 Maximum Displacement     0.117044     0.001800     NO 
 RMS     Displacement     0.057744     0.001200     NO 
 Predicted change in Energy=-1.182698D-01
 GradGradGradGradGradGradGradGradGradGradGradGradGradGradGradGradGradGrad

 Leave Link  103 at Tue Dec 15 17:06:26 2015, MaxMem=    33554432 cpu:         0.0
 (Enter /home/Applications/g09/g09/l9999.exe)
 1\1\GINC-DUSTIN-DESKTOP\Force\RAM1-FC\STO-3G\C4H4O1\DUSTIN\15-Dec-2015
 \0\\#P AM1(Input,print) CIS(Singlets,NStates=15) pop(full) force\\AM1-
 Reparam Input\\0,1\C,0.926283,-0.679638,-0.012828\C,-0.360531,-1.05481
 ,0.035767\O,-1.131721,0.02027,-0.01731\C,-0.369969,1.069637,0.039491\C
 ,0.982572,0.684591,0.042709\H,1.856729,1.401238,-0.037854\H,-0.821098,
 2.015985,0.044398\H,-0.870486,-2.03595,0.04283\H,1.843856,-1.339146,-0
 .028525\\Version=ES64L-G09RevD.01\State=1-A\HF=2.523498\RMSD=1.874e-09
 \RMSF=1.032e-01\Dipole=-4.1517406,0.0060739,-0.2998815\PG=C01 [X(C4H4O
 1)]\\@


 A COMPUTER IS LIKE A HORSE, IT WILL SENSE WEAKNESS.
     -- GREG WETTSTEIN
 Job cpu time:       0 days  0 hours  0 minutes  0.7 seconds.
 File lengths (MBytes):  RWF=      7 Int=      0 D2E=      0 Chk=      2 Scr=      1
 Normal termination of Gaussian 09 at Tue Dec 15 17:06:26 2015.
