 Entering Gaussian System, Link 0=g09
 Input=FuranAM1_69.com
 Output=FuranAM1_69.log
 Initial command:
 /home/Applications/g09/g09/l1.exe "/home/Applications/g09/scratch/Gau-6163.inp" -scrdir="/home/Applications/g09/scratch/"
 Entering Link 1 = /home/Applications/g09/g09/l1.exe PID=      6165.
  
 Copyright (c) 1988,1990,1992,1993,1995,1998,2003,2009,2013,
            Gaussian, Inc.  All Rights Reserved.
  
 This is part of the Gaussian(R) 09 program.  It is based on
 the Gaussian(R) 03 system (copyright 2003, Gaussian, Inc.),
 the Gaussian(R) 98 system (copyright 1998, Gaussian, Inc.),
 the Gaussian(R) 94 system (copyright 1995, Gaussian, Inc.),
 the Gaussian 92(TM) system (copyright 1992, Gaussian, Inc.),
 the Gaussian 90(TM) system (copyright 1990, Gaussian, Inc.),
 the Gaussian 88(TM) system (copyright 1988, Gaussian, Inc.),
 the Gaussian 86(TM) system (copyright 1986, Carnegie Mellon
 University), and the Gaussian 82(TM) system (copyright 1983,
 Carnegie Mellon University). Gaussian is a federally registered
 trademark of Gaussian, Inc.
  
 This software contains proprietary and confidential information,
 including trade secrets, belonging to Gaussian, Inc.
  
 This software is provided under written license and may be
 used, copied, transmitted, or stored only in accord with that
 written license.
  
 The following legend is applicable only to US Government
 contracts under FAR:
  
                    RESTRICTED RIGHTS LEGEND
  
 Use, reproduction and disclosure by the US Government is
 subject to restrictions as set forth in subparagraphs (a)
 and (c) of the Commercial Computer Software - Restricted
 Rights clause in FAR 52.227-19.
  
 Gaussian, Inc.
 340 Quinnipiac St., Bldg. 40, Wallingford CT 06492
  
  
 ---------------------------------------------------------------
 Warning -- This program may not be used in any manner that
 competes with the business of Gaussian, Inc. or will provide
 assistance to any competitor of Gaussian, Inc.  The licensee
 of this program is prohibited from giving any competitor of
 Gaussian, Inc. access to this program.  By using this program,
 the user acknowledges that Gaussian, Inc. is engaged in the
 business of creating and licensing software in the field of
 computational chemistry and represents and warrants to the
 licensee that it is not a competitor of Gaussian, Inc. and that
 it will not use this program in any manner prohibited above.
 ---------------------------------------------------------------
  

 Cite this work as:
 Gaussian 09, Revision D.01,
 M. J. Frisch, G. W. Trucks, H. B. Schlegel, G. E. Scuseria, 
 M. A. Robb, J. R. Cheeseman, G. Scalmani, V. Barone, B. Mennucci, 
 G. A. Petersson, H. Nakatsuji, M. Caricato, X. Li, H. P. Hratchian, 
 A. F. Izmaylov, J. Bloino, G. Zheng, J. L. Sonnenberg, M. Hada, 
 M. Ehara, K. Toyota, R. Fukuda, J. Hasegawa, M. Ishida, T. Nakajima, 
 Y. Honda, O. Kitao, H. Nakai, T. Vreven, J. A. Montgomery, Jr., 
 J. E. Peralta, F. Ogliaro, M. Bearpark, J. J. Heyd, E. Brothers, 
 K. N. Kudin, V. N. Staroverov, T. Keith, R. Kobayashi, J. Normand, 
 K. Raghavachari, A. Rendell, J. C. Burant, S. S. Iyengar, J. Tomasi, 
 M. Cossi, N. Rega, J. M. Millam, M. Klene, J. E. Knox, J. B. Cross, 
 V. Bakken, C. Adamo, J. Jaramillo, R. Gomperts, R. E. Stratmann, 
 O. Yazyev, A. J. Austin, R. Cammi, C. Pomelli, J. W. Ochterski, 
 R. L. Martin, K. Morokuma, V. G. Zakrzewski, G. A. Voth, 
 P. Salvador, J. J. Dannenberg, S. Dapprich, A. D. Daniels, 
 O. Farkas, J. B. Foresman, J. V. Ortiz, J. Cioslowski, 
 and D. J. Fox, Gaussian, Inc., Wallingford CT, 2013.
 
 ******************************************
 Gaussian 09:  ES64L-G09RevD.01 24-Apr-2013
                15-Dec-2015 
 ******************************************
 ------------------------------------------------------------
 #P AM1(Input,print) CIS(Singlets,NStates=15) pop(full) force
 ------------------------------------------------------------
 1/10=7,30=1,38=1/1,3;
 2/12=2,17=6,18=5,40=1/2;
 3/5=2,16=1,25=1,41=700000,71=1,135=100,136=1/1,2,8,3;
 4/35=1/1;
 5/5=2,35=1,38=5/2;
 8/6=1,10=1,108=15/1;
 9/15=2,41=15,42=1,48=1,49=10/14;
 10/5=4/2;
 6/7=3,18=1/1;
 7/12=6,13=5,29=1/1,2,3,16;
 1/10=7,30=1/3;
 99//99;
 Leave Link    1 at Tue Dec 15 16:24:48 2015, MaxMem=           0 cpu:         0.0
 (Enter /home/Applications/g09/g09/l101.exe)
 -----------------
 AM1-Reparam Input
 -----------------
 Symbolic Z-matrix:
 Charge =  0 Multiplicity = 1
 6                     0.91665  -0.75245  -0.02271 
 6                    -0.34655  -1.09838  -0.03269 
 8                    -1.11424   0.04013   0.02419 
 6                    -0.37177   1.07113  -0.04488 
 6                     0.90726   0.7343   -0.00617 
 1                     1.78728   1.34793  -0.00043 
 1                    -0.8193    2.01322   0.01 
 1                    -0.86168  -2.04966  -0.04473 
 1                     1.77033  -1.38036   0.01832 
 
 NAtoms=      9 NQM=        9 NQMF=       0 NMMI=      0 NMMIF=      0
                NMic=       0 NMicF=      0.
                    Isotopes and Nuclear Properties:
 (Nuclear quadrupole moments (NQMom) in fm**2, nuclear magnetic moments (NMagM)
  in nuclear magnetons)

  Atom         1           2           3           4           5           6           7           8           9
 IAtWgt=          12          12          16          12          12           1           1           1           1
 AtmWgt=  12.0000000  12.0000000  15.9949146  12.0000000  12.0000000   1.0078250   1.0078250   1.0078250   1.0078250
 NucSpn=           0           0           0           0           0           1           1           1           1
 AtZEff=   0.0000000   0.0000000   0.0000000   0.0000000   0.0000000   0.0000000   0.0000000   0.0000000   0.0000000
 NQMom=    0.0000000   0.0000000   0.0000000   0.0000000   0.0000000   0.0000000   0.0000000   0.0000000   0.0000000
 NMagM=    0.0000000   0.0000000   0.0000000   0.0000000   0.0000000   2.7928460   2.7928460   2.7928460   2.7928460
 AtZNuc=   6.0000000   6.0000000   8.0000000   6.0000000   6.0000000   1.0000000   1.0000000   1.0000000   1.0000000
 Leave Link  101 at Tue Dec 15 16:24:48 2015, MaxMem=    33554432 cpu:         0.0
 (Enter /home/Applications/g09/g09/l103.exe)

 GradGradGradGradGradGradGradGradGradGradGradGradGradGradGradGradGradGrad
 Berny optimization.
 Initialization pass.
 Trust Radius=3.00D-01 FncErr=1.00D-07 GrdErr=1.00D-07
 Number of steps in this run=      2 maximum allowed number of steps=      2.
 GradGradGradGradGradGradGradGradGradGradGradGradGradGradGradGradGradGrad

 Leave Link  103 at Tue Dec 15 16:24:48 2015, MaxMem=    33554432 cpu:         0.0
 (Enter /home/Applications/g09/g09/l202.exe)
                          Input orientation:                          
 ---------------------------------------------------------------------
 Center     Atomic      Atomic             Coordinates (Angstroms)
 Number     Number       Type             X           Y           Z
 ---------------------------------------------------------------------
      1          6           0        0.916649   -0.752452   -0.022707
      2          6           0       -0.346548   -1.098378   -0.032685
      3          8           0       -1.114240    0.040126    0.024192
      4          6           0       -0.371766    1.071128   -0.044878
      5          6           0        0.907262    0.734299   -0.006172
      6          1           0        1.787277    1.347929   -0.000431
      7          1           0       -0.819295    2.013223    0.009997
      8          1           0       -0.861680   -2.049664   -0.044725
      9          1           0        1.770334   -1.380361    0.018319
 ---------------------------------------------------------------------
                    Distance matrix (angstroms):
                    1          2          3          4          5
     1  C    0.000000
     2  C    1.309745   0.000000
     3  O    2.180571   1.374328   0.000000
     4  C    2.232924   2.169687   1.272401   0.000000
     5  C    1.486873   2.220686   2.137585   1.323202   0.000000
     6  H    2.273783   3.246331   3.182728   2.177168   1.072847
     7  H    3.265506   3.147598   1.995070   1.044431   2.148699
     8  H    2.201295   1.081874   2.106124   3.159012   3.298650
     9  H    1.060533   2.136189   3.215367   3.256130   2.284137
                    6          7          8          9
     6  H    0.000000
     7  H    2.690157   0.000000
     8  H    4.308430   4.063477   0.000000
     9  H    2.728407   4.268801   2.716512   0.000000
 Stoichiometry    C4H4O
 Framework group  C1[X(C4H4O)]
 Deg. of freedom    21
 Full point group                 C1      NOp   1
 Largest Abelian subgroup         C1      NOp   1
 Largest concise Abelian subgroup C1      NOp   1
                         Standard orientation:                         
 ---------------------------------------------------------------------
 Center     Atomic      Atomic             Coordinates (Angstroms)
 Number     Number       Type             X           Y           Z
 ---------------------------------------------------------------------
      1          6           0       -0.876845    0.810863    0.003037
      2          6           0       -1.038661   -0.488756    0.018427
      3          8           0        0.198093   -1.086035   -0.031322
      4          6           0        1.112108   -0.203469    0.036920
      5          6           0        0.596026    1.014068   -0.009220
      6          1           0        1.077561    1.972741   -0.017671
      7          1           0        2.108694   -0.511949   -0.013008
      8          1           0       -1.906568   -1.134547    0.030369
      9          1           0       -1.620199    1.565802   -0.044097
 ---------------------------------------------------------------------
 Rotational constants (GHZ):     10.0506229      9.3549779      4.8489067
 Leave Link  202 at Tue Dec 15 16:24:48 2015, MaxMem=    33554432 cpu:         0.0
 (Enter /home/Applications/g09/g09/l301.exe)

 Semi-emprical parameters in input format:
 Method=8 CoreType=1 PeptideFC=0.0114510000 RIJScale=0.5291770000
 ****
 H       
 PQN=1 NValence=1 F0ss=0.4721550000 ZetaOverlap=1.1880780000 U=-0.4188110000
 Beta=-0.2268830000 CoreKO=1.0589200000 KON=0,0,0,1.0589200000 KON=1,0,1,1.0589200000
 KON=0,1,1,1.0589200000 KON=2,1,1,1.0589200000 EISol=-0.4188110042 EHeat=0.0830298228
 Alpha=1.5252600000
 GCore=0.0085280000,1.4001430000,2.2676710000
 GCore=0.0003530000,1.4001430000,3.4015070000
 GCore=-0.0012730000,0.5600570000,3.9684250000
 ****
 C       
 PQN=2,2 NValence=4 F0ss=0.4494440000 F0sp=0.4215150000 F0pp=0.3768030000 F2pp=0.1898720000
 G1sp=0.2679030000
 ZetaOverlap=1.8086650000,1.6851160000
 U=-1.9120180000,-1.4557970000
 Beta=-0.5775440000,-0.2836780000 DDN=0,1,0.8236740000 DDN=1,1,0.7268010000
 CoreKO=1.1124280000 KON=0,0,0,1.1124280000 KON=1,0,1,0.8219700000 KON=0,1,1,1.1124280000
 KON=2,1,1,0.7783930000 EISol=-4.4398989268 EHeat=0.2723305520 Alpha=1.4014060000
 DipHyp=1.6472532266
 GCore=0.0007890000,1.4001430000,3.0235620000
 GCore=0.0031890000,1.4001430000,3.4959930000
 GCore=-0.0013930000,1.4001430000,3.8739390000
 GCore=-0.0000880000,1.4001430000,5.0077740000
 ****
 O       
 PQN=2,2 NValence=6 F0ss=0.5666750000 F0sp=0.5321300000 F0pp=0.4958710000 F2pp=0.2358080000
 G1sp=0.4343770000
 ZetaOverlap=3.1080320000,2.5240390000
 U=-3.5951870000,-2.8760900000
 Beta=-1.0757550000,-1.0757550000 DDN=0,1,0.4988900000 DDN=1,1,0.4852320000
 CoreKO=0.8822960000 KON=0,0,0,0.8822960000 KON=1,0,1,0.5019540000 KON=0,1,1,0.8822960000
 KON=2,1,1,0.5515580000 EISol=-11.6164441184 EHeat=0.0949133088 Alpha=2.3576810000
 DipHyp=0.9977225968
 GCore=0.0195120000,1.4001430000,1.6023330000
 GCore=0.0056550000,1.9602000000,2.7307880000
 ****
 
 Standard basis: VSTO-6G (5D, 7F)
 Ernie: Thresh=  0.10000D-02 Tol=  0.10000D-05 Strict=F.
  NNHCO=     0 NNPyr=     0 NCTC=     0               EPep=         0.000000000
    EC=        69.574110804  ECS=         1.962740402   EG=         0.382134579
   EHC=         0.000000000  EAt=       -31.051283842  AtH=         1.516354808
 EPDDG=         0.000000000  ECC=        71.918985786 EAtT=        32.567638650
 There are    24 symmetry adapted cartesian basis functions of A   symmetry.
 There are    24 symmetry adapted basis functions of A   symmetry.
    24 basis functions,   144 primitive gaussians,    24 cartesian basis functions
    13 alpha electrons       13 beta electrons
       nuclear repulsion energy       104.4866244362 Hartrees.
 IExCor=    0 DFT=F Ex=HF Corr=None ExCW=0 ScaHFX=  1.000000
 ScaDFX=  1.000000  1.000000  1.000000  1.000000 ScalE2=  1.000000  1.000000
 IRadAn=      0 IRanWt=     -1 IRanGd=            0 ICorTp=0 IEmpDi=  4
 Integral buffers will be    131072 words long.
 Regular integral format.
 Two-electron integral symmetry is turned off.
 Leave Link  301 at Tue Dec 15 16:24:48 2015, MaxMem=    33554432 cpu:         0.0
 (Enter /home/Applications/g09/g09/l302.exe)
 Do NDO integrals.
 NPDir=0 NMtPBC=     1 NCelOv=     1 NCel=       1 NClECP=     1 NCelD=      1
         NCelK=      1 NCelE2=     1 NClLst=     1 CellRange=     0.0.
 One-electron integrals computed using PRISM.
 NBasis=    24 RedAO= F EigKep=  0.00D+00  NBF=    24
 NBsUse=    24 1.00D-04 EigRej=  0.00D+00 NBFU=    24
 Leave Link  302 at Tue Dec 15 16:24:48 2015, MaxMem=    33554432 cpu:         0.0
 (Enter /home/Applications/g09/g09/l308.exe)
 Leave Link  308 at Tue Dec 15 16:24:48 2015, MaxMem=    33554432 cpu:         0.0
 (Enter /home/Applications/g09/g09/l303.exe)
 DipDrv:  MaxL=1.
 Leave Link  303 at Tue Dec 15 16:24:48 2015, MaxMem=    33554432 cpu:         0.0
 (Enter /home/Applications/g09/g09/l401.exe)
 Simple Huckel Guess.
 JPrj=0 DoOrth=F DoCkMO=F.
 Leave Link  401 at Tue Dec 15 16:24:48 2015, MaxMem=    33554432 cpu:         0.0
 (Enter /home/Applications/g09/g09/l502.exe)
 Closed shell SCF:
 Using DIIS extrapolation, IDIIS=  1040.
 Overlap will be assumed to be unity.
 Two-electron integral symmetry not used.
 Keep J ints in memory in canonical form, NReq=888082.
 IVT=       79475 IEndB=       79475 NGot=    33554432 MDV=    33473473
 LenX=    33473473 LenY=    33472456
 Requested convergence on RMS density matrix=1.00D-08 within 128 cycles.
 Requested convergence on MAX density matrix=1.00D-06.
 Requested convergence on             energy=1.00D-06.
 No special actions if energy rises.
 FoFCou: FMM=F IPFlag=           0 FMFlag=           0 FMFlg1=           0
         NFxFlg=           0 DoJE=F BraDBF=F KetDBF=F FulRan=T
         wScrn=  0.000000 ICntrl=     600 IOpCl=  2 I1Cent=           0 NGrid=           0
         NMat0=    1 NMatS0=     54 NMatT0=    0 NMatD0=    1 NMtDS0=    0 NMtDT0=    0
 Symmetry not used in FoFCou.

 Cycle   1  Pass 1  IDiag  1:
 E= 0.354954143840672    
 DIIS: error= 5.94D-02 at cycle   1 NSaved=   1.
 NSaved= 1 IEnMin= 1 EnMin= 0.354954143840672     IErMin= 1 ErrMin= 5.94D-02
 ErrMax= 5.94D-02  0.00D+00 EMaxC= 1.00D-01 BMatC= 1.12D-01 BMatP= 1.12D-01
 IDIUse=3 WtCom= 4.06D-01 WtEn= 5.94D-01
 Coeff-Com:  0.100D+01
 Coeff-En:   0.100D+01
 Coeff:      0.100D+01
 GapD=    2.000 DampG=2.000 DampE=0.500 DampFc=1.0000 IDamp=-1.
 RMSDP=1.93D-02 MaxDP=1.65D-01              OVMax= 0.00D+00

 Cycle   2  Pass 1  IDiag  1:
 E= 0.781872935626637E-01 Delta-E=       -0.276766850278 Rises=F Damp=F
 DIIS: error= 2.01D-02 at cycle   2 NSaved=   2.
 NSaved= 2 IEnMin= 2 EnMin= 0.781872935626637E-01 IErMin= 2 ErrMin= 2.01D-02
 ErrMax= 2.01D-02  0.00D+00 EMaxC= 1.00D-01 BMatC= 9.74D-03 BMatP= 1.12D-01
 IDIUse=3 WtCom= 7.99D-01 WtEn= 2.01D-01
 Coeff-Com: -0.355D+00 0.136D+01
 Coeff-En:   0.000D+00 0.100D+01
 Coeff:     -0.284D+00 0.128D+01
 RMSDP=8.26D-03 MaxDP=7.43D-02 DE=-2.77D-01 OVMax= 0.00D+00

 Cycle   3  Pass 1  IDiag  1:
 E= 0.467098809170921E-01 Delta-E=       -0.031477412646 Rises=F Damp=F
 DIIS: error= 4.01D-03 at cycle   3 NSaved=   3.
 NSaved= 3 IEnMin= 3 EnMin= 0.467098809170921E-01 IErMin= 3 ErrMin= 4.01D-03
 ErrMax= 4.01D-03  0.00D+00 EMaxC= 1.00D-01 BMatC= 4.34D-04 BMatP= 9.74D-03
 IDIUse=3 WtCom= 9.60D-01 WtEn= 4.01D-02
 Coeff-Com:  0.129D+00-0.601D+00 0.147D+01
 Coeff-En:   0.000D+00 0.000D+00 0.100D+01
 Coeff:      0.124D+00-0.577D+00 0.145D+01
 RMSDP=2.74D-03 MaxDP=3.24D-02 DE=-3.15D-02 OVMax= 0.00D+00

 Cycle   4  Pass 1  IDiag  3:
 E= 0.443076433167988E-01 Delta-E=       -0.002402237600 Rises=F Damp=F
 DIIS: error= 1.25D-03 at cycle   4 NSaved=   4.
 NSaved= 4 IEnMin= 4 EnMin= 0.443076433167988E-01 IErMin= 4 ErrMin= 1.25D-03
 ErrMax= 1.25D-03  0.00D+00 EMaxC= 1.00D-01 BMatC= 3.35D-05 BMatP= 4.34D-04
 IDIUse=3 WtCom= 9.88D-01 WtEn= 1.25D-02
 Coeff-Com:  0.948D-02-0.218D-01-0.292D+00 0.130D+01
 Coeff-En:   0.000D+00 0.000D+00 0.000D+00 0.100D+01
 Coeff:      0.936D-02-0.215D-01-0.289D+00 0.130D+01
 Gap=     0.399 Goal=   None    Shift=    0.000
 RMSDP=9.46D-04 MaxDP=1.18D-02 DE=-2.40D-03 OVMax= 1.25D-02

 Cycle   5  Pass 1  IDiag  3:
 E= 0.440959060681791E-01 Delta-E=       -0.000211737249 Rises=F Damp=F
 DIIS: error= 1.78D-04 at cycle   5 NSaved=   5.
 NSaved= 5 IEnMin= 5 EnMin= 0.440959060681791E-01 IErMin= 5 ErrMin= 1.78D-04
 ErrMax= 1.78D-04  0.00D+00 EMaxC= 1.00D-01 BMatC= 1.65D-06 BMatP= 3.35D-05
 IDIUse=3 WtCom= 9.98D-01 WtEn= 1.78D-03
 Coeff-Com: -0.647D-02 0.241D-01 0.501D-01-0.485D+00 0.142D+01
 Coeff-En:   0.000D+00 0.000D+00 0.000D+00 0.000D+00 0.100D+01
 Coeff:     -0.646D-02 0.241D-01 0.501D-01-0.484D+00 0.142D+01
 Gap=     0.399 Goal=   None    Shift=    0.000
 RMSDP=2.23D-04 MaxDP=1.94D-03 DE=-2.12D-04 OVMax= 2.20D-03

 Cycle   6  Pass 1  IDiag  3:
 E= 0.440846397344785E-01 Delta-E=       -0.000011266334 Rises=F Damp=F
 DIIS: error= 7.29D-05 at cycle   6 NSaved=   6.
 NSaved= 6 IEnMin= 6 EnMin= 0.440846397344785E-01 IErMin= 6 ErrMin= 7.29D-05
 ErrMax= 7.29D-05  0.00D+00 EMaxC= 1.00D-01 BMatC= 1.42D-07 BMatP= 1.65D-06
 IDIUse=1 WtCom= 1.00D+00 WtEn= 0.00D+00
 Coeff-Com:  0.293D-02-0.113D-01-0.108D-01 0.180D+00-0.723D+00 0.156D+01
 Coeff:      0.293D-02-0.113D-01-0.108D-01 0.180D+00-0.723D+00 0.156D+01
 Gap=     0.399 Goal=   None    Shift=    0.000
 RMSDP=7.79D-05 MaxDP=6.10D-04 DE=-1.13D-05 OVMax= 8.08D-04

 Cycle   7  Pass 1  IDiag  3:
 E= 0.440834369714622E-01 Delta-E=       -0.000001202763 Rises=F Damp=F
 DIIS: error= 2.61D-05 at cycle   7 NSaved=   7.
 NSaved= 7 IEnMin= 7 EnMin= 0.440834369714622E-01 IErMin= 7 ErrMin= 2.61D-05
 ErrMax= 2.61D-05  0.00D+00 EMaxC= 1.00D-01 BMatC= 1.22D-08 BMatP= 1.42D-07
 IDIUse=1 WtCom= 1.00D+00 WtEn= 0.00D+00
 Coeff-Com: -0.547D-03 0.174D-02 0.333D-02-0.395D-01 0.179D+00-0.650D+00
 Coeff-Com:  0.151D+01
 Coeff:     -0.547D-03 0.174D-02 0.333D-02-0.395D-01 0.179D+00-0.650D+00
 Coeff:      0.151D+01
 Gap=     0.399 Goal=   None    Shift=    0.000
 RMSDP=2.74D-05 MaxDP=2.43D-04 DE=-1.20D-06 OVMax= 2.63D-04

 Cycle   8  Pass 1  IDiag  3:
 E= 0.440833220163768E-01 Delta-E=       -0.000000114955 Rises=F Damp=F
 DIIS: error= 5.57D-06 at cycle   8 NSaved=   8.
 NSaved= 8 IEnMin= 8 EnMin= 0.440833220163768E-01 IErMin= 8 ErrMin= 5.57D-06
 ErrMax= 5.57D-06  0.00D+00 EMaxC= 1.00D-01 BMatC= 6.15D-10 BMatP= 1.22D-08
 IDIUse=1 WtCom= 1.00D+00 WtEn= 0.00D+00
 Coeff-Com:  0.728D-04-0.382D-04-0.176D-02 0.111D-01-0.498D-01 0.222D+00
 Coeff-Com: -0.718D+00 0.154D+01
 Coeff:      0.728D-04-0.382D-04-0.176D-02 0.111D-01-0.498D-01 0.222D+00
 Coeff:     -0.718D+00 0.154D+01
 Gap=     0.399 Goal=   None    Shift=    0.000
 RMSDP=6.20D-06 MaxDP=5.66D-05 DE=-1.15D-07 OVMax= 5.87D-05

 Cycle   9  Pass 1  IDiag  3:
 E= 0.440833166937296E-01 Delta-E=       -0.000000005323 Rises=F Damp=F
 DIIS: error= 7.01D-07 at cycle   9 NSaved=   9.
 NSaved= 9 IEnMin= 9 EnMin= 0.440833166937296E-01 IErMin= 9 ErrMin= 7.01D-07
 ErrMax= 7.01D-07  0.00D+00 EMaxC= 1.00D-01 BMatC= 1.86D-11 BMatP= 6.15D-10
 IDIUse=1 WtCom= 1.00D+00 WtEn= 0.00D+00
 Coeff-Com:  0.633D-05-0.109D-03 0.489D-03-0.192D-02 0.885D-02-0.518D-01
 Coeff-Com:  0.201D+00-0.555D+00 0.140D+01
 Coeff:      0.633D-05-0.109D-03 0.489D-03-0.192D-02 0.885D-02-0.518D-01
 Coeff:      0.201D+00-0.555D+00 0.140D+01
 Gap=     0.399 Goal=   None    Shift=    0.000
 RMSDP=7.93D-07 MaxDP=6.38D-06 DE=-5.32D-09 OVMax= 9.03D-06

 Cycle  10  Pass 1  IDiag  3:
 E= 0.440833165762342E-01 Delta-E=       -0.000000000117 Rises=F Damp=F
 DIIS: error= 1.37D-07 at cycle  10 NSaved=  10.
 NSaved=10 IEnMin=10 EnMin= 0.440833165762342E-01 IErMin=10 ErrMin= 1.37D-07
 ErrMax= 1.37D-07  0.00D+00 EMaxC= 1.00D-01 BMatC= 8.61D-13 BMatP= 1.86D-11
 IDIUse=1 WtCom= 1.00D+00 WtEn= 0.00D+00
 Coeff-Com: -0.675D-05 0.597D-04-0.196D-03 0.598D-03-0.250D-02 0.165D-01
 Coeff-Com: -0.681D-01 0.199D+00-0.633D+00 0.149D+01
 Coeff:     -0.675D-05 0.597D-04-0.196D-03 0.598D-03-0.250D-02 0.165D-01
 Coeff:     -0.681D-01 0.199D+00-0.633D+00 0.149D+01
 Gap=     0.399 Goal=   None    Shift=    0.000
 RMSDP=1.53D-07 MaxDP=1.02D-06 DE=-1.17D-10 OVMax= 1.54D-06

 Cycle  11  Pass 1  IDiag  3:
 E= 0.440833165710472E-01 Delta-E=       -0.000000000005 Rises=F Damp=F
 DIIS: error= 2.09D-08 at cycle  11 NSaved=  11.
 NSaved=11 IEnMin=11 EnMin= 0.440833165710472E-01 IErMin=11 ErrMin= 2.09D-08
 ErrMax= 2.09D-08  0.00D+00 EMaxC= 1.00D-01 BMatC= 2.69D-14 BMatP= 8.61D-13
 IDIUse=1 WtCom= 1.00D+00 WtEn= 0.00D+00
 Coeff-Com:  0.216D-05-0.188D-04 0.608D-04-0.184D-03 0.712D-03-0.475D-02
 Coeff-Com:  0.197D-01-0.573D-01 0.190D+00-0.552D+00 0.140D+01
 Coeff:      0.216D-05-0.188D-04 0.608D-04-0.184D-03 0.712D-03-0.475D-02
 Coeff:      0.197D-01-0.573D-01 0.190D+00-0.552D+00 0.140D+01
 Gap=     0.399 Goal=   None    Shift=    0.000
 RMSDP=2.57D-08 MaxDP=1.38D-07 DE=-5.19D-12 OVMax= 2.11D-07

 Cycle  12  Pass 1  IDiag  3:
 E= 0.440833165712036E-01 Delta-E=        0.000000000000 Rises=F Damp=F
 DIIS: error= 3.46D-09 at cycle  12 NSaved=  12.
 NSaved=12 IEnMin=11 EnMin= 0.440833165710472E-01 IErMin=12 ErrMin= 3.46D-09
 ErrMax= 3.46D-09  0.00D+00 EMaxC= 1.00D-01 BMatC= 1.29D-15 BMatP= 2.69D-14
 IDIUse=1 WtCom= 1.00D+00 WtEn= 0.00D+00
 Coeff-Com: -0.572D-06 0.484D-05-0.151D-04 0.457D-04-0.162D-03 0.110D-02
 Coeff-Com: -0.450D-02 0.129D-01-0.439D-01 0.144D+00-0.527D+00 0.142D+01
 Coeff:     -0.572D-06 0.484D-05-0.151D-04 0.457D-04-0.162D-03 0.110D-02
 Coeff:     -0.450D-02 0.129D-01-0.439D-01 0.144D+00-0.527D+00 0.142D+01
 Gap=     0.399 Goal=   None    Shift=    0.000
 RMSDP=5.60D-09 MaxDP=2.84D-08 DE= 1.56D-13 OVMax= 2.84D-08

 Cycle  13  Pass 2  IDiag  1:
 SCF Done:  E(RAM1) =  0.440833165712E-01 A.U. after   13 cycles
            NFock= 12  Conv=0.56D-08     -V/T= 1.0026
 KE=-1.668955928652D+01 PE=-1.726364440054D+02 EE= 8.488346217227D+01
 Leave Link  502 at Tue Dec 15 16:24:48 2015, MaxMem=    33554432 cpu:         0.0
 (Enter /home/Applications/g09/g09/l801.exe)
 Range of M.O.s used for correlation:     1    24
 NBasis=    24 NAE=    13 NBE=    13 NFC=     0 NFV=     0
 NROrb=     24 NOA=    13 NOB=    13 NVA=    11 NVB=    11
 Leave Link  801 at Tue Dec 15 16:24:48 2015, MaxMem=    33554432 cpu:         0.0
 (Enter /home/Applications/g09/g09/l914.exe)
 RHF ground state
 MDV=    33554432 DFT=F DoStab=F Mixed=F DoRPA=F DoScal=F NonHer=F
 Making orbital integer symmetry assigments:
 Orbital symmetries:
       Occupied  (A) (A) (A) (A) (A) (A) (A) (A) (A) (A) (A) (A)
                 (A)
       Virtual   (A) (A) (A) (A) (A) (A) (A) (A) (A) (A) (A)
    60 initial guesses have been made.
 Convergence on wavefunction:    0.000001000000000
 Davidson Disk Diagonalization:  ConvIn= 1.00D-06 SkipCon=T Conv= 1.00D-06.
 Max sub-space:   240 roots to seek:    60 dimension of matrix:          286
 Iteration     1 Dimension    60 NMult     0 NNew     60
 CISAX will form    60 AO SS matrices at one time.
 NMat=    60 NSing=    60 JSym2X= 0.
 FoFJK:  IHMeth= 8 ICntrl=       0 DoSepK=F KAlg= 0 I1Cent=   0 FoldK=F
 IRaf=         1 NMat= 120 IRICut=       1 DoRegI=T DoRafI=F ISym2E= 0.
 FoFCou: FMM=F IPFlag=           0 FMFlag=      100000 FMFlg1=           0
         NFxFlg=           0 DoJE=F BraDBF=F KetDBF=F FulRan=T
         wScrn=  0.000000 ICntrl=       0 IOpCl=  0 I1Cent=           0 NGrid=           0
         NMat0=  120 NMatS0=     60 NMatT0=    0 NMatD0=  120 NMtDS0=    0 NMtDT0=    0
 Symmetry not used in FoFCou.
 New state      2 was old state      4
 New state      3 was old state      2
 New state      4 was old state      6
 New state      5 was old state      8
 New state      6 was old state      5
 New state      8 was old state      3
 New state     11 was old state     13
 New state     12 was old state     17
 New state     13 was old state     11
 New state     14 was old state     16
 New state     15 was old state     12
 Excitation Energies [eV] at current iteration:
 Root      1 :     4.872624658863031
 Root      2 :     5.127229743657484
 Root      3 :     5.308928274399265
 Root      4 :     5.905938709546787
 Root      5 :     6.231000177188842
 Root      6 :     6.410247085724089
 Root      7 :     6.485446037495313
 Root      8 :     6.527447717455985
 Root      9 :     6.624184182390382
 Root     10 :     7.019726539080439
 Root     11 :     7.252370366322193
 Root     12 :     7.532920473792450
 Root     13 :     7.695009404094368
 Root     14 :     7.823779289411846
 Root     15 :     7.829399470380060
 Root     16 :     7.967862972826159
 Root     17 :     8.018329387828983
 Root     18 :     8.184540245872290
 Root     19 :     8.362611010447074
 Root     20 :     8.409448794731913
 Root     21 :     8.784645858705977
 Root     22 :     8.975190788037034
 Root     23 :     9.045500199998676
 Root     24 :     9.379751568411638
 Root     25 :     9.429472657933180
 Root     26 :     9.471002590196072
 Root     27 :     9.529046187744338
 Root     28 :     9.598094664686316
 Root     29 :     9.786465046188232
 Root     30 :     9.851881657593800
 Root     31 :    10.032100596438880
 Root     32 :    10.076033026789550
 Root     33 :    10.249960028274590
 Root     34 :    10.310958985047230
 Root     35 :    10.369167320918530
 Root     36 :    10.391676873165510
 Root     37 :    10.570621597390170
 Root     38 :    10.681003119638090
 Root     39 :    10.995615820509470
 Root     40 :    11.087942911987850
 Root     41 :    11.238746098638440
 Root     42 :    11.265987500161600
 Root     43 :    11.359131676466080
 Root     44 :    11.467268881190840
 Root     45 :    11.559456441562170
 Root     46 :    11.645989218693080
 Root     47 :    11.715367365294500
 Root     48 :    11.815016853542080
 Root     49 :    11.952515086020080
 Root     50 :    12.306459067483700
 Root     51 :    12.390602102711510
 Root     52 :    12.464047928610090
 Root     53 :    12.588686350250110
 Root     54 :    12.750791507042060
 Root     55 :    13.112351700484730
 Root     56 :    13.375462370850780
 Root     57 :    13.518981248691030
 Root     58 :    13.623129256516100
 Root     59 :    13.760611511941280
 Root     60 :    13.858326084804670
 Iteration     2 Dimension   120 NMult    60 NNew     60
 CISAX will form    60 AO SS matrices at one time.
 NMat=    60 NSing=    60 JSym2X= 0.
 Root      1 not converged, maximum delta is    0.039076309559330
 Root      2 not converged, maximum delta is    0.033060473405670
 Root      3 not converged, maximum delta is    0.014465410418284
 Root      4 not converged, maximum delta is    0.045036144387441
 Root      5 not converged, maximum delta is    0.040333336498835
 Root      6 not converged, maximum delta is    0.158621573061313
 Root      7 not converged, maximum delta is    0.388014710051043
 Root      8 not converged, maximum delta is    0.309150839778227
 Root      9 not converged, maximum delta is    0.195182411906206
 Root     10 not converged, maximum delta is    0.041693315964361
 Root     11 not converged, maximum delta is    0.024540090423608
 Root     12 not converged, maximum delta is    0.039773367881842
 Root     13 not converged, maximum delta is    0.049612483792752
 Root     14 not converged, maximum delta is    0.047822316809701
 Root     15 not converged, maximum delta is    0.064243640355698
 Excitation Energies [eV] at current iteration:
 Root      1 :     4.806391026548452   Change is   -0.066233632314579
 Root      2 :     5.087548799059829   Change is   -0.039680944597655
 Root      3 :     5.295645828183662   Change is   -0.013282446215602
 Root      4 :     5.848569214927887   Change is   -0.057369494618901
 Root      5 :     6.126955083685425   Change is   -0.104045093503417
 Root      6 :     6.343392005768806   Change is   -0.066855079955283
 Root      7 :     6.395400631194983   Change is   -0.090045406300330
 Root      8 :     6.439296802025162   Change is   -0.088150915430824
 Root      9 :     6.515208946640970   Change is   -0.108975235749411
 Root     10 :     6.948986332584680   Change is   -0.070740206495759
 Root     11 :     7.200371956818627   Change is   -0.051998409503566
 Root     12 :     7.436738278843277   Change is   -0.096182194949174
 Root     13 :     7.583256980186230   Change is   -0.111752423908138
 Root     14 :     7.758647528855977   Change is   -0.065131760555869
 Root     15 :     7.772073392468535   Change is   -0.057326077911526
 Root     16 :     7.887478580645562   Change is   -0.080384392180598
 Root     17 :     7.947105942609768   Change is   -0.071223445219215
 Root     18 :     8.041245055039326   Change is   -0.143295190832965
 Root     19 :     8.080931126730087   Change is   -0.281679883716986
 Root     20 :     8.257628203382003   Change is   -0.151820591349909
 Root     21 :     8.657404426879580   Change is   -0.127241431826398
 Root     22 :     8.864492736471338   Change is   -0.110698051565698
 Root     23 :     8.980850362532427   Change is   -0.064649837466250
 Root     24 :     8.994678880861475   Change is   -0.385072687550164
 Root     25 :     9.240635447042568   Change is   -0.288410740701772
 Root     26 :     9.304267131399463   Change is   -0.125205526533718
 Root     27 :     9.390725989196520   Change is   -0.395739056991711
 Root     28 :     9.425717070577811   Change is   -0.045285519618260
 Root     29 :     9.554003093259032   Change is   -0.044091571427284
 Root     30 :     9.653161183290456   Change is   -0.198720474303344
 Root     31 :     9.703613769533508   Change is   -0.372419257256044
 Root     32 :     9.740010530395278   Change is   -0.292090066043604
 Root     33 :     9.823285030934434   Change is   -0.545882289984096
 Root     34 :     9.871144267679769   Change is   -0.378815760594827
 Root     35 :    10.125534185227420   Change is   -0.445087412162747
 Root     36 :    10.150988254034560   Change is   -0.159970731012667
 Root     37 :    10.206825535805140   Change is   -0.184851337360366
 Root     38 :    10.259734863218580   Change is   -0.421268256419502
 Root     39 :    10.300389808508370   Change is   -0.695226012001097
 Root     40 :    10.695471122624580   Change is   -0.543274976013861
 Root     41 :    10.781507787145440   Change is   -0.306435124842408
 Root     42 :    10.892280558501530   Change is   -0.466851117964549
 Root     43 :    11.124853035744470   Change is   -0.141134464417130
 Root     44 :    11.235222890104040   Change is   -0.324233551458132
 Root     45 :    11.292359678373090   Change is   -0.353629540319989
 Root     46 :    11.303703842663000   Change is   -0.163565038527834
 Root     47 :    11.434358197378190   Change is   -0.281009167916313
 Root     48 :    11.576733137792590   Change is   -0.238283715749485
 Root     49 :    11.707288499847020   Change is   -0.245226586173062
 Root     50 :    11.830745840167150   Change is   -0.475713227316552
 Root     51 :    12.055350518437590   Change is   -0.335251584273920
 Root     52 :    12.163486352274680   Change is   -0.300561576335416
 Root     53 :    12.358853597085830   Change is   -0.229832753164278
 Root     54 :    12.470732028941010   Change is   -0.280059478101053
 Root     55 :    12.890489047857320   Change is   -0.221862652627405
 Root     56 :    12.999189699738150   Change is   -0.376272671112627
 Root     57 :    13.150466933321600   Change is   -0.472662323194494
 Root     58 :    13.307030006000900   Change is   -0.453581505940381
 Root     59 :    13.448844220775400   Change is   -0.070137027915629
 Root     60 :    13.494412667544620   Change is   -0.363913417260052
 Iteration     3 Dimension   135 NMult   120 NNew     15
 CISAX will form    15 AO SS matrices at one time.
 NMat=    15 NSing=    15 JSym2X= 0.
 Root      1 not converged, maximum delta is    0.000934038128585
 Root      2 not converged, maximum delta is    0.000189809251574
 Root      3 not converged, maximum delta is    0.000216894699916
 Root      4 not converged, maximum delta is    0.000121273544233
 Root      5 not converged, maximum delta is    0.000163603428114
 Root      6 not converged, maximum delta is    0.001712956263765
 Root      7 not converged, maximum delta is    0.002249991493124
 Root      8 not converged, maximum delta is    0.001663708430642
 Root      9 not converged, maximum delta is    0.000297438130820
 Root     10 not converged, maximum delta is    0.000206582051574
 Root     11 not converged, maximum delta is    0.000488203022628
 Root     12 not converged, maximum delta is    0.000224070355274
 Root     13 not converged, maximum delta is    0.000824074262464
 Root     14 not converged, maximum delta is    0.000197140405207
 Root     15 not converged, maximum delta is    0.000238238661612
 Excitation Energies [eV] at current iteration:
 Root      1 :     4.806200953810503   Change is   -0.000190072737949
 Root      2 :     5.087536985773278   Change is   -0.000011813286551
 Root      3 :     5.295624061421371   Change is   -0.000021766762291
 Root      4 :     5.848564737585612   Change is   -0.000004477342275
 Root      5 :     6.126943803031746   Change is   -0.000011280653679
 Root      6 :     6.343043341327267   Change is   -0.000348664441539
 Root      7 :     6.394955051842045   Change is   -0.000445579352938
 Root      8 :     6.439237991356976   Change is   -0.000058810668185
 Root      9 :     6.515190141507788   Change is   -0.000018805133182
 Root     10 :     6.948975083372810   Change is   -0.000011249211870
 Root     11 :     7.200339408543723   Change is   -0.000032548274904
 Root     12 :     7.436724771349573   Change is   -0.000013507493704
 Root     13 :     7.583172316923864   Change is   -0.000084663262365
 Root     14 :     7.758639261805039   Change is   -0.000008267050938
 Root     15 :     7.772061364846772   Change is   -0.000012027621762
 Iteration     4 Dimension   143 NMult   135 NNew      8
 CISAX will form     8 AO SS matrices at one time.
 NMat=     8 NSing=     8 JSym2X= 0.
 Root      1 not converged, maximum delta is    0.000023151971359
 Root      2 not converged, maximum delta is    0.000006843373928
 Root      3 not converged, maximum delta is    0.000007826165362
 Root      4 not converged, maximum delta is    0.000006047008994
 Root      5 not converged, maximum delta is    0.000013552223982
 Root      6 not converged, maximum delta is    0.000073360993833
 Root      7 not converged, maximum delta is    0.000091658445725
 Root      8 not converged, maximum delta is    0.000033869088416
 Root      9 not converged, maximum delta is    0.000015175491308
 Root     10 not converged, maximum delta is    0.000011356080500
 Root     11 not converged, maximum delta is    0.000033142593399
 Root     12 not converged, maximum delta is    0.000016835751019
 Root     13 not converged, maximum delta is    0.000019627068431
 Root     14 not converged, maximum delta is    0.000005751592440
 Root     15 not converged, maximum delta is    0.000020998715486
 Excitation Energies [eV] at current iteration:
 Root      1 :     4.806200809912076   Change is   -0.000000143898427
 Root      2 :     5.087536968427095   Change is   -0.000000017346183
 Root      3 :     5.295624027322029   Change is   -0.000000034099342
 Root      4 :     5.848564723041145   Change is   -0.000000014544467
 Root      5 :     6.126943752378623   Change is   -0.000000050653123
 Root      6 :     6.343040951120717   Change is   -0.000002390206550
 Root      7 :     6.394951757585196   Change is   -0.000003294256849
 Root      8 :     6.439237525932760   Change is   -0.000000465424216
 Root      9 :     6.515190053355325   Change is   -0.000000088152462
 Root     10 :     6.948975044206371   Change is   -0.000000039166439
 Root     11 :     7.200339108726832   Change is   -0.000000299816890
 Root     12 :     7.436724700336532   Change is   -0.000000071013041
 Root     13 :     7.583172212087462   Change is   -0.000000104836403
 Root     14 :     7.758639248344829   Change is   -0.000000013460210
 Root     15 :     7.772061279447635   Change is   -0.000000085399137
 Convergence achieved on expansion vectors.
 ***********************************************************************
 Excited states from <AA,BB:AA,BB> singles matrix:
 ***********************************************************************
 
 1PDM for each excited state written to RWF  633
 Ground to excited state transition densities written to RWF  633
 Ground to excited state transition electric dipole moments (Au):
       state          X           Y           Z        Dip. S.      Osc.
         1        -0.6863      0.0791     -0.0484      0.4796      0.0565
         2         0.0738      0.0001      0.0043      0.0055      0.0007
         3        -0.0886     -0.2404      0.0642      0.0698      0.0091
         4        -0.0312     -0.0218      0.1225      0.0165      0.0024
         5         0.0096      0.1047     -0.0162      0.0113      0.0017
         6        -0.7397     -0.7103      0.0361      1.0530      0.1636
         7        -0.4426      1.3432     -0.0541      2.0031      0.3138
         8         0.0801      0.4471      0.0282      0.2071      0.0327
         9         0.0875      0.1721      0.0758      0.0430      0.0069
        10         0.0602     -0.1051     -0.0001      0.0147      0.0025
        11        -0.0040     -0.2634     -0.1124      0.0820      0.0145
        12        -0.0267     -0.0145      0.0497      0.0034      0.0006
        13        -0.0008      0.0193     -0.0256      0.0010      0.0002
        14        -0.0249     -0.0179      0.0729      0.0063      0.0012
        15        -0.0409      0.0074     -0.1390      0.0211      0.0040
 Ground to excited state transition velocity dipole moments (Au):
       state          X           Y           Z        Dip. S.      Osc.
         1         0.0445     -0.0210      0.0051      0.0024      0.0092
         2         0.0022      0.0002     -0.0054      0.0000      0.0001
         3         0.0282      0.0152     -0.0188      0.0014      0.0047
         4         0.0010      0.0042     -0.0841      0.0071      0.0220
         5         0.0009     -0.0311      0.0309      0.0019      0.0057
         6         0.1206      0.1485     -0.0380      0.0380      0.1088
         7         0.0925     -0.2804      0.0357      0.0885      0.2510
         8        -0.0069     -0.0988     -0.1088      0.0216      0.0610
         9        -0.0134     -0.0316     -0.1015      0.0115      0.0319
        10        -0.0109      0.0241      0.0845      0.0078      0.0205
        11        -0.0005      0.0659     -0.0165      0.0046      0.0116
        12         0.0063      0.0015      0.0392      0.0016      0.0039
        13         0.0014     -0.0068     -0.0177      0.0004      0.0009
        14         0.0037      0.0086      0.0843      0.0072      0.0168
        15         0.0060      0.0107      0.0220      0.0006      0.0015
 Ground to excited state transition magnetic dipole moments (Au):
       state          X           Y           Z
         1        -0.0149     -0.0008     -0.6948
         2         0.0056      0.5454      0.0129
         3        -0.0536      0.0202      0.1025
         4         0.0653     -0.2908      0.0161
         5        -0.3053     -0.2375      0.0342
         6         0.0674      0.1567     -0.0755
         7        -0.1157     -0.0542      0.0354
         8        -0.3017      0.2738      0.0066
         9         0.0354      0.2065      0.0088
        10        -0.1798      0.6318     -0.0355
        11        -1.5841     -0.4668      0.0214
        12         0.6213     -0.7995      0.0252
        13         0.0608     -0.2959     -0.0033
        14         0.1972      0.4579      0.0283
        15         0.2603      0.0756      0.0514
 Ground to excited state transition velocity quadrupole moments (Au):
       state          XX          YY          ZZ          XY          XZ          YZ
         1         0.1771     -0.1314     -0.0278     -0.5031      0.0273      0.0140
         2        -0.0015     -0.0130      0.0092      0.0357      0.1571      0.0369
         3        -0.1513      0.1835     -0.0680      0.2183     -0.0109      0.0042
         4        -0.0076     -0.0463      0.0275      0.0009     -0.0419      0.0974
         5         0.0210     -0.0211      0.0208      0.0325      0.1239     -0.2706
         6        -0.2210      0.1293      0.0338      0.2694     -0.0400     -0.0584
         7         0.3205     -0.1407     -0.0165      0.3453      0.0066      0.0639
         8         0.1221     -0.0905      0.0042     -0.0008     -0.1725     -0.1326
         9         0.0645     -0.0392      0.0011     -0.0150     -0.0171      0.1901
        10        -0.0393      0.0127      0.0104     -0.0573     -0.2850     -0.1010
        11        -0.0909      0.0475     -0.0020      0.0049     -0.0389      0.0453
        12        -0.0101      0.0179     -0.0032      0.0244     -0.1781      0.0157
        13         0.0046     -0.0355      0.0116      0.0085     -0.0164     -0.1780
        14         0.0076      0.0183     -0.0003     -0.0064      0.0294      0.1200
        15        -0.0269      0.0196      0.0049      0.0205     -0.0913      0.3285
 <0|del|b> * <b|rxdel|0> + <0|del|b> * <b|delr+rdel|0>
 Rotatory Strengths (R) in cgs (10**-40 erg-esu-cm/Gauss)
       state          XX          YY          ZZ    R(velocity)    E-M Angle
         1       -11.1126     -2.0521     -3.6873     -5.6173       97.04
         2        -0.3647      0.4102      0.1088      0.0515       90.00
         3       -10.0976      1.4265     -2.7041     -3.7918      135.84
         4        -4.0446     -1.8422     -2.3256     -2.7375       95.70
         5        20.8579     -0.7663      5.4896      8.5271       61.40
         6        33.1368     21.5067     49.2787     34.6407       19.66
         7        46.1172    -23.8652     -4.8648      5.7957       81.57
         8       -66.8250      3.2613    -13.2198    -25.5945      115.38
         9        -9.4860     -8.0207     -5.7748     -7.7605      110.55
        10        19.7058      6.7988     12.7520     13.0855       75.92
        11       -38.2752      0.6031    -43.5266    -27.0662      105.71
        12         1.3058      5.2478      3.0448      3.1995       84.71
        13         2.2840      0.0598      3.1032      1.8157       68.02
        14         6.8372      5.0875      5.5304      5.8183       80.43
        15         4.1599      5.1919     -0.7107      2.8804       59.84
 1/2[<0|r|b>*<b|rxdel|0> + (<0|rxdel|b>*<b|r|0>)*]
 Rotatory Strengths (R) in cgs (10**-40 erg-esu-cm/Gauss)
       state          XX          YY          ZZ     R(length)
         1        -7.2524      0.0427    -23.7596    -10.3231
         2        -0.2925     -0.0502     -0.0390     -0.1272
         3        -3.3566      3.4356     -4.6540     -1.5250
         4         1.4429     -4.4878     -1.3912     -1.4787
         5         2.0661     17.5898      0.3923      6.6827
         6        35.2364     78.6921      1.9266     38.6183
         7       -36.2014     51.5189      1.3550      5.5575
         8        17.0949    -86.5676     -0.1325    -23.2017
         9        -2.1909    -25.1275     -0.4723     -9.2636
        10         7.6498     46.9511     -0.0025     18.1995
        11        -4.4753    -86.9692      1.6992    -29.9151
        12        11.7148     -8.1854     -0.8866      0.8809
        13         0.0352      4.0406     -0.0604      1.3385
        14         3.4658      5.8005     -1.4576      2.6029
        15         7.5244     -0.3944      5.0514      4.0605
  1/2[<0|del|b>*<b|r|0> + (<0|r|b>*<b|del|0>)*] (Au)
       state          X           Y           Z        Dip. S.   Osc.(frdel)
         1        -0.0305     -0.0017     -0.0002      0.0324      0.0216
         2         0.0002      0.0000      0.0000     -0.0001     -0.0001
         3        -0.0025     -0.0037     -0.0012      0.0074      0.0049
         4         0.0000     -0.0001     -0.0103      0.0104      0.0069
         5         0.0000     -0.0033     -0.0005      0.0037      0.0025
         6        -0.0892     -0.1055     -0.0014      0.1961      0.1307
         7        -0.0409     -0.3767     -0.0019      0.4195      0.2797
         8        -0.0006     -0.0442     -0.0031      0.0478      0.0319
         9        -0.0012     -0.0054     -0.0077      0.0143      0.0095
        10        -0.0007     -0.0025      0.0000      0.0032      0.0021
        11         0.0000     -0.0174      0.0019      0.0155      0.0103
        12        -0.0002      0.0000      0.0020     -0.0018     -0.0012
        13         0.0000     -0.0001      0.0005     -0.0003     -0.0002
        14        -0.0001     -0.0002      0.0061     -0.0059     -0.0039
        15        -0.0002      0.0001     -0.0031      0.0032      0.0022

 Excitation energies and oscillator strengths:
 
 Excited State   1:      Singlet-A      4.8062 eV  257.97 nm  f=0.0565  <S**2>=0.000
      12 -> 15        -0.25862
      13 -> 14         0.64630
 This state for optimization and/or second-order correction.
 Total Energy, E(CIS) =  0.220707954059    
 Copying the excited state density for this state as the 1-particle RhoCI density.
 
 Excited State   2:      Singlet-A      5.0875 eV  243.70 nm  f=0.0007  <S**2>=0.000
      13 -> 16         0.68235
 
 Excited State   3:      Singlet-A      5.2956 eV  234.13 nm  f=0.0091  <S**2>=0.000
      12 -> 14         0.41176
      13 -> 15         0.56410
 
 Excited State   4:      Singlet-A      5.8486 eV  211.99 nm  f=0.0024  <S**2>=0.000
       7 -> 16        -0.13580
      12 -> 16         0.66442
      12 -> 22         0.14433
 
 Excited State   5:      Singlet-A      6.1269 eV  202.36 nm  f=0.0017  <S**2>=0.000
      12 -> 18         0.16593
      12 -> 22        -0.11252
      13 -> 18         0.47410
      13 -> 19         0.12727
      13 -> 21         0.18946
      13 -> 22        -0.27029
      13 -> 23         0.23224
 
 Excited State   6:      Singlet-A      6.3430 eV  195.46 nm  f=0.1636  <S**2>=0.000
      12 -> 14        -0.32618
      12 -> 15         0.51443
      13 -> 14         0.19723
      13 -> 15         0.16767
      13 -> 17         0.13291
 
 Excited State   7:      Singlet-A      6.3950 eV  193.88 nm  f=0.3138  <S**2>=0.000
      10 -> 16        -0.11227
      12 -> 14         0.38721
      12 -> 15         0.37934
      13 -> 14         0.13055
      13 -> 15        -0.34007
      13 -> 17        -0.12470
 
 Excited State   8:      Singlet-A      6.4392 eV  192.54 nm  f=0.0327  <S**2>=0.000
      12 -> 14         0.15292
      12 -> 18        -0.13047
      12 -> 19         0.22701
      13 -> 15        -0.10629
      13 -> 17         0.50552
      13 -> 22         0.13414
      13 -> 23         0.20998
 
 Excited State   9:      Singlet-A      6.5152 eV  190.30 nm  f=0.0069  <S**2>=0.000
      12 -> 17         0.13999
      12 -> 18         0.18457
      12 -> 19        -0.14632
      12 -> 21        -0.13960
      12 -> 22         0.15623
      12 -> 23         0.21446
      13 -> 17         0.26478
      13 -> 18        -0.19421
      13 -> 19         0.36651
      13 -> 21         0.16892
      13 -> 22        -0.17090
 
 Excited State  10:      Singlet-A      6.9490 eV  178.42 nm  f=0.0025  <S**2>=0.000
      12 -> 17         0.57178
      12 -> 18        -0.14563
      12 -> 20         0.20911
      12 -> 23         0.10005
      13 -> 17        -0.23039
 
 Excited State  11:      Singlet-A      7.2003 eV  172.19 nm  f=0.0145  <S**2>=0.000
       9 -> 15         0.20448
      10 -> 14         0.54302
      10 -> 15        -0.21352
      11 -> 14        -0.25210
 
 Excited State  12:      Singlet-A      7.4367 eV  166.72 nm  f=0.0006  <S**2>=0.000
       8 -> 14        -0.10306
       9 -> 14        -0.16530
      11 -> 14         0.22989
      11 -> 15         0.50671
      12 -> 18         0.16313
      12 -> 19        -0.10612
      12 -> 20         0.10830
      13 -> 19        -0.18704
      13 -> 20         0.13706
 
 Excited State  13:      Singlet-A      7.5832 eV  163.50 nm  f=0.0002  <S**2>=0.000
       9 -> 14        -0.19606
      11 -> 14         0.23212
      11 -> 15         0.20803
      12 -> 18        -0.21452
      12 -> 19         0.13765
      12 -> 20        -0.14140
      12 -> 22        -0.11640
      13 -> 17        -0.11983
      13 -> 18        -0.16178
      13 -> 19         0.34194
      13 -> 20        -0.19651
      13 -> 21        -0.11364
      13 -> 22        -0.10309
      13 -> 24         0.11199
 
 Excited State  14:      Singlet-A      7.7586 eV  159.80 nm  f=0.0012  <S**2>=0.000
       9 -> 14         0.11039
      10 -> 14         0.27501
      11 -> 14         0.43638
      11 -> 15        -0.22818
      12 -> 19        -0.18988
      12 -> 20        -0.10197
      13 -> 18         0.15653
      13 -> 22         0.21806
 
 Excited State  15:      Singlet-A      7.7721 eV  159.53 nm  f=0.0040  <S**2>=0.000
      11 -> 14        -0.18895
      11 -> 15         0.17849
      12 -> 20        -0.12743
      13 -> 17         0.10090
      13 -> 18         0.23018
      13 -> 19         0.17172
      13 -> 20        -0.26817
      13 -> 22         0.37597
      13 -> 23        -0.22790
 SavETr:  write IOETrn=   770 NScale= 10 NData=  16 NLR=1 NState=   15 LETran=     280.
 The selected state is a singlet
 CISAX will form     1 AO SS matrices at one time.
 NMat=     1 NSing=     1 JSym2X= 0.
 Leave Link  914 at Tue Dec 15 16:24:48 2015, MaxMem=    33554432 cpu:         0.1
 (Enter /home/Applications/g09/g09/l1002.exe)
 Minotr:  Closed shell wavefunction.
          Computing CIS/TD-HF/TD-KS derivatives.
          Using Z-Vector for PSCF gradient.
          Skipping F1 and S1 gradient terms here.
          IDoAtm=111111111
          Direct CPHF calculation.
          Differentiating once with respect to electric field.
                with respect to dipole field.
          Differentiating once with respect to nuclear coordinates.
          Electric field/nuclear overlap derivatives assumed to be zero.
          Requested convergence is 1.0D-10 RMS, and 1.0D-09 maximum.
          NewPWx=T KeepS1=F KeepF1=F KeepIn=T MapXYZ=F SortEE=F KeepMc=T.
          MDV=      33495423 using IRadAn=       0.
 Keep J ints in memory in canonical form, NReq=871704.
 FoFCou: FMM=F IPFlag=           0 FMFlag=           0 FMFlg1=           0
         NFxFlg=           0 DoJE=F BraDBF=F KetDBF=F FulRan=T
         wScrn=  0.000000 ICntrl=     600 IOpCl=  2 I1Cent=           0 NGrid=           0
         NMat0=    1 NMatS0=     54 NMatT0=    0 NMatD0=    1 NMtDS0=    0 NMtDT0=    0
 Symmetry not used in FoFCou.
          Solving linear equations separately, MaxMat=       0.
          There are     1 degrees of freedom in the 1st order CPHF.  IDoFFX=0 NUNeed=     1.
 LinEq1:  Iter=  0 NonCon=     1 RMS=1.14D-02 Max=8.96D-02 NDo=     1
 AX will form     1 AO Fock derivatives at one time.
 LinEq1:  Iter=  1 NonCon=     1 RMS=2.55D-03 Max=1.62D-02 NDo=     1
 LinEq1:  Iter=  2 NonCon=     1 RMS=3.48D-04 Max=2.15D-03 NDo=     1
 LinEq1:  Iter=  3 NonCon=     1 RMS=4.62D-05 Max=2.37D-04 NDo=     1
 LinEq1:  Iter=  4 NonCon=     1 RMS=5.75D-06 Max=2.45D-05 NDo=     1
 LinEq1:  Iter=  5 NonCon=     1 RMS=7.27D-07 Max=2.21D-06 NDo=     1
 LinEq1:  Iter=  6 NonCon=     1 RMS=9.46D-08 Max=4.84D-07 NDo=     1
 LinEq1:  Iter=  7 NonCon=     1 RMS=1.24D-08 Max=5.91D-08 NDo=     1
 LinEq1:  Iter=  8 NonCon=     1 RMS=1.52D-09 Max=5.05D-09 NDo=     1
 LinEq1:  Iter=  9 NonCon=     1 RMS=1.60D-10 Max=4.58D-10 NDo=     1
 LinEq1:  Iter= 10 NonCon=     0 RMS=1.68D-11 Max=4.96D-11 NDo=     1
 Linear equations converged to 1.000D-10 1.000D-09 after    10 iterations.
 End of Minotr F.D. properties file   721 does not exist.
 End of Minotr F.D. properties file   722 does not exist.
 End of Minotr F.D. properties file   788 does not exist.
 Leave Link 1002 at Tue Dec 15 16:24:48 2015, MaxMem=    33554432 cpu:         0.0
 (Enter /home/Applications/g09/g09/l601.exe)
 Copying SCF densities to generalized density rwf, IOpCl= 0 IROHF=0.

 **********************************************************************

            Population analysis using the SCF density.

 **********************************************************************

 Orbital symmetries:
       Occupied  (A) (A) (A) (A) (A) (A) (A) (A) (A) (A) (A) (A)
                 (A)
       Virtual   (A) (A) (A) (A) (A) (A) (A) (A) (A) (A) (A)
 The electronic state is 1-A.
 Alpha  occ. eigenvalues --   -1.61520  -1.23820  -1.12995  -0.84172  -0.80498
 Alpha  occ. eigenvalues --   -0.69786  -0.62506  -0.57444  -0.51948  -0.49527
 Alpha  occ. eigenvalues --   -0.48894  -0.39182  -0.35662
 Alpha virt. eigenvalues --    0.04246   0.06366   0.09296   0.13618   0.15614
 Alpha virt. eigenvalues --    0.16108   0.18096   0.18503   0.19428   0.20656
 Alpha virt. eigenvalues --    0.23454
     Molecular Orbital Coefficients:
                           1         2         3         4         5
                           O         O         O         O         O
     Eigenvalues --    -1.61520  -1.23820  -1.12995  -0.84172  -0.80498
   1 1   C  1S          0.26018  -0.50470  -0.23202   0.34078  -0.27334
   2        1PX         0.07763  -0.06514   0.13046  -0.20841  -0.14351
   3        1PY        -0.10078   0.05609   0.14947  -0.00980  -0.30644
   4        1PZ        -0.00019   0.00031   0.00008  -0.00012   0.01066
   5 2   C  1S          0.33843  -0.22806  -0.49407  -0.07530   0.39994
   6        1PX         0.17628   0.07465  -0.01998  -0.18982  -0.14215
   7        1PY         0.02405  -0.22325   0.00381   0.33501  -0.07052
   8        1PZ        -0.00509  -0.00123   0.00660   0.00922   0.00948
   9 3   O  1S          0.64669   0.56074  -0.12842  -0.04740  -0.27029
  10        1PX        -0.00015   0.07496   0.33476   0.51428  -0.04866
  11        1PY         0.20765  -0.03243   0.06300   0.06381   0.14584
  12        1PZ         0.01281   0.00501   0.00030   0.00622   0.01894
  13 4   C  1S          0.39675  -0.05125   0.51284   0.12562   0.36057
  14        1PX        -0.19550  -0.03094   0.02373  -0.00967   0.16609
  15        1PY        -0.05429  -0.25920   0.06916  -0.37771   0.03336
  16        1PZ        -0.01259  -0.00494  -0.01252  -0.01060   0.00525
  17 5   C  1S          0.26991  -0.42446   0.35353  -0.35256  -0.23491
  18        1PX        -0.04216   0.09010   0.15027  -0.15336   0.24070
  19        1PY        -0.12782   0.03708  -0.10855  -0.03779  -0.24023
  20        1PZ         0.00228  -0.00427   0.00397  -0.00505   0.00775
  21 6   H  1S          0.05534  -0.13508   0.12764  -0.20656  -0.16527
  22 7   H  1S          0.08847  -0.00617   0.20811   0.11038   0.25223
  23 8   H  1S          0.06945  -0.06158  -0.18658  -0.05923   0.26684
  24 9   H  1S          0.05480  -0.16366  -0.08628   0.22181  -0.19139
                           6         7         8         9        10
                           O         O         O         O         O
     Eigenvalues --    -0.69786  -0.62506  -0.57444  -0.51948  -0.49527
   1 1   C  1S         -0.08099   0.00086  -0.18108   0.01375  -0.04039
   2        1PX         0.19922   0.01144   0.08092  -0.24501  -0.15090
   3        1PY        -0.18542   0.02383  -0.10891   0.47465   0.16219
   4        1PZ         0.00901   0.20757   0.00066  -0.02350  -0.03145
   5 2   C  1S         -0.08907   0.00751   0.15195  -0.06592   0.06766
   6        1PX         0.30530  -0.00556  -0.40454  -0.14941   0.23341
   7        1PY         0.16275  -0.02679  -0.04720  -0.37751  -0.11207
   8        1PZ         0.00558   0.35353   0.00593  -0.00905  -0.02209
   9 3   O  1S         -0.21086  -0.00983  -0.03215  -0.04885  -0.17567
  10        1PX        -0.04437   0.01401   0.40948  -0.05968  -0.13265
  11        1PY         0.50173  -0.03690   0.10446   0.18838   0.56118
  12        1PZ         0.03157   0.77091  -0.02858   0.00341   0.02624
  13 4   C  1S         -0.06663   0.00944  -0.13850   0.09271   0.02725
  14        1PX        -0.39088  -0.02288  -0.37935  -0.27764   0.06684
  15        1PY         0.03613  -0.03166  -0.14263   0.18578  -0.31573
  16        1PZ         0.00757   0.42503  -0.03967  -0.00407  -0.01737
  17 5   C  1S         -0.11477   0.01257   0.19219  -0.04228  -0.06006
  18        1PX        -0.16003  -0.01329   0.03272   0.05272   0.10898
  19        1PY        -0.25436   0.03281   0.20555  -0.27704   0.46548
  20        1PZ         0.00867   0.22309  -0.02154   0.00331  -0.03689
  21 6   H  1S         -0.23584   0.02115   0.25166  -0.19762   0.34385
  22 7   H  1S         -0.26610  -0.01307  -0.31070  -0.19534   0.16376
  23 8   H  1S         -0.24788   0.02013   0.33666   0.23285  -0.04713
  24 9   H  1S         -0.20602   0.00168  -0.20104   0.41261   0.16168
                          11        12        13        14        15
                           O         O         O         V         V
     Eigenvalues --    -0.48894  -0.39182  -0.35662   0.04246   0.06366
   1 1   C  1S         -0.03311   0.00585  -0.00445  -0.01079  -0.01007
   2        1PX        -0.51051   0.00270   0.00696   0.00560   0.01202
   3        1PY        -0.22002   0.03615  -0.00840  -0.00841  -0.01349
   4        1PZ         0.02283   0.65954  -0.21595  -0.39463  -0.56223
   5 2   C  1S         -0.03805   0.00315  -0.00485   0.00516   0.00987
   6        1PX         0.03743   0.00870  -0.02434   0.01186   0.01405
   7        1PY         0.33681  -0.01195   0.00517   0.00488  -0.00074
   8        1PZ         0.01347   0.36176  -0.53233   0.57573   0.35641
   9 3   O  1S          0.11671   0.00268   0.00024   0.00501   0.00467
  10        1PX         0.01435  -0.00667   0.00555   0.00083   0.02042
  11        1PY        -0.02484   0.05260   0.01344   0.01010   0.00847
  12        1PZ         0.01092  -0.47462  -0.17672  -0.37420   0.05825
  13 4   C  1S         -0.04381   0.00092   0.02625   0.02691  -0.03624
  14        1PX        -0.14160   0.01061  -0.01352   0.00346   0.00977
  15        1PY         0.26093  -0.00175  -0.01486  -0.00196   0.02460
  16        1PZ         0.01835   0.00143   0.57360   0.53989  -0.43726
  17 5   C  1S         -0.00564  -0.01407  -0.00907  -0.00617  -0.00171
  18        1PX         0.55486  -0.01083  -0.01354  -0.00762   0.00200
  19        1PY        -0.00605   0.02828   0.03019   0.00477   0.00779
  20        1PZ         0.02479   0.45044   0.55327  -0.28150   0.59828
  21 6   H  1S          0.19174   0.00659   0.01209   0.00583  -0.00398
  22 7   H  1S         -0.22307   0.01427  -0.00938  -0.02186   0.02785
  23 8   H  1S         -0.23370   0.00928   0.00850   0.00169  -0.00070
  24 9   H  1S          0.13507   0.00504  -0.00821   0.01207   0.01494
                          16        17        18        19        20
                           V         V         V         V         V
     Eigenvalues --     0.09296   0.13618   0.15614   0.16108   0.18096
   1 1   C  1S          0.05149   0.26995   0.26756  -0.00264   0.30693
   2        1PX        -0.04462   0.35351  -0.25382   0.09921   0.23427
   3        1PY         0.02019   0.06939  -0.04566   0.41210   0.24875
   4        1PZ        -0.00384  -0.00424  -0.01859  -0.01286  -0.01001
   5 2   C  1S         -0.31395  -0.19827  -0.21371   0.33598   0.14653
   6        1PX        -0.34881   0.29850  -0.14396  -0.25639  -0.11638
   7        1PY         0.30061   0.09809  -0.12578   0.12663  -0.17368
   8        1PZ         0.01041  -0.00868   0.01925   0.00008   0.00213
   9 3   O  1S          0.24986   0.01172  -0.02347   0.07507  -0.01264
  10        1PX        -0.15738   0.09572  -0.26672   0.03822   0.09598
  11        1PY         0.43537   0.03714  -0.09047   0.12592  -0.01102
  12        1PZ         0.03952   0.00799   0.00023   0.01670  -0.00858
  13 4   C  1S         -0.23768   0.09505   0.41203   0.18918  -0.23566
  14        1PX         0.10798   0.26295  -0.11435   0.25234  -0.25737
  15        1PY         0.33153   0.01520   0.08295   0.17091   0.06206
  16        1PZ         0.02995  -0.00874  -0.04582  -0.01218   0.02712
  17 5   C  1S          0.01664  -0.23887  -0.30956  -0.01465  -0.26783
  18        1PX        -0.07064   0.40287  -0.30674   0.08529   0.34896
  19        1PY         0.06887   0.00332   0.08155   0.30213  -0.24004
  20        1PZ        -0.02040   0.00232   0.00751  -0.00442  -0.00782
  21 6   H  1S         -0.08183   0.03788   0.34772  -0.29688   0.26439
  22 7   H  1S          0.32487  -0.34081  -0.20838  -0.31653   0.37146
  23 8   H  1S          0.28282   0.47968  -0.00706  -0.36767  -0.25460
  24 9   H  1S         -0.15592  -0.05397  -0.38245  -0.22617  -0.25283
                          21        22        23        24
                           V         V         V         V
     Eigenvalues --     0.18503   0.19428   0.20656   0.23454
   1 1   C  1S         -0.31130   0.15137   0.15893   0.06295
   2        1PX         0.38103   0.06596   0.27728  -0.19008
   3        1PY        -0.01333  -0.31233  -0.40975  -0.13142
   4        1PZ         0.01610   0.00453   0.01160   0.01196
   5 2   C  1S          0.12521  -0.12767  -0.15503   0.09059
   6        1PX        -0.15668  -0.35653  -0.15589   0.28960
   7        1PY         0.22782  -0.32976  -0.29130  -0.35598
   8        1PZ        -0.01028   0.01012   0.00303  -0.02081
   9 3   O  1S          0.05940   0.09207  -0.01288   0.04435
  10        1PX        -0.00599  -0.06634  -0.05245   0.54848
  11        1PY         0.02339   0.26975  -0.03502   0.13687
  12        1PZ         0.01624   0.01356  -0.00240   0.01201
  13 4   C  1S          0.11409  -0.11745   0.15232  -0.12979
  14        1PX         0.04568   0.42823  -0.25807   0.23978
  15        1PY         0.25560  -0.23659   0.18764   0.49894
  16        1PZ        -0.01019   0.00707  -0.00801   0.02656
  17 5   C  1S         -0.35658   0.11995  -0.11807  -0.07689
  18        1PX        -0.21590   0.08277   0.18714  -0.23960
  19        1PY        -0.09038  -0.31755   0.48369   0.06939
  20        1PZ        -0.00960   0.01408  -0.01571  -0.01735
  21 6   H  1S          0.42338   0.11216  -0.30785   0.07100
  22 7   H  1S         -0.04906  -0.26596   0.11227   0.01340
  23 8   H  1S         -0.07144  -0.25956  -0.10965  -0.02876
  24 9   H  1S          0.45994   0.10454   0.25463  -0.05577
     Density Matrix:
                           1         2         3         4         5
   1 1   C  1S          1.21883
   2        1PX        -0.04032   0.96233
   3        1PY         0.06696  -0.03970   0.95568
   4        1PZ         0.00232   0.00365   0.00873   1.05393
   5 2   C  1S          0.32035  -0.09010  -0.50843   0.01326   1.23552
   6        1PX         0.04590   0.15265  -0.04921   0.01569  -0.10879
   7        1PY         0.46984  -0.15405  -0.58733   0.01220  -0.02740
   8        1PZ         0.00381  -0.00230   0.02377   0.85660   0.00753
   9 3   O  1S         -0.00353  -0.04045  -0.00903   0.00852   0.10123
  10        1PX         0.01295  -0.01926  -0.05039   0.00510  -0.36016
  11        1PY        -0.08186  -0.03543   0.04750   0.01515   0.19514
  12        1PZ        -0.00481  -0.00678  -0.00681  -0.23007   0.01856
  13 4   C  1S         -0.02731  -0.01107   0.01522  -0.00810   0.01913
  14        1PX         0.01834  -0.02112  -0.01066   0.00877   0.00327
  15        1PY        -0.01518  -0.08055  -0.03509   0.01514  -0.04048
  16        1PZ         0.00301   0.00114  -0.00579  -0.06708  -0.00388
  17 5   C  1S          0.24597   0.43389   0.09783  -0.01096  -0.03091
  18        1PX        -0.44878  -0.66850  -0.18872   0.00447   0.00139
  19        1PY        -0.02594  -0.03361   0.08876   0.01198   0.02550
  20        1PZ         0.00452   0.00123   0.01124   0.45141  -0.00805
  21 6   H  1S         -0.04336  -0.06223  -0.00933   0.00119   0.04859
  22 7   H  1S          0.04505   0.06783   0.01970   0.00629   0.06004
  23 8   H  1S         -0.05739   0.01331   0.08961  -0.00014   0.60927
  24 9   H  1S          0.58521  -0.53377   0.56323  -0.02076  -0.05655
                           6         7         8         9        10
   6        1PX         0.85811
   7        1PY         0.09097   0.93150
   8        1PZ         0.01185  -0.00579   1.08059
   9 3   O  1S          0.25042  -0.12414  -0.01187   1.83380
  10        1PX        -0.58561   0.35135   0.02365   0.02330   1.15163
  11        1PY         0.42650  -0.08331  -0.02165  -0.30754  -0.04396
  12        1PZ         0.04373  -0.02004   0.38926  -0.02500  -0.00179
  13 4   C  1S          0.01328  -0.03531  -0.01505   0.12510   0.30314
  14        1PX         0.05488  -0.01663   0.00064  -0.22220  -0.28038
  15        1PY         0.02844  -0.01106   0.00427  -0.21267  -0.43625
  16        1PZ        -0.00357   0.00231  -0.30830  -0.01837  -0.02981
  17 5   C  1S         -0.02306  -0.01224   0.00465   0.00231   0.02205
  18        1PX        -0.06453   0.07736   0.00889   0.04401  -0.04570
  19        1PY         0.02412  -0.01852  -0.01006  -0.00671   0.01862
  20        1PZ        -0.01549   0.00789  -0.10324   0.00787  -0.00585
  21 6   H  1S          0.00524   0.04846  -0.00472   0.02239   0.03434
  22 7   H  1S          0.11621  -0.04952   0.00338  -0.05076  -0.03067
  23 8   H  1S         -0.56392  -0.48425   0.00565  -0.04814   0.05518
  24 9   H  1S         -0.03184  -0.05450  -0.00292   0.02615  -0.07029
                          11        12        13        14        15
  11        1PY         1.38294
  12        1PZ        -0.04432   1.70802
  13 4   C  1S          0.32591   0.03440   1.20898
  14        1PX        -0.52058  -0.04417   0.11035   0.93307
  15        1PY        -0.32461  -0.04844   0.01128  -0.07854   0.88770
  16        1PZ        -0.04473   0.45312   0.02361  -0.00943  -0.00251
  17 5   C  1S         -0.09007   0.00374   0.31348  -0.17338   0.44596
  18        1PX         0.00655   0.00791   0.22486   0.03015   0.33128
  19        1PY         0.06337  -0.00488  -0.44555   0.22241  -0.48795
  20        1PZ         0.01195  -0.27851   0.04596  -0.01761   0.01894
  21 6   H  1S          0.09058   0.00500  -0.05434   0.03556  -0.05436
  22 7   H  1S         -0.05743  -0.01377   0.60697   0.69577  -0.26612
  23 8   H  1S         -0.05264  -0.01123   0.04930  -0.07442  -0.06006
  24 9   H  1S          0.07665   0.00866   0.04570  -0.01517   0.05092
                          16        17        18        19        20
  16        1PZ         1.02487
  17 5   C  1S         -0.02096   1.22692
  18        1PX        -0.01355   0.02777   0.92722
  19        1PY         0.03215   0.06675   0.03887   0.98367
  20        1PZ         0.82971  -0.01592  -0.00953   0.01867   1.12284
  21 6   H  1S          0.00442   0.58233   0.35095   0.69636  -0.00142
  22 7   H  1S         -0.02056  -0.05574  -0.02578   0.07263  -0.01412
  23 8   H  1S         -0.00481   0.04924  -0.07106  -0.00875   0.00547
  24 9   H  1S         -0.00348  -0.04475   0.06127   0.01010  -0.00546
                          21        22        23        24
  21 6   H  1S          0.84245
  22 7   H  1S          0.00844   0.81905
  23 8   H  1S         -0.01356  -0.02292   0.80907
  24 9   H  1S         -0.00430  -0.00546   0.01212   0.84129
    Full Mulliken population analysis:
                           1         2         3         4         5
   1 1   C  1S          1.21883
   2        1PX         0.00000   0.96233
   3        1PY         0.00000   0.00000   0.95568
   4        1PZ         0.00000   0.00000   0.00000   1.05393
   5 2   C  1S          0.00000   0.00000   0.00000   0.00000   1.23552
   6        1PX         0.00000   0.00000   0.00000   0.00000   0.00000
   7        1PY         0.00000   0.00000   0.00000   0.00000   0.00000
   8        1PZ         0.00000   0.00000   0.00000   0.00000   0.00000
   9 3   O  1S          0.00000   0.00000   0.00000   0.00000   0.00000
  10        1PX         0.00000   0.00000   0.00000   0.00000   0.00000
  11        1PY         0.00000   0.00000   0.00000   0.00000   0.00000
  12        1PZ         0.00000   0.00000   0.00000   0.00000   0.00000
  13 4   C  1S          0.00000   0.00000   0.00000   0.00000   0.00000
  14        1PX         0.00000   0.00000   0.00000   0.00000   0.00000
  15        1PY         0.00000   0.00000   0.00000   0.00000   0.00000
  16        1PZ         0.00000   0.00000   0.00000   0.00000   0.00000
  17 5   C  1S          0.00000   0.00000   0.00000   0.00000   0.00000
  18        1PX         0.00000   0.00000   0.00000   0.00000   0.00000
  19        1PY         0.00000   0.00000   0.00000   0.00000   0.00000
  20        1PZ         0.00000   0.00000   0.00000   0.00000   0.00000
  21 6   H  1S          0.00000   0.00000   0.00000   0.00000   0.00000
  22 7   H  1S          0.00000   0.00000   0.00000   0.00000   0.00000
  23 8   H  1S          0.00000   0.00000   0.00000   0.00000   0.00000
  24 9   H  1S          0.00000   0.00000   0.00000   0.00000   0.00000
                           6         7         8         9        10
   6        1PX         0.85811
   7        1PY         0.00000   0.93150
   8        1PZ         0.00000   0.00000   1.08059
   9 3   O  1S          0.00000   0.00000   0.00000   1.83380
  10        1PX         0.00000   0.00000   0.00000   0.00000   1.15163
  11        1PY         0.00000   0.00000   0.00000   0.00000   0.00000
  12        1PZ         0.00000   0.00000   0.00000   0.00000   0.00000
  13 4   C  1S          0.00000   0.00000   0.00000   0.00000   0.00000
  14        1PX         0.00000   0.00000   0.00000   0.00000   0.00000
  15        1PY         0.00000   0.00000   0.00000   0.00000   0.00000
  16        1PZ         0.00000   0.00000   0.00000   0.00000   0.00000
  17 5   C  1S          0.00000   0.00000   0.00000   0.00000   0.00000
  18        1PX         0.00000   0.00000   0.00000   0.00000   0.00000
  19        1PY         0.00000   0.00000   0.00000   0.00000   0.00000
  20        1PZ         0.00000   0.00000   0.00000   0.00000   0.00000
  21 6   H  1S          0.00000   0.00000   0.00000   0.00000   0.00000
  22 7   H  1S          0.00000   0.00000   0.00000   0.00000   0.00000
  23 8   H  1S          0.00000   0.00000   0.00000   0.00000   0.00000
  24 9   H  1S          0.00000   0.00000   0.00000   0.00000   0.00000
                          11        12        13        14        15
  11        1PY         1.38294
  12        1PZ         0.00000   1.70802
  13 4   C  1S          0.00000   0.00000   1.20898
  14        1PX         0.00000   0.00000   0.00000   0.93307
  15        1PY         0.00000   0.00000   0.00000   0.00000   0.88770
  16        1PZ         0.00000   0.00000   0.00000   0.00000   0.00000
  17 5   C  1S          0.00000   0.00000   0.00000   0.00000   0.00000
  18        1PX         0.00000   0.00000   0.00000   0.00000   0.00000
  19        1PY         0.00000   0.00000   0.00000   0.00000   0.00000
  20        1PZ         0.00000   0.00000   0.00000   0.00000   0.00000
  21 6   H  1S          0.00000   0.00000   0.00000   0.00000   0.00000
  22 7   H  1S          0.00000   0.00000   0.00000   0.00000   0.00000
  23 8   H  1S          0.00000   0.00000   0.00000   0.00000   0.00000
  24 9   H  1S          0.00000   0.00000   0.00000   0.00000   0.00000
                          16        17        18        19        20
  16        1PZ         1.02487
  17 5   C  1S          0.00000   1.22692
  18        1PX         0.00000   0.00000   0.92722
  19        1PY         0.00000   0.00000   0.00000   0.98367
  20        1PZ         0.00000   0.00000   0.00000   0.00000   1.12284
  21 6   H  1S          0.00000   0.00000   0.00000   0.00000   0.00000
  22 7   H  1S          0.00000   0.00000   0.00000   0.00000   0.00000
  23 8   H  1S          0.00000   0.00000   0.00000   0.00000   0.00000
  24 9   H  1S          0.00000   0.00000   0.00000   0.00000   0.00000
                          21        22        23        24
  21 6   H  1S          0.84245
  22 7   H  1S          0.00000   0.81905
  23 8   H  1S          0.00000   0.00000   0.80907
  24 9   H  1S          0.00000   0.00000   0.00000   0.84129
     Gross orbital populations:
                           1
   1 1   C  1S          1.21883
   2        1PX         0.96233
   3        1PY         0.95568
   4        1PZ         1.05393
   5 2   C  1S          1.23552
   6        1PX         0.85811
   7        1PY         0.93150
   8        1PZ         1.08059
   9 3   O  1S          1.83380
  10        1PX         1.15163
  11        1PY         1.38294
  12        1PZ         1.70802
  13 4   C  1S          1.20898
  14        1PX         0.93307
  15        1PY         0.88770
  16        1PZ         1.02487
  17 5   C  1S          1.22692
  18        1PX         0.92722
  19        1PY         0.98367
  20        1PZ         1.12284
  21 6   H  1S          0.84245
  22 7   H  1S          0.81905
  23 8   H  1S          0.80907
  24 9   H  1S          0.84129
          Condensed to atoms (all electrons):
               1          2          3          4          5          6
     1  C    4.190768   0.000000   0.000000   0.000000   0.000000   0.000000
     2  C    0.000000   4.105717   0.000000   0.000000   0.000000   0.000000
     3  O    0.000000   0.000000   6.076384   0.000000   0.000000   0.000000
     4  C    0.000000   0.000000   0.000000   4.054616   0.000000   0.000000
     5  C    0.000000   0.000000   0.000000   0.000000   4.260651   0.000000
     6  H    0.000000   0.000000   0.000000   0.000000   0.000000   0.842451
     7  H    0.000000   0.000000   0.000000   0.000000   0.000000   0.000000
     8  H    0.000000   0.000000   0.000000   0.000000   0.000000   0.000000
     9  H    0.000000   0.000000   0.000000   0.000000   0.000000   0.000000
               7          8          9
     1  C    0.000000   0.000000   0.000000
     2  C    0.000000   0.000000   0.000000
     3  O    0.000000   0.000000   0.000000
     4  C    0.000000   0.000000   0.000000
     5  C    0.000000   0.000000   0.000000
     6  H    0.000000   0.000000   0.000000
     7  H    0.819047   0.000000   0.000000
     8  H    0.000000   0.809074   0.000000
     9  H    0.000000   0.000000   0.841291
 Mulliken charges:
               1
     1  C   -0.190768
     2  C   -0.105717
     3  O   -0.076384
     4  C   -0.054616
     5  C   -0.260651
     6  H    0.157549
     7  H    0.180953
     8  H    0.190926
     9  H    0.158709
 Sum of Mulliken charges =   0.00000
 Mulliken charges with hydrogens summed into heavy atoms:
               1
     1  C   -0.032059
     2  C    0.085209
     3  O   -0.076384
     4  C    0.126337
     5  C   -0.103102
 Charge=              0.0000 electrons
 Dipole moment (field-independent basis, Debye):
    X=             -0.1281    Y=              0.1761    Z=             -0.0393  Tot=              0.2213
 N-N= 1.044866244362D+02 E-N=-1.726364439421D+02  KE=-1.668955928652D+01
 Orbital energies and kinetic energies (alpha):
                                 1                 2
   1         O                -1.615196         -1.347464
   2         O                -1.238201         -1.051372
   3         O                -1.129949         -0.979484
   4         O                -0.841723         -0.709625
   5         O                -0.804984         -0.722464
   6         O                -0.697864         -0.608712
   7         O                -0.625057         -0.502778
   8         O                -0.574436         -0.512450
   9         O                -0.519482         -0.444273
  10         O                -0.495269         -0.403279
  11         O                -0.488939         -0.408786
  12         O                -0.391824         -0.337912
  13         O                -0.356617         -0.316180
  14         V                 0.042464         -0.183936
  15         V                 0.063661         -0.189864
  16         V                 0.092964         -0.188708
  17         V                 0.136181         -0.209003
  18         V                 0.156143         -0.199170
  19         V                 0.161080         -0.185141
  20         V                 0.180956         -0.186435
  21         V                 0.185029         -0.192922
  22         V                 0.194283         -0.111203
  23         V                 0.206557         -0.123739
  24         V                 0.234538         -0.025512
 Total kinetic energy from orbitals=-1.668955928652D+01
 Leave Link  601 at Tue Dec 15 16:24:48 2015, MaxMem=    33554432 cpu:         0.0
 (Enter /home/Applications/g09/g09/l701.exe)
 Compute integral first derivatives.
 ... and contract with generalized density number  6.
 Leave Link  701 at Tue Dec 15 16:24:48 2015, MaxMem=    33554432 cpu:         0.0
 (Enter /home/Applications/g09/g09/l702.exe)
 L702 exits ... SP integral derivatives will be done elsewhere.
 Leave Link  702 at Tue Dec 15 16:24:48 2015, MaxMem=    33554432 cpu:         0.0
 (Enter /home/Applications/g09/g09/l703.exe)
 Compute integral first derivatives, UseDBF=F ICtDFT=           0.
 Integral derivatives from FoFJK, PRISM(SPDF).
 Calling FoFJK, ICntrl=  10005127 FMM=F ISym2X=0 I1Cent= 0 IOpClX= 0 NMat=1 NMatS=1 NMatT=0.
 FoFJK:  IHMeth= 8 ICntrl=10005127 DoSepK=F KAlg= 0 I1Cent=   0 FoldK=F
 IRaf=         0 NMat=   1 IRICut=       1 DoRegI=T DoRafI=F ISym2E= 0.
 FoFCou: FMM=F IPFlag=           0 FMFlag=      100000 FMFlg1=         800
         NFxFlg=           0 DoJE=F BraDBF=F KetDBF=F FulRan=T
         wScrn=  0.000000 ICntrl=10005127 IOpCl=  0 I1Cent=           0 NGrid=           0
         NMat0=    1 NMatS0=      1 NMatT0=    0 NMatD0=    1 NMtDS0=    0 NMtDT0=    0
 Symmetry not used in FoFCou.
 Leave Link  703 at Tue Dec 15 16:24:48 2015, MaxMem=    33554432 cpu:         0.0
 (Enter /home/Applications/g09/g09/l716.exe)
 Dipole        = 1.28635635D-01 1.90347191D-01-2.96276649D-03
 ***** Axes restored to original set *****
 -------------------------------------------------------------------
 Center     Atomic                   Forces (Hartrees/Bohr)
 Number     Number              X              Y              Z
 -------------------------------------------------------------------
      1        6           0.136296868    0.074857023    0.004893581
      2        6          -0.076830392   -0.100606772   -0.002422317
      3        8          -0.200675010   -0.073687902    0.009461937
      4        6          -0.022661766    0.140531264   -0.002560470
      5        6           0.166295442   -0.075554075   -0.004325057
      6        1           0.009185253    0.005261299    0.000892598
      7        1          -0.022370881    0.037433179   -0.002894816
      8        1          -0.008392107   -0.000292314   -0.001772426
      9        1           0.019152592   -0.007941702   -0.001273030
 -------------------------------------------------------------------
 Cartesian Forces:  Max     0.200675010 RMS     0.072572643
 Z-matrix is all fixed cartesians, so copy forces.
 Force constants in Cartesian coordinates: 
                1             2             3             4             5 
      1  0.103322D+01
      2 -0.165205D-01  0.743775D+00
      3  0.159156D-01 -0.489209D-03  0.212737D+00
      4 -0.613139D+00 -0.127811D+00 -0.535041D-02  0.101528D+01
      5 -0.104401D+00 -0.229757D+00 -0.268753D-02  0.587586D-01  0.893092D+00
      6 -0.165312D-02 -0.230490D-02 -0.120771D+00 -0.717356D-02  0.204101D-01
      7 -0.852053D-02  0.310486D-01  0.207004D-02 -0.263735D+00  0.149493D+00
      8 -0.573360D-02  0.209631D-01  0.460319D-03  0.197071D+00 -0.374619D+00
      9  0.209040D-03 -0.390041D-03  0.534037D-02  0.141660D-01 -0.139099D-01
     10  0.901781D-02  0.655633D-04  0.248422D-03  0.266140D-01  0.181045D-01
     11  0.343395D-01  0.189317D-03  0.255276D-02 -0.192989D-01 -0.131352D-01
     12  0.770664D-03  0.142584D-03 -0.172029D-03 -0.197166D-02 -0.142471D-02
     13 -0.155159D+00  0.131506D-01 -0.213500D-02  0.950332D-02 -0.346673D-01
     14 -0.100028D-01 -0.337864D+00 -0.479957D-02  0.222586D-04 -0.218054D-03
     15 -0.206935D-02 -0.435681D-02 -0.689984D-01 -0.419370D-03 -0.374219D-03
     16  0.160666D-01  0.102457D-03 -0.913990D-04  0.000000D+00  0.000000D+00
     17 -0.230347D-01 -0.145570D-03  0.120815D-04  0.000000D+00  0.000000D+00
     18 -0.699044D-03 -0.145867D-03  0.127189D-01 -0.113965D-04 -0.262323D-04
     19  0.130380D-04  0.444382D-05 -0.392166D-03  0.696011D-04  0.547310D-05
     20  0.207639D-04  0.707708D-05 -0.624550D-03 -0.562570D-05  0.000000D+00
     21 -0.250144D-03 -0.852581D-04  0.752401D-02  0.664209D-03  0.522302D-04
     22  0.734785D-02 -0.268252D-01 -0.226365D-03 -0.169566D+00 -0.105710D+00
     23 -0.397357D-02  0.145199D-01 -0.341778D-03 -0.101876D+00 -0.300417D+00
     24 -0.424885D-03  0.493257D-03  0.366891D-01  0.425099D-03 -0.228208D-02
     25 -0.288852D+00  0.126785D+00 -0.100388D-01 -0.503039D-02  0.184162D-01
     26  0.129306D+00 -0.211687D+00  0.591748D-02 -0.686065D-02  0.250540D-01
     27 -0.117988D-01  0.713625D-02 -0.850679D-01 -0.328913D-03  0.242301D-03
                6             7             8             9            10 
      6  0.222300D+00
      7  0.136905D-01  0.608779D+00
      8 -0.167716D-01  0.114929D+00  0.883159D+00
      9 -0.548501D-01 -0.413869D-01 -0.142241D-01  0.756449D-01
     10 -0.313130D-02 -0.374139D+00 -0.309515D+00  0.314471D-01  0.109916D+01
     11  0.245726D-02 -0.262816D+00 -0.536277D+00  0.307541D-01  0.586488D-01
     12  0.536309D-03  0.263445D-01  0.305156D-01 -0.602779D-01 -0.190986D-01
     13 -0.487231D-03 -0.865869D-02  0.618171D-02 -0.764367D-03 -0.582958D+00
     14 -0.467224D-03 -0.325014D-01  0.233164D-01 -0.124426D-02  0.115919D+00
     15 -0.373056D-02  0.326628D-02 -0.115293D-02  0.983165D-02 -0.195763D-01
     16  0.288350D-05  0.224583D-05 -0.158007D-04 -0.211715D-03 -0.456984D-02
     17 -0.261422D-04 -0.233624D-05  0.164369D-04  0.220238D-03  0.657026D-02
     18  0.235222D-02 -0.945433D-04  0.665168D-03  0.891261D-02 -0.177388D-02
     19  0.829879D-03  0.243350D-01 -0.177303D-01 -0.306671D-02 -0.173143D+00
     20 -0.670773D-04  0.117095D-01 -0.854087D-02 -0.161630D-02  0.110218D+00
     21  0.791960D-02 -0.256697D-02  0.203204D-02  0.273829D-02  0.115505D-01
     22 -0.446620D-03  0.219383D-01  0.148046D-01 -0.233319D-03  0.127139D-04
     23 -0.318418D-02 -0.118626D-01 -0.800257D-02  0.732869D-04 -0.121296D-04
     24 -0.869965D-01 -0.136423D-02 -0.112933D-02  0.419213D-02  0.414403D-03
     25 -0.163143D-02  0.000000D+00  0.742707D-05 -0.159152D-03  0.453520D-05
     26 -0.462499D-04  0.164432D-05 -0.157223D-04  0.336907D-03  0.000000D+00
     27  0.332395D-01  0.413298D-04 -0.395178D-03  0.846810D-02 -0.802688D-04
               11            12            13            14            15 
     11  0.109879D+01
     12 -0.193765D-01  0.228580D+00
     13  0.915709D-01 -0.152365D-01  0.998167D+00
     14 -0.223720D+00  0.423329D-02  0.173997D-01  0.722941D+00
     15  0.701604D-02 -0.117939D+00  0.178752D-01 -0.295069D-03  0.208119D+00
     16 -0.173850D-01 -0.279550D-03 -0.285037D+00 -0.119149D+00 -0.116435D-02
     17  0.249623D-01  0.116071D-03 -0.120021D+00 -0.197859D+00 -0.101824D-02
     18 -0.323741D-02  0.304447D-01  0.258410D-03  0.623996D-03 -0.814118D-01
     19  0.114938D+00  0.945597D-02  0.737539D-02  0.282101D-01  0.177363D-02
     20 -0.350806D+00 -0.140340D-01  0.352817D-02  0.132739D-01 -0.107463D-02
     21 -0.201715D-01 -0.885272D-01 -0.422198D-03  0.217903D-02  0.329139D-01
     22  0.000000D+00  0.151593D-03  0.000000D+00  0.000000D+00 -0.426148D-04
     23  0.000000D+00 -0.144626D-03  0.000000D+00  0.000000D+00 -0.805492D-04
     24  0.325867D-04  0.494108D-02 -0.396684D-04 -0.913083D-04  0.818750D-02
     25  0.154576D-05 -0.136413D-03  0.167664D-01  0.101890D-03  0.356908D-03
     26  0.000000D+00 -0.277129D-04  0.228572D-01  0.129452D-03  0.133641D-02
     27 -0.273585D-04  0.241438D-02  0.951320D-03 -0.138877D-03  0.130272D-01
               16            17            18            19            20 
     16  0.273554D+00
     17  0.136473D+00  0.172998D+00
     18  0.143459D-02  0.983646D-03  0.436862D-01
     19 -0.163570D-04  0.170156D-04  0.688587D-03  0.141367D+00
     20 -0.260497D-04  0.270984D-04  0.109662D-02 -0.125445D+00  0.346039D+00
     21  0.313823D-03 -0.326457D-03 -0.132111D-01 -0.928919D-02  0.163199D-01
     22  0.000000D+00  0.000000D+00  0.000000D+00  0.000000D+00  0.000000D+00
     23  0.000000D+00  0.000000D+00  0.000000D+00  0.000000D+00  0.000000D+00
     24  0.000000D+00  0.000000D+00  0.000000D+00  0.000000D+00  0.000000D+00
     25  0.000000D+00 -0.219260D-05  0.197286D-03  0.000000D+00  0.000000D+00
     26  0.000000D+00  0.000000D+00  0.400796D-04  0.000000D+00  0.000000D+00
     27 -0.428043D-05  0.388070D-04 -0.349177D-02  0.000000D+00  0.000000D+00
               21            22            23            24            25 
     21  0.506425D-01
     22  0.000000D+00  0.140269D+00
     23  0.000000D+00  0.117726D+00  0.293894D+00
     24  0.000000D+00  0.723803D-03  0.353888D-02  0.471125D-01
     25  0.000000D+00 -0.138180D-05 -0.261184D-05  0.265483D-03  0.277113D+00
     26  0.000000D+00  0.292513D-05  0.552900D-05 -0.562001D-03 -0.145308D+00
     27  0.000000D+00  0.735227D-04  0.138970D-03 -0.141258D-01  0.111461D-01
               26            27 
     26  0.186514D+00
     27 -0.699491D-02  0.455362D-01
 Leave Link  716 at Tue Dec 15 16:24:48 2015, MaxMem=    33554432 cpu:         0.0
 (Enter /home/Applications/g09/g09/l103.exe)

 GradGradGradGradGradGradGradGradGradGradGradGradGradGradGradGradGradGrad
 Berny optimization.
 Search for a local minimum.
 Step number   1 out of a maximum of    2
 All quantities printed in internal units (Hartrees-Bohrs-Radians)
 Second derivative matrix not updated -- first step.
 ITU=  0
     Eigenvalues ---    0.01841   0.03761   0.07106   0.07755   0.08180
     Eigenvalues ---    0.10200   0.13182   0.14667   0.16778   0.26214
     Eigenvalues ---    0.27962   0.35994   0.41316   0.45862   0.65887
     Eigenvalues ---    0.87637   1.09637   1.32342   1.64363   1.75456
     Eigenvalues ---    1.93689
 Quadratic step=6.431D-01 exceeds max=3.000D-01 adjusted using Lamda=-4.059D-01.
 Angle between NR and scaled steps=  24.24 degrees.
 Angle between quadratic step and forces=  24.43 degrees.
 Linear search not attempted -- first point.
 TrRot= -0.009043 -0.003987  0.000803  0.000242  0.000039  0.000242
 MatCor failed.
 Variable       Old X    -DE/DX   Delta X   Delta X   Delta X     New X
                                 (Linear)    (Quad)   (Total)
    X1        1.73222   0.13630   0.00000   0.10461   0.09624   1.82845
    Y1       -1.42193   0.07486   0.00000   0.03790   0.03480  -1.38713
    Z1       -0.04291   0.00489   0.00000   0.00519   0.00592  -0.03699
    X2       -0.65488  -0.07683   0.00000  -0.03425  -0.04227  -0.69715
    Y2       -2.07563  -0.10061   0.00000  -0.05001  -0.05433  -2.12996
    Z2       -0.06177  -0.00242   0.00000   0.00080   0.00163  -0.06014
    X3       -2.10561  -0.20068   0.00000  -0.18340  -0.19246  -2.29807
    Y3        0.07583  -0.07369   0.00000  -0.02850  -0.03360   0.04223
    Z3        0.04572   0.00946   0.00000   0.00081   0.00170   0.04742
    X4       -0.70254  -0.02266   0.00000  -0.01914  -0.02919  -0.73173
    Y4        2.02414   0.14053   0.00000   0.05751   0.05318   2.07732
    Z4       -0.08481  -0.00256   0.00000   0.00852   0.00935  -0.07546
    X5        1.71448   0.16630   0.00000   0.13328   0.12358   1.83806
    Y5        1.38762  -0.07555   0.00000  -0.03823  -0.04132   1.34630
    Z5       -0.01166  -0.00433   0.00000  -0.00859  -0.00786  -0.01953
    X6        3.37746   0.00919   0.00000   0.06310   0.05282   3.43028
    Y6        2.54722   0.00526   0.00000   0.01161   0.00929   2.55651
    Z6       -0.00081   0.00089   0.00000  -0.00094  -0.00027  -0.00108
    X7       -1.54824  -0.02237   0.00000  -0.02861  -0.03953  -1.58778
    Y7        3.80444   0.03743   0.00000   0.07907   0.07432   3.87876
    Z7        0.01889  -0.00289   0.00000  -0.00564  -0.00478   0.01411
    X8       -1.62834  -0.00839   0.00000  -0.01827  -0.02543  -1.65377
    Y8       -3.87330  -0.00029   0.00000  -0.02569  -0.03048  -3.90378
    Z8       -0.08452  -0.00177   0.00000  -0.00510  -0.00423  -0.08875
    X9        3.34545   0.01915   0.00000   0.06403   0.05625   3.40170
    Y9       -2.60850  -0.00794   0.00000  -0.00954  -0.01188  -2.62038
    Z9        0.03462  -0.00127   0.00000  -0.00213  -0.00146   0.03315
         Item               Value     Threshold  Converged?
 Maximum Force            0.200675     0.000450     NO 
 RMS     Force            0.072573     0.000300     NO 
 Maximum Displacement     0.192463     0.001800     NO 
 RMS     Displacement     0.057451     0.001200     NO 
 Predicted change in Energy=-6.977155D-02
 GradGradGradGradGradGradGradGradGradGradGradGradGradGradGradGradGradGrad

 Leave Link  103 at Tue Dec 15 16:24:48 2015, MaxMem=    33554432 cpu:         0.0
 (Enter /home/Applications/g09/g09/l9999.exe)
 1\1\GINC-DUSTIN-DESKTOP\Force\RAM1-FC\STO-3G\C4H4O1\DUSTIN\15-Dec-2015
 \0\\#P AM1(Input,print) CIS(Singlets,NStates=15) pop(full) force\\AM1-
 Reparam Input\\0,1\C,0.916649,-0.752452,-0.022707\C,-0.346548,-1.09837
 8,-0.032685\O,-1.11424,0.040126,0.024192\C,-0.371766,1.071128,-0.04487
 8\C,0.907262,0.734299,-0.006172\H,1.787277,1.347929,-0.000431\H,-0.819
 295,2.013223,0.009997\H,-0.86168,-2.049664,-0.044725\H,1.770334,-1.380
 361,0.018319\\Version=ES64L-G09RevD.01\State=1-A\HF=0.0440833\RMSD=5.6
 03e-09\RMSF=7.257e-02\Dipole=0.1700145,0.1545204,0.0025415\PG=C01 [X(C
 4H4O1)]\\@


    WHAT WE HAVE LEARNED
 IS LIKE A HANDFUL OF EARTH;
  WHAT WE HAVE YET TO LEARN
   IS LIKE THE WHOLE WORLD.

         -- AVVAYIAR
 Job cpu time:       0 days  0 hours  0 minutes  0.6 seconds.
 File lengths (MBytes):  RWF=      7 Int=      0 D2E=      0 Chk=      2 Scr=      1
 Normal termination of Gaussian 09 at Tue Dec 15 16:24:49 2015.
