 Entering Gaussian System, Link 0=g09
 Input=FuranAM1_6.com
 Output=FuranAM1_6.log
 Initial command:
 /home/Applications/g09/g09/l1.exe "/home/Applications/g09/scratch/Gau-5466.inp" -scrdir="/home/Applications/g09/scratch/"
 Entering Link 1 = /home/Applications/g09/g09/l1.exe PID=      5468.
  
 Copyright (c) 1988,1990,1992,1993,1995,1998,2003,2009,2013,
            Gaussian, Inc.  All Rights Reserved.
  
 This is part of the Gaussian(R) 09 program.  It is based on
 the Gaussian(R) 03 system (copyright 2003, Gaussian, Inc.),
 the Gaussian(R) 98 system (copyright 1998, Gaussian, Inc.),
 the Gaussian(R) 94 system (copyright 1995, Gaussian, Inc.),
 the Gaussian 92(TM) system (copyright 1992, Gaussian, Inc.),
 the Gaussian 90(TM) system (copyright 1990, Gaussian, Inc.),
 the Gaussian 88(TM) system (copyright 1988, Gaussian, Inc.),
 the Gaussian 86(TM) system (copyright 1986, Carnegie Mellon
 University), and the Gaussian 82(TM) system (copyright 1983,
 Carnegie Mellon University). Gaussian is a federally registered
 trademark of Gaussian, Inc.
  
 This software contains proprietary and confidential information,
 including trade secrets, belonging to Gaussian, Inc.
  
 This software is provided under written license and may be
 used, copied, transmitted, or stored only in accord with that
 written license.
  
 The following legend is applicable only to US Government
 contracts under FAR:
  
                    RESTRICTED RIGHTS LEGEND
  
 Use, reproduction and disclosure by the US Government is
 subject to restrictions as set forth in subparagraphs (a)
 and (c) of the Commercial Computer Software - Restricted
 Rights clause in FAR 52.227-19.
  
 Gaussian, Inc.
 340 Quinnipiac St., Bldg. 40, Wallingford CT 06492
  
  
 ---------------------------------------------------------------
 Warning -- This program may not be used in any manner that
 competes with the business of Gaussian, Inc. or will provide
 assistance to any competitor of Gaussian, Inc.  The licensee
 of this program is prohibited from giving any competitor of
 Gaussian, Inc. access to this program.  By using this program,
 the user acknowledges that Gaussian, Inc. is engaged in the
 business of creating and licensing software in the field of
 computational chemistry and represents and warrants to the
 licensee that it is not a competitor of Gaussian, Inc. and that
 it will not use this program in any manner prohibited above.
 ---------------------------------------------------------------
  

 Cite this work as:
 Gaussian 09, Revision D.01,
 M. J. Frisch, G. W. Trucks, H. B. Schlegel, G. E. Scuseria, 
 M. A. Robb, J. R. Cheeseman, G. Scalmani, V. Barone, B. Mennucci, 
 G. A. Petersson, H. Nakatsuji, M. Caricato, X. Li, H. P. Hratchian, 
 A. F. Izmaylov, J. Bloino, G. Zheng, J. L. Sonnenberg, M. Hada, 
 M. Ehara, K. Toyota, R. Fukuda, J. Hasegawa, M. Ishida, T. Nakajima, 
 Y. Honda, O. Kitao, H. Nakai, T. Vreven, J. A. Montgomery, Jr., 
 J. E. Peralta, F. Ogliaro, M. Bearpark, J. J. Heyd, E. Brothers, 
 K. N. Kudin, V. N. Staroverov, T. Keith, R. Kobayashi, J. Normand, 
 K. Raghavachari, A. Rendell, J. C. Burant, S. S. Iyengar, J. Tomasi, 
 M. Cossi, N. Rega, J. M. Millam, M. Klene, J. E. Knox, J. B. Cross, 
 V. Bakken, C. Adamo, J. Jaramillo, R. Gomperts, R. E. Stratmann, 
 O. Yazyev, A. J. Austin, R. Cammi, C. Pomelli, J. W. Ochterski, 
 R. L. Martin, K. Morokuma, V. G. Zakrzewski, G. A. Voth, 
 P. Salvador, J. J. Dannenberg, S. Dapprich, A. D. Daniels, 
 O. Farkas, J. B. Foresman, J. V. Ortiz, J. Cioslowski, 
 and D. J. Fox, Gaussian, Inc., Wallingford CT, 2013.
 
 ******************************************
 Gaussian 09:  ES64L-G09RevD.01 24-Apr-2013
                15-Dec-2015 
 ******************************************
 ------------------------------------------------------------
 #P AM1(Input,print) CIS(Singlets,NStates=15) pop(full) force
 ------------------------------------------------------------
 1/10=7,30=1,38=1/1,3;
 2/12=2,17=6,18=5,40=1/2;
 3/5=2,16=1,25=1,41=700000,71=1,135=100,136=1/1,2,8,3;
 4/35=1/1;
 5/5=2,35=1,38=5/2;
 8/6=1,10=1,108=15/1;
 9/15=2,41=15,42=1,48=1,49=10/14;
 10/5=4/2;
 6/7=3,18=1/1;
 7/12=6,13=5,29=1/1,2,3,16;
 1/10=7,30=1/3;
 99//99;
 Leave Link    1 at Tue Dec 15 16:11:16 2015, MaxMem=           0 cpu:         0.0
 (Enter /home/Applications/g09/g09/l101.exe)
 -----------------
 AM1-Reparam Input
 -----------------
 Symbolic Z-matrix:
 Charge =  0 Multiplicity = 1
 6                     0.90695  -0.76573   0.00223 
 6                    -0.30982  -1.10083  -0.01064 
 8                    -1.18407  -0.0321   -0.00445 
 6                    -0.35246   1.05901   0.04003 
 6                     0.98473   0.68289   0.04624 
 1                     1.76092   1.38462  -0.03341 
 1                    -0.82071   2.00099  -0.03387 
 1                    -0.82681  -2.08226  -0.01846 
 1                     1.78166  -1.40814   0.02283 
 
 NAtoms=      9 NQM=        9 NQMF=       0 NMMI=      0 NMMIF=      0
                NMic=       0 NMicF=      0.
                    Isotopes and Nuclear Properties:
 (Nuclear quadrupole moments (NQMom) in fm**2, nuclear magnetic moments (NMagM)
  in nuclear magnetons)

  Atom         1           2           3           4           5           6           7           8           9
 IAtWgt=          12          12          16          12          12           1           1           1           1
 AtmWgt=  12.0000000  12.0000000  15.9949146  12.0000000  12.0000000   1.0078250   1.0078250   1.0078250   1.0078250
 NucSpn=           0           0           0           0           0           1           1           1           1
 AtZEff=   0.0000000   0.0000000   0.0000000   0.0000000   0.0000000   0.0000000   0.0000000   0.0000000   0.0000000
 NQMom=    0.0000000   0.0000000   0.0000000   0.0000000   0.0000000   0.0000000   0.0000000   0.0000000   0.0000000
 NMagM=    0.0000000   0.0000000   0.0000000   0.0000000   0.0000000   2.7928460   2.7928460   2.7928460   2.7928460
 AtZNuc=   6.0000000   6.0000000   8.0000000   6.0000000   6.0000000   1.0000000   1.0000000   1.0000000   1.0000000
 Leave Link  101 at Tue Dec 15 16:11:16 2015, MaxMem=    33554432 cpu:         0.0
 (Enter /home/Applications/g09/g09/l103.exe)

 GradGradGradGradGradGradGradGradGradGradGradGradGradGradGradGradGradGrad
 Berny optimization.
 Initialization pass.
 Trust Radius=3.00D-01 FncErr=1.00D-07 GrdErr=1.00D-07
 Number of steps in this run=      2 maximum allowed number of steps=      2.
 GradGradGradGradGradGradGradGradGradGradGradGradGradGradGradGradGradGrad

 Leave Link  103 at Tue Dec 15 16:11:16 2015, MaxMem=    33554432 cpu:         0.0
 (Enter /home/Applications/g09/g09/l202.exe)
                          Input orientation:                          
 ---------------------------------------------------------------------
 Center     Atomic      Atomic             Coordinates (Angstroms)
 Number     Number       Type             X           Y           Z
 ---------------------------------------------------------------------
      1          6           0        0.906946   -0.765733    0.002229
      2          6           0       -0.309815   -1.100827   -0.010638
      3          8           0       -1.184065   -0.032097   -0.004452
      4          6           0       -0.352461    1.059009    0.040034
      5          6           0        0.984734    0.682890    0.046241
      6          1           0        1.760921    1.384623   -0.033405
      7          1           0       -0.820712    2.000993   -0.033865
      8          1           0       -0.826806   -2.082259   -0.018456
      9          1           0        1.781664   -1.408137    0.022833
 ---------------------------------------------------------------------
                    Distance matrix (angstroms):
                    1          2          3          4          5
     1  C    0.000000
     2  C    1.262126   0.000000
     3  O    2.215986   1.380773   0.000000
     4  C    2.217480   2.160851   1.372609   0.000000
     5  C    1.451377   2.204708   2.284177   1.389098   0.000000
     6  H    2.313995   3.235109   3.268161   2.139580   1.049399
     7  H    3.262036   3.143699   2.065513   1.054540   2.236839
     8  H    2.177054   1.109301   2.081104   3.177419   3.306344
     9  H    1.085467   2.114201   3.269523   3.262146   2.237865
                    6          7          8          9
     6  H    0.000000
     7  H    2.654193   0.000000
     8  H    4.326179   4.083286   0.000000
     9  H    2.793403   4.289259   2.694487   0.000000
 Stoichiometry    C4H4O
 Framework group  C1[X(C4H4O)]
 Deg. of freedom    21
 Full point group                 C1      NOp   1
 Largest Abelian subgroup         C1      NOp   1
 Largest concise Abelian subgroup C1      NOp   1
                         Standard orientation:                         
 ---------------------------------------------------------------------
 Center     Atomic      Atomic             Coordinates (Angstroms)
 Number     Number       Type             X           Y           Z
 ---------------------------------------------------------------------
      1          6           0       -0.743460    0.905586    0.007329
      2          6           0       -1.067291   -0.314285    0.004573
      3          8           0        0.009564   -1.178529    0.003626
      4          6           0        1.093313   -0.336497   -0.019341
      5          6           0        0.704809    0.997165   -0.017738
      6          1           0        1.398201    1.779010    0.077998
      7          1           0        2.038640   -0.796708    0.062001
      8          1           0       -2.043865   -0.840370   -0.004796
      9          1           0       -1.393711    1.774489   -0.013147
 ---------------------------------------------------------------------
 Rotational constants (GHZ):      9.5452644      9.3206008      4.7173791
 Leave Link  202 at Tue Dec 15 16:11:16 2015, MaxMem=    33554432 cpu:         0.0
 (Enter /home/Applications/g09/g09/l301.exe)

 Semi-emprical parameters in input format:
 Method=8 CoreType=1 PeptideFC=0.0114510000 RIJScale=0.5291770000
 ****
 H       
 PQN=1 NValence=1 F0ss=0.4721550000 ZetaOverlap=1.1880780000 U=-0.4188110000
 Beta=-0.2268830000 CoreKO=1.0589200000 KON=0,0,0,1.0589200000 KON=1,0,1,1.0589200000
 KON=0,1,1,1.0589200000 KON=2,1,1,1.0589200000 EISol=-0.4188110042 EHeat=0.0830298228
 Alpha=1.5252600000
 GCore=0.0085280000,1.4001430000,2.2676710000
 GCore=0.0003530000,1.4001430000,3.4015070000
 GCore=-0.0012730000,0.5600570000,3.9684250000
 ****
 C       
 PQN=2,2 NValence=4 F0ss=0.4494440000 F0sp=0.4215150000 F0pp=0.3768030000 F2pp=0.1898720000
 G1sp=0.2679030000
 ZetaOverlap=1.8086650000,1.6851160000
 U=-1.9120180000,-1.4557970000
 Beta=-0.5775440000,-0.2836780000 DDN=0,1,0.8236740000 DDN=1,1,0.7268010000
 CoreKO=1.1124280000 KON=0,0,0,1.1124280000 KON=1,0,1,0.8219700000 KON=0,1,1,1.1124280000
 KON=2,1,1,0.7783930000 EISol=-4.4398989268 EHeat=0.2723305520 Alpha=1.4014060000
 DipHyp=1.6472532266
 GCore=0.0007890000,1.4001430000,3.0235620000
 GCore=0.0031890000,1.4001430000,3.4959930000
 GCore=-0.0013930000,1.4001430000,3.8739390000
 GCore=-0.0000880000,1.4001430000,5.0077740000
 ****
 O       
 PQN=2,2 NValence=6 F0ss=0.5666750000 F0sp=0.5321300000 F0pp=0.4958710000 F2pp=0.2358080000
 G1sp=0.4343770000
 ZetaOverlap=3.1080320000,2.5240390000
 U=-3.5951870000,-2.8760900000
 Beta=-1.0757550000,-1.0757550000 DDN=0,1,0.4988900000 DDN=1,1,0.4852320000
 CoreKO=0.8822960000 KON=0,0,0,0.8822960000 KON=1,0,1,0.5019540000 KON=0,1,1,0.8822960000
 KON=2,1,1,0.5515580000 EISol=-11.6164441184 EHeat=0.0949133088 Alpha=2.3576810000
 DipHyp=0.9977225968
 GCore=0.0195120000,1.4001430000,1.6023330000
 GCore=0.0056550000,1.9602000000,2.7307880000
 ****
 
 Standard basis: VSTO-6G (5D, 7F)
 Ernie: Thresh=  0.10000D-02 Tol=  0.10000D-05 Strict=F.
  NNHCO=     0 NNPyr=     0 NCTC=     0               EPep=         0.000000000
    EC=        68.850610981  ECS=         1.868669907   EG=         0.349842480
   EHC=         0.000000000  EAt=       -31.051283842  AtH=         1.516354808
 EPDDG=         0.000000000  ECC=        71.069123369 EAtT=        32.567638650
 There are    24 symmetry adapted cartesian basis functions of A   symmetry.
 There are    24 symmetry adapted basis functions of A   symmetry.
    24 basis functions,   144 primitive gaussians,    24 cartesian basis functions
    13 alpha electrons       13 beta electrons
       nuclear repulsion energy       103.6367620191 Hartrees.
 IExCor=    0 DFT=F Ex=HF Corr=None ExCW=0 ScaHFX=  1.000000
 ScaDFX=  1.000000  1.000000  1.000000  1.000000 ScalE2=  1.000000  1.000000
 IRadAn=      0 IRanWt=     -1 IRanGd=            0 ICorTp=0 IEmpDi=  4
 Integral buffers will be    131072 words long.
 Regular integral format.
 Two-electron integral symmetry is turned off.
 Leave Link  301 at Tue Dec 15 16:11:17 2015, MaxMem=    33554432 cpu:         0.0
 (Enter /home/Applications/g09/g09/l302.exe)
 Do NDO integrals.
 NPDir=0 NMtPBC=     1 NCelOv=     1 NCel=       1 NClECP=     1 NCelD=      1
         NCelK=      1 NCelE2=     1 NClLst=     1 CellRange=     0.0.
 One-electron integrals computed using PRISM.
 NBasis=    24 RedAO= F EigKep=  0.00D+00  NBF=    24
 NBsUse=    24 1.00D-04 EigRej=  0.00D+00 NBFU=    24
 Leave Link  302 at Tue Dec 15 16:11:17 2015, MaxMem=    33554432 cpu:         0.0
 (Enter /home/Applications/g09/g09/l308.exe)
 Leave Link  308 at Tue Dec 15 16:11:17 2015, MaxMem=    33554432 cpu:         0.0
 (Enter /home/Applications/g09/g09/l303.exe)
 DipDrv:  MaxL=1.
 Leave Link  303 at Tue Dec 15 16:11:17 2015, MaxMem=    33554432 cpu:         0.0
 (Enter /home/Applications/g09/g09/l401.exe)
 Simple Huckel Guess.
 JPrj=0 DoOrth=F DoCkMO=F.
 Leave Link  401 at Tue Dec 15 16:11:17 2015, MaxMem=    33554432 cpu:         0.0
 (Enter /home/Applications/g09/g09/l502.exe)
 Closed shell SCF:
 Using DIIS extrapolation, IDIIS=  1040.
 Overlap will be assumed to be unity.
 Two-electron integral symmetry not used.
 Keep J ints in memory in canonical form, NReq=888082.
 IVT=       79475 IEndB=       79475 NGot=    33554432 MDV=    33473473
 LenX=    33473473 LenY=    33472456
 Requested convergence on RMS density matrix=1.00D-08 within 128 cycles.
 Requested convergence on MAX density matrix=1.00D-06.
 Requested convergence on             energy=1.00D-06.
 No special actions if energy rises.
 FoFCou: FMM=F IPFlag=           0 FMFlag=           0 FMFlg1=           0
         NFxFlg=           0 DoJE=F BraDBF=F KetDBF=F FulRan=T
         wScrn=  0.000000 ICntrl=     600 IOpCl=  2 I1Cent=           0 NGrid=           0
         NMat0=    1 NMatS0=     54 NMatT0=    0 NMatD0=    1 NMtDS0=    0 NMtDT0=    0
 Symmetry not used in FoFCou.

 Cycle   1  Pass 1  IDiag  1:
 E= 0.349611504022562    
 DIIS: error= 5.39D-02 at cycle   1 NSaved=   1.
 NSaved= 1 IEnMin= 1 EnMin= 0.349611504022562     IErMin= 1 ErrMin= 5.39D-02
 ErrMax= 5.39D-02  0.00D+00 EMaxC= 1.00D-01 BMatC= 1.13D-01 BMatP= 1.13D-01
 IDIUse=3 WtCom= 4.61D-01 WtEn= 5.39D-01
 Coeff-Com:  0.100D+01
 Coeff-En:   0.100D+01
 Coeff:      0.100D+01
 GapD=    2.000 DampG=2.000 DampE=0.500 DampFc=1.0000 IDamp=-1.
 RMSDP=1.97D-02 MaxDP=1.63D-01              OVMax= 0.00D+00

 Cycle   2  Pass 1  IDiag  1:
 E= 0.644436187245248E-01 Delta-E=       -0.285167885298 Rises=F Damp=F
 DIIS: error= 2.09D-02 at cycle   2 NSaved=   2.
 NSaved= 2 IEnMin= 2 EnMin= 0.644436187245248E-01 IErMin= 2 ErrMin= 2.09D-02
 ErrMax= 2.09D-02  0.00D+00 EMaxC= 1.00D-01 BMatC= 9.73D-03 BMatP= 1.13D-01
 IDIUse=3 WtCom= 7.91D-01 WtEn= 2.09D-01
 Coeff-Com: -0.359D+00 0.136D+01
 Coeff-En:   0.000D+00 0.100D+01
 Coeff:     -0.284D+00 0.128D+01
 RMSDP=8.24D-03 MaxDP=7.84D-02 DE=-2.85D-01 OVMax= 0.00D+00

 Cycle   3  Pass 1  IDiag  1:
 E= 0.334596216452780E-01 Delta-E=       -0.030983997079 Rises=F Damp=F
 DIIS: error= 3.32D-03 at cycle   3 NSaved=   3.
 NSaved= 3 IEnMin= 3 EnMin= 0.334596216452780E-01 IErMin= 3 ErrMin= 3.32D-03
 ErrMax= 3.32D-03  0.00D+00 EMaxC= 1.00D-01 BMatC= 3.69D-04 BMatP= 9.73D-03
 IDIUse=3 WtCom= 9.67D-01 WtEn= 3.32D-02
 Coeff-Com:  0.139D+00-0.613D+00 0.147D+01
 Coeff-En:   0.000D+00 0.000D+00 0.100D+01
 Coeff:      0.134D+00-0.593D+00 0.146D+01
 RMSDP=2.49D-03 MaxDP=2.99D-02 DE=-3.10D-02 OVMax= 0.00D+00

 Cycle   4  Pass 1  IDiag  3:
 E= 0.314830755967819E-01 Delta-E=       -0.001976546048 Rises=F Damp=F
 DIIS: error= 1.04D-03 at cycle   4 NSaved=   4.
 NSaved= 4 IEnMin= 4 EnMin= 0.314830755967819E-01 IErMin= 4 ErrMin= 1.04D-03
 ErrMax= 1.04D-03  0.00D+00 EMaxC= 1.00D-01 BMatC= 2.63D-05 BMatP= 3.69D-04
 IDIUse=3 WtCom= 9.90D-01 WtEn= 1.04D-02
 Coeff-Com:  0.163D-01-0.621D-01-0.158D+00 0.120D+01
 Coeff-En:   0.000D+00 0.000D+00 0.000D+00 0.100D+01
 Coeff:      0.162D-01-0.614D-01-0.156D+00 0.120D+01
 Gap=     0.383 Goal=   None    Shift=    0.000
 RMSDP=7.70D-04 MaxDP=9.93D-03 DE=-1.98D-03 OVMax= 8.74D-03

 Cycle   5  Pass 1  IDiag  3:
 E= 0.313261844913200E-01 Delta-E=       -0.000156891105 Rises=F Damp=F
 DIIS: error= 2.09D-04 at cycle   5 NSaved=   5.
 NSaved= 5 IEnMin= 5 EnMin= 0.313261844913200E-01 IErMin= 5 ErrMin= 2.09D-04
 ErrMax= 2.09D-04  0.00D+00 EMaxC= 1.00D-01 BMatC= 1.70D-06 BMatP= 2.63D-05
 IDIUse=3 WtCom= 9.98D-01 WtEn= 2.09D-03
 Coeff-Com: -0.824D-02 0.340D-01 0.718D-02-0.452D+00 0.142D+01
 Coeff-En:   0.000D+00 0.000D+00 0.000D+00 0.000D+00 0.100D+01
 Coeff:     -0.822D-02 0.340D-01 0.716D-02-0.451D+00 0.142D+01
 Gap=     0.383 Goal=   None    Shift=    0.000
 RMSDP=2.35D-04 MaxDP=1.97D-03 DE=-1.57D-04 OVMax= 2.57D-03

 Cycle   6  Pass 1  IDiag  3:
 E= 0.313135419083466E-01 Delta-E=       -0.000012642583 Rises=F Damp=F
 DIIS: error= 9.33D-05 at cycle   6 NSaved=   6.
 NSaved= 6 IEnMin= 6 EnMin= 0.313135419083466E-01 IErMin= 6 ErrMin= 9.33D-05
 ErrMax= 9.33D-05  0.00D+00 EMaxC= 1.00D-01 BMatC= 1.72D-07 BMatP= 1.70D-06
 IDIUse=1 WtCom= 1.00D+00 WtEn= 0.00D+00
 Coeff-Com:  0.266D-02-0.106D-01 0.687D-02 0.122D+00-0.652D+00 0.153D+01
 Coeff:      0.266D-02-0.106D-01 0.687D-02 0.122D+00-0.652D+00 0.153D+01
 Gap=     0.383 Goal=   None    Shift=    0.000
 RMSDP=9.16D-05 MaxDP=7.93D-04 DE=-1.26D-05 OVMax= 1.19D-03

 Cycle   7  Pass 1  IDiag  3:
 E= 0.313119841998031E-01 Delta-E=       -0.000001557709 Rises=F Damp=F
 DIIS: error= 3.14D-05 at cycle   7 NSaved=   7.
 NSaved= 7 IEnMin= 7 EnMin= 0.313119841998031E-01 IErMin= 7 ErrMin= 3.14D-05
 ErrMax= 3.14D-05  0.00D+00 EMaxC= 1.00D-01 BMatC= 1.45D-08 BMatP= 1.72D-07
 IDIUse=1 WtCom= 1.00D+00 WtEn= 0.00D+00
 Coeff-Com: -0.423D-03 0.115D-02-0.336D-03-0.268D-01 0.176D+00-0.686D+00
 Coeff-Com:  0.154D+01
 Coeff:     -0.423D-03 0.115D-02-0.336D-03-0.268D-01 0.176D+00-0.686D+00
 Coeff:      0.154D+01
 Gap=     0.383 Goal=   None    Shift=    0.000
 RMSDP=3.13D-05 MaxDP=3.00D-04 DE=-1.56D-06 OVMax= 3.75D-04

 Cycle   8  Pass 1  IDiag  3:
 E= 0.313118480392092E-01 Delta-E=       -0.000000136161 Rises=F Damp=F
 DIIS: error= 5.23D-06 at cycle   8 NSaved=   8.
 NSaved= 8 IEnMin= 8 EnMin= 0.313118480392092E-01 IErMin= 8 ErrMin= 5.23D-06
 ErrMax= 5.23D-06  0.00D+00 EMaxC= 1.00D-01 BMatC= 5.56D-10 BMatP= 1.45D-08
 IDIUse=1 WtCom= 1.00D+00 WtEn= 0.00D+00
 Coeff-Com:  0.138D-04 0.260D-03-0.994D-03 0.872D-02-0.546D-01 0.252D+00
 Coeff-Com: -0.717D+00 0.151D+01
 Coeff:      0.138D-04 0.260D-03-0.994D-03 0.872D-02-0.546D-01 0.252D+00
 Coeff:     -0.717D+00 0.151D+01
 Gap=     0.383 Goal=   None    Shift=    0.000
 RMSDP=5.25D-06 MaxDP=4.94D-05 DE=-1.36D-07 OVMax= 6.49D-05

 Cycle   9  Pass 1  IDiag  3:
 E= 0.313118437768622E-01 Delta-E=       -0.000000004262 Rises=F Damp=F
 DIIS: error= 7.65D-07 at cycle   9 NSaved=   9.
 NSaved= 9 IEnMin= 9 EnMin= 0.313118437768622E-01 IErMin= 9 ErrMin= 7.65D-07
 ErrMax= 7.65D-07  0.00D+00 EMaxC= 1.00D-01 BMatC= 2.07D-11 BMatP= 5.56D-10
 IDIUse=1 WtCom= 1.00D+00 WtEn= 0.00D+00
 Coeff-Com:  0.214D-04-0.210D-03 0.473D-03-0.246D-02 0.156D-01-0.814D-01
 Coeff-Com:  0.250D+00-0.634D+00 0.145D+01
 Coeff:      0.214D-04-0.210D-03 0.473D-03-0.246D-02 0.156D-01-0.814D-01
 Coeff:      0.250D+00-0.634D+00 0.145D+01
 Gap=     0.383 Goal=   None    Shift=    0.000
 RMSDP=8.31D-07 MaxDP=6.70D-06 DE=-4.26D-09 OVMax= 1.01D-05

 Cycle  10  Pass 1  IDiag  3:
 E= 0.313118436474582E-01 Delta-E=       -0.000000000129 Rises=F Damp=F
 DIIS: error= 1.41D-07 at cycle  10 NSaved=  10.
 NSaved=10 IEnMin=10 EnMin= 0.313118436474582E-01 IErMin=10 ErrMin= 1.41D-07
 ErrMax= 1.41D-07  0.00D+00 EMaxC= 1.00D-01 BMatC= 7.87D-13 BMatP= 2.07D-11
 IDIUse=1 WtCom= 1.00D+00 WtEn= 0.00D+00
 Coeff-Com: -0.114D-04 0.937D-04-0.202D-03 0.895D-03-0.537D-02 0.289D-01
 Coeff-Com: -0.903D-01 0.233D+00-0.635D+00 0.147D+01
 Coeff:     -0.114D-04 0.937D-04-0.202D-03 0.895D-03-0.537D-02 0.289D-01
 Coeff:     -0.903D-01 0.233D+00-0.635D+00 0.147D+01
 Gap=     0.383 Goal=   None    Shift=    0.000
 RMSDP=1.52D-07 MaxDP=1.35D-06 DE=-1.29D-10 OVMax= 1.30D-06

 Cycle  11  Pass 1  IDiag  3:
 E= 0.313118436427544E-01 Delta-E=       -0.000000000005 Rises=F Damp=F
 DIIS: error= 2.60D-08 at cycle  11 NSaved=  11.
 NSaved=11 IEnMin=11 EnMin= 0.313118436427544E-01 IErMin=11 ErrMin= 2.60D-08
 ErrMax= 2.60D-08  0.00D+00 EMaxC= 1.00D-01 BMatC= 3.21D-14 BMatP= 7.87D-13
 IDIUse=1 WtCom= 1.00D+00 WtEn= 0.00D+00
 Coeff-Com:  0.336D-05-0.274D-04 0.578D-04-0.249D-03 0.145D-02-0.800D-02
 Coeff-Com:  0.250D-01-0.640D-01 0.181D+00-0.532D+00 0.140D+01
 Coeff:      0.336D-05-0.274D-04 0.578D-04-0.249D-03 0.145D-02-0.800D-02
 Coeff:      0.250D-01-0.640D-01 0.181D+00-0.532D+00 0.140D+01
 Gap=     0.383 Goal=   None    Shift=    0.000
 RMSDP=3.10D-08 MaxDP=2.61D-07 DE=-4.70D-12 OVMax= 2.67D-07

 Cycle  12  Pass 1  IDiag  3:
 E= 0.313118436422286E-01 Delta-E=       -0.000000000001 Rises=F Damp=F
 DIIS: error= 6.81D-09 at cycle  12 NSaved=  12.
 NSaved=12 IEnMin=12 EnMin= 0.313118436422286E-01 IErMin=12 ErrMin= 6.81D-09
 ErrMax= 6.81D-09  0.00D+00 EMaxC= 1.00D-01 BMatC= 2.57D-15 BMatP= 3.21D-14
 IDIUse=1 WtCom= 1.00D+00 WtEn= 0.00D+00
 Coeff-Com: -0.921D-06 0.757D-05-0.150D-04 0.632D-04-0.360D-03 0.208D-02
 Coeff-Com: -0.654D-02 0.163D-01-0.474D-01 0.162D+00-0.659D+00 0.153D+01
 Coeff:     -0.921D-06 0.757D-05-0.150D-04 0.632D-04-0.360D-03 0.208D-02
 Coeff:     -0.654D-02 0.163D-01-0.474D-01 0.162D+00-0.659D+00 0.153D+01
 Gap=     0.383 Goal=   None    Shift=    0.000
 RMSDP=1.05D-08 MaxDP=8.16D-08 DE=-5.26D-13 OVMax= 9.72D-08

 Cycle  13  Pass 1  IDiag  3:
 E= 0.313118436423991E-01 Delta-E=        0.000000000000 Rises=F Damp=F
 DIIS: error= 1.78D-09 at cycle  13 NSaved=  13.
 NSaved=13 IEnMin=12 EnMin= 0.313118436422286E-01 IErMin=13 ErrMin= 1.78D-09
 ErrMax= 1.78D-09  0.00D+00 EMaxC= 1.00D-01 BMatC= 1.45D-16 BMatP= 2.57D-15
 IDIUse=1 WtCom= 1.00D+00 WtEn= 0.00D+00
 Coeff-Com:  0.125D-06-0.107D-05 0.198D-05-0.848D-05 0.413D-04-0.263D-03
 Coeff-Com:  0.817D-03-0.183D-02 0.558D-02-0.253D-01 0.162D+00-0.593D+00
 Coeff-Com:  0.145D+01
 Coeff:      0.125D-06-0.107D-05 0.198D-05-0.848D-05 0.413D-04-0.263D-03
 Coeff:      0.817D-03-0.183D-02 0.558D-02-0.253D-01 0.162D+00-0.593D+00
 Coeff:      0.145D+01
 Gap=     0.383 Goal=   None    Shift=    0.000
 RMSDP=2.41D-09 MaxDP=1.99D-08 DE= 1.71D-13 OVMax= 2.40D-08

 Cycle  14  Pass 2  IDiag  1:
 SCF Done:  E(RAM1) =  0.313118436424E-01 A.U. after   14 cycles
            NFock= 13  Conv=0.24D-08     -V/T= 1.0019
 KE=-1.657544292555D+01 PE=-1.712949638253D+02 EE= 8.426495657535D+01
 Leave Link  502 at Tue Dec 15 16:11:17 2015, MaxMem=    33554432 cpu:         0.0
 (Enter /home/Applications/g09/g09/l801.exe)
 Range of M.O.s used for correlation:     1    24
 NBasis=    24 NAE=    13 NBE=    13 NFC=     0 NFV=     0
 NROrb=     24 NOA=    13 NOB=    13 NVA=    11 NVB=    11
 Leave Link  801 at Tue Dec 15 16:11:17 2015, MaxMem=    33554432 cpu:         0.0
 (Enter /home/Applications/g09/g09/l914.exe)
 RHF ground state
 MDV=    33554432 DFT=F DoStab=F Mixed=F DoRPA=F DoScal=F NonHer=F
 Making orbital integer symmetry assigments:
 Orbital symmetries:
       Occupied  (A) (A) (A) (A) (A) (A) (A) (A) (A) (A) (A) (A)
                 (A)
       Virtual   (A) (A) (A) (A) (A) (A) (A) (A) (A) (A) (A)
    60 initial guesses have been made.
 Convergence on wavefunction:    0.000001000000000
 Davidson Disk Diagonalization:  ConvIn= 1.00D-06 SkipCon=T Conv= 1.00D-06.
 Max sub-space:   240 roots to seek:    60 dimension of matrix:          286
 Iteration     1 Dimension    60 NMult     0 NNew     60
 CISAX will form    60 AO SS matrices at one time.
 NMat=    60 NSing=    60 JSym2X= 0.
 FoFJK:  IHMeth= 8 ICntrl=       0 DoSepK=F KAlg= 0 I1Cent=   0 FoldK=F
 IRaf=         1 NMat= 120 IRICut=       1 DoRegI=T DoRafI=F ISym2E= 0.
 FoFCou: FMM=F IPFlag=           0 FMFlag=      100000 FMFlg1=           0
         NFxFlg=           0 DoJE=F BraDBF=F KetDBF=F FulRan=T
         wScrn=  0.000000 ICntrl=       0 IOpCl=  0 I1Cent=           0 NGrid=           0
         NMat0=  120 NMatS0=     60 NMatT0=    0 NMatD0=  120 NMtDS0=    0 NMtDT0=    0
 Symmetry not used in FoFCou.
 New state      3 was old state      4
 New state      4 was old state      7
 New state      5 was old state      8
 New state      6 was old state      3
 New state      7 was old state      6
 New state      8 was old state      5
 New state     10 was old state     14
 New state     11 was old state     12
 New state     12 was old state     20
 New state     13 was old state     10
 New state     14 was old state     15
 New state     15 was old state     18
 Excitation Energies [eV] at current iteration:
 Root      1 :     4.635722870370720
 Root      2 :     5.266736709378050
 Root      3 :     5.357153045264059
 Root      4 :     5.900751776892758
 Root      5 :     6.170208098241587
 Root      6 :     6.411312515985926
 Root      7 :     6.464155864701338
 Root      8 :     6.693322273193479
 Root      9 :     6.710153223882017
 Root     10 :     7.104305823277246
 Root     11 :     7.187271245887027
 Root     12 :     7.492858716915657
 Root     13 :     7.682689488709725
 Root     14 :     7.740288337830090
 Root     15 :     7.815982517755035
 Root     16 :     7.931489297273870
 Root     17 :     8.058966956008032
 Root     18 :     8.190505641855644
 Root     19 :     8.225154095901404
 Root     20 :     8.620893329376210
 Root     21 :     8.967752646200074
 Root     22 :     9.071758174656432
 Root     23 :     9.090228115322612
 Root     24 :     9.247470636254878
 Root     25 :     9.397913086192219
 Root     26 :     9.415266573095389
 Root     27 :     9.539282312930936
 Root     28 :     9.604135685695605
 Root     29 :     9.780482767989605
 Root     30 :     9.843343730143483
 Root     31 :     9.885252522475536
 Root     32 :    10.169273153379890
 Root     33 :    10.190919491235520
 Root     34 :    10.300192012983600
 Root     35 :    10.413292940121310
 Root     36 :    10.435755557054050
 Root     37 :    10.655429934019940
 Root     38 :    10.762241342275040
 Root     39 :    10.870247172643690
 Root     40 :    10.969640289937140
 Root     41 :    11.129870108799070
 Root     42 :    11.203670682700350
 Root     43 :    11.301734983364910
 Root     44 :    11.341383750050040
 Root     45 :    11.556479445515120
 Root     46 :    11.693178166429040
 Root     47 :    11.828139575621040
 Root     48 :    11.876374826999620
 Root     49 :    12.021031176016020
 Root     50 :    12.069959030399290
 Root     51 :    12.333359742615130
 Root     52 :    12.452245521131460
 Root     53 :    12.676989883840970
 Root     54 :    12.796677725405200
 Root     55 :    13.050515903354860
 Root     56 :    13.215317563761820
 Root     57 :    13.382303561315830
 Root     58 :    13.447767167966770
 Root     59 :    13.560629772106910
 Root     60 :    13.755475507751950
 Iteration     2 Dimension   120 NMult    60 NNew     60
 CISAX will form    60 AO SS matrices at one time.
 NMat=    60 NSing=    60 JSym2X= 0.
 Root      1 not converged, maximum delta is    0.029277648869033
 Root      2 not converged, maximum delta is    0.031104403466235
 Root      3 not converged, maximum delta is    0.025654255637747
 Root      4 not converged, maximum delta is    0.043074009844592
 Root      5 not converged, maximum delta is    0.052025903709995
 Root      6 not converged, maximum delta is    0.081068704775675
 Root      7 not converged, maximum delta is    0.049206161170332
 Root      8 not converged, maximum delta is    0.356831274774226
 Root      9 not converged, maximum delta is    0.266657054900832
 Root     10 not converged, maximum delta is    0.039478367909701
 Root     11 not converged, maximum delta is    0.064112566068575
 Root     12 not converged, maximum delta is    0.109037541361877
 New state     13 was old state     14
 Root     13 not converged, maximum delta is    0.319323670247978
 New state     14 was old state     13
 Root     14 not converged, maximum delta is    0.333207158716625
 Root     15 not converged, maximum delta is    0.041501412663913
 Excitation Energies [eV] at current iteration:
 Root      1 :     4.556891524758758   Change is   -0.078831345611962
 Root      2 :     5.248266947008087   Change is   -0.018469762369964
 Root      3 :     5.329882503523659   Change is   -0.027270541740400
 Root      4 :     5.793398802823551   Change is   -0.107352974069206
 Root      5 :     6.080134971686563   Change is   -0.090073126555024
 Root      6 :     6.293580196014469   Change is   -0.117732319971457
 Root      7 :     6.412095916218846   Change is   -0.052059948482492
 Root      8 :     6.554240578929665   Change is   -0.139081694263814
 Root      9 :     6.631176243455148   Change is   -0.078976980426869
 Root     10 :     7.007085077607730   Change is   -0.097220745669517
 Root     11 :     7.047509137503640   Change is   -0.139762108383387
 Root     12 :     7.362167686535533   Change is   -0.130691030380124
 Root     13 :     7.604290794958926   Change is   -0.135997542871164
 Root     14 :     7.642363822129253   Change is   -0.040325666580473
 Root     15 :     7.738923908027023   Change is   -0.077058609728012
 Root     16 :     7.816474060351444   Change is   -0.115015236922425
 Root     17 :     7.942229494373380   Change is   -0.116737461634652
 Root     18 :     8.055316978135796   Change is   -0.169837117765609
 Root     19 :     8.088971533455659   Change is   -0.101534108399985
 Root     20 :     8.467062573117758   Change is   -0.153830756258453
 Root     21 :     8.793071950716051   Change is   -0.278686223940382
 Root     22 :     8.913616420832403   Change is   -0.054136225367672
 Root     23 :     8.961516584604693   Change is   -0.128711530717919
 Root     24 :     8.994563180378234   Change is   -0.420703392717155
 Root     25 :     9.049398388504425   Change is   -0.198072247750454
 Root     26 :     9.199686159140400   Change is   -0.339596153790536
 Root     27 :     9.349134749026010   Change is   -0.048778337166207
 Root     28 :     9.364517095725567   Change is   -0.478826634417915
 Root     29 :     9.481803517295599   Change is   -0.298679250694006
 Root     30 :     9.532086328248733   Change is   -0.072049357446872
 Root     31 :     9.564098187784763   Change is   -0.626821303450754
 Root     32 :     9.781929624696815   Change is   -0.103322897778721
 Root     33 :     9.842773767739093   Change is   -0.457418245244512
 Root     34 :     9.966371294846306   Change is   -0.446921645275002
 Root     35 :    10.018089973412940   Change is   -0.151183179966949
 Root     36 :    10.108690888351550   Change is   -0.546739045668393
 Root     37 :    10.284803546811860   Change is   -0.585443625831828
 Root     38 :    10.349362556180390   Change is   -0.086393000873656
 Root     39 :    10.412146879148000   Change is   -0.350094463127045
 Root     40 :    10.542111423287570   Change is   -0.587758685511499
 Root     41 :    10.635071168974430   Change is   -0.706312581075608
 Root     42 :    10.757111145581370   Change is   -0.446559537118974
 Root     43 :    10.849634305309520   Change is   -0.120005984627616
 Root     44 :    10.979379267187320   Change is   -0.322355716177588
 Root     45 :    11.149700603453790   Change is   -0.406778842061334
 Root     46 :    11.244515931176510   Change is   -0.583623644444523
 Root     47 :    11.441819034370380   Change is   -0.251359132058660
 Root     48 :    11.514598250385050   Change is   -0.506432925630966
 Root     49 :    11.675123587506880   Change is   -0.201251239492745
 Root     50 :    11.825150835540340   Change is   -0.851839048300626
 Root     51 :    11.888179648393240   Change is   -0.181779382006055
 Root     52 :    11.977823098098550   Change is   -0.355536644516587
 Root     53 :    12.266041380508520   Change is   -0.186204140622940
 Root     54 :    12.460329688385870   Change is   -0.336348037019330
 Root     55 :    12.651898403965460   Change is   -0.398617499389406
 Root     56 :    12.671437579541050   Change is   -0.543879984220768
 Root     57 :    12.839433647552800   Change is   -0.721196124554116
 Root     58 :    12.937911175508090   Change is   -0.509855992458675
 Root     59 :    13.077414977847230   Change is   -0.304888583468605
 Root     60 :    13.084877059723250   Change is   -0.670598448028698
 Iteration     3 Dimension   135 NMult   120 NNew     15
 CISAX will form    15 AO SS matrices at one time.
 NMat=    15 NSing=    15 JSym2X= 0.
 Root      1 not converged, maximum delta is    0.001521172319621
 Root      2 not converged, maximum delta is    0.000352714054550
 Root      3 not converged, maximum delta is    0.000216189961371
 Root      4 not converged, maximum delta is    0.000147207882108
 Root      5 not converged, maximum delta is    0.000598761634889
 Root      6 not converged, maximum delta is    0.001957597924859
 Root      7 not converged, maximum delta is    0.000333134235291
 Root      8 not converged, maximum delta is    0.000536179571615
 Root      9 not converged, maximum delta is    0.001459602375352
 Root     10 not converged, maximum delta is    0.000604921943994
 Root     11 not converged, maximum delta is    0.000189639411283
 Root     12 not converged, maximum delta is    0.000332384990447
 Root     13 not converged, maximum delta is    0.000199378070433
 Root     14 not converged, maximum delta is    0.000161433695832
 Root     15 not converged, maximum delta is    0.000529641498123
 Excitation Energies [eV] at current iteration:
 Root      1 :     4.556528712275981   Change is   -0.000362812482777
 Root      2 :     5.248239248561553   Change is   -0.000027698446534
 Root      3 :     5.329866716091686   Change is   -0.000015787431972
 Root      4 :     5.793392276349059   Change is   -0.000006526474492
 Root      5 :     6.080092253944183   Change is   -0.000042717742380
 Root      6 :     6.293025934792858   Change is   -0.000554261221611
 Root      7 :     6.412076646590946   Change is   -0.000019269627900
 Root      8 :     6.554213811564385   Change is   -0.000026767365280
 Root      9 :     6.630830799224769   Change is   -0.000345444230379
 Root     10 :     7.007016126127231   Change is   -0.000068951480500
 Root     11 :     7.047497177433135   Change is   -0.000011960070505
 Root     12 :     7.362140526849332   Change is   -0.000027159686200
 Root     13 :     7.604285305288244   Change is   -0.000005489670683
 Root     14 :     7.642353129131354   Change is   -0.000010692997900
 Root     15 :     7.738881622616319   Change is   -0.000042285410704
 Iteration     4 Dimension   143 NMult   135 NNew      8
 CISAX will form     8 AO SS matrices at one time.
 NMat=     8 NSing=     8 JSym2X= 0.
 Root      1 not converged, maximum delta is    0.000041720725742
 Root      2 not converged, maximum delta is    0.000011892337922
 Root      3 not converged, maximum delta is    0.000008491843934
 Root      4 not converged, maximum delta is    0.000003583435541
 Root      5 not converged, maximum delta is    0.000025686627797
 Root      6 not converged, maximum delta is    0.000088101615490
 Root      7 not converged, maximum delta is    0.000009529597949
 Root      8 not converged, maximum delta is    0.000017175666113
 Root      9 not converged, maximum delta is    0.000044687788203
 Root     10 not converged, maximum delta is    0.000018093494503
 Root     11 not converged, maximum delta is    0.000011074234957
 Root     12 not converged, maximum delta is    0.000018322043683
 Root     13 not converged, maximum delta is    0.000008332327089
 Root     14 not converged, maximum delta is    0.000020280144876
 Root     15 not converged, maximum delta is    0.000017315185911
 Excitation Energies [eV] at current iteration:
 Root      1 :     4.556528005298244   Change is   -0.000000706977738
 Root      2 :     5.248239204582953   Change is   -0.000000043978599
 Root      3 :     5.329866690221378   Change is   -0.000000025870309
 Root      4 :     5.793392271375954   Change is   -0.000000004973105
 Root      5 :     6.080092122236609   Change is   -0.000000131707574
 Root      6 :     6.293024578220102   Change is   -0.000001356572756
 Root      7 :     6.412076622859724   Change is   -0.000000023731222
 Root      8 :     6.554213761542660   Change is   -0.000000050021725
 Root      9 :     6.630830226567499   Change is   -0.000000572657270
 Root     10 :     7.007015980105190   Change is   -0.000000146022040
 Root     11 :     7.047497132255750   Change is   -0.000000045177384
 Root     12 :     7.362140451994631   Change is   -0.000000074854701
 Root     13 :     7.604285280198876   Change is   -0.000000025089368
 Root     14 :     7.642353077608410   Change is   -0.000000051522943
 Root     15 :     7.738881530625085   Change is   -0.000000091991234
 Convergence achieved on expansion vectors.
 ***********************************************************************
 Excited states from <AA,BB:AA,BB> singles matrix:
 ***********************************************************************
 
 1PDM for each excited state written to RWF  633
 Ground to excited state transition densities written to RWF  633
 Ground to excited state transition electric dipole moments (Au):
       state          X           Y           Z        Dip. S.      Osc.
         1        -0.7801      0.4003      0.0039      0.7687      0.0858
         2         0.0804      0.1950      0.0112      0.0446      0.0057
         3         0.0070     -0.0814      0.0154      0.0069      0.0009
         4        -0.0201     -0.0396     -0.0929      0.0106      0.0015
         5         0.2016      0.2792      0.0646      0.1227      0.0183
         6         0.5846      1.1771     -0.0385      1.7289      0.2665
         7        -0.0312     -0.2346      0.1127      0.0687      0.0108
         8        -0.0855      0.2031      0.0558      0.0517      0.0083
         9         0.5301     -0.8781     -0.0445      1.0541      0.1712
        10        -0.0548      0.2166     -0.0362      0.0512      0.0088
        11         0.0142     -0.0028      0.0297      0.0011      0.0002
        12        -0.0257     -0.0211     -0.1498      0.0236      0.0042
        13        -0.0077      0.0028     -0.1605      0.0258      0.0048
        14        -0.0736     -0.0736      0.0433      0.0127      0.0024
        15        -0.0065     -0.0002     -0.0055      0.0001      0.0000
 Ground to excited state transition velocity dipole moments (Au):
       state          X           Y           Z        Dip. S.      Osc.
         1         0.0469     -0.0526      0.0067      0.0050      0.0200
         2        -0.0124     -0.0061     -0.0016      0.0002      0.0007
         3         0.0028      0.0034     -0.0032      0.0000      0.0001
         4         0.0032      0.0161      0.0502      0.0028      0.0087
         5        -0.0317     -0.0529     -0.0779      0.0099      0.0295
         6        -0.0969     -0.2407      0.0051      0.0674      0.1942
         7         0.0015      0.0515     -0.1708      0.0318      0.0901
         8         0.0154     -0.0406     -0.0548      0.0049      0.0135
         9        -0.1081      0.1901      0.0115      0.0479      0.1312
        10         0.0088     -0.0535     -0.0396      0.0045      0.0117
        11         0.0001      0.0030      0.0367      0.0014      0.0035
        12         0.0047      0.0044     -0.0262      0.0007      0.0018
        13         0.0023     -0.0092      0.0115      0.0002      0.0005
        14         0.0117      0.0222     -0.0782      0.0067      0.0160
        15        -0.0024      0.0015     -0.0456      0.0021      0.0049
 Ground to excited state transition magnetic dipole moments (Au):
       state          X           Y           Z
         1         0.0481      0.0417     -0.7175
         2         0.0113      0.3262      0.0358
         3         0.0405      0.5056      0.0162
         4        -0.3365     -0.0818     -0.0366
         5         0.1874     -0.2606      0.0367
         6         0.0260      0.0820      0.1389
         7        -0.0889      0.2392     -0.0263
         8        -0.0111     -0.0448      0.0032
         9        -0.1012     -0.0637     -0.0997
        10        -1.3186     -0.4671     -0.0826
        11         0.1337      0.6912      0.0238
        12        -0.3900      0.1029      0.0003
        13         0.2655      0.4756     -0.0602
        14         0.4882     -0.3910     -0.0135
        15        -1.0771      0.6676     -0.0124
 Ground to excited state transition velocity quadrupole moments (Au):
       state          XX          YY          ZZ          XY          XZ          YZ
         1         0.0860     -0.0743     -0.0059     -0.4742      0.0100     -0.0059
         2         0.0732     -0.1208      0.0651     -0.0289      0.0732      0.0163
         3        -0.0436      0.0926     -0.0408      0.0641      0.1299      0.0355
         4        -0.0168      0.0077     -0.0005      0.0066      0.1243     -0.2450
         5         0.0839     -0.0417     -0.0130     -0.0739      0.0100      0.1430
         6         0.3368     -0.2038     -0.0366     -0.2082      0.0021     -0.0802
         7        -0.0648      0.0681      0.0071     -0.0257     -0.0926     -0.0065
         8         0.0557     -0.0256     -0.0097      0.0681      0.1122      0.1739
         9        -0.2706      0.1530      0.0160     -0.4597      0.0089      0.0395
        10         0.0924     -0.0274     -0.0082     -0.0330     -0.1443      0.0501
        11        -0.0012      0.0258     -0.0066      0.0064     -0.2410      0.0006
        12        -0.0080      0.0083     -0.0412      0.0273      0.0885     -0.1183
        13         0.0253     -0.0153     -0.0143     -0.0336     -0.0223      0.2638
        14         0.0021      0.0434      0.0123      0.0414     -0.0281     -0.1225
        15        -0.0246     -0.0224      0.0118     -0.0096      0.1119     -0.0529
 <0|del|b> * <b|rxdel|0> + <0|del|b> * <b|delr+rdel|0>
 Rotatory Strengths (R) in cgs (10**-40 erg-esu-cm/Gauss)
       state          XX          YY          ZZ    R(velocity)    E-M Angle
         1       -20.3613      0.7393     -0.4019     -6.6746       95.33
         2        -2.8707     -0.8192     -4.3854     -2.6918      118.74
         3         1.8766      0.6573      3.9783      2.1707       49.31
         4        -8.0113     -6.6459      0.6574     -4.6666      103.26
         5        27.2550    -30.2054     18.7663      5.2720       81.05
         6       -29.9505     10.7400    -46.7226    -21.9777      120.55
         7        38.9640     -0.0648     11.1310     16.6767       68.64
         8         3.6155      8.8994     -8.1992      1.4386       62.97
         9       -29.3583     15.6673      6.9370     -2.2513       93.91
        10        29.9992    -12.5653     28.4505     15.2948       79.77
        11         5.2924      0.8866      1.8375      2.6722       83.49
        12        -0.8618     -2.2089     -0.5794     -1.2167       97.38
        13        -7.1774      1.1511     -5.2844     -3.7702      123.07
        14       -12.8742     10.8094     -2.6583     -1.5744       92.09
        15         2.2974      3.4768      4.4793      3.4178       85.92
 1/2[<0|r|b>*<b|rxdel|0> + (<0|rxdel|b>*<b|r|0>)*]
 Rotatory Strengths (R) in cgs (10**-40 erg-esu-cm/Gauss)
       state          XX          YY          ZZ     R(length)
         1        26.5177    -11.8092      1.9804      5.5630
         2        -0.6420    -44.9863     -0.2837    -15.3040
         3        -0.2019     29.0896     -0.1761      9.5706
         4        -4.7759     -2.2926     -2.4040     -3.1575
         5       -26.7198     51.4385     -1.6774      7.6805
         6       -10.7434    -68.2950      3.7839    -25.0849
         7        -1.9612     39.6962      2.0973     13.2774
         8        -0.6717      6.4352     -0.1275      1.8787
         9        37.9252    -39.5770     -3.1348     -1.5955
        10       -51.0835     71.5428     -2.1147      6.1149
        11        -1.3468      1.3817     -0.5000     -0.1551
        12        -7.1002      1.5355      0.0351     -1.8432
        13         1.4383     -0.9310     -6.8306     -2.1078
        14        25.4025    -20.3533      0.4125      1.8206
        15        -4.9319      0.0968     -0.0482     -1.6278
  1/2[<0|del|b>*<b|r|0> + (<0|r|b>*<b|del|0>)*] (Au)
       state          X           Y           Z        Dip. S.   Osc.(frdel)
         1        -0.0366     -0.0211      0.0000      0.0576      0.0384
         2        -0.0010     -0.0012      0.0000      0.0022      0.0015
         3         0.0000     -0.0003      0.0000      0.0003      0.0002
         4        -0.0001     -0.0006     -0.0047      0.0054      0.0036
         5        -0.0064     -0.0148     -0.0050      0.0262      0.0175
         6        -0.0567     -0.2834     -0.0002      0.3402      0.2268
         7         0.0000     -0.0121     -0.0193      0.0314      0.0209
         8        -0.0013     -0.0082     -0.0031      0.0126      0.0084
         9        -0.0573     -0.1669     -0.0005      0.2247      0.1498
        10        -0.0005     -0.0116      0.0014      0.0106      0.0071
        11         0.0000      0.0000      0.0011     -0.0011     -0.0007
        12        -0.0001     -0.0001      0.0039     -0.0037     -0.0025
        13         0.0000      0.0000     -0.0019      0.0019      0.0013
        14        -0.0009     -0.0016     -0.0034      0.0059      0.0039
        15         0.0000      0.0000      0.0003     -0.0003     -0.0002

 Excitation energies and oscillator strengths:
 
 Excited State   1:      Singlet-A      4.5565 eV  272.10 nm  f=0.0858  <S**2>=0.000
      12 -> 15         0.19408
      13 -> 14         0.67038
 This state for optimization and/or second-order correction.
 Total Energy, E(CIS) =  0.198761173991    
 Copying the excited state density for this state as the 1-particle RhoCI density.
 
 Excited State   2:      Singlet-A      5.2482 eV  236.24 nm  f=0.0057  <S**2>=0.000
      12 -> 14        -0.35762
      13 -> 15         0.51648
      13 -> 16         0.30547
 
 Excited State   3:      Singlet-A      5.3299 eV  232.62 nm  f=0.0009  <S**2>=0.000
      12 -> 14         0.21950
      13 -> 15        -0.22990
      13 -> 16         0.60866
      13 -> 22         0.10393
 
 Excited State   4:      Singlet-A      5.7934 eV  214.01 nm  f=0.0015  <S**2>=0.000
      12 -> 18         0.12490
      13 -> 17        -0.19686
      13 -> 18         0.49982
      13 -> 20         0.15152
      13 -> 21         0.26761
      13 -> 22        -0.19099
      13 -> 23         0.12530
 
 Excited State   5:      Singlet-A      6.0801 eV  203.92 nm  f=0.0183  <S**2>=0.000
       7 -> 16        -0.17555
      12 -> 14         0.13752
      12 -> 15         0.11953
      12 -> 16         0.61426
      12 -> 22         0.15118
      13 -> 15         0.11685
 
 Excited State   6:      Singlet-A      6.2930 eV  197.02 nm  f=0.2665  <S**2>=0.000
      12 -> 14         0.49871
      12 -> 15         0.14539
      12 -> 16        -0.19573
      13 -> 15         0.36375
 
 Excited State   7:      Singlet-A      6.4121 eV  193.36 nm  f=0.0108  <S**2>=0.000
      11 -> 14        -0.11949
      13 -> 17         0.58591
      13 -> 18         0.13311
      13 -> 19         0.22652
      13 -> 20        -0.12184
      13 -> 23         0.13774
 
 Excited State   8:      Singlet-A      6.5542 eV  189.17 nm  f=0.0083  <S**2>=0.000
      12 -> 15        -0.11171
      12 -> 18         0.15754
      12 -> 19        -0.20973
      12 -> 21        -0.10789
      12 -> 22         0.13229
      12 -> 23         0.16629
      12 -> 24        -0.12622
      13 -> 18        -0.17551
      13 -> 19         0.40358
      13 -> 21         0.11880
      13 -> 22        -0.23670
      13 -> 23        -0.19528
 
 Excited State   9:      Singlet-A      6.6308 eV  186.98 nm  f=0.1712  <S**2>=0.000
      12 -> 15         0.62726
      13 -> 14        -0.17382
 
 Excited State  10:      Singlet-A      7.0070 eV  176.94 nm  f=0.0088  <S**2>=0.000
      10 -> 14         0.44858
      10 -> 15         0.12118
      11 -> 14         0.43430
      11 -> 15         0.22191
 
 Excited State  11:      Singlet-A      7.0475 eV  175.93 nm  f=0.0002  <S**2>=0.000
      12 -> 17         0.58127
      12 -> 18        -0.12438
      12 -> 19         0.11708
      12 -> 20        -0.13421
      13 -> 17        -0.13872
      13 -> 19         0.19004
      13 -> 20        -0.12611
 
 Excited State  12:      Singlet-A      7.3621 eV  168.41 nm  f=0.0042  <S**2>=0.000
      12 -> 17        -0.13706
      12 -> 18        -0.20914
      12 -> 19         0.28620
      12 -> 20         0.13318
      12 -> 22        -0.10879
      12 -> 23        -0.16355
      13 -> 19         0.35428
      13 -> 20         0.26359
      13 -> 21        -0.16652
      13 -> 24        -0.17693
 
 Excited State  13:      Singlet-A      7.6043 eV  163.05 nm  f=0.0048  <S**2>=0.000
      10 -> 14        -0.15367
      11 -> 14         0.22312
      12 -> 18         0.16360
      12 -> 19        -0.10063
      13 -> 18         0.21485
      13 -> 19         0.15190
      13 -> 22         0.49141
      13 -> 23        -0.16242
 
 Excited State  14:      Singlet-A      7.6424 eV  162.23 nm  f=0.0024  <S**2>=0.000
       8 -> 15        -0.10920
       9 -> 14        -0.26169
       9 -> 15         0.12081
      10 -> 14        -0.37690
      11 -> 14         0.40660
      13 -> 22        -0.19412
 
 Excited State  15:      Singlet-A      7.7389 eV  160.21 nm  f=0.0000  <S**2>=0.000
       9 -> 14         0.39526
       9 -> 15        -0.27805
      10 -> 14        -0.11812
      10 -> 15         0.18617
      11 -> 14         0.17366
      11 -> 15        -0.34945
      13 -> 19        -0.10402
 SavETr:  write IOETrn=   770 NScale= 10 NData=  16 NLR=1 NState=   15 LETran=     280.
 The selected state is a singlet
 CISAX will form     1 AO SS matrices at one time.
 NMat=     1 NSing=     1 JSym2X= 0.
 Leave Link  914 at Tue Dec 15 16:11:17 2015, MaxMem=    33554432 cpu:         0.1
 (Enter /home/Applications/g09/g09/l1002.exe)
 Minotr:  Closed shell wavefunction.
          Computing CIS/TD-HF/TD-KS derivatives.
          Using Z-Vector for PSCF gradient.
          Skipping F1 and S1 gradient terms here.
          IDoAtm=111111111
          Direct CPHF calculation.
          Differentiating once with respect to electric field.
                with respect to dipole field.
          Differentiating once with respect to nuclear coordinates.
          Electric field/nuclear overlap derivatives assumed to be zero.
          Requested convergence is 1.0D-10 RMS, and 1.0D-09 maximum.
          NewPWx=T KeepS1=F KeepF1=F KeepIn=T MapXYZ=F SortEE=F KeepMc=T.
          MDV=      33495423 using IRadAn=       0.
 Keep J ints in memory in canonical form, NReq=871704.
 FoFCou: FMM=F IPFlag=           0 FMFlag=           0 FMFlg1=           0
         NFxFlg=           0 DoJE=F BraDBF=F KetDBF=F FulRan=T
         wScrn=  0.000000 ICntrl=     600 IOpCl=  2 I1Cent=           0 NGrid=           0
         NMat0=    1 NMatS0=     54 NMatT0=    0 NMatD0=    1 NMtDS0=    0 NMtDT0=    0
 Symmetry not used in FoFCou.
          Solving linear equations separately, MaxMat=       0.
          There are     1 degrees of freedom in the 1st order CPHF.  IDoFFX=0 NUNeed=     1.
 LinEq1:  Iter=  0 NonCon=     1 RMS=1.14D-02 Max=6.80D-02 NDo=     1
 AX will form     1 AO Fock derivatives at one time.
 LinEq1:  Iter=  1 NonCon=     1 RMS=2.23D-03 Max=1.18D-02 NDo=     1
 LinEq1:  Iter=  2 NonCon=     1 RMS=3.21D-04 Max=1.81D-03 NDo=     1
 LinEq1:  Iter=  3 NonCon=     1 RMS=3.89D-05 Max=1.72D-04 NDo=     1
 LinEq1:  Iter=  4 NonCon=     1 RMS=3.39D-06 Max=1.05D-05 NDo=     1
 LinEq1:  Iter=  5 NonCon=     1 RMS=4.43D-07 Max=2.47D-06 NDo=     1
 LinEq1:  Iter=  6 NonCon=     1 RMS=7.26D-08 Max=3.65D-07 NDo=     1
 LinEq1:  Iter=  7 NonCon=     1 RMS=9.99D-09 Max=4.02D-08 NDo=     1
 LinEq1:  Iter=  8 NonCon=     1 RMS=1.37D-09 Max=6.20D-09 NDo=     1
 LinEq1:  Iter=  9 NonCon=     1 RMS=1.60D-10 Max=5.14D-10 NDo=     1
 LinEq1:  Iter= 10 NonCon=     0 RMS=1.55D-11 Max=4.96D-11 NDo=     1
 Linear equations converged to 1.000D-10 1.000D-09 after    10 iterations.
 End of Minotr F.D. properties file   721 does not exist.
 End of Minotr F.D. properties file   722 does not exist.
 End of Minotr F.D. properties file   788 does not exist.
 Leave Link 1002 at Tue Dec 15 16:11:17 2015, MaxMem=    33554432 cpu:         0.0
 (Enter /home/Applications/g09/g09/l601.exe)
 Copying SCF densities to generalized density rwf, IOpCl= 0 IROHF=0.

 **********************************************************************

            Population analysis using the SCF density.

 **********************************************************************

 Orbital symmetries:
       Occupied  (A) (A) (A) (A) (A) (A) (A) (A) (A) (A) (A) (A)
                 (A)
       Virtual   (A) (A) (A) (A) (A) (A) (A) (A) (A) (A) (A)
 The electronic state is 1-A.
 Alpha  occ. eigenvalues --   -1.56670  -1.24599  -1.10585  -0.82822  -0.80708
 Alpha  occ. eigenvalues --   -0.68673  -0.59998  -0.56083  -0.51630  -0.50695
 Alpha  occ. eigenvalues --   -0.49214  -0.40131  -0.35217
 Alpha virt. eigenvalues --    0.03075   0.06680   0.10205   0.13235   0.14488
 Alpha virt. eigenvalues --    0.15963   0.17627   0.18453   0.18818   0.20721
 Alpha virt. eigenvalues --    0.22082
     Molecular Orbital Coefficients:
                           1         2         3         4         5
                           O         O         O         O         O
     Eigenvalues --    -1.56670  -1.24599  -1.10585  -0.82822  -0.80708
   1 1   C  1S          0.31521  -0.49009  -0.23851   0.17893  -0.36491
   2        1PX         0.06515  -0.05612   0.17888  -0.24295  -0.08741
   3        1PY        -0.12341   0.04975   0.13982  -0.09633  -0.28749
   4        1PZ        -0.00158   0.00241   0.00005  -0.00043   0.00333
   5 2   C  1S          0.39194  -0.18409  -0.48101   0.02645   0.39207
   6        1PX         0.17878   0.05546   0.02338  -0.12397  -0.07153
   7        1PY         0.00386  -0.25716  -0.02151   0.32304  -0.18130
   8        1PZ        -0.00081   0.00017  -0.00034  -0.00042   0.00022
   9 3   O  1S          0.61427   0.61601  -0.05676  -0.12294  -0.27201
  10        1PX        -0.00164   0.03099   0.29308   0.47117  -0.22609
  11        1PY         0.20056  -0.01056   0.00924   0.06244   0.18061
  12        1PZ        -0.00191  -0.00111  -0.00136  -0.00332   0.00158
  13 4   C  1S          0.35936  -0.04732   0.52510   0.30277   0.30115
  14        1PX        -0.17845  -0.05733   0.02136   0.00451   0.15371
  15        1PY        -0.01235  -0.22330   0.06877  -0.33224   0.14177
  16        1PZ         0.00446   0.00106   0.00627   0.00741   0.00319
  17 5   C  1S          0.27920  -0.40296   0.38073  -0.42137  -0.09404
  18        1PX        -0.06821   0.09642   0.13745  -0.07504   0.25793
  19        1PY        -0.11046   0.02674  -0.11617  -0.13626  -0.22543
  20        1PZ         0.00278  -0.00444   0.00424  -0.00859  -0.00367
  21 6   H  1S          0.06254  -0.12738   0.15694  -0.27212  -0.04669
  22 7   H  1S          0.08060  -0.00429   0.20933   0.21884   0.18425
  23 8   H  1S          0.08347  -0.04355  -0.18698  -0.01139   0.25310
  24 9   H  1S          0.06832  -0.15684  -0.09087   0.11050  -0.25745
                           6         7         8         9        10
                           O         O         O         O         O
     Eigenvalues --    -0.68673  -0.59998  -0.56083  -0.51630  -0.50695
   1 1   C  1S         -0.07125   0.00579  -0.17752  -0.01929  -0.00354
   2        1PX         0.23642   0.00988  -0.03289  -0.02202  -0.12531
   3        1PY        -0.19774  -0.01576  -0.22465   0.50816  -0.04478
   4        1PZ        -0.00690   0.25842   0.01517   0.00200   0.00112
   5 2   C  1S         -0.09395  -0.00339   0.13506   0.01619   0.05698
   6        1PX         0.37618   0.03491  -0.31880  -0.17024   0.34204
   7        1PY         0.07602   0.01161   0.15129  -0.43980   0.05221
   8        1PZ        -0.00822   0.40194   0.01140   0.00832  -0.02117
   9 3   O  1S         -0.19394  -0.00311  -0.00120  -0.17188  -0.11133
  10        1PX         0.01398  -0.00689   0.45386   0.04616  -0.07162
  11        1PY         0.46363   0.02237   0.03693   0.44070   0.40781
  12        1PZ        -0.01876   0.76106   0.00955   0.02260  -0.05582
  13 4   C  1S         -0.07865  -0.01211  -0.14460   0.08984  -0.03904
  14        1PX        -0.36970   0.01481  -0.38232  -0.24205   0.15616
  15        1PY         0.07307  -0.00514  -0.08900  -0.10370  -0.33768
  16        1PZ        -0.01641   0.37297   0.00433   0.01256   0.00371
  17 5   C  1S         -0.08629  -0.01220   0.17092  -0.01777  -0.04266
  18        1PX        -0.21416  -0.00435   0.18662  -0.09926   0.20763
  19        1PY        -0.21539   0.00837   0.19895   0.03964   0.49097
  20        1PZ        -0.01444   0.22140   0.02326   0.00403   0.02817
  21 6   H  1S         -0.23159   0.00716   0.30039  -0.03798   0.38431
  22 7   H  1S         -0.26381   0.02032  -0.31132  -0.07203   0.21183
  23 8   H  1S         -0.26710  -0.02822   0.22646   0.29985  -0.22711
  24 9   H  1S         -0.21823  -0.01204  -0.22079   0.32544   0.03243
                          11        12        13        14        15
                           O         O         O         V         V
     Eigenvalues --    -0.49214  -0.40131  -0.35217   0.03075   0.06680
   1 1   C  1S         -0.00729   0.01091  -0.00102  -0.01195   0.00576
   2        1PX         0.54540   0.00910  -0.00336  -0.01641  -0.00654
   3        1PY        -0.07276   0.00951  -0.00006  -0.00353   0.01053
   4        1PZ        -0.00764   0.64457  -0.22541  -0.19614   0.65287
   5 2   C  1S          0.08773  -0.00516  -0.00689  -0.00129  -0.01175
   6        1PX        -0.09296  -0.00637  -0.00672  -0.01223  -0.01151
   7        1PY        -0.14418  -0.00903   0.00261   0.00934   0.02194
   8        1PZ        -0.01144   0.33048  -0.50538   0.44261  -0.52566
   9 3   O  1S         -0.07053  -0.00080   0.00363   0.00639   0.01504
  10        1PX         0.06442  -0.00936  -0.00183   0.00227   0.00745
  11        1PY        -0.07905  -0.01553  -0.00764   0.01391   0.03463
  12        1PZ        -0.01318  -0.52695  -0.11617  -0.34579   0.07424
  13 4   C  1S         -0.02804   0.00658  -0.01393  -0.03284  -0.02926
  14        1PX         0.16712  -0.00688  -0.01624  -0.01667   0.00831
  15        1PY        -0.35652   0.00919   0.02711   0.02110   0.02621
  16        1PZ         0.01346   0.01328   0.61599   0.64506   0.24243
  17 5   C  1S          0.06100  -0.01458  -0.01465   0.02997   0.02648
  18        1PX        -0.48002  -0.00962  -0.00491   0.00389   0.01511
  19        1PY         0.22266  -0.02987  -0.03573   0.01711   0.02512
  20        1PZ         0.00681   0.44184   0.54581  -0.47349  -0.47423
  21 6   H  1S         -0.06653  -0.00807   0.00000  -0.02500  -0.03655
  22 7   H  1S          0.24690  -0.00475   0.00201   0.03488   0.02841
  23 8   H  1S          0.19307   0.00428   0.00259  -0.00290   0.01484
  24 9   H  1S         -0.31920   0.00126   0.00503   0.00066  -0.01760
                          16        17        18        19        20
                           V         V         V         V         V
     Eigenvalues --     0.10205   0.13235   0.14488   0.15963   0.17627
   1 1   C  1S          0.05970   0.16967   0.29274  -0.10442  -0.32040
   2        1PX        -0.06139   0.37956  -0.11612   0.18370  -0.23621
   3        1PY         0.03956  -0.04026   0.08651   0.30409  -0.27351
   4        1PZ        -0.03613  -0.00473  -0.00159  -0.01258   0.00575
   5 2   C  1S         -0.29283  -0.17398  -0.21800   0.33733  -0.17940
   6        1PX        -0.23712   0.40726  -0.09465  -0.02756   0.26537
   7        1PY         0.32774   0.02445   0.03843   0.14553   0.16270
   8        1PZ         0.02470   0.00751   0.00221   0.00733  -0.00068
   9 3   O  1S          0.22708  -0.00979   0.00378   0.06089  -0.02692
  10        1PX        -0.02309   0.17406  -0.27385   0.21505  -0.10796
  11        1PY         0.50240  -0.02815  -0.01001   0.10558  -0.08710
  12        1PZ        -0.00235  -0.00953  -0.00363  -0.00887   0.00234
  13 4   C  1S         -0.26679  -0.04373   0.46657   0.13056   0.19464
  14        1PX         0.20375   0.21680  -0.01332   0.41749  -0.01329
  15        1PY         0.31646  -0.03376   0.09583   0.13628  -0.00961
  16        1PZ        -0.05467   0.02231   0.03516   0.01119   0.00173
  17 5   C  1S          0.06035  -0.21801  -0.31582   0.07008   0.23924
  18        1PX        -0.02646   0.36018  -0.13902   0.16827  -0.25400
  19        1PY         0.03916  -0.16608   0.24952   0.27815   0.35721
  20        1PZ         0.05285  -0.02610  -0.02644   0.02650   0.02556
  21 6   H  1S         -0.11763   0.11413   0.20202  -0.38575  -0.29491
  22 7   H  1S          0.29113  -0.18445  -0.35708  -0.38907  -0.13695
  23 8   H  1S          0.28331   0.52685   0.10827  -0.20479   0.35884
  24 9   H  1S         -0.17871   0.12937  -0.41218  -0.04795   0.30824
                          21        22        23        24
                           V         V         V         V
     Eigenvalues --     0.18453   0.18818   0.20721   0.22082
   1 1   C  1S         -0.27614   0.04832   0.25764  -0.15639
   2        1PX         0.35753  -0.03551   0.29088   0.24137
   3        1PY        -0.11817  -0.38086  -0.34563   0.24255
   4        1PZ         0.01368   0.00872  -0.00934  -0.00014
   5 2   C  1S          0.10155  -0.19739  -0.17126   0.00846
   6        1PX        -0.18484  -0.33251  -0.26094  -0.17190
   7        1PY         0.19889  -0.17375  -0.21533   0.52585
   8        1PZ        -0.00405  -0.00334  -0.00016   0.00027
   9 3   O  1S          0.06505   0.07527  -0.00697  -0.00064
  10        1PX        -0.00392  -0.08431  -0.12256  -0.48617
  11        1PY         0.05848   0.24951   0.00525  -0.00688
  12        1PZ        -0.00233  -0.00513   0.00457   0.00553
  13 4   C  1S          0.11997   0.00242   0.07935   0.06585
  14        1PX         0.00326   0.42563  -0.25179  -0.19594
  15        1PY         0.34995  -0.31875   0.07672  -0.43424
  16        1PZ         0.00365   0.02403  -0.01126   0.00839
  17 5   C  1S         -0.37008   0.15313  -0.06525   0.07679
  18        1PX        -0.24818  -0.07894   0.41911   0.21090
  19        1PY         0.07815  -0.25860   0.35860  -0.15799
  20        1PZ        -0.02758  -0.01557   0.02213  -0.00267
  21 6   H  1S          0.36989   0.08706  -0.35914  -0.05166
  22 7   H  1S          0.03322  -0.38940   0.13144  -0.03739
  23 8   H  1S         -0.11163  -0.14057  -0.12178   0.04712
  24 9   H  1S          0.44426   0.19334   0.15740   0.05363
     Density Matrix:
                           1         2         3         4         5
   1 1   C  1S          1.19759
   2        1PX        -0.04030   0.95374
   3        1PY         0.07183  -0.04396   0.96924
   4        1PZ         0.00718   0.00456   0.00191   1.06683
   5 2   C  1S          0.34329  -0.15447  -0.50503  -0.00064   1.22332
   6        1PX         0.12040   0.11802  -0.16394  -0.00116  -0.10512
   7        1PY         0.46676  -0.22855  -0.51979  -0.00545  -0.01370
   8        1PZ         0.00920   0.00511   0.00390   0.86222   0.00108
   9 3   O  1S          0.00149  -0.03530  -0.00324  -0.00218   0.09499
  10        1PX        -0.00321  -0.02560  -0.04079  -0.00391  -0.32223
  11        1PY        -0.07507  -0.02213   0.05807  -0.00595   0.26699
  12        1PZ        -0.00525  -0.00393  -0.00127  -0.23286   0.00132
  13 4   C  1S         -0.02919  -0.01224   0.01741   0.00634   0.01559
  14        1PX         0.01721  -0.03380  -0.01185  -0.00226  -0.01288
  15        1PY        -0.01121  -0.07471  -0.02929  -0.00226  -0.04263
  16        1PZ         0.00256   0.00716   0.00094  -0.06760  -0.00375
  17 5   C  1S          0.25849   0.46455   0.06704  -0.01626  -0.02699
  18        1PX        -0.44480  -0.66422  -0.11780   0.00605   0.00416
  19        1PY         0.02666   0.04968   0.11219  -0.01213   0.02261
  20        1PZ         0.00813   0.00778   0.00102   0.43878  -0.00365
  21 6   H  1S         -0.04791  -0.07750  -0.01204   0.00647   0.04952
  22 7   H  1S          0.04494   0.06278   0.00549  -0.00514   0.04992
  23 8   H  1S         -0.05964   0.02278   0.08129  -0.00074   0.58838
  24 9   H  1S          0.56882  -0.47425   0.62908  -0.00709  -0.05772
                           6         7         8         9        10
   6        1PX         0.91025
   7        1PY         0.09158   0.89932
   8        1PZ         0.00179  -0.00374   1.05405
   9 3   O  1S          0.20477  -0.16045  -0.00083   1.86736
  10        1PX        -0.42380   0.43063   0.00188  -0.00542   1.15541
  11        1PY         0.50041  -0.25839   0.00022  -0.29251  -0.00014
  12        1PZ        -0.00251   0.00260   0.38450   0.00544   0.01163
  13 4   C  1S          0.00984  -0.04025   0.00941   0.09788   0.32973
  14        1PX         0.03286  -0.01612   0.00699  -0.20804  -0.43629
  15        1PY         0.01759  -0.01147  -0.00772  -0.16031  -0.43675
  16        1PZ        -0.00205  -0.00124  -0.31392   0.00396   0.00746
  17 5   C  1S         -0.01798  -0.01303   0.00026  -0.00184   0.00828
  18        1PX        -0.04073   0.07333   0.00364   0.03574  -0.03766
  19        1PY         0.01758  -0.03571   0.00623  -0.00498   0.04462
  20        1PZ        -0.00321   0.00019  -0.08220   0.00039   0.00037
  21 6   H  1S          0.01274   0.04908  -0.00435   0.02034   0.04769
  22 7   H  1S          0.08252  -0.05106  -0.00780  -0.03834  -0.05028
  23 8   H  1S         -0.65786  -0.38399  -0.00264  -0.04127   0.04572
  24 9   H  1S         -0.04140  -0.04125  -0.00435   0.02513  -0.06479
                          11        12        13        14        15
  11        1PY         1.32166
  12        1PZ         0.01137   1.74928
  13 4   C  1S          0.26906  -0.01653   1.25465
  14        1PX        -0.49620   0.00855   0.09858   0.90703
  15        1PY        -0.23945   0.01716   0.01015  -0.08803   0.90243
  16        1PZ         0.00790   0.41101  -0.00738  -0.00115   0.00819
  17 5   C  1S         -0.08642   0.01034   0.28822  -0.12079   0.42379
  18        1PX         0.03007   0.00223   0.16882   0.06605   0.25825
  19        1PY         0.07154   0.00637  -0.48916   0.17839  -0.56660
  20        1PZ         0.00051  -0.25760  -0.02160  -0.01675   0.01164
  21 6   H  1S          0.07832  -0.00776  -0.05491   0.04023  -0.04726
  22 7   H  1S         -0.06616   0.00427   0.60926   0.65655  -0.35195
  23 8   H  1S         -0.06290   0.00126   0.05126  -0.08328  -0.05431
  24 9   H  1S          0.09427   0.00144   0.05255  -0.01290   0.05548
                          16        17        18        19        20
  16        1PZ         1.03898
  17 5   C  1S         -0.02278   1.22956
  18        1PX        -0.01292   0.03213   0.93843
  19        1PY        -0.02498   0.07631   0.04206   0.95241
  20        1PZ         0.85040  -0.00925   0.00276  -0.01304   1.08778
  21 6   H  1S          0.01337   0.59835   0.46920   0.60274   0.04498
  22 7   H  1S          0.03764  -0.05791  -0.03016   0.09312   0.01201
  23 8   H  1S          0.00378   0.05760  -0.07904   0.00267   0.00222
  24 9   H  1S          0.00147  -0.04033   0.05247   0.00461  -0.00160
                          21        22        23        24
  21 6   H  1S          0.83709
  22 7   H  1S          0.01153   0.82030
  23 8   H  1S         -0.01831  -0.02150   0.82046
  24 9   H  1S         -0.00521  -0.01083   0.00069   0.84283
    Full Mulliken population analysis:
                           1         2         3         4         5
   1 1   C  1S          1.19759
   2        1PX         0.00000   0.95374
   3        1PY         0.00000   0.00000   0.96924
   4        1PZ         0.00000   0.00000   0.00000   1.06683
   5 2   C  1S          0.00000   0.00000   0.00000   0.00000   1.22332
   6        1PX         0.00000   0.00000   0.00000   0.00000   0.00000
   7        1PY         0.00000   0.00000   0.00000   0.00000   0.00000
   8        1PZ         0.00000   0.00000   0.00000   0.00000   0.00000
   9 3   O  1S          0.00000   0.00000   0.00000   0.00000   0.00000
  10        1PX         0.00000   0.00000   0.00000   0.00000   0.00000
  11        1PY         0.00000   0.00000   0.00000   0.00000   0.00000
  12        1PZ         0.00000   0.00000   0.00000   0.00000   0.00000
  13 4   C  1S          0.00000   0.00000   0.00000   0.00000   0.00000
  14        1PX         0.00000   0.00000   0.00000   0.00000   0.00000
  15        1PY         0.00000   0.00000   0.00000   0.00000   0.00000
  16        1PZ         0.00000   0.00000   0.00000   0.00000   0.00000
  17 5   C  1S          0.00000   0.00000   0.00000   0.00000   0.00000
  18        1PX         0.00000   0.00000   0.00000   0.00000   0.00000
  19        1PY         0.00000   0.00000   0.00000   0.00000   0.00000
  20        1PZ         0.00000   0.00000   0.00000   0.00000   0.00000
  21 6   H  1S          0.00000   0.00000   0.00000   0.00000   0.00000
  22 7   H  1S          0.00000   0.00000   0.00000   0.00000   0.00000
  23 8   H  1S          0.00000   0.00000   0.00000   0.00000   0.00000
  24 9   H  1S          0.00000   0.00000   0.00000   0.00000   0.00000
                           6         7         8         9        10
   6        1PX         0.91025
   7        1PY         0.00000   0.89932
   8        1PZ         0.00000   0.00000   1.05405
   9 3   O  1S          0.00000   0.00000   0.00000   1.86736
  10        1PX         0.00000   0.00000   0.00000   0.00000   1.15541
  11        1PY         0.00000   0.00000   0.00000   0.00000   0.00000
  12        1PZ         0.00000   0.00000   0.00000   0.00000   0.00000
  13 4   C  1S          0.00000   0.00000   0.00000   0.00000   0.00000
  14        1PX         0.00000   0.00000   0.00000   0.00000   0.00000
  15        1PY         0.00000   0.00000   0.00000   0.00000   0.00000
  16        1PZ         0.00000   0.00000   0.00000   0.00000   0.00000
  17 5   C  1S          0.00000   0.00000   0.00000   0.00000   0.00000
  18        1PX         0.00000   0.00000   0.00000   0.00000   0.00000
  19        1PY         0.00000   0.00000   0.00000   0.00000   0.00000
  20        1PZ         0.00000   0.00000   0.00000   0.00000   0.00000
  21 6   H  1S          0.00000   0.00000   0.00000   0.00000   0.00000
  22 7   H  1S          0.00000   0.00000   0.00000   0.00000   0.00000
  23 8   H  1S          0.00000   0.00000   0.00000   0.00000   0.00000
  24 9   H  1S          0.00000   0.00000   0.00000   0.00000   0.00000
                          11        12        13        14        15
  11        1PY         1.32166
  12        1PZ         0.00000   1.74928
  13 4   C  1S          0.00000   0.00000   1.25465
  14        1PX         0.00000   0.00000   0.00000   0.90703
  15        1PY         0.00000   0.00000   0.00000   0.00000   0.90243
  16        1PZ         0.00000   0.00000   0.00000   0.00000   0.00000
  17 5   C  1S          0.00000   0.00000   0.00000   0.00000   0.00000
  18        1PX         0.00000   0.00000   0.00000   0.00000   0.00000
  19        1PY         0.00000   0.00000   0.00000   0.00000   0.00000
  20        1PZ         0.00000   0.00000   0.00000   0.00000   0.00000
  21 6   H  1S          0.00000   0.00000   0.00000   0.00000   0.00000
  22 7   H  1S          0.00000   0.00000   0.00000   0.00000   0.00000
  23 8   H  1S          0.00000   0.00000   0.00000   0.00000   0.00000
  24 9   H  1S          0.00000   0.00000   0.00000   0.00000   0.00000
                          16        17        18        19        20
  16        1PZ         1.03898
  17 5   C  1S          0.00000   1.22956
  18        1PX         0.00000   0.00000   0.93843
  19        1PY         0.00000   0.00000   0.00000   0.95241
  20        1PZ         0.00000   0.00000   0.00000   0.00000   1.08778
  21 6   H  1S          0.00000   0.00000   0.00000   0.00000   0.00000
  22 7   H  1S          0.00000   0.00000   0.00000   0.00000   0.00000
  23 8   H  1S          0.00000   0.00000   0.00000   0.00000   0.00000
  24 9   H  1S          0.00000   0.00000   0.00000   0.00000   0.00000
                          21        22        23        24
  21 6   H  1S          0.83709
  22 7   H  1S          0.00000   0.82030
  23 8   H  1S          0.00000   0.00000   0.82046
  24 9   H  1S          0.00000   0.00000   0.00000   0.84283
     Gross orbital populations:
                           1
   1 1   C  1S          1.19759
   2        1PX         0.95374
   3        1PY         0.96924
   4        1PZ         1.06683
   5 2   C  1S          1.22332
   6        1PX         0.91025
   7        1PY         0.89932
   8        1PZ         1.05405
   9 3   O  1S          1.86736
  10        1PX         1.15541
  11        1PY         1.32166
  12        1PZ         1.74928
  13 4   C  1S          1.25465
  14        1PX         0.90703
  15        1PY         0.90243
  16        1PZ         1.03898
  17 5   C  1S          1.22956
  18        1PX         0.93843
  19        1PY         0.95241
  20        1PZ         1.08778
  21 6   H  1S          0.83709
  22 7   H  1S          0.82030
  23 8   H  1S          0.82046
  24 9   H  1S          0.84283
          Condensed to atoms (all electrons):
               1          2          3          4          5          6
     1  C    4.187401   0.000000   0.000000   0.000000   0.000000   0.000000
     2  C    0.000000   4.086938   0.000000   0.000000   0.000000   0.000000
     3  O    0.000000   0.000000   6.093706   0.000000   0.000000   0.000000
     4  C    0.000000   0.000000   0.000000   4.103095   0.000000   0.000000
     5  C    0.000000   0.000000   0.000000   0.000000   4.208181   0.000000
     6  H    0.000000   0.000000   0.000000   0.000000   0.000000   0.837089
     7  H    0.000000   0.000000   0.000000   0.000000   0.000000   0.000000
     8  H    0.000000   0.000000   0.000000   0.000000   0.000000   0.000000
     9  H    0.000000   0.000000   0.000000   0.000000   0.000000   0.000000
               7          8          9
     1  C    0.000000   0.000000   0.000000
     2  C    0.000000   0.000000   0.000000
     3  O    0.000000   0.000000   0.000000
     4  C    0.000000   0.000000   0.000000
     5  C    0.000000   0.000000   0.000000
     6  H    0.000000   0.000000   0.000000
     7  H    0.820305   0.000000   0.000000
     8  H    0.000000   0.820459   0.000000
     9  H    0.000000   0.000000   0.842828
 Mulliken charges:
               1
     1  C   -0.187401
     2  C   -0.086938
     3  O   -0.093706
     4  C   -0.103095
     5  C   -0.208181
     6  H    0.162911
     7  H    0.179695
     8  H    0.179541
     9  H    0.157172
 Sum of Mulliken charges =   0.00000
 Mulliken charges with hydrogens summed into heavy atoms:
               1
     1  C   -0.030229
     2  C    0.092604
     3  O   -0.093706
     4  C    0.076600
     5  C   -0.045269
 Charge=              0.0000 electrons
 Dipole moment (field-independent basis, Debye):
    X=             -0.0213    Y=              0.4718    Z=              0.1389  Tot=              0.4923
 N-N= 1.036367620191D+02 E-N=-1.712949638199D+02  KE=-1.657544292555D+01
 Orbital energies and kinetic energies (alpha):
                                 1                 2
   1         O                -1.566698         -1.320723
   2         O                -1.245990         -1.050714
   3         O                -1.105846         -0.966154
   4         O                -0.828222         -0.711650
   5         O                -0.807076         -0.715500
   6         O                -0.686730         -0.604840
   7         O                -0.599979         -0.487337
   8         O                -0.560827         -0.499787
   9         O                -0.516303         -0.425483
  10         O                -0.506953         -0.429184
  11         O                -0.492143         -0.418100
  12         O                -0.401313         -0.342850
  13         O                -0.352165         -0.315400
  14         V                 0.030746         -0.197015
  15         V                 0.066805         -0.186564
  16         V                 0.102046         -0.187266
  17         V                 0.132354         -0.199465
  18         V                 0.144879         -0.222919
  19         V                 0.159631         -0.177468
  20         V                 0.176272         -0.185717
  21         V                 0.184533         -0.180635
  22         V                 0.188183         -0.130364
  23         V                 0.207211         -0.124752
  24         V                 0.220819         -0.049034
 Total kinetic energy from orbitals=-1.657544292555D+01
 Leave Link  601 at Tue Dec 15 16:11:17 2015, MaxMem=    33554432 cpu:         0.0
 (Enter /home/Applications/g09/g09/l701.exe)
 Compute integral first derivatives.
 ... and contract with generalized density number  6.
 Leave Link  701 at Tue Dec 15 16:11:17 2015, MaxMem=    33554432 cpu:         0.0
 (Enter /home/Applications/g09/g09/l702.exe)
 L702 exits ... SP integral derivatives will be done elsewhere.
 Leave Link  702 at Tue Dec 15 16:11:17 2015, MaxMem=    33554432 cpu:         0.0
 (Enter /home/Applications/g09/g09/l703.exe)
 Compute integral first derivatives, UseDBF=F ICtDFT=           0.
 Integral derivatives from FoFJK, PRISM(SPDF).
 Calling FoFJK, ICntrl=  10005127 FMM=F ISym2X=0 I1Cent= 0 IOpClX= 0 NMat=1 NMatS=1 NMatT=0.
 FoFJK:  IHMeth= 8 ICntrl=10005127 DoSepK=F KAlg= 0 I1Cent=   0 FoldK=F
 IRaf=         0 NMat=   1 IRICut=       1 DoRegI=T DoRafI=F ISym2E= 0.
 FoFCou: FMM=F IPFlag=           0 FMFlag=      100000 FMFlg1=         800
         NFxFlg=           0 DoJE=F BraDBF=F KetDBF=F FulRan=T
         wScrn=  0.000000 ICntrl=10005127 IOpCl=  0 I1Cent=           0 NGrid=           0
         NMat0=    1 NMatS0=      1 NMatT0=    0 NMatD0=    1 NMtDS0=    0 NMtDT0=    0
 Symmetry not used in FoFCou.
 Leave Link  703 at Tue Dec 15 16:11:17 2015, MaxMem=    33554432 cpu:         0.0
 (Enter /home/Applications/g09/g09/l716.exe)
 Dipole        =-9.92062356D-03 2.84870170D-01 9.41339531D-02
 ***** Axes restored to original set *****
 -------------------------------------------------------------------
 Center     Atomic                   Forces (Hartrees/Bohr)
 Number     Number              X              Y              Z
 -------------------------------------------------------------------
      1        6           0.228939695    0.074439719    0.007146138
      2        6          -0.185125631   -0.121691142   -0.002309266
      3        8          -0.059780301    0.018627714    0.001344337
      4        6          -0.041745753    0.037862683   -0.000880743
      5        6           0.034290139   -0.047023746   -0.004209621
      6        1           0.028167942    0.009175736    0.001450409
      7        1          -0.013143499    0.022692061   -0.000005541
      8        1           0.002000839    0.008604360   -0.000944134
      9        1           0.006396569   -0.002687385   -0.001591579
 -------------------------------------------------------------------
 Cartesian Forces:  Max     0.228939695 RMS     0.066469881
 Z-matrix is all fixed cartesians, so copy forces.
 Force constants in Cartesian coordinates: 
                1             2             3             4             5 
      1  0.115264D+01
      2  0.436606D-01  0.794598D+00
      3  0.105899D-01  0.105255D-01  0.245508D+00
      4 -0.747864D+00 -0.160220D+00 -0.650483D-02  0.116450D+01
      5 -0.136272D+00 -0.255874D+00 -0.276540D-02  0.751291D-01  0.853852D+00
      6 -0.394266D-02 -0.283857D-02 -0.140285D+00  0.699517D-02  0.699800D-02
      7 -0.825858D-02  0.299781D-01  0.204822D-03 -0.288844D+00  0.154445D+00
      8 -0.675613D-02  0.245218D-01  0.165593D-03  0.200144D+00 -0.333889D+00
      9 -0.411794D-04 -0.519716D-04  0.870873D-02  0.357269D-03 -0.251163D-02
     10  0.937836D-02 -0.500142D-03 -0.668697D-04  0.227187D-01  0.185755D-01
     11  0.333688D-01 -0.177877D-02 -0.379326D-03 -0.173169D-01 -0.141613D-01
     12  0.154263D-02 -0.135773D-03 -0.375373D-03  0.359064D-04  0.924650D-04
     13 -0.164971D+00  0.847450D-03  0.138379D-02  0.101410D-01 -0.367445D-01
     14 -0.248664D-01 -0.379560D+00 -0.128598D-01 -0.548223D-03  0.197822D-02
     15  0.141806D-02 -0.102807D-01 -0.822158D-01  0.118524D-03 -0.170833D-03
     16  0.192900D-01 -0.101204D-02 -0.783259D-03 -0.134242D-05 -0.181293D-04
     17 -0.216268D-01  0.107284D-02  0.291187D-02  0.000000D+00  0.500229D-05
     18 -0.255577D-02 -0.410311D-03  0.180222D-01 -0.981901D-05 -0.132605D-03
     19 -0.147657D-05 -0.337389D-05  0.113659D-03  0.942066D-05  0.101694D-04
     20 -0.645253D-05 -0.147437D-04  0.496682D-03 -0.312319D-05 -0.337142D-05
     21 -0.728937D-04 -0.166558D-03  0.561098D-02 -0.995038D-04 -0.107412D-03
     22  0.752256D-02 -0.273018D-01 -0.349911D-03 -0.155526D+00 -0.937881D-01
     23 -0.395851D-02  0.143789D-01 -0.135041D-03 -0.901877D-01 -0.277324D+00
     24 -0.522891D-03  0.359233D-03  0.400914D-01 -0.481896D-03 -0.151139D-02
     25 -0.267739D+00  0.114552D+00 -0.458735D-02 -0.512945D-02  0.186629D-01
     26  0.116457D+00 -0.197344D+00  0.203991D-02 -0.699761D-02  0.254155D-01
     27 -0.641524D-02  0.299915D-02 -0.950657D-01 -0.410819D-03  0.108814D-03
                6             7             8             9            10 
      6  0.241663D+00
      7 -0.884497D-03  0.546961D+00
      8 -0.156917D-02  0.471113D-02  0.658845D+00
      9 -0.518692D-01  0.116808D-01  0.129041D-01  0.559606D-01
     10  0.143242D-02 -0.283810D+00 -0.203782D+00 -0.143554D-01  0.880280D+00
     11 -0.103764D-02 -0.161424D+00 -0.353859D+00 -0.120036D-01 -0.185204D-01
     12 -0.139747D-02 -0.107849D-01 -0.107191D-01 -0.434824D-01  0.235532D-01
     13 -0.211868D-02 -0.789467D-02  0.602707D-02 -0.237856D-03 -0.451962D+00
     14  0.149735D-03 -0.280912D-01  0.214359D-01 -0.521242D-03  0.889574D-01
     15 -0.107578D-02 -0.132786D-02  0.667106D-03  0.484413D-02  0.242571D-02
     16  0.599084D-03 -0.151319D-05 -0.349735D-05  0.114066D-03 -0.557266D-02
     17 -0.165301D-03 -0.657983D-05 -0.152076D-04  0.495997D-03  0.617021D-02
     18  0.438194D-02 -0.727193D-04 -0.168072D-03  0.548168D-02  0.553859D-04
     19 -0.425531D-03  0.218152D-01 -0.167291D-01  0.251044D-02 -0.171035D+00
     20  0.141074D-03  0.109409D-01 -0.840635D-02  0.165773D-02  0.109097D+00
     21  0.449458D-02  0.123329D-02 -0.115296D-02  0.522384D-02 -0.129145D-01
     22 -0.683740D-03  0.200321D-01  0.163861D-01  0.115623D-03  0.000000D+00
     23 -0.151033D-02 -0.105525D-01 -0.863169D-02 -0.100310D-03  0.000000D+00
     24 -0.919273D-01  0.257730D-04 -0.754828D-05  0.494651D-02 -0.883997D-04
     25 -0.971561D-03  0.105379D-05  0.169422D-05 -0.143774D-03  0.183296D-05
     26 -0.167788D-03  0.000000D+00 -0.154290D-05  0.130932D-03  0.116357D-05
     27  0.360150D-01 -0.746586D-04 -0.120031D-03  0.101860D-01 -0.415377D-04
               11            12            13            14            15 
     11  0.881217D+00
     12 -0.107809D-01  0.174646D+00
     13  0.695193D-01 -0.551032D-02  0.859338D+00
     14 -0.199364D+00  0.277868D-02  0.758569D-01  0.789982D+00
     15  0.559102D-03 -0.866753D-01 -0.195260D-01 -0.709932D-02  0.191561D+00
     16 -0.197669D-01  0.274565D-02 -0.268772D+00 -0.136717D+00  0.194521D-01
     17  0.219251D-01 -0.694344D-03 -0.142023D+00 -0.246355D+00  0.150568D-01
     18  0.537527D-03  0.206400D-01  0.236627D-01  0.178170D-01 -0.773701D-01
     19  0.114135D+00 -0.114345D-01  0.741080D-02  0.263051D-01 -0.254860D-02
     20 -0.333982D+00  0.195769D-01  0.368964D-02  0.131282D-01  0.643122D-03
     21  0.232952D-01 -0.705462D-01  0.739460D-04  0.664683D-03  0.243467D-01
     22  0.000000D+00 -0.646617D-05  0.000000D+00  0.291741D-05 -0.964064D-04
     23  0.000000D+00 -0.284018D-04  0.000000D+00  0.000000D+00 -0.275543D-04
     24 -0.954256D-04  0.399301D-02 -0.220364D-04 -0.297599D-03  0.983421D-02
     25  0.418823D-05 -0.141092D-03  0.167103D-01 -0.899874D-03  0.844806D-04
     26  0.265870D-05 -0.895657D-04  0.228269D-01 -0.124557D-02  0.652300D-03
     27 -0.949116D-04  0.319736D-02  0.229444D-02 -0.632143D-03  0.167513D-01
               16            17            18            19            20 
     16  0.255027D+00
     17  0.157511D+00  0.223445D+00
     18 -0.211540D-01 -0.170172D-01  0.435118D-01
     19 -0.375170D-05 -0.163136D-04 -0.180295D-03  0.141804D+00
     20 -0.163947D-04 -0.712892D-04 -0.787878D-03 -0.123702D+00  0.329349D+00
     21 -0.185209D-03 -0.805349D-03 -0.890059D-02  0.119649D-01 -0.217276D-01
     22  0.000000D+00  0.000000D+00  0.000000D+00  0.000000D+00  0.000000D+00
     23  0.000000D+00  0.000000D+00  0.000000D+00  0.000000D+00  0.000000D+00
     24  0.000000D+00  0.000000D+00  0.000000D+00  0.000000D+00  0.000000D+00
     25  0.347922D-04 -0.960000D-05  0.254484D-03  0.000000D+00  0.000000D+00
     26  0.220862D-04 -0.609411D-05  0.161547D-03  0.000000D+00  0.000000D+00
     27 -0.788445D-03  0.217551D-03 -0.576700D-02  0.000000D+00  0.000000D+00
               21            22            23            24            25 
     21  0.397708D-01
     22  0.000000D+00  0.127973D+00
     23  0.000000D+00  0.104699D+00  0.271575D+00
     24  0.000000D+00  0.865045D-03  0.175709D-02  0.489607D-01
     25  0.000000D+00 -0.219988D-05  0.000000D+00  0.224405D-03  0.256123D+00
     26  0.000000D+00  0.200339D-05  0.000000D+00 -0.204362D-03 -0.132310D+00
     27  0.000000D+00  0.155856D-03  0.445458D-04 -0.158986D-01  0.528040D-02
               26            27 
     26  0.173179D+00
     27 -0.252298D-02  0.505815D-01
 Leave Link  716 at Tue Dec 15 16:11:17 2015, MaxMem=    33554432 cpu:         0.0
 (Enter /home/Applications/g09/g09/l103.exe)

 GradGradGradGradGradGradGradGradGradGradGradGradGradGradGradGradGradGrad
 Berny optimization.
 Search for a local minimum.
 Step number   1 out of a maximum of    2
 All quantities printed in internal units (Hartrees-Bohrs-Radians)
 Second derivative matrix not updated -- first step.
 ITU=  0
     Eigenvalues ---    0.01909   0.03116   0.07149   0.07636   0.07754
     Eigenvalues ---    0.09153   0.13261   0.14403   0.16048   0.24026
     Eigenvalues ---    0.27549   0.30548   0.44833   0.44864   0.62866
     Eigenvalues ---    0.84799   1.06612   1.35104   1.36291   1.48228
     Eigenvalues ---    2.03577
 Quadratic step=5.038D-01 exceeds max=3.000D-01 adjusted using Lamda=-1.500D-01.
 Angle between NR and scaled steps=  19.44 degrees.
 Angle between quadratic step and forces=  40.18 degrees.
 Linear search not attempted -- first point.
 TrRot= -0.009323 -0.001569 -0.000016  0.972621  0.001023 -0.972356
 Variable       Old X    -DE/DX   Delta X   Delta X   Delta X     New X
                                 (Linear)    (Quad)   (Total)
    X1        1.71388   0.22894   0.00000   0.14822   0.13929   1.85317
    Y1       -1.44703   0.07444   0.00000   0.01633   0.01527  -1.43176
    Z1        0.00421   0.00715   0.00000   0.00936   0.00948   0.01369
    X2       -0.58547  -0.18513   0.00000  -0.08157  -0.09033  -0.67579
    Y2       -2.08026  -0.12169   0.00000  -0.08131  -0.08307  -2.16333
    Z2       -0.02010  -0.00231   0.00000  -0.00032   0.00187  -0.01823
    X3       -2.23756  -0.05978   0.00000  -0.10768  -0.11699  -2.35455
    Y3       -0.06065   0.01863   0.00000   0.01837   0.01618  -0.04448
    Z3       -0.00841   0.00134   0.00000   0.00597   0.00734  -0.00107
    X4       -0.66605  -0.04175   0.00000  -0.05090  -0.06072  -0.72678
    Y4        2.00124   0.03786   0.00000   0.04411   0.04241   2.04365
    Z4        0.07565  -0.00088   0.00000  -0.00826  -0.00959   0.06606
    X5        1.86088   0.03429   0.00000   0.05656   0.04694   1.90782
    Y5        1.29048  -0.04702   0.00000  -0.01886  -0.01986   1.27061
    Z5        0.08738  -0.00421   0.00000  -0.01133  -0.01353   0.07386
    X6        3.32766   0.02817   0.00000   0.09882   0.08877   3.41643
    Y6        2.61656   0.00918   0.00000  -0.00013  -0.00083   2.61573
    Z6       -0.06313   0.00145   0.00000   0.01303   0.00883  -0.05429
    X7       -1.55092  -0.01314   0.00000  -0.04537  -0.05576  -1.60668
    Y7        3.78133   0.02269   0.00000   0.08176   0.07971   3.86104
    Z7       -0.06400  -0.00001   0.00000   0.00441   0.00205  -0.06195
    X8       -1.56244   0.00200   0.00000  -0.04348  -0.05177  -1.61421
    Y8       -3.93490   0.00860   0.00000  -0.04072  -0.04275  -3.97765
    Z8       -0.03488  -0.00094   0.00000  -0.00886  -0.00459  -0.03946
    X9        3.36686   0.00640   0.00000   0.10917   0.10058   3.46743
    Y9       -2.66099  -0.00269   0.00000  -0.00645  -0.00706  -2.66805
    Z9        0.04315  -0.00159   0.00000  -0.00211  -0.00188   0.04127
         Item               Value     Threshold  Converged?
 Maximum Force            0.228940     0.000450     NO 
 RMS     Force            0.066470     0.000300     NO 
 Maximum Displacement     0.139289     0.001800     NO 
 RMS     Displacement     0.057502     0.001200     NO 
 Predicted change in Energy=-4.637091D-02
 GradGradGradGradGradGradGradGradGradGradGradGradGradGradGradGradGradGrad

 Leave Link  103 at Tue Dec 15 16:11:17 2015, MaxMem=    33554432 cpu:         0.0
 (Enter /home/Applications/g09/g09/l9999.exe)
 1\1\GINC-DUSTIN-DESKTOP\Force\RAM1-FC\STO-3G\C4H4O1\DUSTIN\15-Dec-2015
 \0\\#P AM1(Input,print) CIS(Singlets,NStates=15) pop(full) force\\AM1-
 Reparam Input\\0,1\C,0.906946,-0.765733,0.002229\C,-0.309815,-1.100827
 ,-0.010638\O,-1.184065,-0.032097,-0.004452\C,-0.352461,1.059009,0.0400
 34\C,0.984734,0.68289,0.046241\H,1.760921,1.384623,-0.033405\H,-0.8207
 12,2.000993,-0.033865\H,-0.826806,-2.082259,-0.018456\H,1.781664,-1.40
 8137,0.022833\\Version=ES64L-G09RevD.01\State=1-A\HF=0.0313118\RMSD=2.
 413e-09\RMSF=6.647e-02\Dipole=0.2858206,-0.0061048,-0.0915421\PG=C01 [
 X(C4H4O1)]\\@


 THE MORE PROGRESS PHYSICAL SCIENCES MAKE, THE MORE THEY TEND TO ENTER
 THE DOMAIN OF MATHEMATICS, WHICH IS A KIND OF CENTRE TO WHICH THEY ALL
 CONVERGE.  WE MAY EVEN JUDGE THE DEGREE OF PERFECTION TO WHICH A 
 SCIENCE HAS ARRIVED BY THE FACILITY WITH WHICH IT MAY BE SUBMITTED
 TO CALCULATION.

                               -- ADOLPHE QUETELET, 1796-1874
 Job cpu time:       0 days  0 hours  0 minutes  0.6 seconds.
 File lengths (MBytes):  RWF=      7 Int=      0 D2E=      0 Chk=      2 Scr=      1
 Normal termination of Gaussian 09 at Tue Dec 15 16:11:17 2015.
