 Entering Gaussian System, Link 0=g09
 Input=FuranDFT_55.com
 Output=FuranDFT_55.log
 Initial command:
 /home/Applications/g09/g09/l1.exe "/home/Applications/g09/scratch/Gau-6011.inp" -scrdir="/home/Applications/g09/scratch/"
 Entering Link 1 = /home/Applications/g09/g09/l1.exe PID=      6013.
  
 Copyright (c) 1988,1990,1992,1993,1995,1998,2003,2009,2013,
            Gaussian, Inc.  All Rights Reserved.
  
 This is part of the Gaussian(R) 09 program.  It is based on
 the Gaussian(R) 03 system (copyright 2003, Gaussian, Inc.),
 the Gaussian(R) 98 system (copyright 1998, Gaussian, Inc.),
 the Gaussian(R) 94 system (copyright 1995, Gaussian, Inc.),
 the Gaussian 92(TM) system (copyright 1992, Gaussian, Inc.),
 the Gaussian 90(TM) system (copyright 1990, Gaussian, Inc.),
 the Gaussian 88(TM) system (copyright 1988, Gaussian, Inc.),
 the Gaussian 86(TM) system (copyright 1986, Carnegie Mellon
 University), and the Gaussian 82(TM) system (copyright 1983,
 Carnegie Mellon University). Gaussian is a federally registered
 trademark of Gaussian, Inc.
  
 This software contains proprietary and confidential information,
 including trade secrets, belonging to Gaussian, Inc.
  
 This software is provided under written license and may be
 used, copied, transmitted, or stored only in accord with that
 written license.
  
 The following legend is applicable only to US Government
 contracts under FAR:
  
                    RESTRICTED RIGHTS LEGEND
  
 Use, reproduction and disclosure by the US Government is
 subject to restrictions as set forth in subparagraphs (a)
 and (c) of the Commercial Computer Software - Restricted
 Rights clause in FAR 52.227-19.
  
 Gaussian, Inc.
 340 Quinnipiac St., Bldg. 40, Wallingford CT 06492
  
  
 ---------------------------------------------------------------
 Warning -- This program may not be used in any manner that
 competes with the business of Gaussian, Inc. or will provide
 assistance to any competitor of Gaussian, Inc.  The licensee
 of this program is prohibited from giving any competitor of
 Gaussian, Inc. access to this program.  By using this program,
 the user acknowledges that Gaussian, Inc. is engaged in the
 business of creating and licensing software in the field of
 computational chemistry and represents and warrants to the
 licensee that it is not a competitor of Gaussian, Inc. and that
 it will not use this program in any manner prohibited above.
 ---------------------------------------------------------------
  

 Cite this work as:
 Gaussian 09, Revision D.01,
 M. J. Frisch, G. W. Trucks, H. B. Schlegel, G. E. Scuseria, 
 M. A. Robb, J. R. Cheeseman, G. Scalmani, V. Barone, B. Mennucci, 
 G. A. Petersson, H. Nakatsuji, M. Caricato, X. Li, H. P. Hratchian, 
 A. F. Izmaylov, J. Bloino, G. Zheng, J. L. Sonnenberg, M. Hada, 
 M. Ehara, K. Toyota, R. Fukuda, J. Hasegawa, M. Ishida, T. Nakajima, 
 Y. Honda, O. Kitao, H. Nakai, T. Vreven, J. A. Montgomery, Jr., 
 J. E. Peralta, F. Ogliaro, M. Bearpark, J. J. Heyd, E. Brothers, 
 K. N. Kudin, V. N. Staroverov, T. Keith, R. Kobayashi, J. Normand, 
 K. Raghavachari, A. Rendell, J. C. Burant, S. S. Iyengar, J. Tomasi, 
 M. Cossi, N. Rega, J. M. Millam, M. Klene, J. E. Knox, J. B. Cross, 
 V. Bakken, C. Adamo, J. Jaramillo, R. Gomperts, R. E. Stratmann, 
 O. Yazyev, A. J. Austin, R. Cammi, C. Pomelli, J. W. Ochterski, 
 R. L. Martin, K. Morokuma, V. G. Zakrzewski, G. A. Voth, 
 P. Salvador, J. J. Dannenberg, S. Dapprich, A. D. Daniels, 
 O. Farkas, J. B. Foresman, J. V. Ortiz, J. Cioslowski, 
 and D. J. Fox, Gaussian, Inc., Wallingford CT, 2013.
 
 ******************************************
 Gaussian 09:  ES64L-G09RevD.01 24-Apr-2013
                15-Dec-2015 
 ******************************************
 -------------------------------------------------------
 #P B3LYP/3-21G CIS(Singlets,NStates=15) pop(full) force
 -------------------------------------------------------
 1/10=7,30=1,38=1/1,3;
 2/12=2,17=6,18=5,40=1/2;
 3/5=5,11=9,16=1,25=1,30=1,71=1,74=-5/1,2,8,3;
 4//1;
 5/5=2,38=5/2;
 8/6=1,10=1,108=15/1;
 9/15=2,41=15,42=1,48=1/14;
 10/5=4/2;
 6/7=3,18=1/1;
 7/12=6,13=5,29=1/1,2,3,16;
 1/10=7,30=1/3;
 99//99;
 Leave Link    1 at Tue Dec 15 16:21:25 2015, MaxMem=           0 cpu:         0.0
 (Enter /home/Applications/g09/g09/l101.exe)
 --------
 FuranDFT
 --------
 Symbolic Z-matrix:
 Charge =  0 Multiplicity = 1
 6                     0.96684  -0.71442  -0.04053 
 6                    -0.30028  -1.05484  -0.01561 
 8                    -1.1943   -0.02554   0.04956 
 6                    -0.31334   1.09123   0.03613 
 6                     0.96918   0.67804   0.0259 
 1                     1.82848   1.37199  -0.03587 
 1                    -0.82522   2.01658  -0.01504 
 1                    -0.80644  -2.06643   0.02038 
 1                     1.82674  -1.41156   0.03151 
 
 NAtoms=      9 NQM=        9 NQMF=       0 NMMI=      0 NMMIF=      0
                NMic=       0 NMicF=      0.
                    Isotopes and Nuclear Properties:
 (Nuclear quadrupole moments (NQMom) in fm**2, nuclear magnetic moments (NMagM)
  in nuclear magnetons)

  Atom         1           2           3           4           5           6           7           8           9
 IAtWgt=          12          12          16          12          12           1           1           1           1
 AtmWgt=  12.0000000  12.0000000  15.9949146  12.0000000  12.0000000   1.0078250   1.0078250   1.0078250   1.0078250
 NucSpn=           0           0           0           0           0           1           1           1           1
 AtZEff=   0.0000000   0.0000000   0.0000000   0.0000000   0.0000000   0.0000000   0.0000000   0.0000000   0.0000000
 NQMom=    0.0000000   0.0000000   0.0000000   0.0000000   0.0000000   0.0000000   0.0000000   0.0000000   0.0000000
 NMagM=    0.0000000   0.0000000   0.0000000   0.0000000   0.0000000   2.7928460   2.7928460   2.7928460   2.7928460
 AtZNuc=   6.0000000   6.0000000   8.0000000   6.0000000   6.0000000   1.0000000   1.0000000   1.0000000   1.0000000
 Leave Link  101 at Tue Dec 15 16:21:25 2015, MaxMem=    33554432 cpu:         0.0
 (Enter /home/Applications/g09/g09/l103.exe)

 GradGradGradGradGradGradGradGradGradGradGradGradGradGradGradGradGradGrad
 Berny optimization.
 Initialization pass.
 Trust Radius=3.00D-01 FncErr=1.00D-07 GrdErr=1.00D-07
 Number of steps in this run=      2 maximum allowed number of steps=      2.
 GradGradGradGradGradGradGradGradGradGradGradGradGradGradGradGradGradGrad

 Leave Link  103 at Tue Dec 15 16:21:25 2015, MaxMem=    33554432 cpu:         0.0
 (Enter /home/Applications/g09/g09/l202.exe)
                          Input orientation:                          
 ---------------------------------------------------------------------
 Center     Atomic      Atomic             Coordinates (Angstroms)
 Number     Number       Type             X           Y           Z
 ---------------------------------------------------------------------
      1          6           0        0.966835   -0.714424   -0.040529
      2          6           0       -0.300282   -1.054842   -0.015614
      3          8           0       -1.194296   -0.025544    0.049556
      4          6           0       -0.313342    1.091231    0.036134
      5          6           0        0.969176    0.678037    0.025901
      6          1           0        1.828476    1.371994   -0.035872
      7          1           0       -0.825216    2.016575   -0.015039
      8          1           0       -0.806443   -2.066431    0.020383
      9          1           0        1.826736   -1.411564    0.031511
 ---------------------------------------------------------------------
                    Distance matrix (angstroms):
                    1          2          3          4          5
     1  C    0.000000
     2  C    1.312285   0.000000
     3  O    2.270057   1.364904   0.000000
     4  C    2.214751   2.146737   1.422479   0.000000
     5  C    1.394047   2.148515   2.275126   1.347474   0.000000
     6  H    2.257341   3.228243   3.331300   2.161341   1.106250
     7  H    3.266566   3.115952   2.076209   1.058723   2.239018
     8  H    2.230728   1.131727   2.077619   3.195970   3.268785
     9  H    1.109335   2.157238   3.323855   3.293014   2.258733
                    6          7          8          9
     6  H    0.000000
     7  H    2.730934   0.000000
     8  H    4.332289   4.083203   0.000000
     9  H    2.784374   4.334415   2.713412   0.000000
 Stoichiometry    C4H4O
 Framework group  C1[X(C4H4O)]
 Deg. of freedom    21
 Full point group                 C1      NOp   1
 Largest Abelian subgroup         C1      NOp   1
 Largest concise Abelian subgroup C1      NOp   1
                         Standard orientation:                         
 ---------------------------------------------------------------------
 Center     Atomic      Atomic             Coordinates (Angstroms)
 Number     Number       Type             X           Y           Z
 ---------------------------------------------------------------------
      1          6           0       -1.158379    0.268987    0.024399
      2          6           0       -0.594766   -0.916088    0.019218
      3          8           0        0.769663   -0.928633   -0.014536
      4          6           0        1.047387    0.466421   -0.002715
      5          6           0       -0.099143    1.174056   -0.022885
      6          1           0       -0.130116    2.278516    0.031869
      7          1           0        2.082167    0.677807    0.071047
      8          1           0       -1.035090   -1.957870   -0.020945
      9          1           0       -2.244857    0.470356   -0.073788
 ---------------------------------------------------------------------
 Rotational constants (GHZ):      9.7895076      9.0735614      4.7116954
 Leave Link  202 at Tue Dec 15 16:21:25 2015, MaxMem=    33554432 cpu:         0.0
 (Enter /home/Applications/g09/g09/l301.exe)
 Standard basis: 3-21G (6D, 7F)
 Ernie: Thresh=  0.10000D-02 Tol=  0.10000D-05 Strict=F.
 There are    53 symmetry adapted cartesian basis functions of A   symmetry.
 There are    53 symmetry adapted basis functions of A   symmetry.
    53 basis functions,    87 primitive gaussians,    53 cartesian basis functions
    18 alpha electrons       18 beta electrons
       nuclear repulsion energy       161.0912485823 Hartrees.
 IExCor=  402 DFT=T Ex+Corr=B3LYP ExCW=0 ScaHFX=  0.200000
 ScaDFX=  0.800000  0.720000  1.000000  0.810000 ScalE2=  1.000000  1.000000
 IRadAn=      0 IRanWt=     -1 IRanGd=            0 ICorTp=0 IEmpDi=  4
 NAtoms=    9 NActive=    9 NUniq=    9 SFac= 1.00D+00 NAtFMM=   60 NAOKFM=F Big=F
 Integral buffers will be    131072 words long.
 Regular integral format.
 Two-electron integral symmetry is turned on.
 Leave Link  301 at Tue Dec 15 16:21:25 2015, MaxMem=    33554432 cpu:         0.0
 (Enter /home/Applications/g09/g09/l302.exe)
 NPDir=0 NMtPBC=     1 NCelOv=     1 NCel=       1 NClECP=     1 NCelD=      1
         NCelK=      1 NCelE2=     1 NClLst=     1 CellRange=     0.0.
 One-electron integrals computed using PRISM.
 NBasis=    53 RedAO= T EigKep=  2.92D-03  NBF=    53
 NBsUse=    53 1.00D-06 EigRej= -1.00D+00 NBFU=    53
 Precomputing XC quadrature grid using
 IXCGrd= 4 IRadAn=           0 IRanWt=          -1 IRanGd=           0 AccXCQ= 0.00D+00.
 Generated NRdTot=       0 NPtTot=           0 NUsed=           0 NTot=          32
 NSgBfM=    53    53    53    53    53 MxSgAt=     9 MxSgA2=     9.
 Leave Link  302 at Tue Dec 15 16:21:25 2015, MaxMem=    33554432 cpu:         0.1
 (Enter /home/Applications/g09/g09/l308.exe)
 Leave Link  308 at Tue Dec 15 16:21:25 2015, MaxMem=    33554432 cpu:         0.0
 (Enter /home/Applications/g09/g09/l303.exe)
 DipDrv:  MaxL=1.
 Leave Link  303 at Tue Dec 15 16:21:25 2015, MaxMem=    33554432 cpu:         0.0
 (Enter /home/Applications/g09/g09/l401.exe)
 ExpMin= 1.83D-01 ExpMax= 3.22D+02 ExpMxC= 3.22D+02 IAcc=1 IRadAn=         1 AccDes= 0.00D+00
 Harris functional with IExCor=  402 and IRadAn=       1 diagonalized for initial guess.
 HarFok:  IExCor=  402 AccDes= 0.00D+00 IRadAn=         1 IDoV= 1 UseB2=F ITyADJ=14
 ICtDFT=  3500011 ScaDFX=  1.000000  1.000000  1.000000  1.000000
 FoFCou: FMM=F IPFlag=           0 FMFlag=      100000 FMFlg1=           0
         NFxFlg=           0 DoJE=T BraDBF=F KetDBF=T FulRan=T
         wScrn=  0.000000 ICntrl=     500 IOpCl=  0 I1Cent=   200000004 NGrid=           0
         NMat0=    1 NMatS0=      1 NMatT0=    0 NMatD0=    1 NMtDS0=    0 NMtDT0=    0
 Petite list used in FoFCou.
 Harris En= -228.730050983495    
 JPrj=0 DoOrth=F DoCkMO=F.
 Leave Link  401 at Tue Dec 15 16:21:26 2015, MaxMem=    33554432 cpu:         0.2
 (Enter /home/Applications/g09/g09/l502.exe)
 Closed shell SCF:
 Using DIIS extrapolation, IDIIS=  1040.
 Integral symmetry usage will be decided dynamically.
 Keep R1 ints in memory in canonical form, NReq=1925595.
 IVT=       27707 IEndB=       27707 NGot=    33554432 MDV=    32502130
 LenX=    32502130 LenY=    32498880
 Requested convergence on RMS density matrix=1.00D-08 within 128 cycles.
 Requested convergence on MAX density matrix=1.00D-06.
 Requested convergence on             energy=1.00D-06.
 No special actions if energy rises.
 FoFCou: FMM=F IPFlag=           0 FMFlag=           0 FMFlg1=           0
         NFxFlg=           0 DoJE=F BraDBF=F KetDBF=F FulRan=T
         wScrn=  0.000000 ICntrl=     600 IOpCl=  0 I1Cent=           0 NGrid=           0
         NMat0=    1 NMatS0=   1431 NMatT0=    0 NMatD0=    1 NMtDS0=    0 NMtDT0=    0
 Symmetry not used in FoFCou.
 Integral accuracy reduced to 1.0D-05 until final iterations.

 Cycle   1  Pass 0  IDiag  1:
 E= -228.653110295481    
 DIIS: error= 3.48D-02 at cycle   1 NSaved=   1.
 NSaved= 1 IEnMin= 1 EnMin= -228.653110295481     IErMin= 1 ErrMin= 3.48D-02
 ErrMax= 3.48D-02  0.00D+00 EMaxC= 1.00D-01 BMatC= 8.21D-02 BMatP= 8.21D-02
 IDIUse=3 WtCom= 6.52D-01 WtEn= 3.48D-01
 Coeff-Com:  0.100D+01
 Coeff-En:   0.100D+01
 Coeff:      0.100D+01
 Gap=     0.226 Goal=   None    Shift=    0.000
 GapD=    0.226 DampG=1.000 DampE=0.500 DampFc=0.5000 IDamp=-1.
 Damping current iteration by 5.00D-01
 RMSDP=1.25D-02 MaxDP=1.29D-01              OVMax= 2.06D-01

 Cycle   2  Pass 0  IDiag  1:
 E= -228.683903620370     Delta-E=       -0.030793324889 Rises=F Damp=T
 DIIS: error= 1.55D-02 at cycle   2 NSaved=   2.
 NSaved= 2 IEnMin= 2 EnMin= -228.683903620370     IErMin= 2 ErrMin= 1.55D-02
 ErrMax= 1.55D-02  0.00D+00 EMaxC= 1.00D-01 BMatC= 1.02D-02 BMatP= 8.21D-02
 IDIUse=3 WtCom= 8.45D-01 WtEn= 1.55D-01
 Coeff-Com:  0.140D+00 0.860D+00
 Coeff-En:   0.240D+00 0.760D+00
 Coeff:      0.156D+00 0.844D+00
 Gap=     0.243 Goal=   None    Shift=    0.000
 RMSDP=4.62D-03 MaxDP=4.00D-02 DE=-3.08D-02 OVMax= 1.76D-01

 Cycle   3  Pass 0  IDiag  1:
 E= -228.727485456993     Delta-E=       -0.043581836623 Rises=F Damp=F
 DIIS: error= 2.06D-02 at cycle   3 NSaved=   3.
 NSaved= 3 IEnMin= 3 EnMin= -228.727485456993     IErMin= 2 ErrMin= 1.55D-02
 ErrMax= 2.06D-02  0.00D+00 EMaxC= 1.00D-01 BMatC= 1.21D-02 BMatP= 1.02D-02
 IDIUse=2 WtCom= 0.00D+00 WtEn= 1.00D+00
 Coeff-En:   0.000D+00 0.000D+00 0.100D+01
 Coeff:      0.000D+00 0.000D+00 0.100D+01
 Gap=     0.236 Goal=   None    Shift=    0.000
 RMSDP=5.89D-03 MaxDP=4.89D-02 DE=-4.36D-02 OVMax= 1.24D-01

 Cycle   4  Pass 0  IDiag  1:
 E= -228.696802160545     Delta-E=        0.030683296447 Rises=F Damp=F
 DIIS: error= 4.14D-02 at cycle   4 NSaved=   4.
 NSaved= 4 IEnMin= 3 EnMin= -228.727485456993     IErMin= 2 ErrMin= 1.55D-02
 ErrMax= 4.14D-02  0.00D+00 EMaxC= 1.00D-01 BMatC= 4.76D-02 BMatP= 1.02D-02
 IDIUse=2 WtCom= 0.00D+00 WtEn= 1.00D+00
 Coeff-En:   0.000D+00 0.000D+00 0.748D+00 0.252D+00
 Coeff:      0.000D+00 0.000D+00 0.748D+00 0.252D+00
 Gap=     0.247 Goal=   None    Shift=    0.000
 RMSDP=2.96D-03 MaxDP=2.45D-02 DE= 3.07D-02 OVMax= 6.81D-02

 Cycle   5  Pass 0  IDiag  1:
 E= -228.735892258775     Delta-E=       -0.039090098229 Rises=F Damp=F
 DIIS: error= 9.51D-03 at cycle   5 NSaved=   5.
 NSaved= 5 IEnMin= 5 EnMin= -228.735892258775     IErMin= 5 ErrMin= 9.51D-03
 ErrMax= 9.51D-03  0.00D+00 EMaxC= 1.00D-01 BMatC= 2.58D-03 BMatP= 1.02D-02
 IDIUse=3 WtCom= 9.05D-01 WtEn= 9.51D-02
 Coeff-Com: -0.103D-01 0.317D-01 0.235D+00-0.929D-01 0.837D+00
 Coeff-En:   0.000D+00 0.000D+00 0.215D+00 0.000D+00 0.785D+00
 Coeff:     -0.931D-02 0.287D-01 0.233D+00-0.840D-01 0.832D+00
 Gap=     0.251 Goal=   None    Shift=    0.000
 RMSDP=1.00D-03 MaxDP=8.08D-03 DE=-3.91D-02 OVMax= 2.12D-02

 Cycle   6  Pass 0  IDiag  1:
 E= -228.738144537850     Delta-E=       -0.002252279076 Rises=F Damp=F
 DIIS: error= 5.93D-04 at cycle   6 NSaved=   6.
 NSaved= 6 IEnMin= 6 EnMin= -228.738144537850     IErMin= 6 ErrMin= 5.93D-04
 ErrMax= 5.93D-04  0.00D+00 EMaxC= 1.00D-01 BMatC= 1.11D-05 BMatP= 2.58D-03
 IDIUse=3 WtCom= 9.94D-01 WtEn= 5.93D-03
 Coeff-Com: -0.576D-02 0.121D-01 0.349D-01-0.374D-01 0.254D+00 0.742D+00
 Coeff-En:   0.000D+00 0.000D+00 0.000D+00 0.000D+00 0.000D+00 0.100D+01
 Coeff:     -0.572D-02 0.121D-01 0.347D-01-0.372D-01 0.253D+00 0.743D+00
 Gap=     0.251 Goal=   None    Shift=    0.000
 RMSDP=7.12D-05 MaxDP=5.45D-04 DE=-2.25D-03 OVMax= 1.34D-03

 Cycle   7  Pass 0  IDiag  1:
 E= -228.738155523386     Delta-E=       -0.000010985535 Rises=F Damp=F
 DIIS: error= 3.94D-05 at cycle   7 NSaved=   7.
 NSaved= 7 IEnMin= 7 EnMin= -228.738155523386     IErMin= 7 ErrMin= 3.94D-05
 ErrMax= 3.94D-05  0.00D+00 EMaxC= 1.00D-01 BMatC= 6.86D-08 BMatP= 1.11D-05
 IDIUse=1 WtCom= 1.00D+00 WtEn= 0.00D+00
 Coeff-Com: -0.154D-02 0.266D-02 0.893D-02-0.943D-02 0.739D-01 0.332D+00
 Coeff-Com:  0.594D+00
 Coeff:     -0.154D-02 0.266D-02 0.893D-02-0.943D-02 0.739D-01 0.332D+00
 Coeff:      0.594D+00
 Gap=     0.251 Goal=   None    Shift=    0.000
 RMSDP=4.87D-06 MaxDP=6.25D-05 DE=-1.10D-05 OVMax= 1.28D-04

 Initial convergence to 1.0D-05 achieved.  Increase integral accuracy.
 Cycle   8  Pass 1  IDiag  1:
 E= -228.738164784925     Delta-E=       -0.000009261539 Rises=F Damp=F
 DIIS: error= 1.46D-05 at cycle   1 NSaved=   1.
 NSaved= 1 IEnMin= 1 EnMin= -228.738164784925     IErMin= 1 ErrMin= 1.46D-05
 ErrMax= 1.46D-05  0.00D+00 EMaxC= 1.00D-01 BMatC= 1.26D-08 BMatP= 1.26D-08
 IDIUse=1 WtCom= 1.00D+00 WtEn= 0.00D+00
 Coeff-Com:  0.100D+01
 Coeff:      0.100D+01
 Gap=     0.251 Goal=   None    Shift=    0.000
 RMSDP=4.87D-06 MaxDP=6.25D-05 DE=-9.26D-06 OVMax= 1.30D-04

 Cycle   9  Pass 1  IDiag  1:
 E= -228.738164779612     Delta-E=        0.000000005312 Rises=F Damp=F
 DIIS: error= 2.23D-05 at cycle   2 NSaved=   2.
 NSaved= 2 IEnMin= 1 EnMin= -228.738164784925     IErMin= 1 ErrMin= 1.46D-05
 ErrMax= 2.23D-05  0.00D+00 EMaxC= 1.00D-01 BMatC= 2.13D-08 BMatP= 1.26D-08
 IDIUse=1 WtCom= 1.00D+00 WtEn= 0.00D+00
 Coeff-Com:  0.577D+00 0.423D+00
 Coeff:      0.577D+00 0.423D+00
 Gap=     0.251 Goal=   None    Shift=    0.000
 RMSDP=3.09D-06 MaxDP=3.68D-05 DE= 5.31D-09 OVMax= 8.79D-05

 Cycle  10  Pass 1  IDiag  1:
 E= -228.738164801347     Delta-E=       -0.000000021735 Rises=F Damp=F
 DIIS: error= 4.52D-06 at cycle   3 NSaved=   3.
 NSaved= 3 IEnMin= 3 EnMin= -228.738164801347     IErMin= 3 ErrMin= 4.52D-06
 ErrMax= 4.52D-06  0.00D+00 EMaxC= 1.00D-01 BMatC= 7.11D-10 BMatP= 1.26D-08
 IDIUse=1 WtCom= 1.00D+00 WtEn= 0.00D+00
 Coeff-Com:  0.361D-01 0.148D+00 0.816D+00
 Coeff:      0.361D-01 0.148D+00 0.816D+00
 Gap=     0.251 Goal=   None    Shift=    0.000
 RMSDP=7.18D-07 MaxDP=6.76D-06 DE=-2.17D-08 OVMax= 1.47D-05

 Cycle  11  Pass 1  IDiag  1:
 E= -228.738164801656     Delta-E=       -0.000000000309 Rises=F Damp=F
 DIIS: error= 3.92D-06 at cycle   4 NSaved=   4.
 NSaved= 4 IEnMin= 4 EnMin= -228.738164801656     IErMin= 4 ErrMin= 3.92D-06
 ErrMax= 3.92D-06  0.00D+00 EMaxC= 1.00D-01 BMatC= 4.68D-10 BMatP= 7.11D-10
 IDIUse=1 WtCom= 1.00D+00 WtEn= 0.00D+00
 Coeff-Com: -0.182D-01 0.699D-01 0.548D+00 0.400D+00
 Coeff:     -0.182D-01 0.699D-01 0.548D+00 0.400D+00
 Gap=     0.251 Goal=   None    Shift=    0.000
 RMSDP=3.45D-07 MaxDP=3.74D-06 DE=-3.09D-10 OVMax= 7.06D-06

 Cycle  12  Pass 1  IDiag  1:
 E= -228.738164802010     Delta-E=       -0.000000000354 Rises=F Damp=F
 DIIS: error= 3.61D-07 at cycle   5 NSaved=   5.
 NSaved= 5 IEnMin= 5 EnMin= -228.738164802010     IErMin= 5 ErrMin= 3.61D-07
 ErrMax= 3.61D-07  0.00D+00 EMaxC= 1.00D-01 BMatC= 6.25D-12 BMatP= 4.68D-10
 IDIUse=1 WtCom= 1.00D+00 WtEn= 0.00D+00
 Coeff-Com: -0.109D-01 0.324D-01 0.253D+00 0.209D+00 0.516D+00
 Coeff:     -0.109D-01 0.324D-01 0.253D+00 0.209D+00 0.516D+00
 Gap=     0.251 Goal=   None    Shift=    0.000
 RMSDP=6.79D-08 MaxDP=8.40D-07 DE=-3.54D-10 OVMax= 1.18D-06

 Cycle  13  Pass 1  IDiag  1:
 E= -228.738164802016     Delta-E=       -0.000000000006 Rises=F Damp=F
 DIIS: error= 1.16D-07 at cycle   6 NSaved=   6.
 NSaved= 6 IEnMin= 6 EnMin= -228.738164802016     IErMin= 6 ErrMin= 1.16D-07
 ErrMax= 1.16D-07  0.00D+00 EMaxC= 1.00D-01 BMatC= 5.60D-13 BMatP= 6.25D-12
 IDIUse=1 WtCom= 1.00D+00 WtEn= 0.00D+00
 Coeff-Com: -0.235D-02 0.646D-02 0.408D-01 0.432D-01 0.258D+00 0.654D+00
 Coeff:     -0.235D-02 0.646D-02 0.408D-01 0.432D-01 0.258D+00 0.654D+00
 Gap=     0.251 Goal=   None    Shift=    0.000
 RMSDP=1.87D-08 MaxDP=2.12D-07 DE=-6.20D-12 OVMax= 4.28D-07

 Cycle  14  Pass 1  IDiag  1:
 E= -228.738164802017     Delta-E=       -0.000000000001 Rises=F Damp=F
 DIIS: error= 3.28D-08 at cycle   7 NSaved=   7.
 NSaved= 7 IEnMin= 7 EnMin= -228.738164802017     IErMin= 7 ErrMin= 3.28D-08
 ErrMax= 3.28D-08  0.00D+00 EMaxC= 1.00D-01 BMatC= 5.08D-14 BMatP= 5.60D-13
 IDIUse=1 WtCom= 1.00D+00 WtEn= 0.00D+00
 Coeff-Com: -0.365D-03 0.697D-03-0.352D-03 0.437D-02 0.100D+00 0.342D+00
 Coeff-Com:  0.554D+00
 Coeff:     -0.365D-03 0.697D-03-0.352D-03 0.437D-02 0.100D+00 0.342D+00
 Coeff:      0.554D+00
 Gap=     0.251 Goal=   None    Shift=    0.000
 RMSDP=4.97D-09 MaxDP=8.18D-08 DE=-6.82D-13 OVMax= 7.62D-08

 SCF Done:  E(RB3LYP) =  -228.738164802     A.U. after   14 cycles
            NFock= 14  Conv=0.50D-08     -V/T= 2.0079
 KE= 2.269456087111D+02 PE=-8.548059854054D+02 EE= 2.380309633100D+02
 Leave Link  502 at Tue Dec 15 16:21:30 2015, MaxMem=    33554432 cpu:         3.9
 (Enter /home/Applications/g09/g09/l801.exe)
 DoSCS=F DFT=T ScalE2(SS,OS)=  1.000000  1.000000
 ExpMin= 1.83D-01 ExpMax= 3.22D+02 ExpMxC= 3.22D+02 IAcc=3 IRadAn=         5 AccDes= 0.00D+00
 HarFok:  IExCor=  205 AccDes= 0.00D+00 IRadAn=         5 IDoV=-2 UseB2=F ITyADJ=14
 ICtDFT= 12500011 ScaDFX=  1.000000  1.000000  1.000000  1.000000
 Largest valence mixing into a core orbital is  1.78D-04
 Largest core mixing into a valence orbital is  4.82D-05
 Range of M.O.s used for correlation:     6    53
 NBasis=    53 NAE=    18 NBE=    18 NFC=     5 NFV=     0
 NROrb=     48 NOA=    13 NOB=    13 NVA=    35 NVB=    35
 Leave Link  801 at Tue Dec 15 16:21:30 2015, MaxMem=    33554432 cpu:         0.2
 (Enter /home/Applications/g09/g09/l914.exe)
 RHF ground state
 MDV=    33554432 DFT=T DoStab=F Mixed=T DoRPA=F DoScal=F NonHer=F
 Keep R1, R2, and R3 ints in memory in canonical form, NReq=5596273.
 FoFCou: FMM=F IPFlag=           0 FMFlag=           0 FMFlg1=           0
         NFxFlg=           0 DoJE=F BraDBF=F KetDBF=F FulRan=T
         wScrn=  0.000000 ICntrl=     600 IOpCl=  0 I1Cent=           0 NGrid=           0
         NMat0=    1 NMatS0=   1431 NMatT0=    0 NMatD0=    1 NMtDS0=    0 NMtDT0=    0
 Symmetry not used in FoFCou.
 Making orbital integer symmetry assigments:
 Orbital symmetries:
       Occupied  (A) (A) (A) (A) (A) (A) (A) (A) (A) (A) (A) (A)
                 (A) (A) (A) (A) (A) (A)
       Virtual   (A) (A) (A) (A) (A) (A) (A) (A) (A) (A) (A) (A)
                 (A) (A) (A) (A) (A) (A) (A) (A) (A) (A) (A) (A)
                 (A) (A) (A) (A) (A) (A) (A) (A) (A) (A) (A)
    60 initial guesses have been made.
 Convergence on wavefunction:    0.000001000000000
 Davidson Disk Diagonalization:  ConvIn= 1.00D-06 SkipCon=T Conv= 1.00D-06.
 Max sub-space:   240 roots to seek:    60 dimension of matrix:          910
 Iteration     1 Dimension    60 NMult     0 NNew     60
 CISAX will form    60 AO SS matrices at one time.
 NMat=    60 NSing=    60 JSym2X= 0.
 New state      1 was old state      2
 New state      2 was old state      1
 New state      3 was old state      4
 New state      4 was old state      7
 New state      5 was old state      6
 New state      6 was old state      8
 New state      7 was old state      9
 New state      8 was old state     11
 New state      9 was old state     10
 New state     10 was old state     12
 New state     11 was old state      5
 New state     12 was old state     13
 New state     13 was old state     15
 New state     15 was old state      3
 Excitation Energies [eV] at current iteration:
 Root      1 :     7.591780252639963
 Root      2 :     7.893239056402729
 Root      3 :     8.217555607396328
 Root      4 :     9.095448848968640
 Root      5 :     9.122763862182740
 Root      6 :     9.639450467385977
 Root      7 :     9.879307995233221
 Root      8 :     9.947614606907054
 Root      9 :    10.206789675388660
 Root     10 :    10.315863445567730
 Root     11 :    10.500020871163300
 Root     12 :    10.536838489506520
 Root     13 :    10.694143587838020
 Root     14 :    10.729544492722000
 Root     15 :    10.991736547781630
 Root     16 :    11.284364341473010
 Root     17 :    11.370561119584880
 Root     18 :    11.376709381857270
 Root     19 :    11.611931876234090
 Root     20 :    11.801055813865980
 Root     21 :    12.021621513420930
 Root     22 :    12.049221488389800
 Root     23 :    12.244064971983760
 Root     24 :    12.771860563193740
 Root     25 :    12.823011909326880
 Root     26 :    12.909376715615170
 Root     27 :    13.287026735884840
 Root     28 :    13.564973041625480
 Root     29 :    13.608269884642780
 Root     30 :    13.744402786472780
 Root     31 :    13.839612503783040
 Root     32 :    13.893895613997580
 Root     33 :    13.974686916808660
 Root     34 :    14.079914473439300
 Root     35 :    14.158767679751060
 Root     36 :    14.245579896809270
 Root     37 :    14.367636969282420
 Root     38 :    14.473792909573340
 Root     39 :    14.624550139969800
 Root     40 :    14.734777376471440
 Root     41 :    14.940290480157370
 Root     42 :    15.034328369546780
 Root     43 :    15.067935364017220
 Root     44 :    15.159955459498970
 Root     45 :    15.199733051617820
 Root     46 :    15.341393532533080
 Root     47 :    15.477260342929170
 Root     48 :    15.507013072251800
 Root     49 :    15.678275869930760
 Root     50 :    15.727064666008750
 Root     51 :    15.804224833571090
 Root     52 :    15.940554307692070
 Root     53 :    15.987414961814310
 Root     54 :    15.996652327041120
 Root     55 :    16.080169240162780
 Root     56 :    16.322700042893970
 Root     57 :    16.599647839690320
 Root     58 :    16.886756783753600
 Root     59 :    17.562408548685290
 Root     60 :    19.783961219841580
 Iteration     2 Dimension   120 NMult    60 NNew     60
 CISAX will form    60 AO SS matrices at one time.
 NMat=    60 NSing=    60 JSym2X= 0.
 New state      1 was old state      2
 Root      1 not converged, maximum delta is    0.233653190538211
 New state      2 was old state      1
 Root      2 not converged, maximum delta is    0.297302942105046
 Root      3 not converged, maximum delta is    0.100826281677627
 Root      4 not converged, maximum delta is    0.049351411004899
 Root      5 not converged, maximum delta is    0.048615893758866
 Root      6 not converged, maximum delta is    0.113058120748103
 Root      7 not converged, maximum delta is    0.248453001727226
 Root      8 not converged, maximum delta is    0.453035251261202
 New state      9 was old state     11
 Root      9 not converged, maximum delta is    0.413137464959786
 New state     10 was old state     15
 Root     10 not converged, maximum delta is    0.396894458869411
 New state     11 was old state      9
 Root     11 not converged, maximum delta is    0.144596702124147
 New state     12 was old state     10
 Root     12 not converged, maximum delta is    0.236644605995986
 New state     13 was old state     12
 Root     13 not converged, maximum delta is    0.219717013917380
 Root     14 not converged, maximum delta is    0.416321746387603
 New state     15 was old state     13
 Root     15 not converged, maximum delta is    0.444988541651160
 Excitation Energies [eV] at current iteration:
 Root      1 :     7.135580043406270   Change is   -0.757659012996459
 Root      2 :     7.487612883400154   Change is   -0.104167369239809
 Root      3 :     8.193129979702004   Change is   -0.024425627694323
 Root      4 :     9.068011288623918   Change is   -0.027437560344723
 Root      5 :     9.099962197473129   Change is   -0.022801664709611
 Root      6 :     9.591212436283881   Change is   -0.048238031102097
 Root      7 :     9.786444640926288   Change is   -0.092863354306933
 Root      8 :     9.902746143315209   Change is   -0.044868463591846
 Root      9 :     9.985361668863613   Change is   -0.514659202299687
 Root     10 :    10.107576167159810   Change is   -0.884160380621816
 Root     11 :    10.202537785885180   Change is   -0.004251889503485
 Root     12 :    10.311072970030360   Change is   -0.004790475537368
 Root     13 :    10.528692031242330   Change is   -0.008146458264183
 Root     14 :    10.681841903419870   Change is   -0.047702589302125
 Root     15 :    10.755556007515720   Change is    0.061412419677708
 Root     16 :    11.220565107624750   Change is   -0.063799233848269
 Root     17 :    11.345078790896140   Change is   -0.025482328688744
 Root     18 :    11.361771663260300   Change is   -0.014937718596968
 Root     19 :    11.595107827268960   Change is   -0.016824048965122
 Root     20 :    11.758892370980740   Change is   -0.042163442885234
 Root     21 :    11.784146217442870   Change is   -0.237475295978063
 Root     22 :    11.999020917281120   Change is   -0.050200571108684
 Root     23 :    12.191355850788070   Change is   -0.052709121195688
 Root     24 :    12.542953927256750   Change is   -0.228906635936989
 Root     25 :    12.798375772383430   Change is   -0.024636136943454
 Root     26 :    12.860701292214870   Change is   -0.048675423400297
 Root     27 :    12.997487790433600   Change is   -0.289538945451233
 Root     28 :    13.256956283551460   Change is   -0.308016758074018
 Root     29 :    13.493801421972360   Change is   -0.114468462670424
 Root     30 :    13.577267524718140   Change is   -0.167135261754643
 Root     31 :    13.723935714710750   Change is   -0.115676789072290
 Root     32 :    13.851879810973910   Change is   -0.042015803023668
 Root     33 :    13.895643243193960   Change is   -0.079043673614693
 Root     34 :    14.042482324332740   Change is   -0.037432149106560
 Root     35 :    14.057909132587840   Change is   -0.100858547163223
 Root     36 :    14.127751226589470   Change is   -0.239885742692948
 Root     37 :    14.212061603387510   Change is   -0.033518293421768
 Root     38 :    14.437318523057310   Change is   -0.036474386516034
 Root     39 :    14.518234242253890   Change is   -0.106315897715918
 Root     40 :    14.673467511946140   Change is   -0.061309864525305
 Root     41 :    14.700741861807750   Change is   -0.239548618349618
 Root     42 :    14.823121282213700   Change is   -0.336834177285277
 Root     43 :    14.968767231256910   Change is   -0.065561138289871
 Root     44 :    14.998032893429090   Change is   -0.069902470588135
 Root     45 :    15.081585875423650   Change is   -0.118147176194168
 Root     46 :    15.211801772261020   Change is   -0.129591760272059
 Root     47 :    15.328590747735420   Change is   -0.148669595193749
 Root     48 :    15.383029903674350   Change is   -0.123983168577457
 Root     49 :    15.478322823237410   Change is   -0.199953046693348
 Root     50 :    15.594757939201750   Change is   -0.132306726806996
 Root     51 :    15.694534390652270   Change is   -0.385634849510508
 Root     52 :    15.725951831714960   Change is   -0.078273001856135
 Root     53 :    15.795532040069470   Change is   -0.191882921744845
 Root     54 :    15.814388437432330   Change is   -0.126165870259739
 Root     55 :    15.933427545398310   Change is   -0.063224781642808
 Root     56 :    15.965082999472360   Change is   -0.634564840217961
 Root     57 :    16.220695792603620   Change is   -0.102004250290354
 Root     58 :    16.261663031887470   Change is   -0.625093751866131
 Root     59 :    16.489094147996410   Change is   -1.073314400688877
 Root     60 :    16.824198761835780   Change is   -2.959762458005803
 Iteration     3 Dimension   135 NMult   120 NNew     15
 CISAX will form    15 AO SS matrices at one time.
 NMat=    15 NSing=    15 JSym2X= 0.
 Root      1 not converged, maximum delta is    0.002554514721972
 Root      2 not converged, maximum delta is    0.001093069990251
 Root      3 not converged, maximum delta is    0.000265168011924
 Root      4 not converged, maximum delta is    0.000221548035221
 Root      5 not converged, maximum delta is    0.000248452288314
 Root      6 not converged, maximum delta is    0.001063767323454
 Root      7 not converged, maximum delta is    0.003999392539258
 Root      8 not converged, maximum delta is    0.006323830343952
 Root      9 not converged, maximum delta is    0.004243368353343
 Root     10 not converged, maximum delta is    0.002309572467572
 Root     11 not converged, maximum delta is    0.000464053560946
 Root     12 not converged, maximum delta is    0.001323612394063
 Root     13 not converged, maximum delta is    0.000381383149952
 Root     14 not converged, maximum delta is    0.000373406894869
 Root     15 not converged, maximum delta is    0.000553829883289
 Excitation Energies [eV] at current iteration:
 Root      1 :     7.133943953222109   Change is   -0.001636090184162
 Root      2 :     7.486735292951507   Change is   -0.000877590448647
 Root      3 :     8.193073256472463   Change is   -0.000056723229541
 Root      4 :     9.067984712319065   Change is   -0.000026576304852
 Root      5 :     9.099938253145289   Change is   -0.000023944327840
 Root      6 :     9.590959638214107   Change is   -0.000252798069773
 Root      7 :     9.784880344928919   Change is   -0.001564295997369
 Root      8 :     9.902286738680171   Change is   -0.000459404635037
 Root      9 :     9.984399450667260   Change is   -0.000962218196355
 Root     10 :    10.105383836430400   Change is   -0.002192330729415
 Root     11 :    10.202449858704920   Change is   -0.000087927180262
 Root     12 :    10.310804436273180   Change is   -0.000268533757176
 Root     13 :    10.528620287763130   Change is   -0.000071743479201
 Root     14 :    10.681785984015320   Change is   -0.000055919404554
 Root     15 :    10.755402886333000   Change is   -0.000153121182721
 Iteration     4 Dimension   150 NMult   135 NNew     15
 CISAX will form    15 AO SS matrices at one time.
 NMat=    15 NSing=    15 JSym2X= 0.
 Root      1 not converged, maximum delta is    0.000072772835078
 Root      2 not converged, maximum delta is    0.000030486139399
 Root      3 not converged, maximum delta is    0.000008842669524
 Root      4 not converged, maximum delta is    0.000003755449605
 Root      5 not converged, maximum delta is    0.000004128665579
 Root      6 not converged, maximum delta is    0.000024270989167
 Root      7 not converged, maximum delta is    0.000060241385139
 Root      8 not converged, maximum delta is    0.000038923103234
 Root      9 not converged, maximum delta is    0.000046624142693
 Root     10 not converged, maximum delta is    0.000065696967635
 Root     11 not converged, maximum delta is    0.000015862801848
 Root     12 not converged, maximum delta is    0.000023809184534
 Root     13 not converged, maximum delta is    0.000012976908761
 Root     14 not converged, maximum delta is    0.000008805269566
 Root     15 not converged, maximum delta is    0.000017114678024
 Excitation Energies [eV] at current iteration:
 Root      1 :     7.133942173414585   Change is   -0.000001779807523
 Root      2 :     7.486734293073997   Change is   -0.000000999877510
 Root      3 :     8.193073184499786   Change is   -0.000000071972677
 Root      4 :     9.067984697138860   Change is   -0.000000015180206
 Root      5 :     9.099938233695537   Change is   -0.000000019449752
 Root      6 :     9.590959299319202   Change is   -0.000000338894905
 Root      7 :     9.784878306752033   Change is   -0.000002038176887
 Root      8 :     9.902286114941166   Change is   -0.000000623739006
 Root      9 :     9.984398195140528   Change is   -0.000001255526730
 Root     10 :    10.105380552423530   Change is   -0.000003284006867
 Root     11 :    10.202449733704980   Change is   -0.000000124999939
 Root     12 :    10.310804011132450   Change is   -0.000000425140729
 Root     13 :    10.528620179557400   Change is   -0.000000108205735
 Root     14 :    10.681785918187060   Change is   -0.000000065828260
 Root     15 :    10.755402672535630   Change is   -0.000000213797370
 Iteration     5 Dimension   165 NMult   150 NNew     15
 CISAX will form    15 AO SS matrices at one time.
 NMat=    15 NSing=    15 JSym2X= 0.
 Root      1 not converged, maximum delta is    0.000001616275876
 Root      2 has converged.
 Root      3 has converged.
 Root      4 has converged.
 Root      5 has converged.
 Root      6 has converged.
 Root      7 not converged, maximum delta is    0.000002294773254
 Root      8 not converged, maximum delta is    0.000001515659589
 Root      9 not converged, maximum delta is    0.000001881997157
 Root     10 not converged, maximum delta is    0.000002093892098
 Root     11 has converged.
 Root     12 has converged.
 Root     13 has converged.
 Root     14 has converged.
 Root     15 has converged.
 Excitation Energies [eV] at current iteration:
 Root      1 :     7.133942171842289   Change is   -0.000000001572296
 Root      2 :     7.486734292371437   Change is   -0.000000000702561
 Root      3 :     8.193073184440442   Change is   -0.000000000059346
 Root      4 :     9.067984697127468   Change is   -0.000000000011392
 Root      5 :     9.099938233681360   Change is   -0.000000000014178
 Root      6 :     9.590959299061439   Change is   -0.000000000257764
 Root      7 :     9.784878304519053   Change is   -0.000000002232979
 Root      8 :     9.902286114246083   Change is   -0.000000000695083
 Root      9 :     9.984398193673490   Change is   -0.000000001467039
 Root     10 :    10.105380549608170   Change is   -0.000000002815361
 Root     11 :    10.202449733554210   Change is   -0.000000000150771
 Root     12 :    10.310804010707030   Change is   -0.000000000425418
 Root     13 :    10.528620179446880   Change is   -0.000000000110520
 Root     14 :    10.681785918105950   Change is   -0.000000000081107
 Root     15 :    10.755402672306210   Change is   -0.000000000229422
 Iteration     6 Dimension   170 NMult   165 NNew      5
 CISAX will form     5 AO SS matrices at one time.
 NMat=     5 NSing=     5 JSym2X= 0.
 Root      1 has converged.
 Root      2 has converged.
 Root      3 has converged.
 Root      4 has converged.
 Root      5 has converged.
 Root      6 has converged.
 Root      7 has converged.
 Root      8 has converged.
 Root      9 has converged.
 Root     10 has converged.
 Root     11 has converged.
 Root     12 has converged.
 Root     13 has converged.
 Root     14 has converged.
 Root     15 has converged.
 Excitation Energies [eV] at current iteration:
 Root      1 :     7.133942171841893   Change is   -0.000000000000396
 Root      2 :     7.486734292371384   Change is   -0.000000000000053
 Root      3 :     8.193073184440422   Change is   -0.000000000000018
 Root      4 :     9.067984697127462   Change is   -0.000000000000006
 Root      5 :     9.099938233681351   Change is   -0.000000000000008
 Root      6 :     9.590959299061325   Change is   -0.000000000000113
 Root      7 :     9.784878304517417   Change is   -0.000000000001636
 Root      8 :     9.902286114245536   Change is   -0.000000000000547
 Root      9 :     9.984398193672245   Change is   -0.000000000001245
 Root     10 :    10.105380549606450   Change is   -0.000000000001720
 Root     11 :    10.202449733554110   Change is   -0.000000000000098
 Root     12 :    10.310804010706800   Change is   -0.000000000000236
 Root     13 :    10.528620179446800   Change is   -0.000000000000074
 Root     14 :    10.681785918105930   Change is   -0.000000000000021
 Root     15 :    10.755402672306060   Change is   -0.000000000000151
 Convergence achieved on expansion vectors.
 ***********************************************************************
 Excited states from <AA,BB:AA,BB> singles matrix:
 ***********************************************************************
 
 1PDM for each excited state written to RWF  633
 Ground to excited state transition densities written to RWF  633
 Ground to excited state transition electric dipole moments (Au):
       state          X           Y           Z        Dip. S.      Osc.
         1        -0.8239     -0.6704      0.0081      1.1284      0.1972
         2         0.1541      0.0338      0.0022      0.0249      0.0046
         3         0.1267     -0.0584     -0.0187      0.0198      0.0040
         4        -0.0411      0.0051     -0.1553      0.0258      0.0057
         5        -0.0002      0.0380      0.0354      0.0027      0.0006
         6         0.2440      0.0702     -0.0553      0.0675      0.0159
         7        -0.3374      0.8261     -0.0765      0.8021      0.1923
         8        -0.2369      0.4169      0.0803      0.2364      0.0574
         9         0.2359     -0.6534      0.0413      0.4843      0.1185
        10        -0.9396      0.2362      0.0265      0.9393      0.2326
        11         0.0497      0.1950      0.0328      0.0416      0.0104
        12        -0.2898      0.0110     -0.0446      0.0861      0.0218
        13         0.1508     -0.0516     -0.0354      0.0267      0.0069
        14        -0.0405      0.0885      0.0770      0.0154      0.0040
        15         0.2094     -0.0883     -0.1873      0.0867      0.0228
 Ground to excited state transition velocity dipole moments (Au):
       state          X           Y           Z        Dip. S.      Osc.
         1         0.0133     -0.0039     -0.0025      0.0002      0.0005
         2         0.0401     -0.0466     -0.0018      0.0038      0.0092
         3         0.0037     -0.0076     -0.0038      0.0001      0.0002
         4         0.0029      0.0012      0.0799      0.0064      0.0128
         5        -0.0070     -0.0081     -0.0151      0.0003      0.0007
         6        -0.0191     -0.0177     -0.0201      0.0011      0.0020
         7        -0.0209     -0.0325      0.0304      0.0024      0.0045
         8        -0.0094     -0.0180     -0.0360      0.0017      0.0031
         9         0.0169      0.0357      0.0062      0.0016      0.0029
        10         0.0650      0.0314     -0.0187      0.0056      0.0100
        11        -0.0191     -0.0198     -0.0186      0.0011      0.0020
        12         0.0286      0.0236      0.0066      0.0014      0.0025
        13        -0.0121     -0.0046     -0.0480      0.0025      0.0043
        14         0.0007     -0.0118     -0.0212      0.0006      0.0010
        15        -0.0146     -0.0042     -0.0109      0.0003      0.0006
 Ground to excited state transition magnetic dipole moments (Au):
       state          X           Y           Z
         1         0.0346      0.0373     -0.5749
         2        -0.0483      0.0736      0.0672
         3         0.4087     -0.3652      0.0515
         4        -1.3343     -0.8622     -0.0337
         5        -0.3637     -0.1360     -0.0694
         6        -0.0050     -0.0960     -0.1033
         7         0.1235     -0.0064     -0.0668
         8         0.3153     -0.2090      0.0478
         9         0.1137     -0.2672      0.0618
        10        -0.0999     -0.0233      0.2267
        11         0.0523     -0.3295      0.0545
        12         0.0343     -0.3253     -0.0088
        13        -0.0771      0.3167     -0.0281
        14        -0.7174      1.2092      0.0585
        15         0.1414     -0.1203     -0.0215
 Ground to excited state transition velocity quadrupole moments (Au):
       state          XX          YY          ZZ          XY          XZ          YZ
         1         0.1787     -0.2318      0.0131     -0.0489     -0.0017     -0.0003
         2        -0.0797      0.0438      0.0300      0.0056     -0.0080     -0.0034
         3        -0.0162      0.0476      0.0101     -0.0003      0.0488      0.0353
         4         0.0266     -0.0254     -0.0037     -0.0029      0.1052     -0.2125
         5         0.0243     -0.0296      0.0026      0.0036      0.1092      0.0970
         6         0.1106     -0.1154      0.0065     -0.0389      0.0097     -0.0755
         7         0.1683     -0.1483     -0.0371      0.1485      0.0896      0.0414
         8         0.0878     -0.0555     -0.0318      0.0985     -0.0145      0.0082
         9        -0.1606      0.1382      0.0332     -0.1243      0.1388      0.0017
        10        -0.2391      0.2665     -0.0434      0.2081      0.0438     -0.0565
        11         0.0893     -0.0979     -0.0052      0.0213      0.0641     -0.0589
        12        -0.0891      0.0963     -0.0208      0.0648     -0.0491     -0.0001
        13         0.0364     -0.0538      0.0148     -0.0345     -0.0850     -0.0157
        14        -0.0386      0.0167      0.0044      0.0175     -0.1770     -0.1454
        15         0.0109     -0.0157      0.0076     -0.0534      0.0417     -0.0730
 <0|del|b> * <b|rxdel|0> + <0|del|b> * <b|delr+rdel|0>
 Rotatory Strengths (R) in cgs (10**-40 erg-esu-cm/Gauss)
       state          XX          YY          ZZ    R(velocity)    E-M Angle
         1         1.9381      2.4229      0.4345      1.5985       77.35
         2        -5.0463     -2.8014     -6.2370     -4.6949      143.62
         3         3.4746      1.7095      4.4603      3.2148       36.52
         4        -4.3523     -7.3918     -4.4513     -5.3985       93.45
         5         3.1623      3.1505      3.6618      3.3248       49.83
         6         4.7490      2.8397      0.1854      2.5913       33.40
         7         5.5148     -9.8275     -4.3499     -2.8875      129.57
         8        -1.7108     -1.1853      1.1046     -0.5972       93.35
         9       -14.3473      2.9982     -2.5914     -4.6468      127.52
        10        -9.7708    -10.0078     -2.0733     -7.2840      128.19
        11         6.0173     -0.4638      2.9499      2.8345       66.35
        12        -5.7404      0.4572     -7.3319     -4.2050      123.22
        13         1.0476      0.7428     -0.3004      0.4967       87.13
        14       -16.1525     -1.3119    -11.3007     -9.5883      117.92
        15         1.3291     -1.2047     -2.5110     -0.7955      112.46
 1/2[<0|r|b>*<b|rxdel|0> + (<0|rxdel|b>*<b|r|0>)*]
 Rotatory Strengths (R) in cgs (10**-40 erg-esu-cm/Gauss)
       state          XX          YY          ZZ     R(length)
         1        20.1710     17.6633      3.2999     13.7114
         2         5.2606     -1.7607     -0.1070      1.1310
         3       -36.6146    -15.0790      0.6800    -17.0045
         4       -38.8261      3.0894     -3.6980    -13.1449
         5        -0.0397      3.6520      1.7386      1.7836
         6         0.8704      4.7658     -4.0373      0.5330
         7        29.4674      3.7238     -3.6175      9.8579
         8        52.8303     61.6262     -2.7148     37.2472
         9       -18.9607   -123.4521     -1.8059    -48.0729
        10       -66.3762      3.8982     -4.2507    -22.2429
        11        -1.8388     45.4412     -1.2660     14.1121
        12         7.0261      2.5193     -0.2764      3.0897
        13         8.2186     11.5619     -0.7022      6.3594
        14       -20.5509    -75.6913     -3.1830    -33.1417
        15       -20.9412     -7.5147     -2.8431    -10.4330
  1/2[<0|del|b>*<b|r|0> + (<0|r|b>*<b|del|0>)*] (Au)
       state          X           Y           Z        Dip. S.   Osc.(frdel)
         1        -0.0109      0.0026      0.0000      0.0083      0.0055
         2         0.0062     -0.0016      0.0000     -0.0046     -0.0031
         3         0.0005      0.0004      0.0001     -0.0010     -0.0007
         4        -0.0001      0.0000     -0.0124      0.0125      0.0083
         5         0.0000     -0.0003     -0.0005      0.0008      0.0006
         6        -0.0047     -0.0012      0.0011      0.0048      0.0032
         7         0.0070     -0.0269     -0.0023      0.0222      0.0148
         8         0.0022     -0.0075     -0.0029      0.0082      0.0054
         9         0.0040     -0.0233      0.0003      0.0191      0.0127
        10        -0.0611      0.0074     -0.0005      0.0541      0.0361
        11        -0.0010     -0.0039     -0.0006      0.0054      0.0036
        12        -0.0083      0.0003     -0.0003      0.0083      0.0056
        13        -0.0018      0.0002      0.0017     -0.0001     -0.0001
        14         0.0000     -0.0010     -0.0016      0.0027      0.0018
        15        -0.0031      0.0004      0.0020      0.0007      0.0004

 Excitation energies and oscillator strengths:
 
 Excited State   1:      Singlet-A      7.1339 eV  173.79 nm  f=0.1972  <S**2>=0.000
      18 -> 19         0.67633
 This state for optimization and/or second-order correction.
 Total Energy, E(CIS) =  -228.475997240    
 Copying the excited state density for this state as the 1-particle RhoCI density.
 
 Excited State   2:      Singlet-A      7.4867 eV  165.61 nm  f=0.0046  <S**2>=0.000
      17 -> 19         0.50343
      18 -> 20         0.47474
 
 Excited State   3:      Singlet-A      8.1931 eV  151.33 nm  f=0.0040  <S**2>=0.000
      17 -> 19         0.10400
      18 -> 20        -0.11540
      18 -> 21         0.68079
 
 Excited State   4:      Singlet-A      9.0680 eV  136.73 nm  f=0.0057  <S**2>=0.000
      16 -> 19         0.68822
      18 -> 22        -0.11797
 
 Excited State   5:      Singlet-A      9.0999 eV  136.25 nm  f=0.0006  <S**2>=0.000
      16 -> 19         0.10276
      18 -> 22         0.66570
      18 -> 23        -0.11731
 
 Excited State   6:      Singlet-A      9.5910 eV  129.27 nm  f=0.0159  <S**2>=0.000
      17 -> 20        -0.37056
      17 -> 21         0.55227
      18 -> 22        -0.11232
      18 -> 23        -0.15113
 
 Excited State   7:      Singlet-A      9.7849 eV  126.71 nm  f=0.1923  <S**2>=0.000
      17 -> 19        -0.26975
      17 -> 20        -0.28126
      18 -> 20         0.29329
      18 -> 21         0.10127
      18 -> 23         0.42478
      18 -> 24        -0.13404
 
 Excited State   8:      Singlet-A      9.9023 eV  125.21 nm  f=0.0574  <S**2>=0.000
      15 -> 19         0.61293
      17 -> 19        -0.14364
      18 -> 20         0.15288
      18 -> 23        -0.20328
      18 -> 24        -0.10152
 
 Excited State   9:      Singlet-A      9.9844 eV  124.18 nm  f=0.1185  <S**2>=0.000
      15 -> 19         0.30223
      17 -> 19         0.19110
      17 -> 20         0.15714
      17 -> 21         0.22291
      18 -> 20        -0.20575
      18 -> 23         0.45111
 
 Excited State  10:      Singlet-A     10.1054 eV  122.69 nm  f=0.2326  <S**2>=0.000
      14 -> 19        -0.13034
      17 -> 19        -0.19870
      17 -> 20         0.44541
      17 -> 21         0.32836
      18 -> 20         0.23878
      18 -> 24         0.13781
 
 Excited State  11:      Singlet-A     10.2024 eV  121.52 nm  f=0.0104  <S**2>=0.000
      14 -> 19         0.25937
      18 -> 24         0.61989
 
 Excited State  12:      Singlet-A     10.3108 eV  120.25 nm  f=0.0218  <S**2>=0.000
      14 -> 19         0.59912
      15 -> 19        -0.11112
      17 -> 20         0.11583
      18 -> 23        -0.10027
      18 -> 24        -0.23266
 
 Excited State  13:      Singlet-A     10.5286 eV  117.76 nm  f=0.0069  <S**2>=0.000
      13 -> 19         0.15589
      17 -> 22         0.66572
 
 Excited State  14:      Singlet-A     10.6818 eV  116.07 nm  f=0.0040  <S**2>=0.000
      13 -> 19         0.64909
      14 -> 19         0.11614
      16 -> 20         0.12103
      17 -> 22        -0.15388
 
 Excited State  15:      Singlet-A     10.7554 eV  115.28 nm  f=0.0228  <S**2>=0.000
      18 -> 25         0.67439
 SavETr:  write IOETrn=   770 NScale= 10 NData=  16 NLR=1 NState=   15 LETran=     280.
 The selected state is a singlet
 CISAX will form     1 AO SS matrices at one time.
 NMat=     1 NSing=     1 JSym2X= 0.
 CISAX will form     1 AO SS matrices at one time.
 NMat=     1 NSing=     1 JSym2X= 0.
 Leave Link  914 at Tue Dec 15 16:22:03 2015, MaxMem=    33554432 cpu:        33.5
 (Enter /home/Applications/g09/g09/l1002.exe)
 Minotr:  Closed shell wavefunction.
          Computing CIS/TD-HF/TD-KS derivatives.
          Using Z-Vector for PSCF gradient.
          Skipping F1 and S1 gradient terms here.
          IDoAtm=111111111
          Frozen-core window.
          Direct CPHF calculation.
          Differentiating once with respect to electric field.
                with respect to dipole field.
          Differentiating once with respect to nuclear coordinates.
          Requested convergence is 1.0D-10 RMS, and 1.0D-09 maximum.
          NewPWx=F KeepS1=T KeepF1=T KeepIn=T MapXYZ=F SortEE=F KeepMc=T.
          MDV=      33554290 using IRadAn=       0.
 Using stored XC quadrature information.
 Keep R1 ints in memory in canonical form, NReq=1898913.
 FoFCou: FMM=F IPFlag=           0 FMFlag=           0 FMFlg1=           0
         NFxFlg=           0 DoJE=F BraDBF=F KetDBF=F FulRan=T
         wScrn=  0.000000 ICntrl=     600 IOpCl=  0 I1Cent=           0 NGrid=           0
         NMat0=    1 NMatS0=   1431 NMatT0=    0 NMatD0=    1 NMtDS0=    0 NMtDT0=    0
 Symmetry not used in FoFCou.
          Solving linear equations separately, MaxMat=       0.
          There are     1 degrees of freedom in the 1st order CPHF.  IDoFFX=0 NUNeed=     1.
 LinEq1:  Iter=  0 NonCon=     1 RMS=2.77D-02 Max=3.89D-01 NDo=     1
 AX will form     1 AO Fock derivatives at one time.
 LinEq1:  Iter=  1 NonCon=     1 RMS=2.50D-02 Max=4.96D-01 NDo=     1
 LinEq1:  Iter=  2 NonCon=     1 RMS=1.47D-02 Max=2.30D-01 NDo=     1
 LinEq1:  Iter=  3 NonCon=     1 RMS=3.97D-03 Max=2.63D-02 NDo=     1
 LinEq1:  Iter=  4 NonCon=     1 RMS=2.73D-03 Max=2.67D-02 NDo=     1
 LinEq1:  Iter=  5 NonCon=     1 RMS=7.92D-04 Max=8.50D-03 NDo=     1
 LinEq1:  Iter=  6 NonCon=     1 RMS=3.22D-04 Max=3.83D-03 NDo=     1
 LinEq1:  Iter=  7 NonCon=     1 RMS=1.68D-04 Max=1.42D-03 NDo=     1
 LinEq1:  Iter=  8 NonCon=     1 RMS=7.77D-05 Max=5.43D-04 NDo=     1
 LinEq1:  Iter=  9 NonCon=     1 RMS=1.58D-05 Max=1.22D-04 NDo=     1
 LinEq1:  Iter= 10 NonCon=     1 RMS=1.49D-06 Max=9.50D-06 NDo=     1
 LinEq1:  Iter= 11 NonCon=     1 RMS=1.64D-07 Max=7.80D-07 NDo=     1
 LinEq1:  Iter= 12 NonCon=     1 RMS=1.75D-08 Max=1.19D-07 NDo=     1
 LinEq1:  Iter= 13 NonCon=     1 RMS=2.91D-09 Max=2.21D-08 NDo=     1
 LinEq1:  Iter= 14 NonCon=     1 RMS=3.62D-10 Max=1.96D-09 NDo=     1
 LinEq1:  Iter= 15 NonCon=     0 RMS=3.98D-11 Max=3.58D-10 NDo=     1
 Linear equations converged to 1.000D-10 1.000D-09 after    15 iterations.
 End of Minotr F.D. properties file   721 does not exist.
 End of Minotr F.D. properties file   722 does not exist.
 End of Minotr F.D. properties file   788 does not exist.
 Leave Link 1002 at Tue Dec 15 16:22:14 2015, MaxMem=    33554432 cpu:        10.9
 (Enter /home/Applications/g09/g09/l601.exe)
 Copying SCF densities to generalized density rwf, IOpCl= 0 IROHF=0.

 **********************************************************************

            Population analysis using the SCF density.

 **********************************************************************

 Orbital symmetries:
       Occupied  (A) (A) (A) (A) (A) (A) (A) (A) (A) (A) (A) (A)
                 (A) (A) (A) (A) (A) (A)
       Virtual   (A) (A) (A) (A) (A) (A) (A) (A) (A) (A) (A) (A)
                 (A) (A) (A) (A) (A) (A) (A) (A) (A) (A) (A) (A)
                 (A) (A) (A) (A) (A) (A) (A) (A) (A) (A) (A)
 The electronic state is 1-A.
 Alpha  occ. eigenvalues --  -19.11265 -10.17535 -10.17219 -10.12954 -10.12319
 Alpha  occ. eigenvalues --   -1.11508  -0.82594  -0.74136  -0.59763  -0.57014
 Alpha  occ. eigenvalues --   -0.54149  -0.44502  -0.42866  -0.41542  -0.40249
 Alpha  occ. eigenvalues --   -0.37401  -0.28789  -0.23411
 Alpha virt. eigenvalues --    0.01717   0.08863   0.11566   0.14591   0.17495
 Alpha virt. eigenvalues --    0.17890   0.20584   0.23335   0.34912   0.43972
 Alpha virt. eigenvalues --    0.47264   0.67102   0.69770   0.71662   0.76369
 Alpha virt. eigenvalues --    0.76598   0.78973   0.81108   0.82486   0.83892
 Alpha virt. eigenvalues --    0.95013   0.98507   0.99138   1.01473   1.18443
 Alpha virt. eigenvalues --    1.20885   1.31625   1.37411   1.50172   1.56944
 Alpha virt. eigenvalues --    1.63068   1.72609   1.93817   2.14242   3.15515
     Molecular Orbital Coefficients:
                           1         2         3         4         5
                           O         O         O         O         O
     Eigenvalues --   -19.11265 -10.17535 -10.17219 -10.12954 -10.12319
   1 1   C  1S          0.00018  -0.00857  -0.00070  -0.09579   0.98135
   2        2S          0.00082  -0.00583  -0.00030  -0.01494   0.10978
   3        2PX         0.00055  -0.00092  -0.00046  -0.00163   0.00216
   4        2PY         0.00123   0.00330   0.00055  -0.00064  -0.00078
   5        2PZ         0.00007  -0.00002   0.00004   0.00000  -0.00020
   6        3S         -0.00371   0.04163  -0.01742   0.04968  -0.10641
   7        3PX        -0.00947   0.01104  -0.01047   0.02574  -0.03168
   8        3PY         0.00010  -0.01890   0.00545   0.00619   0.00966
   9        3PZ        -0.00047  -0.00017  -0.00016  -0.00037   0.00113
  10 2   C  1S         -0.00042   0.98338   0.06398  -0.00090   0.00817
  11        2S         -0.00046   0.10689   0.00346  -0.00036  -0.00442
  12        2PX         0.00254   0.00206  -0.00036   0.00069   0.00108
  13        2PY        -0.00006   0.00193  -0.00091  -0.00048  -0.00272
  14        2PZ        -0.00008  -0.00012  -0.00009   0.00003  -0.00006
  15        3S          0.01768  -0.07884   0.01560  -0.01183   0.04519
  16        3PX         0.01357   0.00455   0.00638  -0.00161  -0.00166
  17        3PY         0.00689  -0.02178   0.01856  -0.00479   0.02606
  18        3PZ        -0.00013   0.00017   0.00043  -0.00025   0.00004
  19 3   O  1S          0.98275   0.00026   0.00018   0.00008   0.00010
  20        2S          0.10739   0.00180   0.00173   0.00042   0.00048
  21        2PX        -0.00295  -0.00084  -0.00003   0.00001   0.00005
  22        2PY         0.00318   0.00009   0.00122  -0.00005   0.00001
  23        2PZ         0.00011   0.00000   0.00006   0.00000   0.00000
  24        3S         -0.05910  -0.00061   0.00048  -0.00338  -0.00403
  25        3PX         0.00975   0.00291   0.00223  -0.00027   0.00281
  26        3PY        -0.00985  -0.00170  -0.00226  -0.00260  -0.00089
  27        3PZ        -0.00034   0.00000  -0.00027   0.00003  -0.00008
  28 4   C  1S         -0.00053  -0.06519   0.98331   0.01222   0.00135
  29        2S         -0.00095  -0.01045   0.10641  -0.00335  -0.00079
  30        2PX        -0.00034   0.00127  -0.00168   0.00221   0.00087
  31        2PY        -0.00231   0.00023  -0.00161  -0.00088  -0.00095
  32        2PZ         0.00003   0.00006   0.00008   0.00011  -0.00001
  33        3S          0.01580   0.02231  -0.07617   0.04094  -0.00404
  34        3PX        -0.00927  -0.02203   0.01970  -0.02654   0.00219
  35        3PY        -0.00921  -0.00168  -0.00520   0.00396   0.00248
  36        3PZ        -0.00047  -0.00060   0.00004  -0.00060   0.00017
  37 5   C  1S          0.00019   0.00080  -0.01263   0.98136   0.09536
  38        2S          0.00088   0.00028  -0.00590   0.11021   0.00652
  39        2PX        -0.00128  -0.00015  -0.00277   0.00011   0.00097
  40        2PY        -0.00032   0.00027   0.00110  -0.00233   0.00106
  41        2PZ        -0.00004  -0.00002   0.00000   0.00019   0.00001
  42        3S         -0.00381  -0.01989   0.03969  -0.11064   0.03028
  43        3PX        -0.00105  -0.00701   0.01504  -0.00244  -0.01098
  44        3PY         0.00846   0.00974  -0.01322   0.03471  -0.01831
  45        3PZ         0.00044  -0.00008   0.00044  -0.00143   0.00038
  46 6   H  1S         -0.00100  -0.00023  -0.00110  -0.00309  -0.00055
  47        2S         -0.00295  -0.00112   0.00199   0.00397   0.00466
  48 7   H  1S         -0.00004   0.00172  -0.00402  -0.00011  -0.00023
  49        2S          0.00286   0.00729   0.00832   0.00619  -0.00006
  50 8   H  1S         -0.00003  -0.00275   0.00115   0.00002  -0.00028
  51        2S          0.00264   0.00719   0.00728   0.00003   0.00467
  52 9   H  1S         -0.00111  -0.00113  -0.00063   0.00009  -0.00315
  53        2S         -0.00331   0.00178  -0.00190   0.00394   0.00427
                           6         7         8         9        10
                           O         O         O         O         O
     Eigenvalues --    -1.11508  -0.82594  -0.74136  -0.59763  -0.57014
   1 1   C  1S         -0.03064   0.14991   0.07724   0.08559   0.06745
   2        2S          0.03054  -0.16201  -0.08409  -0.08638  -0.06631
   3        2PX         0.03194  -0.09949  -0.00090   0.06442  -0.00674
   4        2PY        -0.01967   0.01181   0.10378   0.11759  -0.19167
   5        2PZ        -0.00109   0.00542   0.00259   0.00406   0.00862
   6        3S          0.04099  -0.29233  -0.15833  -0.31752  -0.24561
   7        3PX         0.04366  -0.03846  -0.00664  -0.01393  -0.01448
   8        3PY        -0.00156   0.01315  -0.01283   0.05644  -0.05919
   9        3PZ         0.00126   0.00438   0.00270   0.00377   0.00648
  10 2   C  1S         -0.08157   0.05870   0.14073  -0.00597  -0.11261
  11        2S          0.09004  -0.06909  -0.15181   0.00060   0.12337
  12        2PX         0.08936   0.07771   0.00211   0.17907  -0.06680
  13        2PY         0.02732  -0.11730  -0.02581  -0.13977  -0.07328
  14        2PZ        -0.00237  -0.00022   0.00315  -0.00390   0.00017
  15        3S          0.07215  -0.08354  -0.35307   0.07759   0.36718
  16        3PX        -0.02717   0.00745   0.00942   0.06957  -0.05683
  17        3PY        -0.01893  -0.03476  -0.04126  -0.02124  -0.01918
  18        3PZ        -0.00058  -0.00049   0.00115  -0.00137  -0.00137
  19 3   O  1S         -0.20814  -0.09323  -0.00166  -0.00364   0.05948
  20        2S          0.18973   0.08940   0.00118   0.00513  -0.05941
  21        2PX        -0.08054   0.00381   0.13858  -0.20459  -0.06932
  22        2PY         0.08092  -0.01442   0.11261  -0.16244  -0.02578
  23        2PZ         0.00288   0.00078  -0.00101   0.00062   0.00394
  24        3S          0.66099   0.33527   0.00504   0.01654  -0.24860
  25        3PX        -0.09918  -0.00772   0.11285  -0.17613  -0.05815
  26        3PY         0.10399   0.00093   0.09373  -0.14196  -0.02783
  27        3PZ         0.00377   0.00090  -0.00071   0.00016   0.00369
  28 4   C  1S         -0.06926   0.05355  -0.15041   0.04498  -0.10079
  29        2S          0.07777  -0.06265   0.16086  -0.04237   0.11259
  30        2PX        -0.03906   0.08899  -0.02284  -0.14331   0.05983
  31        2PY        -0.06819  -0.07461   0.00562   0.15929   0.12759
  32        2PZ        -0.00029  -0.00024   0.00156  -0.00382   0.00709
  33        3S          0.06305  -0.07047   0.37843  -0.19679   0.30115
  34        3PX         0.02431   0.02728  -0.04370  -0.02276   0.02791
  35        3PY         0.01073  -0.01290   0.00928   0.06153   0.07693
  36        3PZ         0.00173   0.00053   0.00082  -0.00162   0.00597
  37 5   C  1S         -0.02969   0.14293  -0.08076  -0.11138   0.03821
  38        2S          0.02867  -0.15404   0.08733   0.11300  -0.03837
  39        2PX         0.01263   0.01398   0.10480   0.05459   0.21238
  40        2PY        -0.03267   0.09322  -0.01201   0.05497   0.00646
  41        2PZ         0.00095  -0.00551   0.00293   0.00526  -0.00091
  42        3S          0.04385  -0.28170   0.17040   0.39905  -0.12524
  43        3PX         0.00634  -0.00684  -0.01217   0.02944   0.07919
  44        3PY        -0.04222   0.04327  -0.00506  -0.01986   0.00135
  45        3PZ        -0.00114  -0.00426   0.00191   0.00511  -0.00160
  46 6   H  1S          0.00738  -0.04848   0.04263   0.10750  -0.03030
  47        2S          0.01375  -0.01102   0.01143   0.06325  -0.01642
  48 7   H  1S          0.01449  -0.01309   0.09181  -0.08601   0.13411
  49        2S         -0.01462  -0.00288   0.03489  -0.05589   0.06628
  50 8   H  1S          0.01386  -0.01175  -0.07355   0.02773   0.13291
  51        2S         -0.01408  -0.00343  -0.02913   0.02582   0.07299
  52 9   H  1S          0.00773  -0.04969  -0.03898  -0.08253  -0.06715
  53        2S          0.01404  -0.00881  -0.00986  -0.05045  -0.04120
                          11        12        13        14        15
                           O         O         O         O         O
     Eigenvalues --    -0.54149  -0.44502  -0.42866  -0.41542  -0.40249
   1 1   C  1S         -0.04350  -0.00789   0.03852   0.01100   0.00338
   2        2S          0.03904   0.00953  -0.04248  -0.00472  -0.00325
   3        2PX        -0.18233   0.05039  -0.01436   0.29033  -0.15165
   4        2PY         0.08936   0.00697  -0.11389  -0.07060  -0.22803
   5        2PZ        -0.00770   0.13161   0.03680  -0.00936  -0.00150
   6        3S          0.21491   0.02569  -0.11987  -0.04494  -0.05134
   7        3PX        -0.10547   0.04164   0.00801   0.21368  -0.10979
   8        3PY         0.02786   0.00834  -0.07309  -0.02518  -0.09127
   9        3PZ        -0.00724   0.09156   0.02632  -0.00591  -0.00373
  10 2   C  1S         -0.00128  -0.00339  -0.02258  -0.03830  -0.00916
  11        2S          0.00020   0.00534   0.02229   0.04596   0.01650
  12        2PX        -0.06694   0.04275  -0.22407  -0.04764   0.05941
  13        2PY        -0.16698   0.04364  -0.06908   0.12876   0.24808
  14        2PZ        -0.00347   0.19826   0.04563  -0.03692  -0.00400
  15        3S          0.01490   0.00337   0.07749   0.12214   0.04468
  16        3PX        -0.02349   0.02826  -0.13896  -0.01330   0.01795
  17        3PY        -0.15414   0.03124  -0.06699   0.06424   0.22062
  18        3PZ        -0.00220   0.18446   0.04056  -0.03996  -0.00429
  19 3   O  1S         -0.04409   0.00330  -0.01634  -0.00197  -0.00046
  20        2S          0.04282  -0.00264   0.01376   0.00370  -0.00433
  21        2PX         0.09341  -0.02908   0.22840   0.07729  -0.14195
  22        2PY        -0.14021  -0.02611   0.13931  -0.01256   0.08860
  23        2PZ        -0.00111   0.34703   0.06377  -0.08111  -0.01362
  24        3S          0.16892  -0.01480   0.07052  -0.00394   0.03518
  25        3PX         0.08406  -0.02742   0.21677   0.08289  -0.14513
  26        3PY        -0.12733  -0.02560   0.13249  -0.01193   0.09673
  27        3PZ        -0.00144   0.34763   0.06557  -0.08306  -0.01375
  28 4   C  1S         -0.00392   0.00453   0.02743   0.04039   0.01362
  29        2S          0.00253  -0.00640  -0.03079  -0.04908  -0.01454
  30        2PX         0.18140   0.07907  -0.20855   0.23539   0.01298
  31        2PY         0.05104   0.00719  -0.12924  -0.07496   0.02429
  32        2PZ         0.00644   0.17764   0.01828  -0.02532  -0.00866
  33        3S          0.03323  -0.01150  -0.07377  -0.14489  -0.03717
  34        3PX         0.14849   0.05355  -0.14413   0.17225  -0.02170
  35        3PY         0.00480   0.00682  -0.10540  -0.05488   0.05090
  36        3PZ         0.00467   0.16887   0.02147  -0.03009  -0.00937
  37 5   C  1S         -0.03844   0.00524  -0.03586  -0.01967   0.02136
  38        2S          0.03539  -0.00570   0.03761   0.01651  -0.02743
  39        2PX        -0.06491  -0.05290   0.08158  -0.21313   0.14455
  40        2PY         0.18989   0.01581   0.10907   0.13074   0.27774
  41        2PZ         0.00229   0.12435   0.02580  -0.01239  -0.00596
  42        3S          0.17624  -0.01799   0.12510   0.09136  -0.08830
  43        3PX        -0.01298  -0.02159   0.04363  -0.08407   0.08372
  44        3PY         0.12395   0.01712   0.10315   0.09390   0.19717
  45        3PZ         0.00339   0.09016   0.02121  -0.01114  -0.00369
  46 6   H  1S          0.12628   0.00937   0.11112   0.11946   0.16821
  47        2S          0.06961   0.00517   0.07948   0.10736   0.16163
  48 7   H  1S          0.09968   0.05411  -0.19634   0.09669  -0.01198
  49        2S          0.04364   0.03959  -0.15527   0.08600  -0.00543
  50 8   H  1S          0.08647  -0.03551   0.12550  -0.01622  -0.17045
  51        2S          0.03932  -0.02768   0.10498  -0.02272  -0.15735
  52 9   H  1S          0.13252  -0.02808  -0.05276  -0.21787   0.07052
  53        2S          0.07877  -0.01946  -0.03595  -0.19624   0.06164
                          16        17        18        19        20
                           O         O         O         V         V
     Eigenvalues --    -0.37401  -0.28789  -0.23411   0.01717   0.08863
   1 1   C  1S          0.02633   0.00570   0.00411   0.00860  -0.02031
   2        2S         -0.02720  -0.00685  -0.00393  -0.01060   0.01355
   3        2PX        -0.05347   0.01524   0.00520  -0.00036  -0.06008
   4        2PY         0.16421  -0.01593  -0.01220  -0.00898   0.01244
   5        2PZ        -0.01128  -0.27828  -0.20123  -0.14151   0.33437
   6        3S         -0.18247  -0.00843  -0.01818  -0.02390   0.17653
   7        3PX        -0.01978   0.01740   0.00754   0.04422  -0.18114
   8        3PY         0.14553  -0.00877  -0.01538  -0.03120   0.05061
   9        3PZ        -0.00606  -0.28612  -0.21528  -0.23872   0.69043
  10 2   C  1S         -0.02551  -0.00266   0.00316  -0.00253   0.00720
  11        2S          0.02659   0.00362  -0.00300   0.00272  -0.00994
  12        2PX         0.10787  -0.00365  -0.01180  -0.00193  -0.04037
  13        2PY        -0.16280   0.01035   0.00922  -0.00661  -0.01256
  14        2PZ        -0.01239  -0.05829  -0.31539   0.30827  -0.23684
  15        3S          0.12883   0.00538  -0.02093  -0.00899   0.01746
  16        3PX        -0.03293   0.00132  -0.00602  -0.00700  -0.07949
  17        3PY        -0.01244   0.00305   0.00593  -0.03803   0.02414
  18        3PZ        -0.00762  -0.00878  -0.32593   0.46027  -0.46878
  19 3   O  1S          0.07476   0.00029  -0.00246   0.00010  -0.01469
  20        2S         -0.07592  -0.00007   0.00262   0.00007   0.01144
  21        2PX        -0.20972   0.01370   0.00935   0.00135  -0.02835
  22        2PY         0.34383  -0.00738  -0.00342   0.00012   0.02619
  23        2PZ         0.00723   0.33287   0.01229  -0.28293   0.03119
  24        3S         -0.28405  -0.00348   0.01033  -0.00263   0.11040
  25        3PX        -0.22802   0.01529   0.01089  -0.00089  -0.04587
  26        3PY         0.36503  -0.00800  -0.00432  -0.00369   0.03879
  27        3PZ         0.00861   0.37243   0.01709  -0.38658   0.04656
  28 4   C  1S         -0.01636   0.00251   0.00300   0.00354   0.00277
  29        2S          0.01784  -0.00280  -0.00267  -0.00608  -0.00382
  30        2PX         0.07296   0.00812  -0.01880  -0.01641  -0.00023
  31        2PY        -0.19812  -0.00128  -0.00050  -0.00829   0.02521
  32        2PZ         0.00569  -0.07120   0.33332   0.32883   0.18976
  33        3S          0.08673  -0.01230  -0.01695   0.00538   0.02503
  34        3PX        -0.03125   0.00964  -0.01611  -0.07075  -0.02902
  35        3PY        -0.04231  -0.00603  -0.00521  -0.01514   0.05260
  36        3PZ         0.00397  -0.02481   0.35700   0.50049   0.38747
  37 5   C  1S          0.01161  -0.00620   0.00142  -0.00615  -0.01526
  38        2S         -0.01210   0.00758  -0.00098   0.00811   0.00807
  39        2PX        -0.15634  -0.00671   0.00743  -0.00635  -0.00277
  40        2PY         0.08231   0.00421  -0.00230  -0.00029   0.04215
  41        2PZ        -0.00135  -0.28209   0.19294  -0.20972  -0.30996
  42        3S         -0.10272   0.01967  -0.00705  -0.00394   0.17006
  43        3PX        -0.14631   0.00498   0.00882  -0.02747  -0.03217
  44        3PY         0.03662   0.00989  -0.00280   0.03857   0.10827
  45        3PZ        -0.00438  -0.28636   0.20806  -0.35619  -0.63865
  46 6   H  1S          0.05499   0.00332   0.00650  -0.00347  -0.03718
  47        2S          0.07400   0.00372   0.00808  -0.02170  -0.22898
  48 7   H  1S          0.03988  -0.00002  -0.00121   0.01099   0.00251
  49        2S          0.04266   0.00128  -0.00233   0.04695  -0.02342
  50 8   H  1S          0.11071  -0.00182   0.00310  -0.00603  -0.00150
  51        2S          0.11302  -0.00368   0.00507  -0.02359  -0.04489
  52 9   H  1S          0.03267  -0.00589   0.00385   0.00924  -0.04942
  53        2S          0.05357  -0.01041   0.00508   0.04801  -0.30205
                          21        22        23        24        25
                           V         V         V         V         V
     Eigenvalues --     0.11566   0.14591   0.17495   0.17890   0.20584
   1 1   C  1S          0.04917  -0.03182   0.01437   0.10106   0.02009
   2        2S         -0.02833   0.03656  -0.01652  -0.08714  -0.00378
   3        2PX         0.15308   0.05755  -0.10267   0.15622  -0.09449
   4        2PY        -0.06471   0.01315  -0.01565  -0.03738  -0.18224
   5        2PZ         0.10043  -0.02411  -0.01091   0.03775  -0.01215
   6        3S         -0.58921   0.13090  -0.01711  -0.85420  -0.29771
   7        3PX         0.42316   0.01698  -0.23453   0.94938  -0.46503
   8        3PY        -0.17281   0.12147  -0.14727  -0.12038  -0.89259
   9        3PZ         0.24193  -0.07417  -0.03471   0.09704  -0.03229
  10 2   C  1S          0.03011   0.09472   0.00957  -0.06533   0.09919
  11        2S         -0.01995  -0.06221  -0.00830   0.06332  -0.06344
  12        2PX         0.13514   0.01061  -0.15002   0.03920  -0.05272
  13        2PY         0.11144   0.21079  -0.13289   0.00794   0.10397
  14        2PZ        -0.05541   0.02926   0.00569  -0.02044   0.01324
  15        3S         -0.46141  -0.93530   0.01080   0.39646  -1.30782
  16        3PX         0.31802   0.06880  -0.44106  -0.15201   0.08616
  17        3PY         0.20784   0.76709  -0.38026  -0.18136   0.16716
  18        3PZ        -0.12804   0.07399   0.01219  -0.06476   0.03579
  19 3   O  1S          0.04067  -0.08460  -0.03298   0.00533   0.02385
  20        2S         -0.02683   0.06072   0.02368  -0.00350  -0.01024
  21        2PX         0.06099  -0.02813  -0.06519   0.09091  -0.21811
  22        2PY        -0.10780   0.17247   0.02884   0.06584  -0.20476
  23        2PZ         0.00860  -0.00240   0.01086   0.00590   0.00274
  24        3S         -0.34019   0.69332   0.27804  -0.04342  -0.24996
  25        3PX         0.11835  -0.04052  -0.11480   0.11464  -0.39261
  26        3PY        -0.19253   0.28365   0.03366   0.07891  -0.42051
  27        3PZ         0.01312  -0.00329   0.02159   0.01438   0.00323
  28 4   C  1S          0.01786   0.08888   0.09659   0.04848  -0.06279
  29        2S         -0.01149  -0.06814  -0.06302  -0.05376   0.05195
  30        2PX        -0.07940   0.02002  -0.26179   0.05276  -0.00015
  31        2PY        -0.12726   0.22778  -0.06781   0.03841  -0.25096
  32        2PZ         0.03090  -0.01135  -0.03184  -0.00371  -0.01204
  33        3S         -0.34920  -0.73627  -1.22717  -0.25191   0.61434
  34        3PX        -0.16405  -0.09598  -1.01149  -0.10472  -0.03848
  35        3PY        -0.26229   0.49232  -0.25359  -0.13275  -0.61537
  36        3PZ         0.07251  -0.03640  -0.09979  -0.01753  -0.03875
  37 5   C  1S          0.04574  -0.00795  -0.04229  -0.09657  -0.08306
  38        2S         -0.02856   0.01597   0.04825   0.08134   0.03028
  39        2PX         0.04308   0.02690   0.00719  -0.01529  -0.08867
  40        2PY        -0.15186   0.06144  -0.10149   0.15411   0.09779
  41        2PZ        -0.08143   0.01645   0.02022   0.00815   0.02270
  42        3S         -0.53891  -0.00618   0.17661   0.81577   1.38839
  43        3PX         0.07398   0.14781  -0.08765   0.01727  -0.56939
  44        3PY        -0.43799   0.28160  -0.08582   0.90493   0.14984
  45        3PZ        -0.19315   0.04760   0.06548   0.00422   0.08496
  46 6   H  1S          0.09944  -0.04993   0.00528  -0.06267   0.03769
  47        2S          0.92926  -0.39505   0.05369  -1.37014  -0.72223
  48 7   H  1S          0.03875   0.03085   0.09139   0.01386   0.03838
  49        2S          0.47846   0.41024   1.87311   0.23831  -0.12652
  50 8   H  1S          0.04974   0.11178  -0.02688  -0.02357  -0.02431
  51        2S          0.64247   1.36298  -0.59471  -0.41735   0.75264
  52 9   H  1S          0.09916  -0.01354  -0.02008   0.06696  -0.01853
  53        2S          0.97391  -0.07839  -0.27954   1.44600  -0.19890
                          26        27        28        29        30
                           V         V         V         V         V
     Eigenvalues --     0.23335   0.34912   0.43972   0.47264   0.67102
   1 1   C  1S         -0.07395  -0.07126  -0.03095  -0.12600   0.01308
   2        2S          0.01565   0.03146   0.02555   0.01150  -0.08457
   3        2PX        -0.13828   0.11037   0.13408   0.18510   0.00503
   4        2PY         0.01985  -0.01783   0.22707  -0.12648   0.53193
   5        2PZ        -0.01396   0.00892  -0.00616   0.02865  -0.01550
   6        3S          1.49811   1.45929   0.31462   3.91052  -0.33833
   7        3PX        -0.22154   0.55250   0.86659   2.61418  -0.13867
   8        3PY         0.17475  -1.17546   2.07592  -0.97104  -0.31844
   9        3PZ        -0.07841   0.02533  -0.05534  -0.02305   0.00947
  10 2   C  1S         -0.03715   0.07253  -0.00396   0.09499  -0.04713
  11        2S          0.02979  -0.00922   0.00657  -0.01593  -0.03999
  12        2PX         0.29881   0.04965  -0.22660  -0.24560   0.41728
  13        2PY         0.03263  -0.24321   0.07475  -0.06532  -0.11475
  14        2PZ        -0.00142  -0.00315   0.00839  -0.00427  -0.01919
  15        3S          0.14695  -1.60187   0.80848  -2.52219   0.16666
  16        3PX         0.99768   0.15531  -1.37950   0.39310  -0.52125
  17        3PY        -0.02640  -1.27614   0.72508  -2.33581   0.65285
  18        3PZ         0.01186  -0.01123   0.03706  -0.02674   0.01609
  19 3   O  1S          0.09037  -0.03463  -0.01540  -0.00309   0.01987
  20        2S         -0.04571   0.01879   0.00634   0.00022  -0.08522
  21        2PX         0.16739  -0.09079  -0.21383  -0.08809   0.14430
  22        2PY         0.01371   0.13098  -0.16625  -0.03491  -0.18500
  23        2PZ        -0.00924  -0.00067  -0.00396   0.00132  -0.00508
  24        3S         -0.93225   0.40852   0.21223   0.02690   0.27776
  25        3PX         0.40290  -0.25159  -0.51976  -0.07865   0.04587
  26        3PY        -0.04495   0.34300  -0.36510   0.03519  -0.06784
  27        3PZ        -0.01888  -0.00127   0.00124   0.00880  -0.00105
  28 4   C  1S          0.04567   0.08527   0.00796  -0.08234  -0.04324
  29        2S         -0.02840  -0.00957   0.00978   0.01532  -0.04573
  30        2PX        -0.05600   0.25235   0.02964  -0.10771  -0.02014
  31        2PY        -0.12905  -0.06519  -0.21606  -0.24402  -0.35981
[...]
     4  C   -0.149672  -0.169937   0.283690   5.152866   0.471699  -0.030684
     5  C    0.427320  -0.154754  -0.071700   0.471699   5.252808   0.377179
     6  H   -0.024939   0.006116   0.001683  -0.030684   0.377179   0.481217
     7  H    0.003215   0.004126  -0.025162   0.389325  -0.036109  -0.000564
     8  H   -0.041178   0.381003  -0.029544   0.005064   0.003923  -0.000038
     9  H    0.380072  -0.027978   0.001584   0.004883  -0.024368  -0.001432
               7          8          9
     1  C    0.003215  -0.041178   0.380072
     2  C    0.004126   0.381003  -0.027978
     3  O   -0.025162  -0.029544   0.001584
     4  C    0.389325   0.005064   0.004883
     5  C   -0.036109   0.003923  -0.024368
     6  H   -0.000564  -0.000038  -0.001432
     7  H    0.450082  -0.000082  -0.000031
     8  H   -0.000082   0.477740  -0.000914
     9  H   -0.000031  -0.000914   0.475841
 Mulliken charges:
               1
     1  C   -0.236832
     2  C    0.098239
     3  O   -0.461207
     4  C    0.042765
     5  C   -0.245997
     6  H    0.191462
     7  H    0.215201
     8  H    0.204025
     9  H    0.192343
 Sum of Mulliken charges =   0.00000
 Mulliken charges with hydrogens summed into heavy atoms:
               1
     1  C   -0.044489
     2  C    0.302264
     3  O   -0.461207
     4  C    0.257966
     5  C   -0.054535
 Electronic spatial extent (au):  <R**2>=            289.7638
 Charge=              0.0000 electrons
 Dipole moment (field-independent basis, Debye):
    X=             -0.5680    Y=              0.7364    Z=              0.0205  Tot=              0.9302
 Quadrupole moment (field-independent basis, Debye-Ang):
   XX=            -25.5094   YY=            -26.5870   ZZ=            -31.7344
   XY=              2.1323   XZ=              0.4487   YZ=              0.1654
 Traceless Quadrupole moment (field-independent basis, Debye-Ang):
   XX=              2.4342   YY=              1.3566   ZZ=             -3.7908
   XY=              2.1323   XZ=              0.4487   YZ=              0.1654
 Octapole moment (field-independent basis, Debye-Ang**2):
  XXX=              3.8160  YYY=             -2.3605  ZZZ=             -0.1002  XYY=             -2.5911
  XXY=              1.4741  XXZ=             -0.1672  XZZ=              2.1366  YZZ=             -2.6358
  YYZ=              0.1423  XYZ=              0.1500
 Hexadecapole moment (field-independent basis, Debye-Ang**3):
 XXXX=           -145.5474 YYYY=           -147.8254 ZZZZ=            -30.7706 XXXY=             -0.2332
 XXXZ=              2.2617 YYYX=              3.3696 YYYZ=              1.0650 ZZZX=              0.3909
 ZZZY=              0.3133 XXYY=            -56.0486 XXZZ=            -37.1114 YYZZ=            -36.3127
 XXYZ=              0.1395 YYXZ=              0.3663 ZZXY=             -1.8371
 N-N= 1.610912485823D+02 E-N=-8.548059868162D+02  KE= 2.269456087111D+02
 Orbital energies and kinetic energies (alpha):
                                 1                 2
   1         O               -19.112647         28.829990
   2         O               -10.175350         15.800586
   3         O               -10.172190         15.800312
   4         O               -10.129538         15.804592
   5         O               -10.123192         15.804542
   6         O                -1.115081          2.477189
   7         O                -0.825937          1.855156
   8         O                -0.741361          1.772220
   9         O                -0.597634          1.660435
  10         O                -0.570141          1.541344
  11         O                -0.541492          1.189485
  12         O                -0.445024          1.507483
  13         O                -0.428657          1.560747
  14         O                -0.415422          1.361500
  15         O                -0.402486          1.402759
  16         O                -0.374012          2.250411
  17         O                -0.287889          1.623578
  18         O                -0.234107          1.230474
  19         V                 0.017170          1.814313
  20         V                 0.088628          1.489959
  21         V                 0.115656          1.227621
  22         V                 0.145913          1.784270
  23         V                 0.174948          1.261007
  24         V                 0.178903          1.386422
  25         V                 0.205838          2.057608
  26         V                 0.233345          1.860363
  27         V                 0.349120          1.883198
  28         V                 0.439718          2.029083
  29         V                 0.472635          2.213411
  30         V                 0.671017          2.526259
  31         V                 0.697695          2.495130
  32         V                 0.716621          2.750969
  33         V                 0.763691          2.705050
  34         V                 0.765984          2.504296
  35         V                 0.789735          2.609917
  36         V                 0.811083          2.431419
  37         V                 0.824864          2.653780
  38         V                 0.838916          2.606395
  39         V                 0.950132          2.856007
  40         V                 0.985066          3.016915
  41         V                 0.991384          3.479114
  42         V                 1.014732          3.183511
  43         V                 1.184430          2.759127
  44         V                 1.208850          2.911444
  45         V                 1.316250          2.555121
  46         V                 1.374112          2.809726
  47         V                 1.501720          4.921845
  48         V                 1.569441          3.336744
  49         V                 1.630681          3.748468
  50         V                 1.726089          4.393635
  51         V                 1.938175          4.166914
  52         V                 2.142423          4.162156
  53         V                 3.155153          6.824229
 Total kinetic energy from orbitals= 2.269456087111D+02
 No NMR shielding tensors so no spin-rotation constants.
 Leave Link  601 at Tue Dec 15 16:22:14 2015, MaxMem=    33554432 cpu:         0.1
 (Enter /home/Applications/g09/g09/l701.exe)
 Compute integral first derivatives.
 ... and contract with generalized density number  6.
 Leave Link  701 at Tue Dec 15 16:22:14 2015, MaxMem=    33554432 cpu:         0.1
 (Enter /home/Applications/g09/g09/l702.exe)
 L702 exits ... SP integral derivatives will be done elsewhere.
 Leave Link  702 at Tue Dec 15 16:22:15 2015, MaxMem=    33554432 cpu:         0.0
 (Enter /home/Applications/g09/g09/l703.exe)
 Compute integral first derivatives, UseDBF=F ICtDFT=           0.
 Integral derivatives from FoFJK, PRISM(SPDF).
 Calling FoFJK, ICntrl=  10005127 FMM=F ISym2X=0 I1Cent= 0 IOpClX= 0 NMat=1 NMatS=1 NMatT=0.
 FoFJK:  IHMeth= 1 ICntrl=10005127 DoSepK=F KAlg= 0 I1Cent=   0 FoldK=F
 IRaf=         0 NMat=   1 IRICut=       1 DoRegI=T DoRafI=F ISym2E= 0.
 FoFCou: FMM=F IPFlag=           0 FMFlag=      100000 FMFlg1=         800
         NFxFlg=           0 DoJE=F BraDBF=F KetDBF=F FulRan=T
         wScrn=  0.000000 ICntrl=10005127 IOpCl=  0 I1Cent=           0 NGrid=           0
         NMat0=    1 NMatS0=      1 NMatT0=    0 NMatD0=    1 NMtDS0=    0 NMtDT0=    0
 Symmetry not used in FoFCou.
 Leave Link  703 at Tue Dec 15 16:22:16 2015, MaxMem=    33554432 cpu:         1.3
 (Enter /home/Applications/g09/g09/l716.exe)
 Dipole        =-4.41176377D-01 1.27692716D-01 1.27523808D-02
 ***** Axes restored to original set *****
 -------------------------------------------------------------------
 Center     Atomic                   Forces (Hartrees/Bohr)
 Number     Number              X              Y              Z
 -------------------------------------------------------------------
      1        6           0.126696019    0.013582666    0.004297001
      2        6          -0.117842459   -0.123020823    0.000426829
      3        8          -0.064098094   -0.007353739    0.004952208
      4        6          -0.046900776    0.057154877   -0.001771856
      5        6           0.113043061    0.020666651   -0.003688454
      6        1          -0.012740434   -0.015795986    0.003483854
      7        1          -0.000493202    0.013524539   -0.001105117
      8        1           0.018016658    0.026226209   -0.001825069
      9        1          -0.015680774    0.015015607   -0.004769397
 -------------------------------------------------------------------
 Cartesian Forces:  Max     0.126696019 RMS     0.051015719
 Z-matrix is all fixed cartesians, so copy forces.
 Force constants in Cartesian coordinates: 
                1             2             3             4             5 
      1  0.992759D+00
      2  0.141343D-02  0.850922D+00
      3  0.186336D-02  0.848174D-02  0.235373D+00
      4 -0.608886D+00 -0.122935D+00  0.751442D-02  0.103851D+01
      5 -0.983528D-01 -0.227975D+00  0.423308D-03  0.121455D-01  0.820887D+00
      6  0.154113D-01  0.232249D-02 -0.115881D+00 -0.309642D-01  0.864111D-02
      7 -0.759606D-02  0.284170D-01  0.186482D-02 -0.312589D+00  0.170425D+00
      8 -0.664754D-02  0.248043D-01  0.786581D-03  0.214128D+00 -0.339858D+00
      9  0.818112D-03 -0.173286D-02  0.901296D-02  0.187477D-01 -0.153260D-01
     10  0.114188D-01 -0.192874D-05 -0.397701D-03  0.213189D-01  0.185335D-01
     11  0.353827D-01 -0.268073D-04 -0.666238D-03 -0.168293D-01 -0.146464D-01
     12  0.304929D-02  0.658911D-04 -0.227469D-02 -0.167273D-02 -0.123451D-02
     13 -0.174601D+00  0.139917D-01  0.259464D-03  0.984400D-02 -0.368775D-01
     14 -0.135069D-01 -0.465016D+00 -0.206604D-01 -0.136848D-04  0.385127D-04
     15  0.400889D-03 -0.222028D-01 -0.955617D-01 -0.174751D-03  0.552443D-03
     16  0.178383D-01 -0.294154D-04 -0.120391D-04  0.197557D-04 -0.290379D-04
     17 -0.224066D-01 -0.534446D-04  0.190988D-02 -0.855745D-05  0.125782D-04
     18 -0.357327D-02 -0.100958D-02  0.212881D-01  0.178679D-03 -0.262632D-03
     19 -0.186715D-05 -0.120552D-04  0.252758D-03 -0.436164D-05  0.228733D-05
     20 -0.432234D-05 -0.279071D-04  0.585121D-03  0.506595D-05 -0.265668D-05
     21 -0.594827D-04 -0.384048D-03  0.805225D-02  0.135234D-03 -0.709195D-04
     22  0.701680D-02 -0.260187D-01  0.135925D-02 -0.143150D+00 -0.845183D-01
     23 -0.351292D-02  0.131057D-01  0.406541D-03 -0.802980D-01 -0.261489D+00
     24 -0.555961D-04  0.244195D-02  0.305373D-01  0.572592D-02  0.726070D-02
     25 -0.237948D+00  0.105175D+00 -0.127043D-01 -0.506427D-02  0.186714D-01
     26  0.107635D+00 -0.195733D+00  0.873342D-02 -0.619396D-02  0.230323D-01
     27 -0.178546D-01  0.120172D-01 -0.905467D-01  0.509711D-03  0.164759D-04
                6             7             8             9            10 
      6  0.209032D+00
      7  0.162450D-01  0.539705D+00
      8 -0.164886D-01 -0.456409D-01  0.603413D+00
      9 -0.492149D-01 -0.212611D-01  0.131748D-01  0.522676D-01
     10 -0.267043D-03 -0.250607D+00 -0.169673D+00  0.179423D-02  0.924587D+00
     11  0.422094D-03 -0.127452D+00 -0.292412D+00  0.109041D-02 -0.891015D-01
     12 -0.270410D-02  0.387198D-02  0.387110D-02 -0.419363D-01  0.129087D-02
     13 -0.320057D-02 -0.879878D-02  0.694260D-02 -0.237948D-03 -0.520499D+00
     14 -0.159411D-03 -0.272933D-01  0.215211D-01 -0.167931D-03  0.119321D+00
     15  0.930753D-03  0.115232D-03  0.105351D-03  0.442433D-02  0.516177D-02
     16  0.607977D-03  0.156067D-05  0.000000D+00  0.165161D-03 -0.575887D-02
     17 -0.263354D-03  0.336916D-05  0.162746D-05  0.356548D-03  0.717506D-02
     18  0.549882D-02  0.595590D-04  0.287698D-04  0.630294D-02  0.495046D-03
     19 -0.959600D-04  0.204230D-01 -0.160953D-01  0.125725D-02 -0.180478D+00
     20  0.111455D-03  0.112953D-01 -0.889787D-02  0.102569D-02  0.113746D+00
     21  0.297528D-02 -0.374265D-04  0.101288D-03  0.597116D-02 -0.822407D-02
     22  0.471003D-02  0.194629D-01  0.169830D-01 -0.123363D-02  0.134949D-04
     23  0.572998D-02 -0.977773D-02 -0.854292D-02  0.794640D-03  0.000000D+00
     24 -0.767845D-01 -0.110161D-02 -0.127242D-02  0.498461D-02  0.186792D-03
     25 -0.244661D-02 -0.148099D-05  0.186722D-05 -0.498076D-04  0.487805D-05
     26 -0.315805D-03  0.233308D-04 -0.294152D-04  0.784641D-03  0.189483D-05
     27  0.261478D-01  0.243452D-03 -0.306943D-03  0.818759D-02 -0.398901D-04
               11            12            13            14            15 
     11  0.829605D+00
     12 -0.147525D-01  0.202359D+00
     13  0.962286D-01 -0.918778D-03  0.907986D+00
     14 -0.224889D+00 -0.821659D-05  0.261584D-02  0.850318D+00
     15 -0.109933D-02 -0.107886D+00 -0.156258D-01  0.115263D-01  0.222433D+00
     16 -0.179288D-01  0.217098D-02 -0.240141D+00 -0.107239D+00  0.114294D-01
     17  0.222803D-01 -0.383839D-03 -0.109901D+00 -0.196340D+00  0.765266D-02
     18  0.895455D-03  0.258876D-01  0.154036D-01  0.980873D-02 -0.850438D-01
     19  0.119676D+00 -0.742817D-02  0.841480D-02  0.261565D-01 -0.152131D-02
     20 -0.319923D+00  0.127009D-01  0.468748D-02  0.145268D-01  0.918919D-03
     21  0.144656D-01 -0.829556D-01  0.590483D-03  0.104442D-02  0.318339D-01
     22 -0.707700D-05  0.296900D-03  0.302369D-05 -0.444437D-05  0.930534D-04
     23  0.000000D+00 -0.232006D-05  0.770565D-05 -0.113262D-04  0.237140D-03
     24 -0.979570D-04  0.410958D-02  0.259061D-03 -0.380781D-03  0.797255D-02
     25  0.314950D-04 -0.660348D-03  0.177925D-01 -0.357104D-04  0.121527D-03
     26  0.122339D-04 -0.256506D-03  0.223052D-01 -0.147669D-03  0.230929D-02
     27 -0.257549D-03  0.539997D-02  0.347045D-02 -0.100275D-02  0.208967D-01
               16            17            18            19            20 
     16  0.227942D+00
     17  0.125205D+00  0.174165D+00
     18 -0.131770D-01 -0.900128D-02  0.455821D-01
     19 -0.949036D-05 -0.204877D-04 -0.362176D-03  0.151656D+00
     20 -0.219696D-04 -0.474280D-04 -0.838416D-03 -0.129707D+00  0.314372D+00
     21 -0.302339D-03 -0.652688D-03 -0.115380D-01  0.789761D-02 -0.145037D-01
     22  0.000000D+00  0.000000D+00  0.000000D+00  0.000000D+00  0.000000D+00
     23  0.000000D+00  0.000000D+00  0.000000D+00  0.000000D+00  0.000000D+00
     24  0.000000D+00  0.000000D+00  0.000000D+00  0.000000D+00  0.000000D+00
     25  0.107866D-03 -0.467237D-04  0.975590D-03  0.000000D+00  0.000000D+00
     26  0.418995D-04 -0.181494D-04  0.378958D-03  0.000000D+00  0.000000D+00
     27 -0.882071D-03  0.382081D-03 -0.797785D-02  0.000000D+00  0.000000D+00
               21            22            23            24            25 
     21  0.456610D-01
     22  0.000000D+00  0.116653D+00
     23  0.000000D+00  0.935789D-01  0.256972D+00
     24  0.000000D+00 -0.508687D-02 -0.681245D-02  0.410661D-01
     25  0.000000D+00  0.000000D+00  0.215065D-05  0.723040D-04  0.225107D+00
     26  0.000000D+00 -0.132945D-04 -0.338801D-04 -0.113904D-02 -0.123800D+00
     27  0.000000D+00 -0.138726D-03 -0.353533D-03 -0.118857D-01  0.146917D-01
               26            27 
     26  0.172918D+00
     27 -0.104950D-01  0.497782D-01
 Leave Link  716 at Tue Dec 15 16:22:16 2015, MaxMem=    33554432 cpu:         0.0
 (Enter /home/Applications/g09/g09/l103.exe)

 GradGradGradGradGradGradGradGradGradGradGradGradGradGradGradGradGradGrad
 Berny optimization.
 Search for a local minimum.
 Step number   1 out of a maximum of    2
 All quantities printed in internal units (Hartrees-Bohrs-Radians)
 Second derivative matrix not updated -- first step.
 ITU=  0
     Eigenvalues ---    0.02190   0.02774   0.06792   0.07188   0.07468
     Eigenvalues ---    0.08287   0.13111   0.14003   0.16017   0.21488
     Eigenvalues ---    0.25561   0.32248   0.40603   0.43056   0.61443
     Eigenvalues ---    0.77759   1.03530   1.27831   1.39570   1.61199
     Eigenvalues ---    1.76151
 Quadratic step=4.031D-01 exceeds max=3.000D-01 adjusted using Lamda=-6.234D-02.
 Angle between NR and scaled steps=  16.12 degrees.
 Angle between quadratic step and forces=  37.78 degrees.
 Linear search not attempted -- first point.
 TrRot= -0.009577 -0.006738  0.003429  1.030704  0.001524 -1.029965
 Variable       Old X    -DE/DX   Delta X   Delta X   Delta X     New X
                                 (Linear)    (Quad)   (Total)
    X1        1.82705   0.12670   0.00000   0.07281   0.06418   1.89123
    Y1       -1.35007   0.01358   0.00000   0.00877   0.00335  -1.34671
    Z1       -0.07659   0.00430   0.00000   0.01100   0.01469  -0.06190
    X2       -0.56745  -0.11784   0.00000  -0.09166  -0.09969  -0.66714
    Y2       -1.99336  -0.12302   0.00000  -0.12612  -0.13338  -2.12674
    Z2       -0.02951   0.00043   0.00000   0.00089   0.00761  -0.02190
    X3       -2.25689  -0.06410   0.00000  -0.11247  -0.12190  -2.37879
    Y3       -0.04827  -0.00735   0.00000  -0.03164  -0.03999  -0.08826
    Z3        0.09365   0.00495   0.00000   0.01655   0.02194   0.11559
    X4       -0.59213  -0.04690   0.00000  -0.02275  -0.03386  -0.62599
    Y4        2.06213   0.05715   0.00000   0.06608   0.05896   2.12109
    Z4        0.06828  -0.00177   0.00000  -0.01165  -0.01052   0.05777
    X5        1.83148   0.11304   0.00000   0.12413   0.11360   1.94508
    Y5        1.28130   0.02067   0.00000   0.05153   0.04630   1.32760
    Z5        0.04895  -0.00369   0.00000  -0.00193  -0.00177   0.04717
    X6        3.45532  -0.01274   0.00000   0.08234   0.07081   3.52613
    Y6        2.59269  -0.01580   0.00000  -0.00735  -0.01154   2.58115
    Z6       -0.06779   0.00348   0.00000   0.01737   0.01465  -0.05314
    X7       -1.55943  -0.00049   0.00000   0.00058  -0.01192  -1.57135
    Y7        3.81077   0.01352   0.00000   0.09865   0.09069   3.90147
    Z7       -0.02842  -0.00111   0.00000  -0.01605  -0.01651  -0.04493
    X8       -1.52396   0.01802   0.00000   0.00845   0.00181  -1.52215
    Y8       -3.90499   0.02623   0.00000  -0.05018  -0.05800  -3.96299
    Z8        0.03852  -0.00183   0.00000  -0.01743  -0.00764   0.03088
    X9        3.45203  -0.01568   0.00000   0.02459   0.01697   3.46900
    Y9       -2.66747   0.01502   0.00000   0.04773   0.04360  -2.62387
    Z9        0.05955  -0.00477   0.00000  -0.02657  -0.02245   0.03710
         Item               Value     Threshold  Converged?
 Maximum Force            0.126696     0.000450     NO 
 RMS     Force            0.051016     0.000300     NO 
 Maximum Displacement     0.133375     0.001800     NO 
 RMS     Displacement     0.057406     0.001200     NO 
 Predicted change in Energy=-3.432102D-02
 GradGradGradGradGradGradGradGradGradGradGradGradGradGradGradGradGradGrad

 Leave Link  103 at Tue Dec 15 16:22:16 2015, MaxMem=    33554432 cpu:         0.0
 (Enter /home/Applications/g09/g09/l9999.exe)
 1\1\GINC-DUSTIN-DESKTOP\Force\RB3LYP-FC\3-21G\C4H4O1\DUSTIN\15-Dec-201
 5\0\\#P B3LYP/3-21G CIS(Singlets,NStates=15) pop(full) force\\FuranDFT
 \\0,1\C,0.966835,-0.714424,-0.040529\C,-0.300282,-1.054842,-0.015614\O
 ,-1.194296,-0.025544,0.049556\C,-0.313342,1.091231,0.036134\C,0.969176
 ,0.678037,0.025901\H,1.828476,1.371994,-0.035872\H,-0.825216,2.016575,
 -0.015039\H,-0.806443,-2.066431,0.020383\H,1.826736,-1.411564,0.031511
 \\Version=ES64L-G09RevD.01\State=1-A\HF=-228.7381648\RMSD=4.971e-09\RM
 SF=5.102e-02\Dipole=0.3830977,-0.2525529,-0.0236178\PG=C01 [X(C4H4O1)]
 \\@


 ACTORS ARE SO FORTUNATE.  THEY CAN CHOOSE WHETHER
 THEY WILL APPEAR IN A TRAGEDY OR IN COMEDY,
 WHETHER THEY WILL SUFFER OF MAKE MERRY,
 LAUGH OR SHED TEARS.  BUT IN REAL LIFE IT IS DIFFERENT.
 MOST MEN AND WOMEN ARE FORCED TO PERFORM
 PARTS FOR WHICH THEY HAVE NO QUALIFICATIONS.
 THE WORLD IS A STAGE, BUT THE PLAY IS BADLY CAST.

                                   -- OSCAR WILDE
 Job cpu time:       0 days  0 hours  0 minutes 50.5 seconds.
 File lengths (MBytes):  RWF=     14 Int=      0 D2E=      0 Chk=      3 Scr=      1
 Normal termination of Gaussian 09 at Tue Dec 15 16:22:16 2015.
