 Entering Gaussian System, Link 0=g09
 Input=FuranDFT_32.com
 Output=FuranDFT_32.log
 Initial command:
 /home/Applications/g09/g09/l1.exe "/home/Applications/g09/scratch/Gau-5765.inp" -scrdir="/home/Applications/g09/scratch/"
 Entering Link 1 = /home/Applications/g09/g09/l1.exe PID=      5767.
  
 Copyright (c) 1988,1990,1992,1993,1995,1998,2003,2009,2013,
            Gaussian, Inc.  All Rights Reserved.
  
 This is part of the Gaussian(R) 09 program.  It is based on
 the Gaussian(R) 03 system (copyright 2003, Gaussian, Inc.),
 the Gaussian(R) 98 system (copyright 1998, Gaussian, Inc.),
 the Gaussian(R) 94 system (copyright 1995, Gaussian, Inc.),
 the Gaussian 92(TM) system (copyright 1992, Gaussian, Inc.),
 the Gaussian 90(TM) system (copyright 1990, Gaussian, Inc.),
 the Gaussian 88(TM) system (copyright 1988, Gaussian, Inc.),
 the Gaussian 86(TM) system (copyright 1986, Carnegie Mellon
 University), and the Gaussian 82(TM) system (copyright 1983,
 Carnegie Mellon University). Gaussian is a federally registered
 trademark of Gaussian, Inc.
  
 This software contains proprietary and confidential information,
 including trade secrets, belonging to Gaussian, Inc.
  
 This software is provided under written license and may be
 used, copied, transmitted, or stored only in accord with that
 written license.
  
 The following legend is applicable only to US Government
 contracts under FAR:
  
                    RESTRICTED RIGHTS LEGEND
  
 Use, reproduction and disclosure by the US Government is
 subject to restrictions as set forth in subparagraphs (a)
 and (c) of the Commercial Computer Software - Restricted
 Rights clause in FAR 52.227-19.
  
 Gaussian, Inc.
 340 Quinnipiac St., Bldg. 40, Wallingford CT 06492
  
  
 ---------------------------------------------------------------
 Warning -- This program may not be used in any manner that
 competes with the business of Gaussian, Inc. or will provide
 assistance to any competitor of Gaussian, Inc.  The licensee
 of this program is prohibited from giving any competitor of
 Gaussian, Inc. access to this program.  By using this program,
 the user acknowledges that Gaussian, Inc. is engaged in the
 business of creating and licensing software in the field of
 computational chemistry and represents and warrants to the
 licensee that it is not a competitor of Gaussian, Inc. and that
 it will not use this program in any manner prohibited above.
 ---------------------------------------------------------------
  

 Cite this work as:
 Gaussian 09, Revision D.01,
 M. J. Frisch, G. W. Trucks, H. B. Schlegel, G. E. Scuseria, 
 M. A. Robb, J. R. Cheeseman, G. Scalmani, V. Barone, B. Mennucci, 
 G. A. Petersson, H. Nakatsuji, M. Caricato, X. Li, H. P. Hratchian, 
 A. F. Izmaylov, J. Bloino, G. Zheng, J. L. Sonnenberg, M. Hada, 
 M. Ehara, K. Toyota, R. Fukuda, J. Hasegawa, M. Ishida, T. Nakajima, 
 Y. Honda, O. Kitao, H. Nakai, T. Vreven, J. A. Montgomery, Jr., 
 J. E. Peralta, F. Ogliaro, M. Bearpark, J. J. Heyd, E. Brothers, 
 K. N. Kudin, V. N. Staroverov, T. Keith, R. Kobayashi, J. Normand, 
 K. Raghavachari, A. Rendell, J. C. Burant, S. S. Iyengar, J. Tomasi, 
 M. Cossi, N. Rega, J. M. Millam, M. Klene, J. E. Knox, J. B. Cross, 
 V. Bakken, C. Adamo, J. Jaramillo, R. Gomperts, R. E. Stratmann, 
 O. Yazyev, A. J. Austin, R. Cammi, C. Pomelli, J. W. Ochterski, 
 R. L. Martin, K. Morokuma, V. G. Zakrzewski, G. A. Voth, 
 P. Salvador, J. J. Dannenberg, S. Dapprich, A. D. Daniels, 
 O. Farkas, J. B. Foresman, J. V. Ortiz, J. Cioslowski, 
 and D. J. Fox, Gaussian, Inc., Wallingford CT, 2013.
 
 ******************************************
 Gaussian 09:  ES64L-G09RevD.01 24-Apr-2013
                15-Dec-2015 
 ******************************************
 -------------------------------------------------------
 #P B3LYP/3-21G CIS(Singlets,NStates=15) pop(full) force
 -------------------------------------------------------
 1/10=7,30=1,38=1/1,3;
 2/12=2,17=6,18=5,40=1/2;
 3/5=5,11=9,16=1,25=1,30=1,71=1,74=-5/1,2,8,3;
 4//1;
 5/5=2,38=5/2;
 8/6=1,10=1,108=15/1;
 9/15=2,41=15,42=1,48=1/14;
 10/5=4/2;
 6/7=3,18=1/1;
 7/12=6,13=5,29=1/1,2,3,16;
 1/10=7,30=1/3;
 99//99;
 Leave Link    1 at Tue Dec 15 16:17:12 2015, MaxMem=           0 cpu:         0.0
 (Enter /home/Applications/g09/g09/l101.exe)
 --------
 FuranDFT
 --------
 Symbolic Z-matrix:
 Charge =  0 Multiplicity = 1
 6                     0.92657  -0.72557   0.03778 
 6                    -0.31083  -1.05086  -0.02446 
 8                    -1.1181    0.03851  -0.03296 
 6                    -0.38889   1.12792  -0.02673 
 6                     0.9055    0.67112  -0.01147 
 1                     1.77394   1.37038   0.03757 
 1                    -0.88875   2.07877  -0.0466 
 1                    -0.86223  -2.09339  -0.01119 
 1                     1.76244  -1.32539  -0.02262 
 
 NAtoms=      9 NQM=        9 NQMF=       0 NMMI=      0 NMMIF=      0
                NMic=       0 NMicF=      0.
                    Isotopes and Nuclear Properties:
 (Nuclear quadrupole moments (NQMom) in fm**2, nuclear magnetic moments (NMagM)
  in nuclear magnetons)

  Atom         1           2           3           4           5           6           7           8           9
 IAtWgt=          12          12          16          12          12           1           1           1           1
 AtmWgt=  12.0000000  12.0000000  15.9949146  12.0000000  12.0000000   1.0078250   1.0078250   1.0078250   1.0078250
 NucSpn=           0           0           0           0           0           1           1           1           1
 AtZEff=   0.0000000   0.0000000   0.0000000   0.0000000   0.0000000   0.0000000   0.0000000   0.0000000   0.0000000
 NQMom=    0.0000000   0.0000000   0.0000000   0.0000000   0.0000000   0.0000000   0.0000000   0.0000000   0.0000000
 NMagM=    0.0000000   0.0000000   0.0000000   0.0000000   0.0000000   2.7928460   2.7928460   2.7928460   2.7928460
 AtZNuc=   6.0000000   6.0000000   8.0000000   6.0000000   6.0000000   1.0000000   1.0000000   1.0000000   1.0000000
 Leave Link  101 at Tue Dec 15 16:17:12 2015, MaxMem=    33554432 cpu:         0.0
 (Enter /home/Applications/g09/g09/l103.exe)

 GradGradGradGradGradGradGradGradGradGradGradGradGradGradGradGradGradGrad
 Berny optimization.
 Initialization pass.
 Trust Radius=3.00D-01 FncErr=1.00D-07 GrdErr=1.00D-07
 Number of steps in this run=      2 maximum allowed number of steps=      2.
 GradGradGradGradGradGradGradGradGradGradGradGradGradGradGradGradGradGrad

 Leave Link  103 at Tue Dec 15 16:17:12 2015, MaxMem=    33554432 cpu:         0.0
 (Enter /home/Applications/g09/g09/l202.exe)
                          Input orientation:                          
 ---------------------------------------------------------------------
 Center     Atomic      Atomic             Coordinates (Angstroms)
 Number     Number       Type             X           Y           Z
 ---------------------------------------------------------------------
      1          6           0        0.926574   -0.725570    0.037783
      2          6           0       -0.310833   -1.050858   -0.024459
      3          8           0       -1.118099    0.038513   -0.032963
      4          6           0       -0.388894    1.127917   -0.026730
      5          6           0        0.905500    0.671122   -0.011471
      6          1           0        1.773941    1.370376    0.037567
      7          1           0       -0.888754    2.078772   -0.046597
      8          1           0       -0.862229   -2.093394   -0.011194
      9          1           0        1.762440   -1.325387   -0.022616
 ---------------------------------------------------------------------
                    Distance matrix (angstroms):
                    1          2          3          4          5
     1  C    0.000000
     2  C    1.280962   0.000000
     3  O    2.183922   1.355906   0.000000
     4  C    2.273770   2.180174   1.310946   0.000000
     5  C    1.397719   2.108281   2.120285   1.372716   0.000000
     6  H    2.260757   3.195701   3.184765   2.177332   1.116042
     7  H    3.341687   3.182619   2.053154   1.074421   2.280802
     8  H    2.252367   1.179447   2.147317   3.255938   3.281374
     9  H    1.030583   2.091370   3.187136   3.262967   2.172675
                    6          7          8          9
     6  H    0.000000
     7  H    2.756602   0.000000
     8  H    4.353099   4.172401   0.000000
     9  H    2.696459   4.314824   2.734749   0.000000
 Stoichiometry    C4H4O
 Framework group  C1[X(C4H4O)]
 Deg. of freedom    21
 Full point group                 C1      NOp   1
 Largest Abelian subgroup         C1      NOp   1
 Largest concise Abelian subgroup C1      NOp   1
                         Standard orientation:                         
 ---------------------------------------------------------------------
 Center     Atomic      Atomic             Coordinates (Angstroms)
 Number     Number       Type             X           Y           Z
 ---------------------------------------------------------------------
      1          6           0       -1.020417    0.619512   -0.026118
      2          6           0       -0.891285   -0.654347    0.012216
      3          8           0        0.411707   -1.029125   -0.003098
      4          6           0        1.176884    0.035336   -0.000925
      5          6           0        0.295869    1.087925    0.013852
      6          1           0        0.646310    2.146935   -0.021383
      7          1           0        2.242712   -0.100238    0.002443
      8          1           0       -1.675040   -1.535533   -0.006018
      9          1           0       -1.873945    1.191277    0.055588
 ---------------------------------------------------------------------
 Rotational constants (GHZ):     10.3281232      9.2420745      4.8789736
 Leave Link  202 at Tue Dec 15 16:17:12 2015, MaxMem=    33554432 cpu:         0.0
 (Enter /home/Applications/g09/g09/l301.exe)
 Standard basis: 3-21G (6D, 7F)
 Ernie: Thresh=  0.10000D-02 Tol=  0.10000D-05 Strict=F.
 There are    53 symmetry adapted cartesian basis functions of A   symmetry.
 There are    53 symmetry adapted basis functions of A   symmetry.
    53 basis functions,    87 primitive gaussians,    53 cartesian basis functions
    18 alpha electrons       18 beta electrons
       nuclear repulsion energy       163.9687961060 Hartrees.
 IExCor=  402 DFT=T Ex+Corr=B3LYP ExCW=0 ScaHFX=  0.200000
 ScaDFX=  0.800000  0.720000  1.000000  0.810000 ScalE2=  1.000000  1.000000
 IRadAn=      0 IRanWt=     -1 IRanGd=            0 ICorTp=0 IEmpDi=  4
 NAtoms=    9 NActive=    9 NUniq=    9 SFac= 1.00D+00 NAtFMM=   60 NAOKFM=F Big=F
 Integral buffers will be    131072 words long.
 Regular integral format.
 Two-electron integral symmetry is turned on.
 Leave Link  301 at Tue Dec 15 16:17:12 2015, MaxMem=    33554432 cpu:         0.0
 (Enter /home/Applications/g09/g09/l302.exe)
 NPDir=0 NMtPBC=     1 NCelOv=     1 NCel=       1 NClECP=     1 NCelD=      1
         NCelK=      1 NCelE2=     1 NClLst=     1 CellRange=     0.0.
 One-electron integrals computed using PRISM.
 NBasis=    53 RedAO= T EigKep=  2.85D-03  NBF=    53
 NBsUse=    53 1.00D-06 EigRej= -1.00D+00 NBFU=    53
 Precomputing XC quadrature grid using
 IXCGrd= 4 IRadAn=           0 IRanWt=          -1 IRanGd=           0 AccXCQ= 0.00D+00.
 Generated NRdTot=       0 NPtTot=           0 NUsed=           0 NTot=          32
 NSgBfM=    53    53    53    53    53 MxSgAt=     9 MxSgA2=     9.
 Leave Link  302 at Tue Dec 15 16:17:12 2015, MaxMem=    33554432 cpu:         0.1
 (Enter /home/Applications/g09/g09/l308.exe)
 Leave Link  308 at Tue Dec 15 16:17:12 2015, MaxMem=    33554432 cpu:         0.0
 (Enter /home/Applications/g09/g09/l303.exe)
 DipDrv:  MaxL=1.
 Leave Link  303 at Tue Dec 15 16:17:12 2015, MaxMem=    33554432 cpu:         0.0
 (Enter /home/Applications/g09/g09/l401.exe)
 ExpMin= 1.83D-01 ExpMax= 3.22D+02 ExpMxC= 3.22D+02 IAcc=1 IRadAn=         1 AccDes= 0.00D+00
 Harris functional with IExCor=  402 and IRadAn=       1 diagonalized for initial guess.
 HarFok:  IExCor=  402 AccDes= 0.00D+00 IRadAn=         1 IDoV= 1 UseB2=F ITyADJ=14
 ICtDFT=  3500011 ScaDFX=  1.000000  1.000000  1.000000  1.000000
 FoFCou: FMM=F IPFlag=           0 FMFlag=      100000 FMFlg1=           0
         NFxFlg=           0 DoJE=T BraDBF=F KetDBF=T FulRan=T
         wScrn=  0.000000 ICntrl=     500 IOpCl=  0 I1Cent=   200000004 NGrid=           0
         NMat0=    1 NMatS0=      1 NMatT0=    0 NMatD0=    1 NMtDS0=    0 NMtDT0=    0
 Petite list used in FoFCou.
 Harris En= -228.718033972811    
 JPrj=0 DoOrth=F DoCkMO=F.
 Leave Link  401 at Tue Dec 15 16:17:12 2015, MaxMem=    33554432 cpu:         0.2
 (Enter /home/Applications/g09/g09/l502.exe)
 Closed shell SCF:
 Using DIIS extrapolation, IDIIS=  1040.
 Integral symmetry usage will be decided dynamically.
 Keep R1 ints in memory in canonical form, NReq=1925595.
 IVT=       27707 IEndB=       27707 NGot=    33554432 MDV=    32502130
 LenX=    32502130 LenY=    32498880
 Requested convergence on RMS density matrix=1.00D-08 within 128 cycles.
 Requested convergence on MAX density matrix=1.00D-06.
 Requested convergence on             energy=1.00D-06.
 No special actions if energy rises.
 FoFCou: FMM=F IPFlag=           0 FMFlag=           0 FMFlg1=           0
         NFxFlg=           0 DoJE=F BraDBF=F KetDBF=F FulRan=T
         wScrn=  0.000000 ICntrl=     600 IOpCl=  0 I1Cent=           0 NGrid=           0
         NMat0=    1 NMatS0=   1431 NMatT0=    0 NMatD0=    1 NMtDS0=    0 NMtDT0=    0
 Symmetry not used in FoFCou.
 Integral accuracy reduced to 1.0D-05 until final iterations.

 Cycle   1  Pass 0  IDiag  1:
 E= -228.625831122405    
 DIIS: error= 3.59D-02 at cycle   1 NSaved=   1.
 NSaved= 1 IEnMin= 1 EnMin= -228.625831122405     IErMin= 1 ErrMin= 3.59D-02
 ErrMax= 3.59D-02  0.00D+00 EMaxC= 1.00D-01 BMatC= 9.15D-02 BMatP= 9.15D-02
 IDIUse=3 WtCom= 6.41D-01 WtEn= 3.59D-01
 Coeff-Com:  0.100D+01
 Coeff-En:   0.100D+01
 Coeff:      0.100D+01
 Gap=     0.238 Goal=   None    Shift=    0.000
 GapD=    0.238 DampG=1.000 DampE=0.500 DampFc=0.5000 IDamp=-1.
 Damping current iteration by 5.00D-01
 RMSDP=1.34D-02 MaxDP=1.37D-01              OVMax= 2.03D-01

 Cycle   2  Pass 0  IDiag  1:
 E= -228.662813143809     Delta-E=       -0.036982021404 Rises=F Damp=T
 DIIS: error= 1.49D-02 at cycle   2 NSaved=   2.
 NSaved= 2 IEnMin= 2 EnMin= -228.662813143809     IErMin= 2 ErrMin= 1.49D-02
 ErrMax= 1.49D-02  0.00D+00 EMaxC= 1.00D-01 BMatC= 9.18D-03 BMatP= 9.15D-02
 IDIUse=3 WtCom= 8.51D-01 WtEn= 1.49D-01
 Coeff-Com:  0.110D+00 0.890D+00
 Coeff-En:   0.203D+00 0.797D+00
 Coeff:      0.124D+00 0.876D+00
 Gap=     0.256 Goal=   None    Shift=    0.000
 RMSDP=4.60D-03 MaxDP=4.53D-02 DE=-3.70D-02 OVMax= 1.60D-01

 Cycle   3  Pass 0  IDiag  1:
 E= -228.710686233170     Delta-E=       -0.047873089361 Rises=F Damp=F
 DIIS: error= 2.04D-02 at cycle   3 NSaved=   3.
 NSaved= 3 IEnMin= 3 EnMin= -228.710686233170     IErMin= 2 ErrMin= 1.49D-02
 ErrMax= 2.04D-02  0.00D+00 EMaxC= 1.00D-01 BMatC= 1.12D-02 BMatP= 9.18D-03
 IDIUse=2 WtCom= 0.00D+00 WtEn= 1.00D+00
 Coeff-En:   0.000D+00 0.000D+00 0.100D+01
 Coeff:      0.000D+00 0.000D+00 0.100D+01
 Gap=     0.248 Goal=   None    Shift=    0.000
 RMSDP=5.87D-03 MaxDP=4.73D-02 DE=-4.79D-02 OVMax= 1.14D-01

 Cycle   4  Pass 0  IDiag  1:
 E= -228.683565244107     Delta-E=        0.027120989062 Rises=F Damp=F
 DIIS: error= 4.16D-02 at cycle   4 NSaved=   4.
 NSaved= 4 IEnMin= 3 EnMin= -228.710686233170     IErMin= 2 ErrMin= 1.49D-02
 ErrMax= 4.16D-02  0.00D+00 EMaxC= 1.00D-01 BMatC= 4.13D-02 BMatP= 9.18D-03
 IDIUse=2 WtCom= 0.00D+00 WtEn= 1.00D+00
 Coeff-En:   0.000D+00 0.000D+00 0.740D+00 0.260D+00
 Coeff:      0.000D+00 0.000D+00 0.740D+00 0.260D+00
 Gap=     0.259 Goal=   None    Shift=    0.000
 RMSDP=2.96D-03 MaxDP=2.31D-02 DE= 2.71D-02 OVMax= 5.83D-02

 Cycle   5  Pass 0  IDiag  1:
 E= -228.719005082375     Delta-E=       -0.035439838267 Rises=F Damp=F
 DIIS: error= 9.01D-03 at cycle   5 NSaved=   5.
 NSaved= 5 IEnMin= 5 EnMin= -228.719005082375     IErMin= 5 ErrMin= 9.01D-03
 ErrMax= 9.01D-03  0.00D+00 EMaxC= 1.00D-01 BMatC= 2.11D-03 BMatP= 9.18D-03
 IDIUse=3 WtCom= 9.10D-01 WtEn= 9.01D-02
 Coeff-Com: -0.440D-02 0.186D-01 0.256D+00-0.521D-01 0.782D+00
 Coeff-En:   0.000D+00 0.000D+00 0.191D+00 0.000D+00 0.809D+00
 Coeff:     -0.400D-02 0.169D-01 0.250D+00-0.474D-01 0.784D+00
 Gap=     0.264 Goal=   None    Shift=    0.000
 RMSDP=9.52D-04 MaxDP=7.69D-03 DE=-3.54D-02 OVMax= 1.71D-02

 Cycle   6  Pass 0  IDiag  1:
 E= -228.720916942022     Delta-E=       -0.001911859647 Rises=F Damp=F
 DIIS: error= 4.84D-04 at cycle   6 NSaved=   6.
 NSaved= 6 IEnMin= 6 EnMin= -228.720916942022     IErMin= 6 ErrMin= 4.84D-04
 ErrMax= 4.84D-04  0.00D+00 EMaxC= 1.00D-01 BMatC= 1.27D-05 BMatP= 2.11D-03
 IDIUse=3 WtCom= 9.95D-01 WtEn= 4.84D-03
 Coeff-Com: -0.498D-02 0.112D-01 0.744D-01-0.445D-01 0.379D+00 0.585D+00
 Coeff-En:   0.000D+00 0.000D+00 0.000D+00 0.000D+00 0.000D+00 0.100D+01
 Coeff:     -0.496D-02 0.111D-01 0.740D-01-0.443D-01 0.378D+00 0.587D+00
 Gap=     0.264 Goal=   None    Shift=    0.000
 RMSDP=7.74D-05 MaxDP=6.76D-04 DE=-1.91D-03 OVMax= 1.49D-03

 Cycle   7  Pass 0  IDiag  1:
 E= -228.720928819928     Delta-E=       -0.000011877906 Rises=F Damp=F
 DIIS: error= 1.63D-04 at cycle   7 NSaved=   7.
 NSaved= 7 IEnMin= 7 EnMin= -228.720928819928     IErMin= 7 ErrMin= 1.63D-04
 ErrMax= 1.63D-04  0.00D+00 EMaxC= 1.00D-01 BMatC= 7.00D-07 BMatP= 1.27D-05
 IDIUse=3 WtCom= 9.98D-01 WtEn= 1.63D-03
 Coeff-Com: -0.267D-02 0.532D-02 0.196D-01-0.232D-01 0.158D+00 0.351D+00
 Coeff-Com:  0.492D+00
 Coeff-En:   0.000D+00 0.000D+00 0.000D+00 0.000D+00 0.000D+00 0.000D+00
 Coeff-En:   0.100D+01
 Coeff:     -0.266D-02 0.531D-02 0.196D-01-0.232D-01 0.157D+00 0.351D+00
 Coeff:      0.493D+00
 Gap=     0.264 Goal=   None    Shift=    0.000
 RMSDP=1.55D-05 MaxDP=1.98D-04 DE=-1.19D-05 OVMax= 3.87D-04

 Cycle   8  Pass 0  IDiag  1:
 E= -228.720929503441     Delta-E=       -0.000000683513 Rises=F Damp=F
 DIIS: error= 1.63D-05 at cycle   8 NSaved=   8.
 NSaved= 8 IEnMin= 8 EnMin= -228.720929503441     IErMin= 8 ErrMin= 1.63D-05
 ErrMax= 1.63D-05  0.00D+00 EMaxC= 1.00D-01 BMatC= 9.42D-09 BMatP= 7.00D-07
 IDIUse=1 WtCom= 1.00D+00 WtEn= 0.00D+00
 Coeff-Com: -0.691D-04-0.146D-03 0.681D-03-0.108D-02 0.102D-01 0.564D-01
 Coeff-Com:  0.125D+00 0.809D+00
 Coeff:     -0.691D-04-0.146D-03 0.681D-03-0.108D-02 0.102D-01 0.564D-01
 Coeff:      0.125D+00 0.809D+00
 Gap=     0.264 Goal=   None    Shift=    0.000
 RMSDP=1.87D-06 MaxDP=1.81D-05 DE=-6.84D-07 OVMax= 2.84D-05

 Initial convergence to 1.0D-05 achieved.  Increase integral accuracy.
 Cycle   9  Pass 1  IDiag  1:
 E= -228.720933006121     Delta-E=       -0.000003502681 Rises=F Damp=F
 DIIS: error= 1.41D-05 at cycle   1 NSaved=   1.
 NSaved= 1 IEnMin= 1 EnMin= -228.720933006121     IErMin= 1 ErrMin= 1.41D-05
 ErrMax= 1.41D-05  0.00D+00 EMaxC= 1.00D-01 BMatC= 5.16D-09 BMatP= 5.16D-09
 IDIUse=1 WtCom= 1.00D+00 WtEn= 0.00D+00
 Coeff-Com:  0.100D+01
 Coeff:      0.100D+01
 Gap=     0.264 Goal=   None    Shift=    0.000
 RMSDP=1.87D-06 MaxDP=1.81D-05 DE=-3.50D-06 OVMax= 2.91D-05

 Cycle  10  Pass 1  IDiag  1:
 E= -228.720933012430     Delta-E=       -0.000000006309 Rises=F Damp=F
 DIIS: error= 3.89D-06 at cycle   2 NSaved=   2.
 NSaved= 2 IEnMin= 2 EnMin= -228.720933012430     IErMin= 2 ErrMin= 3.89D-06
 ErrMax= 3.89D-06  0.00D+00 EMaxC= 1.00D-01 BMatC= 9.07D-10 BMatP= 5.16D-09
 IDIUse=1 WtCom= 1.00D+00 WtEn= 0.00D+00
 Coeff-Com:  0.180D+00 0.820D+00
 Coeff:      0.180D+00 0.820D+00
 Gap=     0.264 Goal=   None    Shift=    0.000
 RMSDP=1.27D-06 MaxDP=1.78D-05 DE=-6.31D-09 OVMax= 2.18D-05

 Cycle  11  Pass 1  IDiag  1:
 E= -228.720933012395     Delta-E=        0.000000000035 Rises=F Damp=F
 DIIS: error= 4.55D-06 at cycle   3 NSaved=   3.
 NSaved= 3 IEnMin= 2 EnMin= -228.720933012430     IErMin= 2 ErrMin= 3.89D-06
 ErrMax= 4.55D-06  0.00D+00 EMaxC= 1.00D-01 BMatC= 1.02D-09 BMatP= 9.07D-10
 IDIUse=1 WtCom= 1.00D+00 WtEn= 0.00D+00
 Coeff-Com: -0.193D-01 0.521D+00 0.498D+00
 Coeff:     -0.193D-01 0.521D+00 0.498D+00
 Gap=     0.264 Goal=   None    Shift=    0.000
 RMSDP=6.69D-07 MaxDP=1.01D-05 DE= 3.55D-11 OVMax= 1.13D-05

 Cycle  12  Pass 1  IDiag  1:
 E= -228.720933013260     Delta-E=       -0.000000000865 Rises=F Damp=F
 DIIS: error= 1.27D-06 at cycle   4 NSaved=   4.
 NSaved= 4 IEnMin= 4 EnMin= -228.720933013260     IErMin= 4 ErrMin= 1.27D-06
 ErrMax= 1.27D-06  0.00D+00 EMaxC= 1.00D-01 BMatC= 4.22D-11 BMatP= 9.07D-10
 IDIUse=1 WtCom= 1.00D+00 WtEn= 0.00D+00
 Coeff-Com: -0.159D-01 0.305D+00 0.308D+00 0.403D+00
 Coeff:     -0.159D-01 0.305D+00 0.308D+00 0.403D+00
 Gap=     0.264 Goal=   None    Shift=    0.000
 RMSDP=1.30D-07 MaxDP=1.89D-06 DE=-8.65D-10 OVMax= 2.56D-06

 Cycle  13  Pass 1  IDiag  1:
 E= -228.720933013298     Delta-E=       -0.000000000038 Rises=F Damp=F
 DIIS: error= 1.28D-07 at cycle   5 NSaved=   5.
 NSaved= 5 IEnMin= 5 EnMin= -228.720933013298     IErMin= 5 ErrMin= 1.28D-07
 ErrMax= 1.28D-07  0.00D+00 EMaxC= 1.00D-01 BMatC= 5.45D-13 BMatP= 4.22D-11
 IDIUse=1 WtCom= 1.00D+00 WtEn= 0.00D+00
 Coeff-Com: -0.293D-02 0.433D-01 0.406D-01 0.127D+00 0.792D+00
 Coeff:     -0.293D-02 0.433D-01 0.406D-01 0.127D+00 0.792D+00
 Gap=     0.264 Goal=   None    Shift=    0.000
 RMSDP=2.11D-08 MaxDP=1.72D-07 DE=-3.78D-11 OVMax= 3.95D-07

 Cycle  14  Pass 1  IDiag  1:
 E= -228.720933013299     Delta-E=       -0.000000000001 Rises=F Damp=F
 DIIS: error= 4.70D-08 at cycle   6 NSaved=   6.
 NSaved= 6 IEnMin= 6 EnMin= -228.720933013299     IErMin= 6 ErrMin= 4.70D-08
 ErrMax= 4.70D-08  0.00D+00 EMaxC= 1.00D-01 BMatC= 1.01D-13 BMatP= 5.45D-13
 IDIUse=1 WtCom= 1.00D+00 WtEn= 0.00D+00
 Coeff-Com: -0.439D-03 0.332D-02 0.163D-02 0.458D-01 0.446D+00 0.504D+00
 Coeff:     -0.439D-03 0.332D-02 0.163D-02 0.458D-01 0.446D+00 0.504D+00
 Gap=     0.264 Goal=   None    Shift=    0.000
 RMSDP=6.35D-09 MaxDP=7.94D-08 DE=-1.31D-12 OVMax= 1.15D-07

 SCF Done:  E(RB3LYP) =  -228.720933013     A.U. after   14 cycles
            NFock= 14  Conv=0.64D-08     -V/T= 2.0065
 KE= 2.272389774223D+02 PE=-8.606916262945D+02 EE= 2.407629197529D+02
 Leave Link  502 at Tue Dec 15 16:17:16 2015, MaxMem=    33554432 cpu:         3.8
 (Enter /home/Applications/g09/g09/l801.exe)
 DoSCS=F DFT=T ScalE2(SS,OS)=  1.000000  1.000000
 ExpMin= 1.83D-01 ExpMax= 3.22D+02 ExpMxC= 3.22D+02 IAcc=3 IRadAn=         5 AccDes= 0.00D+00
 HarFok:  IExCor=  205 AccDes= 0.00D+00 IRadAn=         5 IDoV=-2 UseB2=F ITyADJ=14
 ICtDFT= 12500011 ScaDFX=  1.000000  1.000000  1.000000  1.000000
 Largest valence mixing into a core orbital is  1.74D-04
 Largest core mixing into a valence orbital is  4.47D-05
 Range of M.O.s used for correlation:     6    53
 NBasis=    53 NAE=    18 NBE=    18 NFC=     5 NFV=     0
 NROrb=     48 NOA=    13 NOB=    13 NVA=    35 NVB=    35
 Leave Link  801 at Tue Dec 15 16:17:16 2015, MaxMem=    33554432 cpu:         0.2
 (Enter /home/Applications/g09/g09/l914.exe)
 RHF ground state
 MDV=    33554432 DFT=T DoStab=F Mixed=T DoRPA=F DoScal=F NonHer=F
 Keep R1, R2, and R3 ints in memory in canonical form, NReq=5596273.
 FoFCou: FMM=F IPFlag=           0 FMFlag=           0 FMFlg1=           0
         NFxFlg=           0 DoJE=F BraDBF=F KetDBF=F FulRan=T
         wScrn=  0.000000 ICntrl=     600 IOpCl=  0 I1Cent=           0 NGrid=           0
         NMat0=    1 NMatS0=   1431 NMatT0=    0 NMatD0=    1 NMtDS0=    0 NMtDT0=    0
 Symmetry not used in FoFCou.
 Making orbital integer symmetry assigments:
 Orbital symmetries:
       Occupied  (A) (A) (A) (A) (A) (A) (A) (A) (A) (A) (A) (A)
                 (A) (A) (A) (A) (A) (A)
       Virtual   (A) (A) (A) (A) (A) (A) (A) (A) (A) (A) (A) (A)
                 (A) (A) (A) (A) (A) (A) (A) (A) (A) (A) (A) (A)
                 (A) (A) (A) (A) (A) (A) (A) (A) (A) (A) (A)
    60 initial guesses have been made.
 Convergence on wavefunction:    0.000001000000000
 Davidson Disk Diagonalization:  ConvIn= 1.00D-06 SkipCon=T Conv= 1.00D-06.
 Max sub-space:   240 roots to seek:    60 dimension of matrix:          910
 Iteration     1 Dimension    60 NMult     0 NNew     60
 CISAX will form    60 AO SS matrices at one time.
 NMat=    60 NSing=    60 JSym2X= 0.
 New state      1 was old state      3
 New state      2 was old state      4
 New state      3 was old state      1
 New state      4 was old state      6
 New state      5 was old state      7
 New state      6 was old state      8
 New state      7 was old state      9
 New state      8 was old state     10
 New state      9 was old state     11
 New state     10 was old state     12
 New state     11 was old state     13
 New state     12 was old state      5
 New state     13 was old state     14
 New state     14 was old state     15
 New state     15 was old state     16
 Excitation Energies [eV] at current iteration:
 Root      1 :     7.741132714505119
 Root      2 :     8.482502810106665
 Root      3 :     8.510566524186308
 Root      4 :     8.824873480198415
 Root      5 :     9.217240380228100
 Root      6 :     9.436934427331909
 Root      7 :     9.796609226832024
 Root      8 :    10.051344533329090
 Root      9 :    10.469215861960690
 Root     10 :    10.554025723993110
 Root     11 :    10.615260677589570
 Root     12 :    10.658636583080030
 Root     13 :    10.987957852643910
 Root     14 :    11.113360074474440
 Root     15 :    11.354783387437130
 Root     16 :    11.494718826769650
 Root     17 :    11.500878167628590
 Root     18 :    11.636669939897860
 Root     19 :    11.716118338133550
 Root     20 :    11.884686778226330
 Root     21 :    11.993797479175480
 Root     22 :    12.396116567141400
 Root     23 :    12.585142749484610
 Root     24 :    12.800300338565540
 Root     25 :    12.859689938852300
 Root     26 :    12.940254484067630
 Root     27 :    13.276731962259540
 Root     28 :    13.451630316943670
 Root     29 :    13.785196563947110
 Root     30 :    13.956802762028910
 Root     31 :    13.973548127350640
 Root     32 :    14.086930865641190
 Root     33 :    14.354652049452130
 Root     34 :    14.452900395892780
 Root     35 :    14.517304412896940
 Root     36 :    14.695523174290600
 Root     37 :    14.770099329259000
 Root     38 :    14.860169411152650
 Root     39 :    14.964746127726990
 Root     40 :    15.126010583620220
 Root     41 :    15.137119988200110
 Root     42 :    15.328929368414380
 Root     43 :    15.432166776816190
 Root     44 :    15.514512256095320
 Root     45 :    15.589380562664140
 Root     46 :    15.750667013648040
 Root     47 :    15.770463065208720
 Root     48 :    15.941129732027610
 Root     49 :    16.104069517670260
 Root     50 :    16.158671885589040
 Root     51 :    16.302489800881930
 Root     52 :    16.404985711028240
 Root     53 :    16.496877558505750
 Root     54 :    16.643846859511000
 Root     55 :    16.693223934747180
 Root     56 :    16.740971977096600
 Root     57 :    16.926426171617640
 Root     58 :    17.191737429485760
 Root     59 :    17.856234412997490
 Root     60 :    19.138588609286570
 Iteration     2 Dimension   120 NMult    60 NNew     60
 CISAX will form    60 AO SS matrices at one time.
 NMat=    60 NSing=    60 JSym2X= 0.
 Root      1 not converged, maximum delta is    0.275807917124899
 New state      2 was old state      3
 Root      2 not converged, maximum delta is    0.216119132457917
 New state      3 was old state      2
 Root      3 not converged, maximum delta is    0.167861698746800
 Root      4 not converged, maximum delta is    0.044538666520987
 Root      5 not converged, maximum delta is    0.017048174976877
 Root      6 not converged, maximum delta is    0.014136442129103
 New state      7 was old state      9
 Root      7 not converged, maximum delta is    0.389826192508768
 New state      8 was old state      7
 Root      8 not converged, maximum delta is    0.245022589417948
 New state      9 was old state      8
 Root      9 not converged, maximum delta is    0.047058791616723
 New state     10 was old state     16
 Root     10 not converged, maximum delta is    0.334573421085753
 New state     11 was old state     10
 Root     11 not converged, maximum delta is    0.249172957869090
 New state     12 was old state     11
 Root     12 not converged, maximum delta is    0.228871367032683
 New state     13 was old state     12
 Root     13 not converged, maximum delta is    0.151545788002174
 New state     14 was old state     13
 Root     14 not converged, maximum delta is    0.053836154350305
 New state     15 was old state     14
 Root     15 not converged, maximum delta is    0.022425826986456
 Excitation Energies [eV] at current iteration:
 Root      1 :     7.469542398249235   Change is   -0.271590316255885
 Root      2 :     7.829639273995837   Change is   -0.680927250190471
 Root      3 :     8.467920973764624   Change is   -0.014581836342040
 Root      4 :     8.796689871838407   Change is   -0.028183608360007
 Root      5 :     9.202370441949277   Change is   -0.014869938278822
 Root      6 :     9.421147956230982   Change is   -0.015786471100929
 Root      7 :     9.698557219943259   Change is   -0.770658642017430
 Root      8 :     9.808254222410282   Change is    0.011644995578259
 Root      9 :    10.035698459319530   Change is   -0.015646074009560
 Root     10 :    10.465142506337990   Change is   -1.029576320431663
 Root     11 :    10.511340738409200   Change is   -0.042684985583913
 Root     12 :    10.589149446576480   Change is   -0.026111231013100
 Root     13 :    10.647640845213100   Change is   -0.010995737866929
 Root     14 :    10.984487649757260   Change is   -0.003470202886647
 Root     15 :    11.101381538042430   Change is   -0.011978536432007
 Root     16 :    11.368455111920090   Change is    0.013671724482966
 Root     17 :    11.460119134921430   Change is   -0.040759032707157
 Root     18 :    11.592590502922120   Change is   -0.044079436975742
 Root     19 :    11.689307186625590   Change is   -0.026811151507965
 Root     20 :    11.813706038709730   Change is   -0.070980739516596
 Root     21 :    11.970210803101850   Change is   -0.023586676073629
 Root     22 :    12.319704503769430   Change is   -0.076412063371966
 Root     23 :    12.548492926314760   Change is   -0.036649823169844
 Root     24 :    12.767312347856880   Change is   -0.032987990708664
 Root     25 :    12.825867215325780   Change is   -0.033822723526525
 Root     26 :    12.907476459862430   Change is   -0.032778024205205
 Root     27 :    13.175041091896270   Change is   -0.101690870363271
 Root     28 :    13.295916111387860   Change is   -1.221388301509075
 Root     29 :    13.418421111955820   Change is   -0.033209204987856
 Root     30 :    13.775984177911290   Change is   -0.009212386035822
 Root     31 :    13.911872855592430   Change is   -0.044929906436469
 Root     32 :    13.926403072178840   Change is   -0.047145055171791
 Root     33 :    14.005296468415500   Change is   -0.081634397225690
 Root     34 :    14.177217075142110   Change is   -0.275683320750678
 Root     35 :    14.327721889578830   Change is   -0.026930159873304
 Root     36 :    14.644236492071970   Change is   -0.051286682218628
 Root     37 :    14.674939857447880   Change is   -0.095159471811120
 Root     38 :    14.775388198349150   Change is   -0.084781212803505
 Root     39 :    14.853337213859690   Change is   -0.111408913867298
 Root     40 :    14.923197975042820   Change is   -0.202812608577403
 Root     41 :    15.004898679281100   Change is   -0.509613576814214
 Root     42 :    15.081609454912710   Change is   -0.247319913501676
 Root     43 :    15.093490769408710   Change is   -0.043629218791398
 Root     44 :    15.337863326158040   Change is   -0.094303450658147
 Root     45 :    15.377184646711280   Change is   -0.373482366936752
 Root     46 :    15.517304714025250   Change is   -0.072075848638893
 Root     47 :    15.726362886888790   Change is   -0.044100178319936
 Root     48 :    15.848943810440280   Change is   -0.092185921587339
 Root     49 :    15.877143033288000   Change is   -0.527842677740245
 Root     50 :    15.958049248956580   Change is   -0.200622636632464
 Root     51 :    16.031325132249050   Change is   -0.072744385421208
 Root     52 :    16.127609905163700   Change is   -0.174879895718225
 Root     53 :    16.342254065908260   Change is   -0.301592793602736
 Root     54 :    16.418224015011570   Change is   -0.078653543494187
 Root     55 :    16.588327730094290   Change is   -0.603409699391468
 Root     56 :    16.633513012615680   Change is   -0.107458964480917
 Root     57 :    16.652143816686740   Change is   -0.041080118060444
 Root     58 :    16.904939113466040   Change is   -0.021487058151603
 Root     59 :    17.013427404984740   Change is   -0.842807008012752
 Root     60 :    17.508720645271250   Change is   -1.629867964015317
 Iteration     3 Dimension   135 NMult   120 NNew     15
 CISAX will form    15 AO SS matrices at one time.
 NMat=    15 NSing=    15 JSym2X= 0.
 Root      1 not converged, maximum delta is    0.001953921953142
 Root      2 not converged, maximum delta is    0.002005222661278
 Root      3 not converged, maximum delta is    0.000298986096389
 Root      4 not converged, maximum delta is    0.000157090608022
 Root      5 not converged, maximum delta is    0.000165433398274
 Root      6 not converged, maximum delta is    0.000137671981428
 Root      7 not converged, maximum delta is    0.007469589325238
 Root      8 not converged, maximum delta is    0.006898304384295
 Root      9 not converged, maximum delta is    0.000626337574189
 Root     10 not converged, maximum delta is    0.002714292603371
 Root     11 not converged, maximum delta is    0.000535783382777
 Root     12 not converged, maximum delta is    0.000784473975681
 Root     13 not converged, maximum delta is    0.002319156186955
 Root     14 not converged, maximum delta is    0.000163125311646
 Root     15 not converged, maximum delta is    0.000193428073267
 Excitation Energies [eV] at current iteration:
 Root      1 :     7.467953871626278   Change is   -0.001588526622957
 Root      2 :     7.828198803797315   Change is   -0.001440470198521
 Root      3 :     8.467874767286222   Change is   -0.000046206478402
 Root      4 :     8.796668219506691   Change is   -0.000021652331716
 Root      5 :     9.202349390085640   Change is   -0.000021051863637
 Root      6 :     9.421132248688828   Change is   -0.000015707542153
 Root      7 :     9.696220392508316   Change is   -0.002336827434942
 Root      8 :     9.807184790837326   Change is   -0.001069431572956
 Root      9 :    10.035633634782520   Change is   -0.000064824537010
 Root     10 :    10.461844736670830   Change is   -0.003297769667160
 Root     11 :    10.511307954053770   Change is   -0.000032784355430
 Root     12 :    10.589092539275290   Change is   -0.000056907301188
 Root     13 :    10.647385990354340   Change is   -0.000254854858765
 Root     14 :    10.984471860196260   Change is   -0.000015789561001
 Root     15 :    11.101364552244550   Change is   -0.000016985797879
 Iteration     4 Dimension   150 NMult   135 NNew     15
 CISAX will form    15 AO SS matrices at one time.
 NMat=    15 NSing=    15 JSym2X= 0.
 Root      1 not converged, maximum delta is    0.000057456461257
 Root      2 not converged, maximum delta is    0.000061706004979
 Root      3 not converged, maximum delta is    0.000010727866361
 Root      4 not converged, maximum delta is    0.000004184331520
 Root      5 not converged, maximum delta is    0.000005310437970
 Root      6 not converged, maximum delta is    0.000004131273521
 Root      7 not converged, maximum delta is    0.000084887399120
 Root      8 not converged, maximum delta is    0.000047575794054
 Root      9 not converged, maximum delta is    0.000009935905112
 Root     10 not converged, maximum delta is    0.000101625555736
 Root     11 not converged, maximum delta is    0.000008347038890
 Root     12 not converged, maximum delta is    0.000012419240649
 Root     13 not converged, maximum delta is    0.000027495830089
 Root     14 not converged, maximum delta is    0.000008295386302
 Root     15 not converged, maximum delta is    0.000011839019553
 Excitation Energies [eV] at current iteration:
 Root      1 :     7.467951653913683   Change is   -0.000002217712595
 Root      2 :     7.828196982443682   Change is   -0.000001821353633
 Root      3 :     8.467874704407972   Change is   -0.000000062878250
 Root      4 :     8.796668207083266   Change is   -0.000000012423424
 Root      5 :     9.202349370670660   Change is   -0.000000019414980
 Root      6 :     9.421132234775833   Change is   -0.000000013912996
 Root      7 :     9.696217011173998   Change is   -0.000003381334319
 Root      8 :     9.807183303602352   Change is   -0.000001487234974
 Root      9 :    10.035633566945110   Change is   -0.000000067837407
 Root     10 :    10.461839598608190   Change is   -0.000005138062635
 Root     11 :    10.511307920610190   Change is   -0.000000033443575
 Root     12 :    10.589092455122350   Change is   -0.000000084152941
 Root     13 :    10.647385595006060   Change is   -0.000000395348275
 Root     14 :    10.984471836234770   Change is   -0.000000023961489
 Root     15 :    11.101364527383510   Change is   -0.000000024861042
 Iteration     5 Dimension   165 NMult   150 NNew     15
 CISAX will form    15 AO SS matrices at one time.
 NMat=    15 NSing=    15 JSym2X= 0.
 Root      1 not converged, maximum delta is    0.000001928230538
 Root      2 not converged, maximum delta is    0.000001821489193
 Root      3 has converged.
 Root      4 has converged.
 Root      5 has converged.
 Root      6 has converged.
 Root      7 not converged, maximum delta is    0.000003441652772
 Root      8 not converged, maximum delta is    0.000001758519524
 Root      9 has converged.
 Root     10 not converged, maximum delta is    0.000003322822957
 Root     11 has converged.
 Root     12 has converged.
 Root     13 not converged, maximum delta is    0.000001044874777
 Root     14 has converged.
 Root     15 has converged.
 Excitation Energies [eV] at current iteration:
 Root      1 :     7.467951651839806   Change is   -0.000000002073876
 Root      2 :     7.828196981186803   Change is   -0.000000001256879
 Root      3 :     8.467874704351646   Change is   -0.000000000056326
 Root      4 :     8.796668207075845   Change is   -0.000000000007421
 Root      5 :     9.202349370654561   Change is   -0.000000000016099
 Root      6 :     9.421132234763252   Change is   -0.000000000012580
 Root      7 :     9.696217008141609   Change is   -0.000000003032389
 Root      8 :     9.807183302306319   Change is   -0.000000001296033
 Root      9 :    10.035633566886520   Change is   -0.000000000058595
 Root     10 :    10.461839593113670   Change is   -0.000000005494519
 Root     11 :    10.511307920577480   Change is   -0.000000000032709
 Root     12 :    10.589092455035360   Change is   -0.000000000086984
 Root     13 :    10.647385594547640   Change is   -0.000000000458422
 Root     14 :    10.984471836202200   Change is   -0.000000000032573
 Root     15 :    11.101364527351450   Change is   -0.000000000032066
 Iteration     6 Dimension   170 NMult   165 NNew      5
 CISAX will form     5 AO SS matrices at one time.
 NMat=     5 NSing=     5 JSym2X= 0.
 Root      1 has converged.
 Root      2 has converged.
 Root      3 has converged.
 Root      4 has converged.
 Root      5 has converged.
 Root      6 has converged.
 Root      7 has converged.
 Root      8 has converged.
 Root      9 has converged.
 Root     10 has converged.
 Root     11 has converged.
 Root     12 has converged.
 Root     13 has converged.
 Root     14 has converged.
 Root     15 has converged.
 Excitation Energies [eV] at current iteration:
 Root      1 :     7.467951651839106   Change is   -0.000000000000701
 Root      2 :     7.828196981186444   Change is   -0.000000000000360
 Root      3 :     8.467874704351640   Change is   -0.000000000000006
 Root      4 :     8.796668207075848   Change is    0.000000000000003
 Root      5 :     9.202349370654556   Change is   -0.000000000000006
 Root      6 :     9.421132234763254   Change is    0.000000000000002
 Root      7 :     9.696217008140060   Change is   -0.000000000001548
 Root      8 :     9.807183302305727   Change is   -0.000000000000592
 Root      9 :    10.035633566886510   Change is   -0.000000000000006
 Root     10 :    10.461839593109490   Change is   -0.000000000004187
 Root     11 :    10.511307920577470   Change is   -0.000000000000020
 Root     12 :    10.589092455035310   Change is   -0.000000000000050
 Root     13 :    10.647385594547280   Change is   -0.000000000000356
 Root     14 :    10.984471836202170   Change is   -0.000000000000029
 Root     15 :    11.101364527351450   Change is    0.000000000000002
 Convergence achieved on expansion vectors.
 ***********************************************************************
 Excited states from <AA,BB:AA,BB> singles matrix:
 ***********************************************************************
 
 1PDM for each excited state written to RWF  633
 Ground to excited state transition densities written to RWF  633
 Ground to excited state transition electric dipole moments (Au):
       state          X           Y           Z        Dip. S.      Osc.
         1        -0.8114     -0.1018      0.0321      0.6698      0.1225
         2        -0.8016     -0.1011      0.0359      0.6541      0.1255
         3         0.0001      0.1095      0.0161      0.0123      0.0025
         4         0.0268      0.0217     -0.1263      0.0172      0.0037
         5         0.0044      0.0656      0.0382      0.0058      0.0013
         6         0.0354     -0.0174     -0.0095      0.0016      0.0004
         7        -0.4439     -0.9513     -0.0665      1.1066      0.2629
         8         0.0598      0.7114     -0.0316      0.5106      0.1227
         9         0.0380     -0.1107      0.1673      0.0417      0.0103
        10        -0.7733      0.8809     -0.0348      1.3751      0.3525
        11         0.0654      0.0846     -0.0282      0.0122      0.0031
        12         0.0162     -0.1223      0.0272      0.0160      0.0041
        13         0.2409     -0.2021      0.0835      0.1058      0.0276
        14        -0.0069      0.0560     -0.0121      0.0033      0.0009
        15         0.0152      0.0397     -0.0208      0.0022      0.0006
 Ground to excited state transition velocity dipole moments (Au):
       state          X           Y           Z        Dip. S.      Osc.
         1        -0.0052      0.0484      0.0017      0.0024      0.0058
         2         0.0187     -0.0211      0.0015      0.0008      0.0019
         3        -0.0076     -0.0004     -0.0093      0.0001      0.0003
         4        -0.0012     -0.0006      0.0693      0.0048      0.0099
         5        -0.0011      0.0018      0.0188      0.0004      0.0007
         6         0.0002     -0.0008      0.0508      0.0026      0.0050
         7         0.0765      0.0612     -0.0050      0.0096      0.0180
         8        -0.0286     -0.0407     -0.0279      0.0033      0.0060
         9         0.0018      0.0032     -0.0553      0.0031      0.0055
        10         0.0645     -0.0449      0.0114      0.0063      0.0109
        11        -0.0144     -0.0126      0.0291      0.0012      0.0021
        12         0.0010      0.0092     -0.0290      0.0009      0.0016
        13        -0.0240      0.0073      0.0114      0.0008      0.0013
        14        -0.0014     -0.0038     -0.0012      0.0000      0.0000
        15        -0.0073     -0.0100      0.0006      0.0002      0.0003
 Ground to excited state transition magnetic dipole moments (Au):
       state          X           Y           Z
         1        -0.0433      0.0004     -0.3172
         2        -0.0051     -0.0254     -0.3289
         3         0.3244     -0.2462     -0.0082
         4        -1.4346     -0.5609      0.0049
         5         0.2281     -0.2829     -0.0032
         6         0.0331      0.0711     -0.0081
         7         0.0152     -0.1161      0.1211
         8        -0.0421     -0.1727     -0.0200
         9         0.4234     -0.1086     -0.0218
        10         0.0074      0.0453      0.2328
        11         0.1457      0.1808      0.0232
        12         0.0236     -0.1099     -0.0001
        13        -0.2405     -0.1850     -0.0594
        14        -0.0412      0.0250      0.0259
        15         0.0996      0.1379      0.0249
 Ground to excited state transition velocity quadrupole moments (Au):
       state          XX          YY          ZZ          XY          XZ          YZ
         1         0.1134     -0.1245     -0.0202     -0.1334     -0.0054     -0.0106
         2         0.1247     -0.2212      0.0241     -0.1746      0.0111      0.0015
         3         0.0237     -0.0098     -0.0089      0.0122      0.1123      0.1002
         4        -0.0006      0.0093     -0.0014      0.0078      0.0527     -0.1743
         5         0.0121     -0.0255     -0.0038     -0.0071     -0.0736     -0.0172
         6         0.0095     -0.0085      0.0020     -0.0233      0.1082     -0.0377
         7        -0.2776      0.2395      0.0278      0.0723      0.0323     -0.0037
         8         0.1634     -0.1338     -0.0244      0.0314      0.0545     -0.0415
         9        -0.0221      0.0256      0.0008     -0.0010      0.0139      0.0416
        10         0.0491      0.0595     -0.0575      0.3932     -0.0268      0.0100
        11         0.0161     -0.0319      0.0006     -0.0165      0.0232      0.1421
        12        -0.0095      0.0266      0.0024     -0.0133     -0.0175      0.0600
        13        -0.0006     -0.0133      0.0081     -0.1004      0.0126     -0.0639
        14         0.0023      0.0081     -0.0067      0.0292      0.0788     -0.0009
        15         0.0197     -0.0449      0.0087     -0.0283     -0.0860      0.0128
 <0|del|b> * <b|rxdel|0> + <0|del|b> * <b|delr+rdel|0>
 Rotatory Strengths (R) in cgs (10**-40 erg-esu-cm/Gauss)
       state          XX          YY          ZZ    R(velocity)    E-M Angle
         1        -0.6065     -0.0368     -0.0956     -0.2463       91.05
         2         0.0169     -0.3673      0.2178     -0.0442       90.00
         3         0.1075     -3.4430     -1.8750     -1.7368      118.03
         4         1.3838      1.8845      1.9938      1.7540       88.71
         5        -0.5967     -0.1564     -0.9403     -0.5645       96.75
         6        -1.6015      0.7898     -0.1235     -0.3117       96.56
         7        -9.9757      0.6295     -3.6538     -4.3333      113.36
         8         8.7626      3.7551      4.7369      5.7515       30.50
         9         0.8356      1.9158      0.3786      1.0433       86.14
        10         3.6112     -0.6560     -0.9215      0.6779       86.64
        11        -1.6364     -2.7288     -2.3964     -2.2539      117.07
        12        -0.4205     -0.2702     -1.0990     -0.5966      106.73
        13        -2.9460      7.0244      2.6932      2.2572       63.90
        14         0.1211      0.0561     -0.2969     -0.0399       90.00
        15        -1.9373     -0.6887     -1.0016     -1.2092      168.97
 1/2[<0|r|b>*<b|rxdel|0> + (<0|rxdel|b>*<b|r|0>)*]
 Rotatory Strengths (R) in cgs (10**-40 erg-esu-cm/Gauss)
       state          XX          YY          ZZ     R(length)
         1       -24.8234      0.0288      7.1985     -5.8654
         2        -2.9121     -1.8132      8.3446      1.2064
         3        -0.0278     19.0673      0.0929      6.3775
         4        27.1838      8.6232      0.4401     12.0824
         5        -0.7025     13.1237      0.0869      4.1694
         6        -0.8284      0.8745     -0.0545     -0.0028
         7         4.7722    -78.1112      5.6987    -22.5468
         8         1.7807     86.8929     -0.4478     29.4086
         9       -11.3752     -8.5077      2.5819     -5.7670
        10         4.0206    -28.2047      5.7323     -6.1506
        11        -6.7379    -10.8162      0.4628     -5.6971
        12        -0.2700     -9.4999      0.0021     -3.2560
        13        40.9632    -26.4367      3.5069      6.0111
        14        -0.2018     -0.9877      0.2205     -0.3230
        15        -1.0743     -3.8718      0.3670     -1.5264
  1/2[<0|del|b>*<b|r|0> + (<0|r|b>*<b|del|0>)*] (Au)
       state          X           Y           Z        Dip. S.   Osc.(frdel)
         1         0.0042     -0.0049      0.0001      0.0007      0.0005
         2        -0.0150      0.0021      0.0001      0.0128      0.0086
         3         0.0000      0.0000     -0.0001      0.0002      0.0001
         4         0.0000      0.0000     -0.0088      0.0088      0.0059
         5         0.0000      0.0001      0.0007     -0.0008     -0.0006
         6         0.0000      0.0000     -0.0005      0.0005      0.0003
         7        -0.0339     -0.0582      0.0003      0.0918      0.0612
         8        -0.0017     -0.0290      0.0009      0.0298      0.0199
         9         0.0001     -0.0004     -0.0092      0.0095      0.0064
        10        -0.0499     -0.0395     -0.0004      0.0898      0.0599
        11        -0.0009     -0.0011     -0.0008      0.0028      0.0019
        12         0.0000     -0.0011     -0.0008      0.0019      0.0013
        13        -0.0058     -0.0015      0.0009      0.0063      0.0042
        14         0.0000     -0.0002      0.0000      0.0002      0.0001
        15        -0.0001     -0.0004      0.0000      0.0005      0.0003

 Excitation energies and oscillator strengths:
 
 Excited State   1:      Singlet-A      7.4680 eV  166.02 nm  f=0.1225  <S**2>=0.000
      17 -> 19        -0.27752
      18 -> 19         0.52609
      18 -> 20        -0.35048
 This state for optimization and/or second-order correction.
 Total Energy, E(CIS) =  -228.446490828    
 Copying the excited state density for this state as the 1-particle RhoCI density.
 
 Excited State   2:      Singlet-A      7.8282 eV  158.38 nm  f=0.1255  <S**2>=0.000
      17 -> 19         0.41738
      18 -> 19         0.42818
      18 -> 20         0.34801
 
 Excited State   3:      Singlet-A      8.4679 eV  146.42 nm  f=0.0025  <S**2>=0.000
      18 -> 21         0.67865
      18 -> 22         0.10938
 
 Excited State   4:      Singlet-A      8.7967 eV  140.94 nm  f=0.0037  <S**2>=0.000
      16 -> 19         0.69903
 
 Excited State   5:      Singlet-A      9.2023 eV  134.73 nm  f=0.0013  <S**2>=0.000
      18 -> 21        -0.11099
      18 -> 22         0.67668
      18 -> 23         0.13030
 
 Excited State   6:      Singlet-A      9.4211 eV  131.60 nm  f=0.0004  <S**2>=0.000
      17 -> 21        -0.15266
      18 -> 22        -0.13498
      18 -> 23         0.66277
 
 Excited State   7:      Singlet-A      9.6962 eV  127.87 nm  f=0.2629  <S**2>=0.000
      17 -> 19         0.29395
      17 -> 20         0.44267
      17 -> 21         0.24675
      18 -> 20        -0.32432
 
 Excited State   8:      Singlet-A      9.8072 eV  126.42 nm  f=0.1227  <S**2>=0.000
      17 -> 19        -0.22349
      17 -> 21         0.58497
      18 -> 20         0.23021
      18 -> 23         0.14760
 
 Excited State   9:      Singlet-A     10.0356 eV  123.54 nm  f=0.0103  <S**2>=0.000
      15 -> 19         0.68805
 
 Excited State  10:      Singlet-A     10.4618 eV  118.51 nm  f=0.3525  <S**2>=0.000
      16 -> 20         0.10754
      17 -> 19        -0.24409
      17 -> 20         0.49505
      17 -> 21        -0.24471
      18 -> 20         0.22533
 
 Excited State  11:      Singlet-A     10.5113 eV  117.95 nm  f=0.0031  <S**2>=0.000
      14 -> 19        -0.11495
      16 -> 20        -0.12903
      17 -> 22        -0.20032
      18 -> 24         0.63852
 
 Excited State  12:      Singlet-A     10.5891 eV  117.09 nm  f=0.0041  <S**2>=0.000
      14 -> 19         0.21156
      15 -> 19        -0.10888
      16 -> 20         0.54373
      17 -> 22        -0.36130
 
 Excited State  13:      Singlet-A     10.6474 eV  116.45 nm  f=0.0276  <S**2>=0.000
      16 -> 20         0.30187
      17 -> 20        -0.12370
      17 -> 22         0.55288
      18 -> 24         0.24744
 
 Excited State  14:      Singlet-A     10.9845 eV  112.87 nm  f=0.0009  <S**2>=0.000
      14 -> 19        -0.17632
      17 -> 23         0.67525
 
 Excited State  15:      Singlet-A     11.1014 eV  111.68 nm  f=0.0006  <S**2>=0.000
      13 -> 19         0.15851
      14 -> 19         0.59716
      16 -> 20        -0.25605
      17 -> 23         0.16782
 SavETr:  write IOETrn=   770 NScale= 10 NData=  16 NLR=1 NState=   15 LETran=     280.
 The selected state is a singlet
 CISAX will form     1 AO SS matrices at one time.
 NMat=     1 NSing=     1 JSym2X= 0.
 CISAX will form     1 AO SS matrices at one time.
 NMat=     1 NSing=     1 JSym2X= 0.
 Leave Link  914 at Tue Dec 15 16:17:50 2015, MaxMem=    33554432 cpu:        33.9
 (Enter /home/Applications/g09/g09/l1002.exe)
 Minotr:  Closed shell wavefunction.
          Computing CIS/TD-HF/TD-KS derivatives.
          Using Z-Vector for PSCF gradient.
          Skipping F1 and S1 gradient terms here.
          IDoAtm=111111111
          Frozen-core window.
          Direct CPHF calculation.
          Differentiating once with respect to electric field.
                with respect to dipole field.
          Differentiating once with respect to nuclear coordinates.
          Requested convergence is 1.0D-10 RMS, and 1.0D-09 maximum.
          NewPWx=F KeepS1=T KeepF1=T KeepIn=T MapXYZ=F SortEE=F KeepMc=T.
          MDV=      33554290 using IRadAn=       0.
 Using stored XC quadrature information.
 Keep R1 ints in memory in canonical form, NReq=1898913.
 FoFCou: FMM=F IPFlag=           0 FMFlag=           0 FMFlg1=           0
         NFxFlg=           0 DoJE=F BraDBF=F KetDBF=F FulRan=T
         wScrn=  0.000000 ICntrl=     600 IOpCl=  0 I1Cent=           0 NGrid=           0
         NMat0=    1 NMatS0=   1431 NMatT0=    0 NMatD0=    1 NMtDS0=    0 NMtDT0=    0
 Symmetry not used in FoFCou.
          Solving linear equations separately, MaxMat=       0.
          There are     1 degrees of freedom in the 1st order CPHF.  IDoFFX=0 NUNeed=     1.
 LinEq1:  Iter=  0 NonCon=     1 RMS=4.55D-02 Max=5.52D-01 NDo=     1
 AX will form     1 AO Fock derivatives at one time.
 LinEq1:  Iter=  1 NonCon=     1 RMS=1.59D-02 Max=2.04D-01 NDo=     1
 LinEq1:  Iter=  2 NonCon=     1 RMS=1.06D-02 Max=1.34D-01 NDo=     1
 LinEq1:  Iter=  3 NonCon=     1 RMS=5.04D-03 Max=6.21D-02 NDo=     1
 LinEq1:  Iter=  4 NonCon=     1 RMS=3.88D-03 Max=4.96D-02 NDo=     1
 LinEq1:  Iter=  5 NonCon=     1 RMS=9.02D-04 Max=6.96D-03 NDo=     1
 LinEq1:  Iter=  6 NonCon=     1 RMS=5.20D-04 Max=6.18D-03 NDo=     1
 LinEq1:  Iter=  7 NonCon=     1 RMS=1.89D-04 Max=1.25D-03 NDo=     1
 LinEq1:  Iter=  8 NonCon=     1 RMS=8.63D-05 Max=4.69D-04 NDo=     1
 LinEq1:  Iter=  9 NonCon=     1 RMS=1.17D-05 Max=6.49D-05 NDo=     1
 LinEq1:  Iter= 10 NonCon=     1 RMS=1.52D-06 Max=8.24D-06 NDo=     1
 LinEq1:  Iter= 11 NonCon=     1 RMS=2.26D-07 Max=1.63D-06 NDo=     1
 LinEq1:  Iter= 12 NonCon=     1 RMS=2.32D-08 Max=1.57D-07 NDo=     1
 LinEq1:  Iter= 13 NonCon=     1 RMS=2.81D-09 Max=1.67D-08 NDo=     1
 LinEq1:  Iter= 14 NonCon=     1 RMS=2.96D-10 Max=1.87D-09 NDo=     1
 LinEq1:  Iter= 15 NonCon=     0 RMS=3.02D-11 Max=1.53D-10 NDo=     1
 Linear equations converged to 1.000D-10 1.000D-09 after    15 iterations.
 End of Minotr F.D. properties file   721 does not exist.
 End of Minotr F.D. properties file   722 does not exist.
 End of Minotr F.D. properties file   788 does not exist.
 Leave Link 1002 at Tue Dec 15 16:18:01 2015, MaxMem=    33554432 cpu:        10.5
 (Enter /home/Applications/g09/g09/l601.exe)
 Copying SCF densities to generalized density rwf, IOpCl= 0 IROHF=0.

 **********************************************************************

            Population analysis using the SCF density.

 **********************************************************************

 Orbital symmetries:
       Occupied  (A) (A) (A) (A) (A) (A) (A) (A) (A) (A) (A) (A)
                 (A) (A) (A) (A) (A) (A)
       Virtual   (A) (A) (A) (A) (A) (A) (A) (A) (A) (A) (A) (A)
                 (A) (A) (A) (A) (A) (A) (A) (A) (A) (A) (A) (A)
                 (A) (A) (A) (A) (A) (A) (A) (A) (A) (A) (A)
 The electronic state is 1-A.
 Alpha  occ. eigenvalues --  -19.11005 -10.17612 -10.17338 -10.11954 -10.11182
 Alpha  occ. eigenvalues --   -1.15052  -0.82087  -0.75536  -0.61113  -0.56507
 Alpha  occ. eigenvalues --   -0.54630  -0.46277  -0.44735  -0.42665  -0.39051
 Alpha  occ. eigenvalues --   -0.35176  -0.28507  -0.23266
 Alpha virt. eigenvalues --    0.03150   0.09141   0.12074   0.15204   0.16059
 Alpha virt. eigenvalues --    0.19575   0.23389   0.24494   0.37415   0.43152
 Alpha virt. eigenvalues --    0.50075   0.68011   0.69442   0.73053   0.75986
 Alpha virt. eigenvalues --    0.76595   0.78980   0.80691   0.82616   0.84751
 Alpha virt. eigenvalues --    0.91454   0.97906   1.00225   1.04700   1.19346
 Alpha virt. eigenvalues --    1.20281   1.32360   1.37678   1.50580   1.55270
 Alpha virt. eigenvalues --    1.62696   1.74532   1.97703   2.12106   3.22074
     Molecular Orbital Coefficients:
                           1         2         3         4         5
                           O         O         O         O         O
     Eigenvalues --   -19.11005 -10.17612 -10.17338 -10.11954 -10.11182
   1 1   C  1S          0.00013  -0.00478  -0.00070  -0.07850   0.98284
   2        2S          0.00051  -0.00586  -0.00042  -0.01306   0.11079
   3        2PX         0.00061   0.00001  -0.00037  -0.00172   0.00149
   4        2PY         0.00120   0.00397   0.00086   0.00001  -0.00148
   5        2PZ        -0.00008  -0.00007  -0.00003   0.00001   0.00030
   6        3S         -0.00708   0.04148  -0.01608   0.04618  -0.11225
   7        3PX        -0.00855   0.00328  -0.00668   0.02556  -0.02844
   8        3PY         0.00493  -0.02274   0.00948  -0.00377   0.02260
   9        3PZ         0.00037   0.00045  -0.00024   0.00025  -0.00174
  10 2   C  1S         -0.00045   0.98266   0.07386  -0.00034   0.00435
  11        2S         -0.00059   0.10677   0.00467  -0.00064  -0.00531
  12        2PX         0.00241   0.00274  -0.00063   0.00035   0.00011
  13        2PY        -0.00081   0.00155  -0.00070  -0.00057  -0.00323
  14        2PZ        -0.00004  -0.00019  -0.00004  -0.00004   0.00010
  15        3S          0.01996  -0.07972   0.01531  -0.01133   0.05092
  16        3PX         0.01535  -0.00221   0.01061  -0.00219   0.00769
  17        3PY         0.00607  -0.02238   0.01569  -0.00280   0.02705
  18        3PZ        -0.00042   0.00100  -0.00027   0.00054  -0.00069
  19 3   O  1S          0.98284   0.00026   0.00035   0.00005   0.00007
  20        2S          0.10854   0.00181   0.00192   0.00016   0.00023
  21        2PX        -0.00130  -0.00071  -0.00010   0.00008  -0.00001
  22        2PY         0.00413   0.00042   0.00051  -0.00010  -0.00006
  23        2PZ         0.00004   0.00004   0.00000  -0.00002   0.00004
  24        3S         -0.06366  -0.00133  -0.00073  -0.00405  -0.00346
  25        3PX         0.00436   0.00240   0.00040  -0.00184   0.00299
  26        3PY        -0.01376  -0.00277  -0.00475  -0.00175  -0.00098
  27        3PZ        -0.00013  -0.00020  -0.00002   0.00006  -0.00012
  28 4   C  1S         -0.00032  -0.07498   0.98251   0.01007   0.00124
  29        2S         -0.00034  -0.01122   0.10589  -0.00320  -0.00039
  30        2PX        -0.00145   0.00137  -0.00240   0.00154   0.00051
  31        2PY        -0.00247  -0.00023  -0.00157  -0.00146  -0.00100
  32        2PZ         0.00001  -0.00002   0.00006  -0.00003   0.00005
  33        3S          0.01910   0.02020  -0.06992   0.03832  -0.00646
  34        3PX        -0.01584  -0.02005   0.01269  -0.02332   0.00511
  35        3PY        -0.00505   0.00581  -0.01064   0.01128   0.00135
  36        3PZ         0.00007   0.00021  -0.00030   0.00008  -0.00025
  37 5   C  1S          0.00014   0.00052  -0.01041   0.98291   0.07805
  38        2S          0.00049  -0.00009  -0.00502   0.11000   0.00459
  39        2PX        -0.00142   0.00001  -0.00227  -0.00074   0.00117
  40        2PY         0.00059   0.00035   0.00176  -0.00214   0.00072
  41        2PZ         0.00005  -0.00001   0.00002  -0.00017   0.00002
  42        3S         -0.00651  -0.01686   0.03310  -0.10685   0.03395
  43        3PX         0.00069  -0.00479   0.01055   0.00893  -0.01675
  44        3PY         0.00752   0.00867  -0.01392   0.03102  -0.01483
  45        3PZ        -0.00034   0.00023  -0.00028   0.00127  -0.00040
  46 6   H  1S         -0.00074  -0.00001  -0.00122  -0.00289  -0.00042
  47        2S         -0.00182  -0.00001   0.00129   0.00452   0.00460
  48 7   H  1S          0.00031   0.00172  -0.00364   0.00004  -0.00035
  49        2S          0.00433   0.00696   0.00927   0.00609  -0.00076
  50 8   H  1S          0.00040  -0.00206   0.00113   0.00013  -0.00019
  51        2S          0.00354   0.00664   0.00673   0.00068   0.00453
  52 9   H  1S         -0.00098  -0.00118  -0.00063   0.00002  -0.00436
  53        2S         -0.00345   0.00227  -0.00203   0.00467   0.00446
                           6         7         8         9        10
                           O         O         O         O         O
     Eigenvalues --    -1.15052  -0.82087  -0.75536  -0.61113  -0.56507
   1 1   C  1S         -0.02979  -0.16734   0.02336   0.10176   0.05608
   2        2S          0.03042   0.18019  -0.02685  -0.10278  -0.05365
   3        2PX         0.02424   0.07491   0.04457   0.12841  -0.06267
   4        2PY        -0.03005  -0.06871   0.08134   0.05989  -0.20052
   5        2PZ         0.00125   0.00858  -0.00131  -0.00925  -0.00619
   6        3S          0.04598   0.32492  -0.03078  -0.36512  -0.21073
   7        3PX         0.03732   0.04057  -0.00987   0.02216  -0.03226
   8        3PY        -0.02525  -0.01926  -0.02270   0.04984  -0.06028
   9        3PZ        -0.00076   0.00582  -0.00025  -0.00754  -0.00486
  10 2   C  1S         -0.07380  -0.09455   0.12493   0.00284  -0.10998
  11        2S          0.08234   0.10804  -0.13302  -0.00859   0.12099
  12        2PX         0.08734  -0.02278  -0.05377   0.15329  -0.09445
  13        2PY         0.00632   0.14450   0.02383  -0.15994  -0.01226
  14        2PZ        -0.00160  -0.00304   0.00376   0.00060  -0.00586
  15        3S          0.04414   0.15904  -0.32369   0.05273   0.35585
  16        3PX        -0.03674   0.00152  -0.00934   0.06492  -0.06217
  17        3PY        -0.02605   0.04682  -0.03270  -0.01146   0.00930
  18        3PZ         0.00051  -0.00216   0.00266  -0.00056  -0.00371
  19 3   O  1S         -0.20855   0.08788   0.03425   0.00574   0.05368
  20        2S          0.18767  -0.08505  -0.03153  -0.00625  -0.05403
  21        2PX        -0.02738  -0.05983   0.21167  -0.25515  -0.04324
  22        2PY         0.11337   0.00272   0.08670  -0.05259  -0.00775
  23        2PZ         0.00100  -0.00048  -0.00051   0.00211  -0.00097
  24        3S          0.67025  -0.31665  -0.13105  -0.01796  -0.23192
  25        3PX        -0.04031  -0.04433   0.17705  -0.22335  -0.03907
  26        3PY         0.14340  -0.00979   0.06373  -0.04499  -0.01086
  27        3PZ         0.00134  -0.00018  -0.00091   0.00175  -0.00073
  28 4   C  1S         -0.08172  -0.00345  -0.15431   0.02065  -0.10372
  29        2S          0.09040   0.00830   0.17010  -0.02041   0.11506
  30        2PX        -0.07834  -0.03222  -0.04778  -0.06527   0.12891
  31        2PY        -0.06332   0.10597   0.00717   0.21636   0.09007
  32        2PZ         0.00009   0.00026   0.00081   0.00115   0.00157
  33        3S          0.04642  -0.03080   0.35701  -0.10150   0.31975
  34        3PX         0.05652  -0.00924  -0.04093  -0.01603   0.06615
  35        3PY         0.00281   0.01335   0.03597   0.06845   0.04917
  36        3PZ        -0.00013   0.00036   0.00124   0.00002   0.00060
  37 5   C  1S         -0.03128  -0.11737  -0.10585  -0.10933   0.04081
  38        2S          0.02993   0.12420   0.11300   0.11100  -0.04157
  39        2PX         0.00276  -0.06602   0.06346   0.08415   0.18454
  40        2PY        -0.03946  -0.05966  -0.05743  -0.00486  -0.05977
  41        2PZ        -0.00075  -0.00308  -0.00270  -0.00430   0.00248
  42        3S          0.06818   0.22925   0.21978   0.36653  -0.12765
  43        3PX        -0.00977   0.00111  -0.02958   0.02230   0.07186
  44        3PY        -0.05254  -0.04142  -0.01424  -0.04470  -0.02322
  45        3PZ         0.00061  -0.00237  -0.00216  -0.00298   0.00155
  46 6   H  1S          0.00732   0.03780   0.04836   0.08604  -0.03100
  47        2S          0.01377   0.01113   0.01576   0.05158  -0.01719
  48 7   H  1S          0.01282  -0.00728   0.08330  -0.05435   0.15425
  49        2S         -0.02880  -0.00063   0.03200  -0.03154   0.08377
  50 8   H  1S          0.00798   0.02302  -0.05808   0.00356   0.11617
  51        2S         -0.01941   0.00744  -0.02450   0.01421   0.06810
  52 9   H  1S          0.00828   0.06827  -0.01263  -0.11559  -0.07987
  53        2S          0.01530   0.01125  -0.00150  -0.05908  -0.04856
                          11        12        13        14        15
                           O         O         O         O         O
     Eigenvalues --    -0.54630  -0.46277  -0.44735  -0.42665  -0.39051
   1 1   C  1S          0.03286   0.00139  -0.03752   0.01407   0.00350
   2        2S         -0.02860  -0.00012   0.04288  -0.01031  -0.00240
   3        2PX         0.12627  -0.01649   0.12796   0.26366  -0.18854
   4        2PY        -0.18184   0.01247   0.01056  -0.15583  -0.21875
   5        2PZ        -0.00573   0.12185  -0.00076  -0.00139   0.00210
   6        3S         -0.17961  -0.02167   0.12049  -0.02965  -0.04249
   7        3PX         0.07970  -0.03150   0.07906   0.18071  -0.12029
   8        3PY        -0.08135   0.01883   0.01583  -0.09690  -0.09433
   9        3PZ        -0.00767   0.08282  -0.00057  -0.00051   0.00148
  10 2   C  1S         -0.00113   0.00065   0.02632  -0.03519  -0.00785
  11        2S          0.00422  -0.00101  -0.02320   0.03915   0.01714
  12        2PX         0.06471   0.01440   0.22446  -0.09943   0.07785
  13        2PY         0.17395  -0.00356   0.10305   0.08822   0.26136
  14        2PZ        -0.00470   0.19264  -0.00477   0.01188  -0.00371
  15        3S         -0.01900   0.00940  -0.10736   0.11278   0.03033
  16        3PX         0.04304   0.01554   0.15382  -0.04197   0.06919
  17        3PY         0.14306   0.01199   0.07375   0.00496   0.19960
  18        3PZ        -0.00135   0.17070  -0.00417   0.01424  -0.00157
  19 3   O  1S          0.04581   0.00302   0.00033  -0.01600  -0.02279
  20        2S         -0.04551  -0.00310  -0.00007   0.01838   0.01908
  21        2PX         0.01166  -0.01653  -0.17403   0.17578  -0.03627
  22        2PY         0.19724   0.00720  -0.09146  -0.10253   0.04301
  23        2PZ        -0.00240   0.37418  -0.00764   0.03789   0.00331
  24        3S         -0.16989  -0.01137  -0.00803   0.04574   0.12146
  25        3PX         0.01077  -0.01477  -0.16273   0.18175  -0.03278
  26        3PY         0.18243   0.00737  -0.08310  -0.10353   0.04527
  27        3PZ        -0.00232   0.37532  -0.00808   0.03873   0.00354
  28 4   C  1S          0.00747  -0.00424  -0.01520   0.04765   0.02388
  29        2S         -0.00347   0.00555   0.01155  -0.05598  -0.02814
  30        2PX        -0.18114  -0.00295   0.29038   0.10141   0.02045
  31        2PY        -0.02073   0.01126   0.00713  -0.15587   0.01564
  32        2PZ        -0.00068   0.19335  -0.00472   0.01645   0.00285
  33        3S         -0.06161   0.00602   0.05069  -0.17211  -0.07858
  34        3PX        -0.11958   0.00600   0.19786   0.09173   0.01238
  35        3PY         0.03389   0.00843  -0.01846  -0.13429   0.02214
  36        3PZ        -0.00126   0.17043  -0.00460   0.01658   0.00270
  37 5   C  1S          0.04912   0.00331   0.03334  -0.04325   0.01253
  38        2S         -0.04841  -0.00434  -0.03613   0.04200  -0.01849
  39        2PX        -0.01051   0.00775  -0.14282  -0.15951   0.22593
  40        2PY        -0.17853  -0.01758  -0.02762   0.15699   0.22830
  41        2PZ         0.00052   0.11391  -0.00270   0.00265   0.00413
  42        3S         -0.18894   0.00242  -0.10280   0.18324  -0.03287
  43        3PX        -0.03436  -0.00629  -0.05866  -0.04271   0.15979
  44        3PY        -0.11966  -0.02658  -0.04566   0.09608   0.17315
  45        3PZ         0.00249   0.08384  -0.00132   0.00287   0.00201
  46 6   H  1S         -0.12018  -0.01339  -0.07564   0.11193   0.18903
  47        2S         -0.06014  -0.00349  -0.05124   0.08940   0.18014
  48 7   H  1S         -0.09569   0.00297   0.20933   0.01720  -0.02565
  49        2S         -0.04640  -0.00105   0.16383   0.01153  -0.02162
  50 8   H  1S         -0.07559  -0.00618  -0.16191   0.04525  -0.17018
  51        2S         -0.03815  -0.00021  -0.13700   0.03585  -0.17392
  52 9   H  1S         -0.13648   0.01693  -0.01946  -0.23005   0.02093
  53        2S         -0.07259   0.00115  -0.02460  -0.18889   0.01102
                          16        17        18        19        20
                           O         O         O         V         V
     Eigenvalues --    -0.35176  -0.28507  -0.23266   0.03150   0.09141
   1 1   C  1S          0.02570  -0.00860  -0.00200  -0.00366   0.01071
   2        2S         -0.02460   0.01063   0.00234   0.00257  -0.00333
   3        2PX         0.00505  -0.00859  -0.00166  -0.00101   0.03462
   4        2PY         0.11434   0.00447   0.00189   0.01112  -0.02576
   5        2PZ        -0.00316  -0.33172  -0.10196  -0.12907   0.34823
   6        3S         -0.20614   0.02039   0.00138   0.02132  -0.12308
   7        3PX         0.03668  -0.01855  -0.00281  -0.00826   0.10373
   8        3PY         0.11607   0.00409   0.00943   0.03216  -0.07814
   9        3PZ        -0.00842  -0.33617  -0.09895  -0.23909   0.73056
  10 2   C  1S         -0.03219   0.00349   0.00334  -0.00439   0.01440
  11        2S          0.03635  -0.00399  -0.00453   0.00162  -0.00518
  12        2PX         0.08109   0.00134   0.00063  -0.00436   0.02569
  13        2PY        -0.12154  -0.00489  -0.00636  -0.00178   0.03444
  14        2PZ         0.00173  -0.16125  -0.29712   0.30313  -0.23462
  15        3S          0.16470  -0.00720  -0.00477   0.05571  -0.19078
  16        3PX        -0.01253   0.00345   0.00176  -0.01515   0.05616
  17        3PY         0.04633  -0.00046   0.00244   0.00717   0.04501
  18        3PZ         0.00103  -0.11113  -0.32504   0.46421  -0.49023
  19 3   O  1S          0.06362  -0.00026   0.00017  -0.00005  -0.00187
  20        2S         -0.06415   0.00032   0.00038  -0.00037   0.00122
  21        2PX        -0.11205  -0.00075  -0.00251   0.00027   0.00252
  22        2PY         0.40360  -0.00134   0.00460   0.00120  -0.00880
  23        2PZ         0.00372   0.29987  -0.09254  -0.29147   0.02632
  24        3S         -0.22507   0.00135  -0.00246   0.00197   0.01493
  25        3PX        -0.12418   0.00025  -0.00196  -0.00182   0.00457
  26        3PY         0.43836  -0.00140   0.00418   0.00138  -0.01301
  27        3PZ         0.00440   0.33874  -0.11029  -0.41774   0.03442
  28 4   C  1S         -0.00671  -0.00134   0.00094   0.00027   0.00787
  29        2S          0.01263   0.00162  -0.00121   0.00017  -0.00380
  30        2PX         0.06413  -0.00342   0.00117  -0.00069  -0.00850
  31        2PY        -0.21872   0.00443  -0.00571   0.00006   0.00350
  32        2PZ        -0.00447   0.03650   0.32956   0.34059   0.18632
  33        3S          0.00564   0.00511  -0.00037  -0.01076  -0.09138
  34        3PX         0.03791  -0.00001  -0.00166   0.00047  -0.01729
  35        3PY        -0.02714   0.00449  -0.00192  -0.00665   0.00162
  36        3PZ        -0.00320   0.06865   0.34177   0.53677   0.36688
  37 5   C  1S          0.02282   0.00394  -0.00313   0.00412   0.00869
  38        2S         -0.02574  -0.00511   0.00357  -0.00412  -0.00116
  39        2PX        -0.10727   0.00772  -0.00437   0.00643  -0.00247
  40        2PY         0.19919  -0.00411   0.00211  -0.00206  -0.02916
  41        2PZ        -0.00498  -0.22485   0.26852  -0.20147  -0.31142
  42        3S         -0.11603  -0.00408   0.01104  -0.02259  -0.12304
  43        3PX        -0.11956  -0.00341  -0.00554   0.01285   0.01093
  44        3PY         0.11156  -0.00590   0.00497  -0.01566  -0.05827
  45        3PZ        -0.00133  -0.22666   0.29146  -0.35228  -0.64373
  46 6   H  1S          0.09845  -0.00233  -0.00246   0.00383   0.02192
  47        2S          0.13299  -0.00257  -0.00334   0.01401   0.13078
  48 7   H  1S          0.08379  -0.00156   0.00132   0.00062   0.00899
  49        2S          0.08442  -0.00340   0.00233   0.00154   0.07794
  50 8   H  1S          0.07140  -0.00207   0.00311  -0.00733   0.02646
  51        2S          0.08157  -0.00228   0.00551  -0.03000   0.19387
  52 9   H  1S          0.01542   0.00175  -0.00150  -0.00765   0.03570
  53        2S          0.04042   0.00224  -0.00246  -0.02812   0.19739
                          21        22        23        24        25
                           V         V         V         V         V
     Eigenvalues --     0.12074   0.15204   0.16059   0.19575   0.23389
   1 1   C  1S          0.00464   0.04947   0.03037  -0.08817  -0.08410
   2        2S          0.01286  -0.04465  -0.03354   0.07881   0.03507
   3        2PX         0.08381   0.09217  -0.07880  -0.07091  -0.17958
   4        2PY        -0.09298  -0.04459   0.00529   0.12869   0.04109
   5        2PZ        -0.07206  -0.02621   0.00078   0.02636   0.02466
   6        3S         -0.31023  -0.42638  -0.13662   0.83276   1.62071
   7        3PX         0.13644   0.49162  -0.12589  -0.68223  -0.60977
   8        3PY        -0.19201  -0.24615  -0.15727   0.69764   0.18133
   9        3PZ        -0.18167  -0.07688   0.00742   0.07824   0.10766
  10 2   C  1S          0.09872  -0.08456  -0.00120   0.02475  -0.00273
  11        2S         -0.07079   0.06345  -0.00433  -0.03619   0.00663
  12        2PX         0.15803   0.10433  -0.19492  -0.11169   0.25092
  13        2PY         0.18968  -0.14938  -0.08906  -0.04639  -0.06123
  14        2PZ         0.05359   0.00281  -0.00447  -0.00666  -0.00373
  15        3S         -1.00487   0.62358   0.03614   0.19541  -0.19481
  16        3PX         0.46877   0.05970  -0.55076  -0.05625   0.91180
  17        3PY         0.48031  -0.54309  -0.27305   0.03818  -0.32833
  18        3PZ         0.12648   0.02525  -0.00748  -0.05007  -0.03346
  19 3   O  1S         -0.01989   0.09365  -0.02574  -0.02423   0.09159
  20        2S          0.01723  -0.06639   0.02081   0.01104  -0.04143
  21        2PX         0.00004   0.09816  -0.03529  -0.04254   0.05781
  22        2PY        -0.02233  -0.12944   0.01756   0.00309  -0.03747
  23        2PZ        -0.01037  -0.00134   0.00342   0.00394  -0.00145
  24        3S          0.13608  -0.77900   0.19027   0.25433  -0.97570
  25        3PX         0.02684   0.15471  -0.09242  -0.00905   0.16384
  26        3PY        -0.05387  -0.22025   0.00100   0.05158  -0.15821
  27        3PZ        -0.01603  -0.00287   0.00655   0.01033  -0.00258
  28 4   C  1S          0.05770  -0.03162   0.09778  -0.03035   0.02663
  29        2S         -0.04266   0.02476  -0.07035   0.03909  -0.00466
  30        2PX        -0.05018  -0.07168  -0.26570  -0.04001  -0.11071
  31        2PY         0.03497  -0.13774   0.00777   0.07528  -0.17125
  32        2PZ        -0.02867  -0.00813  -0.00224  -0.00193   0.00137
  33        3S         -0.63543   0.15582  -1.14141   0.10439  -0.73370
  34        3PX        -0.14387  -0.01474  -1.02261   0.18460  -0.16733
  35        3PY         0.07575  -0.42625   0.03399   0.35480  -0.82765
  36        3PZ        -0.06600  -0.02734  -0.00329  -0.00921   0.00497
  37 5   C  1S          0.03594   0.04427  -0.04858   0.11000  -0.03167
  38        2S         -0.02227  -0.02972   0.05319  -0.07613   0.00174
  39        2PX         0.02312   0.00425  -0.03297  -0.07757   0.19254
  40        2PY        -0.11307  -0.18553  -0.09725  -0.18091   0.04355
  41        2PZ         0.05718   0.01927  -0.00258   0.00901  -0.00893
  42        3S         -0.39719  -0.54488   0.20481  -1.13815   0.78595
  43        3PX         0.01889   0.01591  -0.12869  -0.33642   0.80190
  44        3PY        -0.31424  -0.51902  -0.01725  -0.92775  -0.05553
  45        3PZ         0.13404   0.06487  -0.00491   0.00752  -0.05049
  46 6   H  1S          0.05777   0.07850   0.00586   0.04272   0.04969
  47        2S          0.61383   0.95430   0.02596   1.53459  -0.44555
  48 7   H  1S          0.04734  -0.02760   0.10546  -0.01451  -0.02317
  49        2S          0.57023  -0.13411   1.79716  -0.15641   0.38915
  50 8   H  1S          0.11956  -0.05624  -0.04180   0.01203   0.00050
  51        2S          1.31951  -0.70477  -0.65487  -0.09987   0.39194
  52 9   H  1S          0.05194   0.08245  -0.01313  -0.05260   0.06706
  53        2S          0.54703   0.98018  -0.02079  -1.49376  -1.29438
                          26        27        28        29        30
                           V         V         V         V         V
     Eigenvalues --     0.24494   0.37415   0.43152   0.50075   0.68011
   1 1   C  1S          0.03775   0.05943   0.02437  -0.13195  -0.02949
   2        2S         -0.00124  -0.01687   0.01859   0.03514  -0.08978
   3        2PX        -0.15030  -0.10874   0.11213   0.19842   0.33412
   4        2PY        -0.11696  -0.00496   0.21643  -0.12429   0.47409
   5        2PZ         0.00127   0.00913   0.00645  -0.03264  -0.03012
   6        3S         -0.77989  -1.38520  -1.38700   3.88736   0.29241
   7        3PX        -1.06233  -0.21177   0.52797   2.58286   0.01777
   8        3PY        -0.64355   1.24674   2.32047  -1.33884  -0.58147
   9        3PZ        -0.01593  -0.01488  -0.02015   0.06713   0.03479
  10 2   C  1S          0.08396  -0.06402  -0.04420   0.10011  -0.02829
  11        2S         -0.06120   0.00123   0.01395  -0.00505  -0.06826
  12        2PX        -0.08423   0.03125  -0.07691  -0.31786   0.44239
  13        2PY         0.02654   0.23828   0.10131   0.09756  -0.33270
  14        2PZ         0.00528  -0.00148  -0.00123  -0.00894  -0.03499
  15        3S         -1.01707   1.60189   1.96291  -2.56929  -0.31438
  16        3PX        -0.13788   0.39389  -0.87118  -0.89062  -0.45490
  17        3PY         0.04308   1.18407   1.99525  -1.92375   0.57644
  18        3PZ         0.02286  -0.04137  -0.06549   0.07683   0.02301
  19 3   O  1S          0.02763   0.06030  -0.01222   0.00312   0.03245
  20        2S         -0.01350  -0.01827   0.00910   0.00497  -0.07648
  21        2PX        -0.29925   0.01080  -0.17996  -0.26595   0.06141
  22        2PY        -0.11816  -0.14707  -0.05930  -0.02861  -0.13850
  23        2PZ        -0.00371   0.00062   0.00843   0.00563  -0.00061
  24        3S         -0.29718  -0.84769   0.12467  -0.09815   0.01776
  25        3PX        -0.63176   0.05499  -0.52759  -0.53574  -0.10684
  26        3PY        -0.26227  -0.51380  -0.16008  -0.10200  -0.19477
  27        3PZ        -0.00526   0.00083   0.01736  -0.00109  -0.00664
  28 4   C  1S         -0.08286  -0.09982   0.04018  -0.08426  -0.06056
  29        2S          0.06325   0.00021  -0.01862   0.02955  -0.03730
[...]
     1  C    5.278907   0.415640  -0.095373  -0.122983   0.450411  -0.029077
     2  C    0.415640   5.109962   0.322325  -0.162811  -0.162647   0.007282
     3  O   -0.095373   0.322325   8.160763   0.261502  -0.091765   0.003056
     4  C   -0.122983  -0.162811   0.261502   5.035012   0.501568  -0.032639
     5  C    0.450411  -0.162647  -0.091765   0.501568   5.263832   0.372029
     6  H   -0.029077   0.007282   0.003056  -0.032639   0.372029   0.509547
     7  H    0.001582   0.003873  -0.029111   0.385799  -0.032233  -0.000165
     8  H   -0.041604   0.376339  -0.025963   0.003469   0.004110  -0.000037
     9  H    0.392886  -0.031409   0.002428   0.004507  -0.026457  -0.001509
               7          8          9
     1  C    0.001582  -0.041604   0.392886
     2  C    0.003873   0.376339  -0.031409
     3  O   -0.029111  -0.025963   0.002428
     4  C    0.385799   0.003469   0.004507
     5  C   -0.032233   0.004110  -0.026457
     6  H   -0.000165  -0.000037  -0.001509
     7  H    0.447372  -0.000031  -0.000011
     8  H   -0.000031   0.484820  -0.000912
     9  H   -0.000011  -0.000912   0.465645
 Mulliken charges:
               1
     1  C   -0.250390
     2  C    0.121447
     3  O   -0.507862
     4  C    0.126575
     5  C   -0.278848
     6  H    0.171512
     7  H    0.222925
     8  H    0.199809
     9  H    0.194833
 Sum of Mulliken charges =   0.00000
 Mulliken charges with hydrogens summed into heavy atoms:
               1
     1  C   -0.055557
     2  C    0.321255
     3  O   -0.507862
     4  C    0.349499
     5  C   -0.107335
 Electronic spatial extent (au):  <R**2>=            282.7872
 Charge=              0.0000 electrons
 Dipole moment (field-independent basis, Debye):
    X=             -0.2165    Y=              0.4969    Z=              0.0306  Tot=              0.5428
 Quadrupole moment (field-independent basis, Debye-Ang):
   XX=            -23.6837   YY=            -28.1114   ZZ=            -31.5808
   XY=              1.0201   XZ=             -0.1224   YZ=              0.0423
 Traceless Quadrupole moment (field-independent basis, Debye-Ang):
   XX=              4.1083   YY=             -0.3194   ZZ=             -3.7889
   XY=              1.0201   XZ=             -0.1224   YZ=              0.0423
 Octapole moment (field-independent basis, Debye-Ang**2):
  XXX=              4.6103  YYY=             -0.6684  ZZZ=              0.0079  XYY=             -3.2503
  XXY=             -2.4355  XXZ=              0.2386  XZZ=              1.0509  YZZ=             -3.0616
  YYZ=             -0.0704  XYZ=             -0.2603
 Hexadecapole moment (field-independent basis, Debye-Ang**3):
 XXXX=           -151.4013 YYYY=           -146.7392 ZZZZ=            -30.5317 XXXY=             -4.5091
 XXXZ=             -0.5209 YYYX=              4.9380 YYYZ=             -0.0882 ZZZX=             -0.1513
 ZZZY=              0.0702 XXYY=            -48.3355 XXZZ=            -38.6978 YYZZ=            -33.3316
 XXYZ=              0.4202 YYXZ=             -0.2663 ZZXY=             -1.6155
 N-N= 1.639687961060D+02 E-N=-8.606916271150D+02  KE= 2.272389774223D+02
 Orbital energies and kinetic energies (alpha):
                                 1                 2
   1         O               -19.110053         28.827816
   2         O               -10.176124         15.799539
   3         O               -10.173382         15.797854
   4         O               -10.119537         15.805390
   5         O               -10.111818         15.800453
   6         O                -1.150516          2.512302
   7         O                -0.820872          1.878461
   8         O                -0.755365          1.878323
   9         O                -0.611133          1.697730
  10         O                -0.565071          1.478349
  11         O                -0.546299          1.275011
  12         O                -0.462765          1.577088
  13         O                -0.447354          1.369204
  14         O                -0.426650          1.516125
  15         O                -0.390510          1.328896
  16         O                -0.351758          2.275266
  17         O                -0.285072          1.542789
  18         O                -0.232657          1.258892
  19         V                 0.031500          1.846736
  20         V                 0.091414          1.476707
  21         V                 0.120736          1.193456
  22         V                 0.152038          1.700836
  23         V                 0.160589          1.252871
  24         V                 0.195751          1.285531
  25         V                 0.233887          1.653095
  26         V                 0.244941          2.101002
  27         V                 0.374146          1.934973
  28         V                 0.431519          1.600672
  29         V                 0.500745          2.803672
  30         V                 0.680109          2.543787
  31         V                 0.694415          2.475984
  32         V                 0.730534          2.882405
  33         V                 0.759859          2.674828
  34         V                 0.765953          2.544206
  35         V                 0.789805          2.592075
  36         V                 0.806909          2.629838
  37         V                 0.826162          2.663158
  38         V                 0.847506          2.596508
  39         V                 0.914545          2.821720
  40         V                 0.979057          3.074333
  41         V                 1.002249          3.277312
  42         V                 1.046995          3.326756
  43         V                 1.193459          2.803895
  44         V                 1.202809          2.803851
  45         V                 1.323597          2.537828
  46         V                 1.376778          2.909244
  47         V                 1.505803          4.964512
  48         V                 1.552699          3.353070
  49         V                 1.626960          3.737234
  50         V                 1.745324          4.356165
  51         V                 1.977030          4.089990
  52         V                 2.121063          4.281566
  53         V                 3.220739          6.845912
 Total kinetic energy from orbitals= 2.272389774223D+02
 No NMR shielding tensors so no spin-rotation constants.
 Leave Link  601 at Tue Dec 15 16:18:01 2015, MaxMem=    33554432 cpu:         0.1
 (Enter /home/Applications/g09/g09/l701.exe)
 Compute integral first derivatives.
 ... and contract with generalized density number  6.
 Leave Link  701 at Tue Dec 15 16:18:01 2015, MaxMem=    33554432 cpu:         0.0
 (Enter /home/Applications/g09/g09/l702.exe)
 L702 exits ... SP integral derivatives will be done elsewhere.
 Leave Link  702 at Tue Dec 15 16:18:01 2015, MaxMem=    33554432 cpu:         0.0
 (Enter /home/Applications/g09/g09/l703.exe)
 Compute integral first derivatives, UseDBF=F ICtDFT=           0.
 Integral derivatives from FoFJK, PRISM(SPDF).
 Calling FoFJK, ICntrl=  10005127 FMM=F ISym2X=0 I1Cent= 0 IOpClX= 0 NMat=1 NMatS=1 NMatT=0.
 FoFJK:  IHMeth= 1 ICntrl=10005127 DoSepK=F KAlg= 0 I1Cent=   0 FoldK=F
 IRaf=         0 NMat=   1 IRICut=       1 DoRegI=T DoRafI=F ISym2E= 0.
 FoFCou: FMM=F IPFlag=           0 FMFlag=      100000 FMFlg1=         800
         NFxFlg=           0 DoJE=F BraDBF=F KetDBF=F FulRan=T
         wScrn=  0.000000 ICntrl=10005127 IOpCl=  0 I1Cent=           0 NGrid=           0
         NMat0=    1 NMatS0=      1 NMatT0=    0 NMatD0=    1 NMtDS0=    0 NMtDT0=    0
 Symmetry not used in FoFCou.
 Leave Link  703 at Tue Dec 15 16:18:02 2015, MaxMem=    33554432 cpu:         1.2
 (Enter /home/Applications/g09/g09/l716.exe)
 Dipole        = 6.06830688D-01 5.46262656D-01 1.55508720D-02
 ***** Axes restored to original set *****
 -------------------------------------------------------------------
 Center     Atomic                   Forces (Hartrees/Bohr)
 Number     Number              X              Y              Z
 -------------------------------------------------------------------
      1        6           0.139763444    0.024816063    0.013458135
      2        6          -0.130777185   -0.183861162   -0.010852059
      3        8          -0.141116736    0.025568885   -0.001443176
      4        6          -0.019671673    0.053242956   -0.005245268
      5        6           0.108109614    0.065687146    0.006961197
      6        1          -0.014560433   -0.017393791   -0.002066882
      7        1           0.004448370    0.001429733    0.001417804
      8        1           0.024504827    0.050235856    0.002370724
      9        1           0.029299772   -0.019725687   -0.004600474
 -------------------------------------------------------------------
 Cartesian Forces:  Max     0.183861162 RMS     0.065593398
 Z-matrix is all fixed cartesians, so copy forces.
 Force constants in Cartesian coordinates: 
                1             2             3             4             5 
      1  0.116000D+01
      2 -0.227313D-01  0.889017D+00
      3  0.145346D-01  0.303560D-02  0.269069D+00
      4 -0.691286D+00 -0.143536D+00 -0.298999D-01  0.108797D+01
      5 -0.115993D+00 -0.239449D+00 -0.858903D-02  0.174074D-01  0.836578D+00
      6 -0.339721D-01 -0.804587D-02 -0.135611D+00  0.308603D-01  0.494627D-02
      7 -0.820891D-02  0.311812D-01  0.294440D-03 -0.293472D+00  0.169004D+00
      8 -0.609563D-02  0.231348D-01  0.269413D-03  0.218163D+00 -0.385120D+00
      9 -0.160168D-02  0.366921D-02  0.773536D-02 -0.100658D-02 -0.813217D-03
     10  0.121467D-01  0.179692D-03 -0.317468D-04  0.262950D-01  0.194880D-01
     11  0.343420D-01  0.513412D-03 -0.139999D-03 -0.175928D-01 -0.130489D-01
     12 -0.228300D-02  0.144269D-03 -0.221499D-02  0.173963D-03 -0.144547D-03
     13 -0.174780D+00  0.172345D-01 -0.736301D-03  0.976850D-02 -0.376603D-01
     14 -0.736780D-02 -0.459174D+00  0.153482D-01  0.172023D-03 -0.678593D-03
     15 -0.136476D-02  0.188153D-01 -0.922344D-01  0.741361D-03 -0.313244D-02
     16  0.177530D-01  0.268786D-03  0.260918D-04  0.267265D-04 -0.154811D-04
     17 -0.222521D-01 -0.387605D-03 -0.147040D-02 -0.108381D-04  0.627784D-05
     18  0.290503D-02  0.766938D-03  0.205050D-01 -0.318769D-03  0.184644D-03
     19  0.000000D+00 -0.136894D-05 -0.388079D-04  0.142285D-05  0.000000D+00
     20  0.000000D+00  0.455688D-05  0.129183D-03  0.000000D+00  0.000000D+00
     21  0.472516D-05  0.252540D-03  0.715923D-02 -0.638876D-04  0.465386D-05
     22  0.662138D-02 -0.251181D-01 -0.365075D-03 -0.134186D+00 -0.712692D-01
     23 -0.351012D-02  0.132272D-01  0.655458D-03 -0.677253D-01 -0.224531D+00
     24 -0.635110D-03 -0.453728D-02  0.363390D-01  0.203261D-02  0.468867D-02
     25 -0.322244D+00  0.142522D+00  0.162167D-01 -0.511734D-02  0.190387D-01
     26  0.143608D+00 -0.226887D+00 -0.923838D-02 -0.687753D-02  0.262437D-01
     27  0.224123D-01 -0.141007D-01 -0.110747D+00 -0.251904D-02  0.285499D-02
                6             7             8             9            10 
      6  0.228422D+00
      7 -0.294050D-02  0.581102D+00
      8  0.196533D-02  0.399295D-01  0.833619D+00
      9 -0.556605D-01  0.560703D-02 -0.143249D-03  0.668105D-01
     10  0.324712D-03 -0.311945D+00 -0.258281D+00 -0.315731D-02  0.918526D+00
     11 -0.360881D-03 -0.211464D+00 -0.476043D+00 -0.190415D-02  0.115045D-01
     12 -0.166149D-02 -0.268684D-02 -0.185782D-02 -0.497079D-01  0.973584D-02
     13  0.265934D-02 -0.107727D-01  0.719221D-02  0.259240D-03 -0.466400D+00
     14  0.119789D-03 -0.304810D-01  0.204128D-01 -0.769533D-05  0.117500D+00
     15 -0.221515D-02  0.182992D-04  0.230354D-03  0.805124D-02 -0.375458D-02
     16 -0.450431D-03  0.161252D-05  0.000000D+00 -0.144371D-03 -0.608459D-02
     17  0.182658D-03  0.244889D-05  0.000000D+00 -0.219253D-03  0.756480D-02
     18  0.537233D-02 -0.634768D-04  0.997279D-05  0.568317D-02 -0.114382D-03
     19 -0.148345D-03  0.233858D-01 -0.156573D-01  0.647134D-03 -0.172538D+00
     20  0.611867D-04  0.122996D-01 -0.823524D-02  0.413067D-03  0.102045D+00
     21  0.666088D-02  0.276910D-03 -0.205308D-03  0.348769D-02 -0.295965D-02
     22  0.143135D-02  0.199022D-01  0.147450D-01 -0.426980D-03  0.000000D+00
     23  0.155637D-02 -0.105270D-01 -0.779884D-02  0.270129D-03  0.000000D+00
     24 -0.804672D-01 -0.624877D-04 -0.191266D-04  0.348168D-02 -0.465252D-04
     25  0.223571D-02  0.773266D-05  0.435256D-05 -0.176477D-03  0.000000D+00
     26 -0.424848D-03  0.554214D-04  0.311956D-04 -0.126484D-02  0.000000D+00
     27  0.351593D-01 -0.443372D-03 -0.249565D-03  0.101188D-01  0.363936D-05
               11            12            13            14            15 
     11  0.996156D+00
     12 -0.490172D-02  0.203221D+00
     13  0.911374D-01 -0.952974D-03  0.848960D+00
     14 -0.219861D+00  0.166441D-02 -0.160886D-02  0.835884D+00
     15  0.132647D-02 -0.102233D+00  0.146893D-01 -0.962232D-02  0.209711D+00
     16 -0.172960D-01 -0.162982D-02 -0.233585D+00 -0.103812D+00 -0.892037D-02
     17  0.214494D-01  0.402758D-03 -0.106101D+00 -0.190208D+00 -0.587876D-02
     18  0.448203D-03  0.231203D-01 -0.118662D-01 -0.781120D-02 -0.778820D-01
     19  0.109350D+00 -0.291983D-02  0.895563D-02  0.253555D-01 -0.645749D-03
     20 -0.309173D+00  0.443820D-02  0.469621D-02  0.133154D-01  0.239504D-03
     21  0.533418D-02 -0.808885D-01 -0.561130D-03 -0.664398D-03  0.277102D-01
     22  0.000000D+00  0.187828D-04  0.319504D-04 -0.185070D-04 -0.538471D-03
     23  0.000000D+00  0.517848D-04 -0.234230D-04  0.135676D-04  0.394756D-03
     24  0.338910D-05  0.485068D-02 -0.512779D-03  0.297023D-03  0.864205D-02
     25  0.191850D-04  0.543873D-03  0.178206D-01  0.260951D-03 -0.225023D-03
     26  0.714877D-05  0.202660D-03  0.251336D-01  0.295550D-03 -0.237286D-02
     27  0.194508D-03  0.551410D-02 -0.297849D-02  0.676242D-03  0.204505D-01
               16            17            18            19            20 
     16  0.221823D+00
     17  0.120826D+00  0.169143D+00
     18  0.101954D-01  0.687453D-02  0.411029D-01
     19 -0.136058D-05 -0.206629D-05  0.535594D-04  0.140197D+00
     20  0.452907D-05  0.687819D-05 -0.178287D-03 -0.119044D+00  0.304082D+00
     21  0.250999D-03  0.381186D-03 -0.988056D-02  0.305204D-02 -0.510286D-02
     22  0.000000D+00  0.000000D+00  0.000000D+00  0.000000D+00  0.000000D+00
     23  0.000000D+00  0.000000D+00  0.000000D+00  0.000000D+00  0.000000D+00
     24  0.000000D+00  0.000000D+00  0.000000D+00  0.000000D+00  0.000000D+00
     25  0.663324D-04 -0.268990D-04 -0.791153D-03  0.000000D+00  0.000000D+00
     26  0.247170D-04 -0.100232D-04 -0.294802D-03  0.000000D+00  0.000000D+00
     27  0.672517D-03 -0.272717D-03 -0.802117D-02  0.000000D+00  0.000000D+00
               21            22            23            24            25 
     21  0.457511D-01
     22  0.000000D+00  0.107647D+00
     23  0.000000D+00  0.817747D-01  0.219006D+00
     24  0.000000D+00 -0.103074D-02 -0.226054D-02  0.417767D-01
     25  0.000000D+00 -0.158907D-04  0.116495D-04  0.255033D-03  0.309483D+00
     26  0.000000D+00 -0.113891D-03  0.834944D-04  0.182787D-02 -0.161830D+00
     27  0.000000D+00  0.911133D-03 -0.667957D-03 -0.146230D-01 -0.180587D-01
               26            27 
     26  0.200236D+00
     27  0.115652D-01  0.621487D-01
 Leave Link  716 at Tue Dec 15 16:18:02 2015, MaxMem=    33554432 cpu:         0.0
 (Enter /home/Applications/g09/g09/l103.exe)

 GradGradGradGradGradGradGradGradGradGradGradGradGradGradGradGradGradGrad
 Berny optimization.
 Search for a local minimum.
 Step number   1 out of a maximum of    2
 All quantities printed in internal units (Hartrees-Bohrs-Radians)
 Second derivative matrix not updated -- first step.
 ITU=  0
     Eigenvalues ---    0.02193   0.03393   0.06787   0.07066   0.07876
     Eigenvalues ---    0.09343   0.13183   0.14860   0.16075   0.22816
     Eigenvalues ---    0.27351   0.33096   0.39180   0.46161   0.61903
     Eigenvalues ---    0.84379   1.11880   1.38462   1.54968   1.64273
     Eigenvalues ---    1.94507
 Quadratic step=4.823D-01 exceeds max=3.000D-01 adjusted using Lamda=-2.437D-01.
 Angle between NR and scaled steps=  18.57 degrees.
 Angle between quadratic step and forces=  25.64 degrees.
 Linear search not attempted -- first point.
 TrRot= -0.014266 -0.001886 -0.000240  0.018902 -0.000974 -0.018757
 Variable       Old X    -DE/DX   Delta X   Delta X   Delta X     New X
                                 (Linear)    (Quad)   (Total)
    X1        1.75097   0.13976   0.00000   0.09418   0.08003   1.83100
    Y1       -1.37113   0.02482   0.00000  -0.00064  -0.00226  -1.37339
    Z1        0.07140   0.01346   0.00000   0.00703   0.00857   0.07997
    X2       -0.58739  -0.13078   0.00000  -0.07841  -0.09232  -0.67971
    Y2       -1.98583  -0.18386   0.00000  -0.11637  -0.11835  -2.10418
    Z2       -0.04622  -0.01085   0.00000  -0.00735  -0.00828  -0.05450
    X3       -2.11290  -0.14112   0.00000  -0.16382  -0.17803  -2.29093
    Y3        0.07278   0.02557   0.00000   0.01103   0.00882   0.08160
    Z3       -0.06229  -0.00144   0.00000  -0.00154  -0.00399  -0.06628
    X4       -0.73490  -0.01967   0.00000  -0.01235  -0.02687  -0.76178
    Y4        2.13145   0.05324   0.00000   0.02336   0.02136   2.15282
    Z4       -0.05051  -0.00525   0.00000  -0.00815  -0.00907  -0.05959
    X5        1.71115   0.10811   0.00000   0.11476   0.10031   1.81145
    Y5        1.26824   0.06569   0.00000   0.06838   0.06676   1.33500
    Z5       -0.02168   0.00696   0.00000   0.01128   0.01285  -0.00883
    X6        3.35226  -0.01456   0.00000   0.03998   0.02527   3.37753
    Y6        2.58964  -0.01739   0.00000   0.01192   0.01052   2.60016
    Z6        0.07099  -0.00207   0.00000  -0.00194   0.00118   0.07217
    X7       -1.67950   0.00445   0.00000   0.01478   0.00002  -1.67948
    Y7        3.92831   0.00143   0.00000   0.02309   0.02097   3.94928
    Z7       -0.08806   0.00142   0.00000   0.00254   0.00075  -0.08731
    X8       -1.62938   0.02450   0.00000   0.02031   0.00662  -1.62275
    Y8       -3.95594   0.05024   0.00000   0.03486   0.03275  -3.92320
    Z8       -0.02115   0.00237   0.00000   0.00888   0.00700  -0.01415
    X9        3.33053   0.02930   0.00000   0.09882   0.08498   3.41551
    Y9       -2.50462  -0.01973   0.00000  -0.03918  -0.04057  -2.54519
    Z9       -0.04274  -0.00460   0.00000  -0.01205  -0.00899  -0.05173
         Item               Value     Threshold  Converged?
 Maximum Force            0.183861     0.000450     NO 
 RMS     Force            0.065593     0.000300     NO 
 Maximum Displacement     0.178032     0.001800     NO 
 RMS     Displacement     0.057129     0.001200     NO 
 Predicted change in Energy=-5.706208D-02
 GradGradGradGradGradGradGradGradGradGradGradGradGradGradGradGradGradGrad

 Leave Link  103 at Tue Dec 15 16:18:02 2015, MaxMem=    33554432 cpu:         0.0
 (Enter /home/Applications/g09/g09/l9999.exe)
 1\1\GINC-DUSTIN-DESKTOP\Force\RB3LYP-FC\3-21G\C4H4O1\DUSTIN\15-Dec-201
 5\0\\#P B3LYP/3-21G CIS(Singlets,NStates=15) pop(full) force\\FuranDFT
 \\0,1\C,0.926574,-0.72557,0.037783\C,-0.310833,-1.050858,-0.024459\O,-
 1.118099,0.038513,-0.032963\C,-0.388894,1.127917,-0.02673\C,0.9055,0.6
 71122,-0.011471\H,1.773941,1.370376,0.037567\H,-0.888754,2.078772,-0.0
 46597\H,-0.862229,-2.093394,-0.011194\H,1.76244,-1.325387,-0.022616\\V
 ersion=ES64L-G09RevD.01\State=1-A\HF=-228.720933\RMSD=6.352e-09\RMSF=6
 .559e-02\Dipole=0.2995795,0.7595671,-0.0140739\PG=C01 [X(C4H4O1)]\\@


 There are more things in heaven and earth, Horatio,
 than are dreamt of in your philosophy.
                   -- Hamlet, Act I, Scene 5
 Job cpu time:       0 days  0 hours  0 minutes 50.3 seconds.
 File lengths (MBytes):  RWF=     14 Int=      0 D2E=      0 Chk=      3 Scr=      1
 Normal termination of Gaussian 09 at Tue Dec 15 16:18:02 2015.
