 Entering Gaussian System, Link 0=g09
 Input=FuranAM1_48.com
 Output=FuranAM1_48.log
 Initial command:
 /home/Applications/g09/g09/l1.exe "/home/Applications/g09/scratch/Gau-5946.inp" -scrdir="/home/Applications/g09/scratch/"
 Entering Link 1 = /home/Applications/g09/g09/l1.exe PID=      5948.
  
 Copyright (c) 1988,1990,1992,1993,1995,1998,2003,2009,2013,
            Gaussian, Inc.  All Rights Reserved.
  
 This is part of the Gaussian(R) 09 program.  It is based on
 the Gaussian(R) 03 system (copyright 2003, Gaussian, Inc.),
 the Gaussian(R) 98 system (copyright 1998, Gaussian, Inc.),
 the Gaussian(R) 94 system (copyright 1995, Gaussian, Inc.),
 the Gaussian 92(TM) system (copyright 1992, Gaussian, Inc.),
 the Gaussian 90(TM) system (copyright 1990, Gaussian, Inc.),
 the Gaussian 88(TM) system (copyright 1988, Gaussian, Inc.),
 the Gaussian 86(TM) system (copyright 1986, Carnegie Mellon
 University), and the Gaussian 82(TM) system (copyright 1983,
 Carnegie Mellon University). Gaussian is a federally registered
 trademark of Gaussian, Inc.
  
 This software contains proprietary and confidential information,
 including trade secrets, belonging to Gaussian, Inc.
  
 This software is provided under written license and may be
 used, copied, transmitted, or stored only in accord with that
 written license.
  
 The following legend is applicable only to US Government
 contracts under FAR:
  
                    RESTRICTED RIGHTS LEGEND
  
 Use, reproduction and disclosure by the US Government is
 subject to restrictions as set forth in subparagraphs (a)
 and (c) of the Commercial Computer Software - Restricted
 Rights clause in FAR 52.227-19.
  
 Gaussian, Inc.
 340 Quinnipiac St., Bldg. 40, Wallingford CT 06492
  
  
 ---------------------------------------------------------------
 Warning -- This program may not be used in any manner that
 competes with the business of Gaussian, Inc. or will provide
 assistance to any competitor of Gaussian, Inc.  The licensee
 of this program is prohibited from giving any competitor of
 Gaussian, Inc. access to this program.  By using this program,
 the user acknowledges that Gaussian, Inc. is engaged in the
 business of creating and licensing software in the field of
 computational chemistry and represents and warrants to the
 licensee that it is not a competitor of Gaussian, Inc. and that
 it will not use this program in any manner prohibited above.
 ---------------------------------------------------------------
  

 Cite this work as:
 Gaussian 09, Revision D.01,
 M. J. Frisch, G. W. Trucks, H. B. Schlegel, G. E. Scuseria, 
 M. A. Robb, J. R. Cheeseman, G. Scalmani, V. Barone, B. Mennucci, 
 G. A. Petersson, H. Nakatsuji, M. Caricato, X. Li, H. P. Hratchian, 
 A. F. Izmaylov, J. Bloino, G. Zheng, J. L. Sonnenberg, M. Hada, 
 M. Ehara, K. Toyota, R. Fukuda, J. Hasegawa, M. Ishida, T. Nakajima, 
 Y. Honda, O. Kitao, H. Nakai, T. Vreven, J. A. Montgomery, Jr., 
 J. E. Peralta, F. Ogliaro, M. Bearpark, J. J. Heyd, E. Brothers, 
 K. N. Kudin, V. N. Staroverov, T. Keith, R. Kobayashi, J. Normand, 
 K. Raghavachari, A. Rendell, J. C. Burant, S. S. Iyengar, J. Tomasi, 
 M. Cossi, N. Rega, J. M. Millam, M. Klene, J. E. Knox, J. B. Cross, 
 V. Bakken, C. Adamo, J. Jaramillo, R. Gomperts, R. E. Stratmann, 
 O. Yazyev, A. J. Austin, R. Cammi, C. Pomelli, J. W. Ochterski, 
 R. L. Martin, K. Morokuma, V. G. Zakrzewski, G. A. Voth, 
 P. Salvador, J. J. Dannenberg, S. Dapprich, A. D. Daniels, 
 O. Farkas, J. B. Foresman, J. V. Ortiz, J. Cioslowski, 
 and D. J. Fox, Gaussian, Inc., Wallingford CT, 2013.
 
 ******************************************
 Gaussian 09:  ES64L-G09RevD.01 24-Apr-2013
                15-Dec-2015 
 ******************************************
 ------------------------------------------------------------
 #P AM1(Input,print) CIS(Singlets,NStates=15) pop(full) force
 ------------------------------------------------------------
 1/10=7,30=1,38=1/1,3;
 2/12=2,17=6,18=5,40=1/2;
 3/5=2,16=1,25=1,41=700000,71=1,135=100,136=1/1,2,8,3;
 4/35=1/1;
 5/5=2,35=1,38=5/2;
 8/6=1,10=1,108=15/1;
 9/15=2,41=15,42=1,48=1,49=10/14;
 10/5=4/2;
 6/7=3,18=1/1;
 7/12=6,13=5,29=1/1,2,3,16;
 1/10=7,30=1/3;
 99//99;
 Leave Link    1 at Tue Dec 15 16:20:30 2015, MaxMem=           0 cpu:         0.0
 (Enter /home/Applications/g09/g09/l101.exe)
 -----------------
 AM1-Reparam Input
 -----------------
 Symbolic Z-matrix:
 Charge =  0 Multiplicity = 1
 6                     0.97661  -0.66927   0.02081 
 6                    -0.30306  -1.07218   0.02132 
 8                    -1.17104  -0.0331    0.02479 
 6                    -0.34411   1.07726   0.00371 
 6                     0.93836   0.71896  -0.02576 
 1                     1.7908    1.40582   0.00268 
 1                    -0.84074   2.00409  -0.0361 
 1                    -0.8817   -2.09574  -0.01499 
 1                     1.76624  -1.38321   0.0201 
 
 NAtoms=      9 NQM=        9 NQMF=       0 NMMI=      0 NMMIF=      0
                NMic=       0 NMicF=      0.
                    Isotopes and Nuclear Properties:
 (Nuclear quadrupole moments (NQMom) in fm**2, nuclear magnetic moments (NMagM)
  in nuclear magnetons)

  Atom         1           2           3           4           5           6           7           8           9
 IAtWgt=          12          12          16          12          12           1           1           1           1
 AtmWgt=  12.0000000  12.0000000  15.9949146  12.0000000  12.0000000   1.0078250   1.0078250   1.0078250   1.0078250
 NucSpn=           0           0           0           0           0           1           1           1           1
 AtZEff=   0.0000000   0.0000000   0.0000000   0.0000000   0.0000000   0.0000000   0.0000000   0.0000000   0.0000000
 NQMom=    0.0000000   0.0000000   0.0000000   0.0000000   0.0000000   0.0000000   0.0000000   0.0000000   0.0000000
 NMagM=    0.0000000   0.0000000   0.0000000   0.0000000   0.0000000   2.7928460   2.7928460   2.7928460   2.7928460
 AtZNuc=   6.0000000   6.0000000   8.0000000   6.0000000   6.0000000   1.0000000   1.0000000   1.0000000   1.0000000
 Leave Link  101 at Tue Dec 15 16:20:30 2015, MaxMem=    33554432 cpu:         0.0
 (Enter /home/Applications/g09/g09/l103.exe)

 GradGradGradGradGradGradGradGradGradGradGradGradGradGradGradGradGradGrad
 Berny optimization.
 Initialization pass.
 Trust Radius=3.00D-01 FncErr=1.00D-07 GrdErr=1.00D-07
 Number of steps in this run=      2 maximum allowed number of steps=      2.
 GradGradGradGradGradGradGradGradGradGradGradGradGradGradGradGradGradGrad

 Leave Link  103 at Tue Dec 15 16:20:30 2015, MaxMem=    33554432 cpu:         0.0
 (Enter /home/Applications/g09/g09/l202.exe)
                          Input orientation:                          
 ---------------------------------------------------------------------
 Center     Atomic      Atomic             Coordinates (Angstroms)
 Number     Number       Type             X           Y           Z
 ---------------------------------------------------------------------
      1          6           0        0.976610   -0.669271    0.020811
      2          6           0       -0.303063   -1.072175    0.021323
      3          8           0       -1.171044   -0.033103    0.024790
      4          6           0       -0.344106    1.077260    0.003709
      5          6           0        0.938358    0.718960   -0.025763
      6          1           0        1.790798    1.405817    0.002676
      7          1           0       -0.840737    2.004086   -0.036102
      8          1           0       -0.881697   -2.095744   -0.014991
      9          1           0        1.766238   -1.383213    0.020104
 ---------------------------------------------------------------------
                    Distance matrix (angstroms):
                    1          2          3          4          5
     1  C    0.000000
     2  C    1.341602   0.000000
     3  O    2.239898   1.353911   0.000000
     4  C    2.189738   2.149899   1.384622   0.000000
     5  C    1.389539   2.179795   2.240029   1.331901   0.000000
     6  H    2.229175   3.244233   3.292945   2.160038   1.095096
     7  H    3.233083   3.123423   2.064691   1.052252   2.194729
     8  H    2.342949   1.176363   2.083217   3.218277   3.351906
     9  H    1.064531   2.092547   3.232715   3.241566   2.259783
                    6          7          8          9
     6  H    0.000000
     7  H    2.698964   0.000000
     8  H    4.404937   4.100089   0.000000
     9  H    2.789193   4.274725   2.742352   0.000000
 Stoichiometry    C4H4O
 Framework group  C1[X(C4H4O)]
 Deg. of freedom    21
 Full point group                 C1      NOp   1
 Largest Abelian subgroup         C1      NOp   1
 Largest concise Abelian subgroup C1      NOp   1
                         Standard orientation:                         
 ---------------------------------------------------------------------
 Center     Atomic      Atomic             Coordinates (Angstroms)
 Number     Number       Type             X           Y           Z
 ---------------------------------------------------------------------
      1          6           0       -0.281351    1.148219   -0.011564
      2          6           0       -1.110725    0.093769    0.001486
      3          8           0       -0.445888   -1.085625   -0.008252
      4          6           0        0.885337   -0.704822   -0.005958
      5          6           0        1.004143    0.621537    0.018903
      6          1           0        1.947620    1.175873   -0.023501
      7          1           0        1.577096   -1.497072    0.026344
      8          1           0       -2.272191   -0.085348    0.053848
      9          1           0       -0.669843    2.139323   -0.007879
 ---------------------------------------------------------------------
 Rotational constants (GHZ):      9.7921674      9.2838897      4.7666386
 Leave Link  202 at Tue Dec 15 16:20:30 2015, MaxMem=    33554432 cpu:         0.0
 (Enter /home/Applications/g09/g09/l301.exe)

 Semi-emprical parameters in input format:
 Method=8 CoreType=1 PeptideFC=0.0114510000 RIJScale=0.5291770000
 ****
 H       
 PQN=1 NValence=1 F0ss=0.4721550000 ZetaOverlap=1.1880780000 U=-0.4188110000
 Beta=-0.2268830000 CoreKO=1.0589200000 KON=0,0,0,1.0589200000 KON=1,0,1,1.0589200000
 KON=0,1,1,1.0589200000 KON=2,1,1,1.0589200000 EISol=-0.4188110042 EHeat=0.0830298228
 Alpha=1.5252600000
 GCore=0.0085280000,1.4001430000,2.2676710000
 GCore=0.0003530000,1.4001430000,3.4015070000
 GCore=-0.0012730000,0.5600570000,3.9684250000
 ****
 C       
 PQN=2,2 NValence=4 F0ss=0.4494440000 F0sp=0.4215150000 F0pp=0.3768030000 F2pp=0.1898720000
 G1sp=0.2679030000
 ZetaOverlap=1.8086650000,1.6851160000
 U=-1.9120180000,-1.4557970000
 Beta=-0.5775440000,-0.2836780000 DDN=0,1,0.8236740000 DDN=1,1,0.7268010000
 CoreKO=1.1124280000 KON=0,0,0,1.1124280000 KON=1,0,1,0.8219700000 KON=0,1,1,1.1124280000
 KON=2,1,1,0.7783930000 EISol=-4.4398989268 EHeat=0.2723305520 Alpha=1.4014060000
 DipHyp=1.6472532266
 GCore=0.0007890000,1.4001430000,3.0235620000
 GCore=0.0031890000,1.4001430000,3.4959930000
 GCore=-0.0013930000,1.4001430000,3.8739390000
 GCore=-0.0000880000,1.4001430000,5.0077740000
 ****
 O       
 PQN=2,2 NValence=6 F0ss=0.5666750000 F0sp=0.5321300000 F0pp=0.4958710000 F2pp=0.2358080000
 G1sp=0.4343770000
 ZetaOverlap=3.1080320000,2.5240390000
 U=-3.5951870000,-2.8760900000
 Beta=-1.0757550000,-1.0757550000 DDN=0,1,0.4988900000 DDN=1,1,0.4852320000
 CoreKO=0.8822960000 KON=0,0,0,0.8822960000 KON=1,0,1,0.5019540000 KON=0,1,1,0.8822960000
 KON=2,1,1,0.5515580000 EISol=-11.6164441184 EHeat=0.0949133088 Alpha=2.3576810000
 DipHyp=0.9977225968
 GCore=0.0195120000,1.4001430000,1.6023330000
 GCore=0.0056550000,1.9602000000,2.7307880000
 ****
 
 Standard basis: VSTO-6G (5D, 7F)
 Ernie: Thresh=  0.10000D-02 Tol=  0.10000D-05 Strict=F.
  NNHCO=     0 NNPyr=     0 NCTC=     0               EPep=         0.000000000
    EC=        69.006536551  ECS=         1.859769517   EG=         0.354288352
   EHC=         0.000000000  EAt=       -31.051283842  AtH=         1.516354808
 EPDDG=         0.000000000  ECC=        71.220594420 EAtT=        32.567638650
 There are    24 symmetry adapted cartesian basis functions of A   symmetry.
 There are    24 symmetry adapted basis functions of A   symmetry.
    24 basis functions,   144 primitive gaussians,    24 cartesian basis functions
    13 alpha electrons       13 beta electrons
       nuclear repulsion energy       103.7882330708 Hartrees.
 IExCor=    0 DFT=F Ex=HF Corr=None ExCW=0 ScaHFX=  1.000000
 ScaDFX=  1.000000  1.000000  1.000000  1.000000 ScalE2=  1.000000  1.000000
 IRadAn=      0 IRanWt=     -1 IRanGd=            0 ICorTp=0 IEmpDi=  4
 Integral buffers will be    131072 words long.
 Regular integral format.
 Two-electron integral symmetry is turned off.
 Leave Link  301 at Tue Dec 15 16:20:30 2015, MaxMem=    33554432 cpu:         0.0
 (Enter /home/Applications/g09/g09/l302.exe)
 Do NDO integrals.
 NPDir=0 NMtPBC=     1 NCelOv=     1 NCel=       1 NClECP=     1 NCelD=      1
         NCelK=      1 NCelE2=     1 NClLst=     1 CellRange=     0.0.
 One-electron integrals computed using PRISM.
 NBasis=    24 RedAO= F EigKep=  0.00D+00  NBF=    24
 NBsUse=    24 1.00D-04 EigRej=  0.00D+00 NBFU=    24
 Leave Link  302 at Tue Dec 15 16:20:30 2015, MaxMem=    33554432 cpu:         0.0
 (Enter /home/Applications/g09/g09/l308.exe)
 Leave Link  308 at Tue Dec 15 16:20:30 2015, MaxMem=    33554432 cpu:         0.0
 (Enter /home/Applications/g09/g09/l303.exe)
 DipDrv:  MaxL=1.
 Leave Link  303 at Tue Dec 15 16:20:30 2015, MaxMem=    33554432 cpu:         0.0
 (Enter /home/Applications/g09/g09/l401.exe)
 Simple Huckel Guess.
 JPrj=0 DoOrth=F DoCkMO=F.
 Leave Link  401 at Tue Dec 15 16:20:30 2015, MaxMem=    33554432 cpu:         0.0
 (Enter /home/Applications/g09/g09/l502.exe)
 Closed shell SCF:
 Using DIIS extrapolation, IDIIS=  1040.
 Overlap will be assumed to be unity.
 Two-electron integral symmetry not used.
 Keep J ints in memory in canonical form, NReq=888082.
 IVT=       79475 IEndB=       79475 NGot=    33554432 MDV=    33473473
 LenX=    33473473 LenY=    33472456
 Requested convergence on RMS density matrix=1.00D-08 within 128 cycles.
 Requested convergence on MAX density matrix=1.00D-06.
 Requested convergence on             energy=1.00D-06.
 No special actions if energy rises.
 FoFCou: FMM=F IPFlag=           0 FMFlag=           0 FMFlg1=           0
         NFxFlg=           0 DoJE=F BraDBF=F KetDBF=F FulRan=T
         wScrn=  0.000000 ICntrl=     600 IOpCl=  2 I1Cent=           0 NGrid=           0
         NMat0=    1 NMatS0=     54 NMatT0=    0 NMatD0=    1 NMtDS0=    0 NMtDT0=    0
 Symmetry not used in FoFCou.

 Cycle   1  Pass 1  IDiag  1:
 E= 0.347591757352291    
 DIIS: error= 6.57D-02 at cycle   1 NSaved=   1.
 NSaved= 1 IEnMin= 1 EnMin= 0.347591757352291     IErMin= 1 ErrMin= 6.57D-02
 ErrMax= 6.57D-02  0.00D+00 EMaxC= 1.00D-01 BMatC= 1.14D-01 BMatP= 1.14D-01
 IDIUse=3 WtCom= 3.43D-01 WtEn= 6.57D-01
 Coeff-Com:  0.100D+01
 Coeff-En:   0.100D+01
 Coeff:      0.100D+01
 GapD=    2.000 DampG=2.000 DampE=0.500 DampFc=1.0000 IDamp=-1.
 RMSDP=1.98D-02 MaxDP=1.63D-01              OVMax= 0.00D+00

 Cycle   2  Pass 1  IDiag  1:
 E= 0.597664385757639E-01 Delta-E=       -0.287825318777 Rises=F Damp=F
 DIIS: error= 1.95D-02 at cycle   2 NSaved=   2.
 NSaved= 2 IEnMin= 2 EnMin= 0.597664385757639E-01 IErMin= 2 ErrMin= 1.95D-02
 ErrMax= 1.95D-02  0.00D+00 EMaxC= 1.00D-01 BMatC= 9.72D-03 BMatP= 1.14D-01
 IDIUse=3 WtCom= 8.05D-01 WtEn= 1.95D-01
 Coeff-Com: -0.357D+00 0.136D+01
 Coeff-En:   0.000D+00 0.100D+01
 Coeff:     -0.288D+00 0.129D+01
 RMSDP=8.26D-03 MaxDP=6.98D-02 DE=-2.88D-01 OVMax= 0.00D+00

 Cycle   3  Pass 1  IDiag  3:
 E= 0.288732898640660E-01 Delta-E=       -0.030893148712 Rises=F Damp=F
 DIIS: error= 3.96D-03 at cycle   3 NSaved=   3.
 NSaved= 3 IEnMin= 3 EnMin= 0.288732898640660E-01 IErMin= 3 ErrMin= 3.96D-03
 ErrMax= 3.96D-03  0.00D+00 EMaxC= 1.00D-01 BMatC= 3.61D-04 BMatP= 9.72D-03
 IDIUse=3 WtCom= 9.60D-01 WtEn= 3.96D-02
 Coeff-Com:  0.140D+00-0.614D+00 0.147D+01
 Coeff-En:   0.000D+00 0.000D+00 0.100D+01
 Coeff:      0.134D+00-0.590D+00 0.146D+01
 Gap=     0.378 Goal=   None    Shift=    0.000
 RMSDP=2.47D-03 MaxDP=2.48D-02 DE=-3.09D-02 OVMax= 2.36D-02

 Cycle   4  Pass 1  IDiag  3:
 E= 0.269512170579134E-01 Delta-E=       -0.001922072806 Rises=F Damp=F
 DIIS: error= 1.05D-03 at cycle   4 NSaved=   4.
 NSaved= 4 IEnMin= 4 EnMin= 0.269512170579134E-01 IErMin= 4 ErrMin= 1.05D-03
 ErrMax= 1.05D-03  0.00D+00 EMaxC= 1.00D-01 BMatC= 2.43D-05 BMatP= 3.61D-04
 IDIUse=3 WtCom= 9.89D-01 WtEn= 1.05D-02
 Coeff-Com:  0.164D-01-0.628D-01-0.140D+00 0.119D+01
 Coeff-En:   0.000D+00 0.000D+00 0.000D+00 0.100D+01
 Coeff:      0.163D-01-0.621D-01-0.138D+00 0.118D+01
 Gap=     0.379 Goal=   None    Shift=    0.000
 RMSDP=7.29D-04 MaxDP=8.07D-03 DE=-1.92D-03 OVMax= 6.65D-03

 Cycle   5  Pass 1  IDiag  3:
 E= 0.268093558453586E-01 Delta-E=       -0.000141861213 Rises=F Damp=F
 DIIS: error= 1.91D-04 at cycle   5 NSaved=   5.
 NSaved= 5 IEnMin= 5 EnMin= 0.268093558453586E-01 IErMin= 5 ErrMin= 1.91D-04
 ErrMax= 1.91D-04  0.00D+00 EMaxC= 1.00D-01 BMatC= 1.58D-06 BMatP= 2.43D-05
 IDIUse=3 WtCom= 9.98D-01 WtEn= 1.91D-03
 Coeff-Com: -0.801D-02 0.334D-01 0.106D-01-0.471D+00 0.144D+01
 Coeff-En:   0.000D+00 0.000D+00 0.000D+00 0.000D+00 0.100D+01
 Coeff:     -0.799D-02 0.334D-01 0.105D-01-0.470D+00 0.143D+01
 Gap=     0.379 Goal=   None    Shift=    0.000
 RMSDP=2.23D-04 MaxDP=1.63D-03 DE=-1.42D-04 OVMax= 2.47D-03

 Cycle   6  Pass 1  IDiag  3:
 E= 0.267979385816801E-01 Delta-E=       -0.000011417264 Rises=F Damp=F
 DIIS: error= 9.06D-05 at cycle   6 NSaved=   6.
 NSaved= 6 IEnMin= 6 EnMin= 0.267979385816801E-01 IErMin= 6 ErrMin= 9.06D-05
 ErrMax= 9.06D-05  0.00D+00 EMaxC= 1.00D-01 BMatC= 1.51D-07 BMatP= 1.58D-06
 IDIUse=1 WtCom= 1.00D+00 WtEn= 0.00D+00
 Coeff-Com:  0.267D-02-0.107D-01 0.525D-02 0.131D+00-0.641D+00 0.151D+01
 Coeff:      0.267D-02-0.107D-01 0.525D-02 0.131D+00-0.641D+00 0.151D+01
 Gap=     0.379 Goal=   None    Shift=    0.000
 RMSDP=8.41D-05 MaxDP=7.12D-04 DE=-1.14D-05 OVMax= 1.11D-03

 Cycle   7  Pass 1  IDiag  3:
 E= 0.267965858509172E-01 Delta-E=       -0.000001352731 Rises=F Damp=F
 DIIS: error= 3.34D-05 at cycle   7 NSaved=   7.
 NSaved= 7 IEnMin= 7 EnMin= 0.267965858509172E-01 IErMin= 7 ErrMin= 3.34D-05
 ErrMax= 3.34D-05  0.00D+00 EMaxC= 1.00D-01 BMatC= 1.42D-08 BMatP= 1.51D-07
 IDIUse=1 WtCom= 1.00D+00 WtEn= 0.00D+00
 Coeff-Com: -0.329D-03 0.778D-03 0.320D-03-0.255D-01 0.161D+00-0.685D+00
 Coeff-Com:  0.155D+01
 Coeff:     -0.329D-03 0.778D-03 0.320D-03-0.255D-01 0.161D+00-0.685D+00
 Coeff:      0.155D+01
 Gap=     0.379 Goal=   None    Shift=    0.000
 RMSDP=3.12D-05 MaxDP=2.95D-04 DE=-1.35D-06 OVMax= 3.77D-04

 Cycle   8  Pass 1  IDiag  3:
 E= 0.267964488532186E-01 Delta-E=       -0.000000136998 Rises=F Damp=F
 DIIS: error= 6.57D-06 at cycle   8 NSaved=   8.
 NSaved= 8 IEnMin= 8 EnMin= 0.267964488532186E-01 IErMin= 8 ErrMin= 6.57D-06
 ErrMax= 6.57D-06  0.00D+00 EMaxC= 1.00D-01 BMatC= 6.25D-10 BMatP= 1.42D-08
 IDIUse=1 WtCom= 1.00D+00 WtEn= 0.00D+00
 Coeff-Com:  0.302D-04 0.188D-03-0.112D-02 0.981D-02-0.537D-01 0.258D+00
 Coeff-Com: -0.741D+00 0.153D+01
 Coeff:      0.302D-04 0.188D-03-0.112D-02 0.981D-02-0.537D-01 0.258D+00
 Coeff:     -0.741D+00 0.153D+01
 Gap=     0.379 Goal=   None    Shift=    0.000
 RMSDP=5.84D-06 MaxDP=5.65D-05 DE=-1.37D-07 OVMax= 7.31D-05

 Cycle   9  Pass 1  IDiag  3:
 E= 0.267964437373109E-01 Delta-E=       -0.000000005116 Rises=F Damp=F
 DIIS: error= 9.86D-07 at cycle   9 NSaved=   9.
 NSaved= 9 IEnMin= 9 EnMin= 0.267964437373109E-01 IErMin= 9 ErrMin= 9.86D-07
 ErrMax= 9.86D-07  0.00D+00 EMaxC= 1.00D-01 BMatC= 2.64D-11 BMatP= 6.25D-10
 IDIUse=1 WtCom= 1.00D+00 WtEn= 0.00D+00
 Coeff-Com:  0.252D-04-0.223D-03 0.531D-03-0.238D-02 0.133D-01-0.789D-01
 Coeff-Com:  0.254D+00-0.664D+00 0.148D+01
 Coeff:      0.252D-04-0.223D-03 0.531D-03-0.238D-02 0.133D-01-0.789D-01
 Coeff:      0.254D+00-0.664D+00 0.148D+01
 Gap=     0.379 Goal=   None    Shift=    0.000
 RMSDP=9.87D-07 MaxDP=8.33D-06 DE=-5.12D-09 OVMax= 1.26D-05

 Cycle  10  Pass 1  IDiag  3:
 E= 0.267964435697223E-01 Delta-E=       -0.000000000168 Rises=F Damp=F
 DIIS: error= 1.20D-07 at cycle  10 NSaved=  10.
 NSaved=10 IEnMin=10 EnMin= 0.267964435697223E-01 IErMin=10 ErrMin= 1.20D-07
 ErrMax= 1.20D-07  0.00D+00 EMaxC= 1.00D-01 BMatC= 8.63D-13 BMatP= 2.64D-11
 IDIUse=1 WtCom= 1.00D+00 WtEn= 0.00D+00
 Coeff-Com: -0.122D-04 0.963D-04-0.221D-03 0.878D-03-0.459D-02 0.281D-01
 Coeff-Com: -0.922D-01 0.248D+00-0.649D+00 0.147D+01
 Coeff:     -0.122D-04 0.963D-04-0.221D-03 0.878D-03-0.459D-02 0.281D-01
 Coeff:     -0.922D-01 0.248D+00-0.649D+00 0.147D+01
 Gap=     0.379 Goal=   None    Shift=    0.000
 RMSDP=1.46D-07 MaxDP=9.88D-07 DE=-1.68D-10 OVMax= 1.24D-06

 Cycle  11  Pass 1  IDiag  3:
 E= 0.267964435652317E-01 Delta-E=       -0.000000000004 Rises=F Damp=F
 DIIS: error= 2.41D-08 at cycle  11 NSaved=  11.
 NSaved=11 IEnMin=11 EnMin= 0.267964435652317E-01 IErMin=11 ErrMin= 2.41D-08
 ErrMax= 2.41D-08  0.00D+00 EMaxC= 1.00D-01 BMatC= 2.86D-14 BMatP= 8.63D-13
 IDIUse=1 WtCom= 1.00D+00 WtEn= 0.00D+00
 Coeff-Com:  0.317D-05-0.261D-04 0.594D-04-0.244D-03 0.126D-02-0.775D-02
 Coeff-Com:  0.253D-01-0.675D-01 0.179D+00-0.500D+00 0.137D+01
 Coeff:      0.317D-05-0.261D-04 0.594D-04-0.244D-03 0.126D-02-0.775D-02
 Coeff:      0.253D-01-0.675D-01 0.179D+00-0.500D+00 0.137D+01
 Gap=     0.379 Goal=   None    Shift=    0.000
 RMSDP=2.78D-08 MaxDP=2.48D-07 DE=-4.49D-12 OVMax= 2.49D-07

 Cycle  12  Pass 1  IDiag  3:
 E= 0.267964435649901E-01 Delta-E=        0.000000000000 Rises=F Damp=F
 DIIS: error= 7.00D-09 at cycle  12 NSaved=  12.
 NSaved=12 IEnMin=12 EnMin= 0.267964435649901E-01 IErMin=12 ErrMin= 7.00D-09
 ErrMax= 7.00D-09  0.00D+00 EMaxC= 1.00D-01 BMatC= 2.41D-15 BMatP= 2.86D-14
 IDIUse=1 WtCom= 1.00D+00 WtEn= 0.00D+00
 Coeff-Com: -0.868D-06 0.748D-05-0.166D-04 0.706D-04-0.357D-03 0.224D-02
 Coeff-Com: -0.725D-02 0.190D-01-0.506D-01 0.157D+00-0.663D+00 0.154D+01
 Coeff:     -0.868D-06 0.748D-05-0.166D-04 0.706D-04-0.357D-03 0.224D-02
 Coeff:     -0.725D-02 0.190D-01-0.506D-01 0.157D+00-0.663D+00 0.154D+01
 Gap=     0.379 Goal=   None    Shift=    0.000
 RMSDP=9.89D-09 MaxDP=7.58D-08 DE=-2.42D-13 OVMax= 9.51D-08

 Cycle  13  Pass 2  IDiag  1:
 SCF Done:  E(RAM1) =  0.267964435650E-01 A.U. after   13 cycles
            NFock= 12  Conv=0.99D-08     -V/T= 1.0016
 KE=-1.657785469259D+01 PE=-1.716096568903D+02 EE= 8.442607495560D+01
 Leave Link  502 at Tue Dec 15 16:20:30 2015, MaxMem=    33554432 cpu:         0.0
 (Enter /home/Applications/g09/g09/l801.exe)
 Range of M.O.s used for correlation:     1    24
 NBasis=    24 NAE=    13 NBE=    13 NFC=     0 NFV=     0
 NROrb=     24 NOA=    13 NOB=    13 NVA=    11 NVB=    11
 Leave Link  801 at Tue Dec 15 16:20:30 2015, MaxMem=    33554432 cpu:         0.0
 (Enter /home/Applications/g09/g09/l914.exe)
 RHF ground state
 MDV=    33554432 DFT=F DoStab=F Mixed=F DoRPA=F DoScal=F NonHer=F
 Making orbital integer symmetry assigments:
 Orbital symmetries:
       Occupied  (A) (A) (A) (A) (A) (A) (A) (A) (A) (A) (A) (A)
                 (A)
       Virtual   (A) (A) (A) (A) (A) (A) (A) (A) (A) (A) (A)
    60 initial guesses have been made.
 Convergence on wavefunction:    0.000001000000000
 Davidson Disk Diagonalization:  ConvIn= 1.00D-06 SkipCon=T Conv= 1.00D-06.
 Max sub-space:   240 roots to seek:    60 dimension of matrix:          286
 Iteration     1 Dimension    60 NMult     0 NNew     60
 CISAX will form    60 AO SS matrices at one time.
 NMat=    60 NSing=    60 JSym2X= 0.
 FoFJK:  IHMeth= 8 ICntrl=       0 DoSepK=F KAlg= 0 I1Cent=   0 FoldK=F
 IRaf=         1 NMat= 120 IRICut=       1 DoRegI=T DoRafI=F ISym2E= 0.
 FoFCou: FMM=F IPFlag=           0 FMFlag=      100000 FMFlg1=           0
         NFxFlg=           0 DoJE=F BraDBF=F KetDBF=F FulRan=T
         wScrn=  0.000000 ICntrl=       0 IOpCl=  0 I1Cent=           0 NGrid=           0
         NMat0=  120 NMatS0=     60 NMatT0=    0 NMatD0=  120 NMtDS0=    0 NMtDT0=    0
 Symmetry not used in FoFCou.
 New state      2 was old state      4
 New state      3 was old state      2
 New state      4 was old state      6
 New state      5 was old state      8
 New state      6 was old state      9
 New state      8 was old state      3
 New state      9 was old state      5
 New state     10 was old state     17
 New state     12 was old state     16
 New state     13 was old state     18
 New state     14 was old state     24
 New state     15 was old state     10
 Excitation Energies [eV] at current iteration:
 Root      1 :     4.544083345766077
 Root      2 :     5.189282657812965
 Root      3 :     5.196903073790967
 Root      4 :     6.088164450981099
 Root      5 :     6.237472871399768
 Root      6 :     6.388291978571438
 Root      7 :     6.464901017193392
 Root      8 :     6.557432083888293
 Root      9 :     6.743602008989905
 Root     10 :     7.221479864457934
 Root     11 :     7.289026821093431
 Root     12 :     7.534407972828414
 Root     13 :     7.626948194637028
 Root     14 :     7.661498172549059
 Root     15 :     7.788985864391734
 Root     16 :     7.912432568733957
 Root     17 :     7.956637969018347
 Root     18 :     8.315718731249421
 Root     19 :     8.331085505635102
 Root     20 :     8.370764438188603
 Root     21 :     8.770088519721188
 Root     22 :     8.859959302276216
 Root     23 :     9.110957559850069
 Root     24 :     9.242416035628121
 Root     25 :     9.351944952121451
 Root     26 :     9.373392295250946
 Root     27 :     9.602683675718419
 Root     28 :     9.710369006291840
 Root     29 :     9.843425677700607
 Root     30 :     9.910720608814190
 Root     31 :    10.055473663222240
 Root     32 :    10.143389020925530
 Root     33 :    10.224306312887540
 Root     34 :    10.248115548190160
 Root     35 :    10.395643599673160
 Root     36 :    10.517949016462530
 Root     37 :    10.628882782187870
 Root     38 :    10.721316422018890
 Root     39 :    10.776723595523350
 Root     40 :    10.842569219790150
 Root     41 :    10.977321743230370
 Root     42 :    11.204295146832500
 Root     43 :    11.301739845600370
 Root     44 :    11.523138574544440
 Root     45 :    11.569873362973590
 Root     46 :    11.718948006457550
 Root     47 :    11.781165444563170
 Root     48 :    12.003916548440750
 Root     49 :    12.086315606849730
 Root     50 :    12.263132095181090
 Root     51 :    12.280728466751890
 Root     52 :    12.629952496602820
 Root     53 :    12.719346522610480
 Root     54 :    12.989924416860140
 Root     55 :    13.132903729444490
 Root     56 :    13.206632748054060
 Root     57 :    13.270366293951670
 Root     58 :    13.343879318593760
 Root     59 :    13.532922205141820
 Root     60 :    13.764104376691050
 Iteration     2 Dimension   120 NMult    60 NNew     60
 CISAX will form    60 AO SS matrices at one time.
 NMat=    60 NSing=    60 JSym2X= 0.
 Root      1 not converged, maximum delta is    0.038618477136180
 Root      2 not converged, maximum delta is    0.041553821706422
 Root      3 not converged, maximum delta is    0.046162207398175
 Root      4 not converged, maximum delta is    0.047141305872798
 Root      5 not converged, maximum delta is    0.099326588477408
 Root      6 not converged, maximum delta is    0.214878003537837
 Root      7 not converged, maximum delta is    0.360095358580641
 Root      8 not converged, maximum delta is    0.135622644399381
 Root      9 not converged, maximum delta is    0.021066149541555
 Root     10 not converged, maximum delta is    0.062099302067195
 Root     11 not converged, maximum delta is    0.077606617172740
 Root     12 not converged, maximum delta is    0.109334175105857
 New state     13 was old state     14
 Root     13 not converged, maximum delta is    0.225704766740798
 New state     14 was old state     13
 Root     14 not converged, maximum delta is    0.193708743463319
 Root     15 not converged, maximum delta is    0.127858489562858
 Excitation Energies [eV] at current iteration:
 Root      1 :     4.457084951865035   Change is   -0.086998393901042
 Root      2 :     5.158187920371918   Change is   -0.031094737441047
 Root      3 :     5.181360409360271   Change is   -0.015542664430696
 Root      4 :     5.975675490900625   Change is   -0.112488960080473
 Root      5 :     6.132309574657954   Change is   -0.105163296741813
 Root      6 :     6.268365288693639   Change is   -0.119926689877799
 Root      7 :     6.364209680783027   Change is   -0.100691336410365
 Root      8 :     6.430455658199678   Change is   -0.126976425688615
 Root      9 :     6.695939703237432   Change is   -0.047662305752473
 Root     10 :     7.124495889288114   Change is   -0.096983975169820
 Root     11 :     7.211976873206664   Change is   -0.077049947886767
 Root     12 :     7.440792042839729   Change is   -0.093615929988685
 Root     13 :     7.515244961634007   Change is   -0.146253210915052
 Root     14 :     7.543065217330565   Change is   -0.083882977306462
 Root     15 :     7.668745449347079   Change is   -0.120240415044655
 Root     16 :     7.834780669421095   Change is   -0.077651899312862
 Root     17 :     7.891667638854533   Change is   -0.064970330163815
 Root     18 :     8.135468207630831   Change is   -0.235296230557771
 Root     19 :     8.207587178068263   Change is   -0.108131553181158
 Root     20 :     8.250526926216198   Change is   -0.080558579418904
 Root     21 :     8.741318538577396   Change is   -0.028769981143792
 Root     22 :     8.781445235917115   Change is   -0.329512323932956
 Root     23 :     8.829698190678913   Change is   -0.030261111597304
 Root     24 :     8.956392848662034   Change is   -0.395552103459418
 Root     25 :     9.009497516822742   Change is   -0.232918518805378
 Root     26 :     9.265663394642617   Change is   -0.107728900608329
 Root     27 :     9.302604233764848   Change is   -0.540821443935759
 Root     28 :     9.514264087581831   Change is   -0.629124933343698
 Root     29 :     9.550835376311706   Change is   -0.051848299406712
 Root     30 :     9.621727765222335   Change is   -0.288992843591854
 Root     31 :     9.673040322140858   Change is   -0.037328684150981
 Root     32 :     9.688130976676012   Change is   -0.707512622997151
 Root     33 :     9.754555296644986   Change is   -0.874327485542888
 Root     34 :     9.948914390891865   Change is   -0.299201157298299
 Root     35 :     9.973302529852930   Change is   -0.544646486609596
 Root     36 :     9.977839637692007   Change is   -0.077634025530238
 Root     37 :    10.041230653216650   Change is   -0.183075659670883
 Root     38 :    10.280870237556040   Change is   -0.440446184462856
 Root     39 :    10.409967946990250   Change is   -0.432601272799898
 Root     40 :    10.609215341765620   Change is   -0.368106401464756
 Root     41 :    10.708514138328160   Change is   -0.068209457195189
 Root     42 :    10.830376526529960   Change is   -0.373918620302538
 Root     43 :    10.857435527103230   Change is   -0.444304318497142
 Root     44 :    10.962558206500580   Change is   -0.560580368043860
 Root     45 :    11.096192995875510   Change is   -0.473680367098077
 Root     46 :    11.319067577675040   Change is   -0.399880428782511
 Root     47 :    11.466058403395620   Change is   -0.315107041167555
 Root     48 :    11.600328434593060   Change is   -0.403588113847699
 Root     49 :    11.675866324232420   Change is   -0.410449282617306
 Root     50 :    11.929552502761260   Change is   -0.351175963990630
 Root     51 :    12.000835992173040   Change is   -0.718510530437446
 Root     52 :    12.058656124703840   Change is   -0.204475970477248
 Root     53 :    12.299429537259360   Change is   -0.330522959343461
 Root     54 :    12.644737235012230   Change is   -0.561895513041832
 Root     55 :    12.711112562761330   Change is   -0.632766755832438
 Root     56 :    12.785557505592350   Change is   -0.347346223852139
 Root     57 :    12.812083094897570   Change is   -0.720839110244248
 Root     58 :    12.941006493263780   Change is   -0.048917923596362
 Root     59 :    13.020374259691400   Change is   -0.249992034260265
 Root     60 :    13.061008480696860
 Iteration     3 Dimension   135 NMult   120 NNew     15
 CISAX will form    15 AO SS matrices at one time.
 NMat=    15 NSing=    15 JSym2X= 0.
 Root      1 not converged, maximum delta is    0.002667803649162
 Root      2 not converged, maximum delta is    0.000137125219514
 Root      3 not converged, maximum delta is    0.000345619355128
 Root      4 not converged, maximum delta is    0.000167117719695
 Root      5 not converged, maximum delta is    0.000145056384965
 Root      6 not converged, maximum delta is    0.000190807999003
 Root      7 not converged, maximum delta is    0.001090248071038
 Root      8 not converged, maximum delta is    0.001204112096081
 Root      9 not converged, maximum delta is    0.002136671098825
 Root     10 not converged, maximum delta is    0.000157951961147
 Root     11 not converged, maximum delta is    0.000334664380817
 Root     12 not converged, maximum delta is    0.000323982947055
 Root     13 not converged, maximum delta is    0.000285574232965
 Root     14 not converged, maximum delta is    0.000239737999310
 Root     15 not converged, maximum delta is    0.000211203998537
 Excitation Energies [eV] at current iteration:
 Root      1 :     4.456635191302239   Change is   -0.000449760562796
 Root      2 :     5.158185841136002   Change is   -0.000002079235916
 Root      3 :     5.181326795580572   Change is   -0.000033613779699
 Root      4 :     5.975671088796564   Change is   -0.000004402104061
 Root      5 :     6.132305496306471   Change is   -0.000004078351483
 Root      6 :     6.268360700613808   Change is   -0.000004588079831
 Root      7 :     6.364021968499745   Change is   -0.000187712283282
 Root      8 :     6.430240260515225   Change is   -0.000215397684453
 Root      9 :     6.695458679072037   Change is   -0.000481024165394
 Root     10 :     7.124492209314417   Change is   -0.000003679973697
 Root     11 :     7.211947927266430   Change is   -0.000028945940235
 Root     12 :     7.440764426096469   Change is   -0.000027616743260
 Root     13 :     7.515227104251694   Change is   -0.000017857382314
 Root     14 :     7.543055562739704   Change is   -0.000009654590862
 Root     15 :     7.668737958324384   Change is   -0.000007491022694
 Iteration     4 Dimension   143 NMult   135 NNew      8
 CISAX will form     8 AO SS matrices at one time.
 NMat=     8 NSing=     8 JSym2X= 0.
 Root      1 not converged, maximum delta is    0.000084412173239
 Root      2 not converged, maximum delta is    0.000001416567441
 Root      3 not converged, maximum delta is    0.000006152386195
 Root      4 not converged, maximum delta is    0.000005777731656
 Root      5 not converged, maximum delta is    0.000006478305708
 Root      6 not converged, maximum delta is    0.000006918053176
 Root      7 not converged, maximum delta is    0.000033872011041
 Root      8 not converged, maximum delta is    0.000039858399848
 Root      9 not converged, maximum delta is    0.000133596571596
 Root     10 not converged, maximum delta is    0.000009795250826
 Root     11 not converged, maximum delta is    0.000016589496227
 Root     12 not converged, maximum delta is    0.000014677854887
 Root     13 not converged, maximum delta is    0.000018762415994
 Root     14 not converged, maximum delta is    0.000009690190234
 Root     15 not converged, maximum delta is    0.000018454692221
 Excitation Energies [eV] at current iteration:
 Root      1 :     4.456633235458413   Change is   -0.000001955843826
 Root      2 :     5.158185840033450   Change is   -0.000000001102552
 Root      3 :     5.181326782052998   Change is   -0.000000013527574
 Root      4 :     5.975671078968140   Change is   -0.000000009828424
 Root      5 :     6.132305479726734   Change is   -0.000000016579738
 Root      6 :     6.268360680254911   Change is   -0.000000020358897
 Root      7 :     6.364021398546629   Change is   -0.000000569953116
 Root      8 :     6.430239554304549   Change is   -0.000000706210676
 Root      9 :     6.695455748351210   Change is   -0.000002930720827
 Root     10 :     7.124492189656619   Change is   -0.000000019657798
 Root     11 :     7.211947856912091   Change is   -0.000000070354339
 Root     12 :     7.440764361107425   Change is   -0.000000064989045
 Root     13 :     7.515227039329602   Change is   -0.000000064922092
 Root     14 :     7.543055541424922   Change is   -0.000000021314782
 Root     15 :     7.668737897881211   Change is   -0.000000060443174
 Convergence achieved on expansion vectors.
 ***********************************************************************
 Excited states from <AA,BB:AA,BB> singles matrix:
 ***********************************************************************
 
 1PDM for each excited state written to RWF  633
 Ground to excited state transition densities written to RWF  633
 Ground to excited state transition electric dipole moments (Au):
       state          X           Y           Z        Dip. S.      Osc.
         1        -0.8819      0.2994      0.0452      0.8694      0.0949
         2         0.0447      0.0056      0.0184      0.0024      0.0003
         3         0.0925      0.2765      0.0031      0.0850      0.0108
         4        -0.0034     -0.0214     -0.1129      0.0132      0.0019
         5        -0.0222     -0.0473      0.0907      0.0110      0.0016
         6         0.0432      0.1400      0.0443      0.0234      0.0036
         7         0.3322      1.0211     -0.0069      1.1531      0.1798
         8         0.3418      1.0910      0.0425      1.3089      0.2062
         9         0.8162     -0.2479      0.0405      0.7293      0.1196
        10         0.0141     -0.0251      0.0854      0.0081      0.0014
        11        -0.0743     -0.0217      0.0806      0.0125      0.0022
        12        -0.0306     -0.0027     -0.0916      0.0093      0.0017
        13         0.0111     -0.0093     -0.1644      0.0272      0.0050
        14         0.0143     -0.0195      0.0161      0.0008      0.0002
        15        -0.0072     -0.0162     -0.0182      0.0006      0.0001
 Ground to excited state transition velocity dipole moments (Au):
       state          X           Y           Z        Dip. S.      Osc.
         1         0.0486     -0.0114     -0.0111      0.0026      0.0106
         2        -0.0024     -0.0007     -0.0086      0.0001      0.0003
         3         0.0011     -0.0193      0.0080      0.0004      0.0015
         4         0.0041      0.0064      0.0273      0.0008      0.0024
         5         0.0067      0.0121     -0.0849      0.0074      0.0219
         6        -0.0111     -0.0270     -0.0514      0.0035      0.0101
         7        -0.0766     -0.2125      0.1191      0.0652      0.1859
         8        -0.0778     -0.2314     -0.1151      0.0728      0.2055
         9        -0.1539      0.0454     -0.0153      0.0260      0.0704
        10        -0.0013      0.0031     -0.0735      0.0054      0.0138
        11         0.0121      0.0054      0.0182      0.0005      0.0013
        12         0.0038      0.0016      0.0049      0.0000      0.0001
        13        -0.0059      0.0028      0.0642      0.0042      0.0100
        14        -0.0009      0.0031      0.0530      0.0028      0.0068
        15         0.0033      0.0097      0.0238      0.0007      0.0016
 Ground to excited state transition magnetic dipole moments (Au):
       state          X           Y           Z
         1        -0.0082      0.0423     -0.6782
         2         0.1923      0.6232      0.0050
         3        -0.0146     -0.0530      0.0087
         4        -0.2533      0.0437      0.0049
         5         0.1846     -0.0593      0.0132
         6         0.1498      0.0385     -0.0046
         7         0.1440      0.1401     -0.0335
         8        -0.1219     -0.1498     -0.0115
         9         0.0054     -0.0279      0.0665
        10         0.2799      0.6627     -0.0152
        11         1.0162     -1.0483     -0.0253
        12        -1.3037      0.0541     -0.0085
        13         0.5714     -0.0856     -0.0069
        14         0.2342     -0.1185      0.0160
        15         0.1667     -0.0084      0.0011
 Ground to excited state transition velocity quadrupole moments (Au):
       state          XX          YY          ZZ          XY          XZ          YZ
         1        -0.3160      0.3081      0.0051     -0.3169     -0.0011      0.0008
         2         0.0233     -0.0281      0.0053      0.0151      0.1372     -0.0516
         3         0.1063     -0.1611      0.0753     -0.0496     -0.0110     -0.0016
         4        -0.0159      0.0022     -0.0011      0.0038     -0.1636     -0.1498
         5         0.0082     -0.0171      0.0200      0.0169     -0.0153      0.2658
         6         0.0263     -0.0205      0.0009     -0.0273      0.0403      0.0793
         7         0.2175     -0.1068     -0.0302     -0.1987     -0.0936     -0.0300
         8         0.2894     -0.1458     -0.0479     -0.1719      0.0448      0.0445
         9        -0.3614      0.3674      0.0027     -0.4218      0.0117     -0.0109
        10        -0.0269      0.0101      0.0046     -0.0271     -0.2402     -0.0615
        11        -0.0272     -0.0021      0.0054      0.0033     -0.0504     -0.0016
        12        -0.0018      0.0066      0.0014     -0.0037     -0.0989      0.0616
        13         0.0070      0.0063     -0.0172     -0.0088     -0.0835      0.2144
        14         0.0218      0.0008      0.0068      0.0031      0.2095      0.2396
        15        -0.0055      0.0016     -0.0153     -0.0005     -0.1030      0.3222
 <0|del|b> * <b|rxdel|0> + <0|del|b> * <b|delr+rdel|0>
 Rotatory Strengths (R) in cgs (10**-40 erg-esu-cm/Gauss)
       state          XX          YY          ZZ    R(velocity)    E-M Angle
         1        22.7833      7.8880     -1.9525      9.5730       78.97
         2        -0.9909     -0.4761     -2.1511     -1.2060       99.59
         3         0.9009      0.8336      2.2701      1.3349       22.39
         4         2.5225     -2.6396     -1.9266     -0.6812       95.00
         5        -4.8454      5.2393     -2.2756     -0.6272       92.06
         6         2.5862     -5.6989     -4.4683     -2.5270      105.67
         7      -116.8720     16.5471    -35.0870    -45.1373      149.45
         8        98.9437    -18.6011     55.7060     45.3495       29.47
         9         5.2198     -9.4953     -4.6616     -2.9790      105.49
        10         7.9701     -1.5642      1.1654      2.5238       86.96
        11        -7.7874     15.7471      8.5045      5.4880       79.19
        12         0.2398     -6.0861     -6.7496     -4.1986      125.89
        13        -1.2972     -5.7577     -3.2840     -3.4463       96.22
        14        -0.0184      0.3314      0.3701      0.2277       88.90
        15         1.1691      2.0683     -1.9996      0.4126       83.44
 1/2[<0|r|b>*<b|rxdel|0> + (<0|rxdel|b>*<b|r|0>)*]
 Rotatory Strengths (R) in cgs (10**-40 erg-esu-cm/Gauss)
       state          XX          YY          ZZ     R(length)
         1        -5.0840     -8.9660     21.6802      2.5434
         2        -6.0772     -2.4546     -0.0659     -2.8659
         3         0.9534     10.3637     -0.0189      3.7661
         4        -0.6054      0.6613      0.3915      0.1491
         5         2.9035     -1.9867     -0.8494      0.0225
         6        -4.5736     -3.8150      0.1443     -2.7481
         7       -33.8211   -101.1592     -0.1633    -45.0479
         8        29.4743    115.5514      0.3453     48.4570
         9        -3.1102     -4.8847     -1.9028     -3.2992
        10        -2.7822     11.7492      0.9165      3.2945
        11        53.3611    -16.0824      1.4408     12.9065
        12       -28.2261      0.1041     -0.5517     -9.5579
        13        -4.5002     -0.5640     -0.8041     -1.9561
        14        -2.3755     -1.6369     -0.1820     -1.3982
        15         0.8475     -0.0960      0.0136      0.2550
  1/2[<0|del|b>*<b|r|0> + (<0|r|b>*<b|del|0>)*] (Au)
       state          X           Y           Z        Dip. S.   Osc.(frdel)
         1        -0.0429     -0.0034     -0.0005      0.0468      0.0312
         2        -0.0001      0.0000     -0.0002      0.0003      0.0002
         3         0.0001     -0.0053      0.0000      0.0052      0.0035
         4         0.0000     -0.0001     -0.0031      0.0032      0.0022
         5        -0.0001     -0.0006     -0.0077      0.0084      0.0056
         6        -0.0005     -0.0038     -0.0023      0.0065      0.0044
         7        -0.0255     -0.2170     -0.0008      0.2433      0.1622
         8        -0.0266     -0.2525     -0.0049      0.2839      0.1893
         9        -0.1256     -0.0113     -0.0006      0.1375      0.0916
        10         0.0000     -0.0001     -0.0063      0.0064      0.0042
        11        -0.0009     -0.0001      0.0015     -0.0004     -0.0003
        12        -0.0001      0.0000     -0.0004      0.0006      0.0004
        13        -0.0001      0.0000     -0.0105      0.0106      0.0071
        14         0.0000     -0.0001      0.0009     -0.0008     -0.0005
        15         0.0000     -0.0002     -0.0004      0.0006      0.0004

 Excitation energies and oscillator strengths:
 
 Excited State   1:      Singlet-A      4.4566 eV  278.20 nm  f=0.0949  <S**2>=0.000
      12 -> 15         0.17557
      13 -> 14         0.67712
 This state for optimization and/or second-order correction.
 Total Energy, E(CIS) =  0.190574708511    
 Copying the excited state density for this state as the 1-particle RhoCI density.
 
 Excited State   2:      Singlet-A      5.1582 eV  240.36 nm  f=0.0003  <S**2>=0.000
      13 -> 16         0.66267
      13 -> 17        -0.17141
      13 -> 21         0.11946
 
 Excited State   3:      Singlet-A      5.1813 eV  239.29 nm  f=0.0108  <S**2>=0.000
      12 -> 14        -0.40158
      13 -> 15         0.57565
 
 Excited State   4:      Singlet-A      5.9757 eV  207.48 nm  f=0.0019  <S**2>=0.000
      12 -> 17        -0.11169
      12 -> 18         0.11811
      12 -> 22        -0.13493
      13 -> 17         0.38867
      13 -> 18        -0.35614
      13 -> 22         0.29679
      13 -> 23        -0.16995
 
 Excited State   5:      Singlet-A      6.1323 eV  202.18 nm  f=0.0016  <S**2>=0.000
      12 -> 16         0.12522
      12 -> 19         0.15530
      12 -> 22         0.14257
      12 -> 23         0.10555
      13 -> 17         0.10422
      13 -> 18         0.15494
      13 -> 19         0.49049
      13 -> 20        -0.12793
      13 -> 22         0.24815
      13 -> 23         0.18914
 
 Excited State   6:      Singlet-A      6.2684 eV  197.79 nm  f=0.0036  <S**2>=0.000
       7 -> 16        -0.18482
      12 -> 16         0.60654
      12 -> 17        -0.17633
      12 -> 21         0.12738
 
 Excited State   7:      Singlet-A      6.3640 eV  194.82 nm  f=0.1798  <S**2>=0.000
      12 -> 14         0.37907
      13 -> 15         0.26816
      13 -> 17        -0.31283
      13 -> 18        -0.31270
      13 -> 22         0.11629
 
 Excited State   8:      Singlet-A      6.4302 eV  192.81 nm  f=0.2062  <S**2>=0.000
      12 -> 14         0.38648
      13 -> 15         0.27524
      13 -> 17         0.32684
      13 -> 18         0.30931
 
 Excited State   9:      Singlet-A      6.6955 eV  185.18 nm  f=0.1196  <S**2>=0.000
      12 -> 15         0.67538
      13 -> 14        -0.16207
 
 Excited State  10:      Singlet-A      7.1245 eV  174.03 nm  f=0.0014  <S**2>=0.000
      12 -> 17         0.18405
      12 -> 18         0.38642
      13 -> 16        -0.11136
      13 -> 17        -0.11857
      13 -> 18         0.27234
      13 -> 19        -0.22483
      13 -> 20        -0.12078
      13 -> 21         0.17072
      13 -> 22         0.27011
 
 Excited State  11:      Singlet-A      7.2119 eV  171.91 nm  f=0.0022  <S**2>=0.000
       9 -> 14        -0.25051
      10 -> 14        -0.16366
      11 -> 14         0.51693
      11 -> 15        -0.29904
      13 -> 21        -0.10517
 
 Excited State  12:      Singlet-A      7.4408 eV  166.63 nm  f=0.0017  <S**2>=0.000
       9 -> 14         0.47266
       9 -> 15         0.20333
      10 -> 14        -0.18671
      10 -> 15        -0.20161
      11 -> 14         0.21857
      12 -> 18         0.18307
      13 -> 20         0.16155
 
 Excited State  13:      Singlet-A      7.5152 eV  164.98 nm  f=0.0050  <S**2>=0.000
       9 -> 14        -0.17122
      11 -> 14        -0.12289
      12 -> 17         0.12984
      12 -> 18         0.31693
      12 -> 20        -0.26512
      12 -> 23        -0.16302
      13 -> 17         0.13233
      13 -> 20         0.26099
      13 -> 21        -0.13592
      13 -> 22        -0.18955
      13 -> 23         0.22481
 
 Excited State  14:      Singlet-A      7.5431 eV  164.37 nm  f=0.0002  <S**2>=0.000
       9 -> 14         0.13992
      11 -> 15         0.10172
      12 -> 19         0.40987
      12 -> 21         0.15349
      12 -> 23         0.11282
      13 -> 19        -0.29529
      13 -> 21        -0.26900
      13 -> 24         0.22959
 
 Excited State  15:      Singlet-A      7.6687 eV  161.67 nm  f=0.0001  <S**2>=0.000
       9 -> 14         0.14034
      10 -> 15        -0.16049
      12 -> 17         0.34581
      12 -> 18        -0.18427
      12 -> 19        -0.14805
      12 -> 20        -0.21809
      12 -> 22         0.14572
      12 -> 23        -0.13718
      13 -> 17         0.15711
      13 -> 18        -0.12791
      13 -> 20        -0.24550
      13 -> 21         0.15291
      13 -> 24         0.14741
 SavETr:  write IOETrn=   770 NScale= 10 NData=  16 NLR=1 NState=   15 LETran=     280.
 The selected state is a singlet
 CISAX will form     1 AO SS matrices at one time.
 NMat=     1 NSing=     1 JSym2X= 0.
 Leave Link  914 at Tue Dec 15 16:20:31 2015, MaxMem=    33554432 cpu:         0.1
 (Enter /home/Applications/g09/g09/l1002.exe)
 Minotr:  Closed shell wavefunction.
          Computing CIS/TD-HF/TD-KS derivatives.
          Using Z-Vector for PSCF gradient.
          Skipping F1 and S1 gradient terms here.
          IDoAtm=111111111
          Direct CPHF calculation.
          Differentiating once with respect to electric field.
                with respect to dipole field.
          Differentiating once with respect to nuclear coordinates.
          Electric field/nuclear overlap derivatives assumed to be zero.
          Requested convergence is 1.0D-10 RMS, and 1.0D-09 maximum.
          NewPWx=T KeepS1=F KeepF1=F KeepIn=T MapXYZ=F SortEE=F KeepMc=T.
          MDV=      33495423 using IRadAn=       0.
 Keep J ints in memory in canonical form, NReq=871704.
 FoFCou: FMM=F IPFlag=           0 FMFlag=           0 FMFlg1=           0
         NFxFlg=           0 DoJE=F BraDBF=F KetDBF=F FulRan=T
         wScrn=  0.000000 ICntrl=     600 IOpCl=  2 I1Cent=           0 NGrid=           0
         NMat0=    1 NMatS0=     54 NMatT0=    0 NMatD0=    1 NMtDS0=    0 NMtDT0=    0
 Symmetry not used in FoFCou.
          Solving linear equations separately, MaxMat=       0.
          There are     1 degrees of freedom in the 1st order CPHF.  IDoFFX=0 NUNeed=     1.
 LinEq1:  Iter=  0 NonCon=     1 RMS=1.21D-02 Max=9.13D-02 NDo=     1
 AX will form     1 AO Fock derivatives at one time.
 LinEq1:  Iter=  1 NonCon=     1 RMS=2.50D-03 Max=1.98D-02 NDo=     1
 LinEq1:  Iter=  2 NonCon=     1 RMS=4.02D-04 Max=2.74D-03 NDo=     1
 LinEq1:  Iter=  3 NonCon=     1 RMS=4.85D-05 Max=2.58D-04 NDo=     1
 LinEq1:  Iter=  4 NonCon=     1 RMS=4.72D-06 Max=1.71D-05 NDo=     1
 LinEq1:  Iter=  5 NonCon=     1 RMS=6.91D-07 Max=5.38D-06 NDo=     1
 LinEq1:  Iter=  6 NonCon=     1 RMS=1.01D-07 Max=5.00D-07 NDo=     1
 LinEq1:  Iter=  7 NonCon=     1 RMS=1.64D-08 Max=1.10D-07 NDo=     1
 LinEq1:  Iter=  8 NonCon=     1 RMS=1.91D-09 Max=5.47D-09 NDo=     1
 LinEq1:  Iter=  9 NonCon=     1 RMS=2.28D-10 Max=9.69D-10 NDo=     1
 LinEq1:  Iter= 10 NonCon=     0 RMS=2.26D-11 Max=8.72D-11 NDo=     1
 Linear equations converged to 1.000D-10 1.000D-09 after    10 iterations.
 End of Minotr F.D. properties file   721 does not exist.
 End of Minotr F.D. properties file   722 does not exist.
 End of Minotr F.D. properties file   788 does not exist.
 Leave Link 1002 at Tue Dec 15 16:20:31 2015, MaxMem=    33554432 cpu:         0.0
 (Enter /home/Applications/g09/g09/l601.exe)
 Copying SCF densities to generalized density rwf, IOpCl= 0 IROHF=0.

 **********************************************************************

            Population analysis using the SCF density.

 **********************************************************************

 Orbital symmetries:
       Occupied  (A) (A) (A) (A) (A) (A) (A) (A) (A) (A) (A) (A)
                 (A)
       Virtual   (A) (A) (A) (A) (A) (A) (A) (A) (A) (A) (A)
 The electronic state is 1-A.
 Alpha  occ. eigenvalues --   -1.57642  -1.25322  -1.09539  -0.82278  -0.81307
 Alpha  occ. eigenvalues --   -0.68386  -0.60301  -0.55045  -0.51373  -0.50794
 Alpha  occ. eigenvalues --   -0.49700  -0.40319  -0.34761
 Alpha virt. eigenvalues --    0.03105   0.06896   0.10086   0.13003   0.14811
 Alpha virt. eigenvalues --    0.15172   0.17907   0.18539   0.18827   0.20820
 Alpha virt. eigenvalues --    0.22232
     Molecular Orbital Coefficients:
                           1         2         3         4         5
                           O         O         O         O         O
     Eigenvalues --    -1.57642  -1.25322  -1.09539  -0.82278  -0.81307
   1 1   C  1S          0.30168  -0.45206  -0.32408   0.29535  -0.26918
   2        1PX         0.02387  -0.07653   0.18966  -0.20881  -0.27936
   3        1PY        -0.13430   0.06134   0.05171   0.07367  -0.20275
   4        1PZ         0.00220  -0.00344  -0.00168  -0.00007  -0.00052
   5 2   C  1S          0.37411  -0.08360  -0.50084  -0.08275   0.41532
   6        1PX         0.16978  -0.04027  -0.00792   0.05503  -0.09755
   7        1PY        -0.07763  -0.24723  -0.04771   0.37049  -0.00690
   8        1PZ        -0.00104  -0.00058   0.00022  -0.00195   0.00475
   9 3   O  1S          0.61243   0.61484   0.01375  -0.01759  -0.31439
  10        1PX         0.07114  -0.01880   0.28731   0.48361  -0.00279
  11        1PY         0.18903  -0.00259  -0.12119  -0.17948   0.22927
  12        1PZ         0.00162   0.00016  -0.00020  -0.00317   0.00643
  13 4   C  1S          0.36900  -0.12391   0.52090   0.17193   0.35645
  14        1PX        -0.16597  -0.13328   0.03168  -0.18962   0.13606
  15        1PY         0.06488  -0.19798   0.01900  -0.32109  -0.01413
  16        1PZ         0.00155  -0.00206   0.00394  -0.00170   0.00696
  17 5   C  1S          0.30433  -0.46374   0.27987  -0.36149  -0.22508
  18        1PX        -0.10996   0.09479   0.11273  -0.16811   0.08973
  19        1PY        -0.08088  -0.00142  -0.18534   0.00741  -0.34485
  20        1PZ        -0.00364   0.00531  -0.00261   0.00364   0.00527
  21 6   H  1S          0.06434  -0.14293   0.11024  -0.22967  -0.15167
  22 7   H  1S          0.08287  -0.02814   0.21461   0.14159   0.22131
  23 8   H  1S          0.07118  -0.00600  -0.17430  -0.08650   0.22406
  24 9   H  1S          0.06668  -0.14229  -0.13791   0.20565  -0.17087
                           6         7         8         9        10
                           O         O         O         O         O
     Eigenvalues --    -0.68386  -0.60301  -0.55045  -0.51373  -0.50794
   1 1   C  1S         -0.08779  -0.00157  -0.17644  -0.03937  -0.02011
   2        1PX         0.13732   0.01426  -0.04292   0.10679  -0.36495
   3        1PY        -0.27477   0.00070  -0.21920   0.19290   0.42290
   4        1PZ        -0.00153   0.24337   0.00383  -0.00234  -0.00823
   5 2   C  1S         -0.10603  -0.00471   0.17381   0.08270  -0.07303
   6        1PX         0.35411  -0.00069  -0.32176   0.02805  -0.01619
   7        1PY        -0.05181  -0.00459   0.26998  -0.25068  -0.02044
   8        1PZ        -0.00995   0.39605   0.01072   0.00357   0.00158
   9 3   O  1S         -0.17939  -0.00193   0.02297  -0.20095   0.00712
  10        1PX         0.21462   0.00757   0.39310   0.23859   0.09832
  11        1PY         0.40736  -0.00343  -0.23247   0.50616   0.20319
  12        1PZ        -0.00910   0.76254  -0.00727   0.00653   0.01502
  13 4   C  1S         -0.10640  -0.00851  -0.12881   0.01524   0.02717
  14        1PX        -0.34630  -0.01217  -0.34743  -0.15639  -0.16611
  15        1PY         0.20695  -0.00137   0.06442  -0.37420   0.37251
  16        1PZ        -0.00759   0.37824  -0.01113  -0.00616   0.00493
  17 5   C  1S         -0.06571   0.00604   0.17230  -0.00939  -0.01698
  18        1PX        -0.27923  -0.01975   0.16802   0.20309   0.32411
  19        1PY        -0.10252   0.00216   0.10242   0.43176  -0.30593
  20        1PZ        -0.00273   0.24116  -0.00523  -0.00607   0.00092
  21 6   H  1S         -0.21110  -0.01230   0.24551   0.31042   0.08426
  22 7   H  1S         -0.29088  -0.00290  -0.28532   0.15972  -0.30332
  23 8   H  1S         -0.25205   0.00861   0.30211   0.05685  -0.03758
  24 9   H  1S         -0.23370  -0.00346  -0.24516   0.09031   0.40459
                          11        12        13        14        15
                           O         O         O         V         V
     Eigenvalues --    -0.49700  -0.40319  -0.34761   0.03105   0.06896
   1 1   C  1S         -0.01571  -0.00847   0.00145   0.00869  -0.00873
   2        1PX        -0.35954  -0.01180   0.00663   0.00738  -0.00343
   3        1PY        -0.28876   0.00772  -0.00086  -0.00395   0.00413
   4        1PZ        -0.00188   0.55683  -0.41991  -0.31681   0.59404
   5 2   C  1S          0.02583   0.00003   0.00462  -0.01200   0.00857
   6        1PX         0.45945   0.00704  -0.02115   0.01905  -0.02118
   7        1PY         0.27292   0.00212  -0.00360   0.00510   0.00080
   8        1PZ        -0.00770   0.12103  -0.59088   0.57294  -0.38613
   9 3   O  1S          0.07945   0.00066  -0.00246   0.00416  -0.00153
  10        1PX        -0.05861   0.00093   0.00658   0.00401  -0.00470
  11        1PY        -0.02746   0.00987  -0.00022   0.00677  -0.00141
  12        1PZ         0.02593  -0.52831   0.03625  -0.36971   0.01119
  13 4   C  1S         -0.10114  -0.00527  -0.00973  -0.01713  -0.00021
  14        1PX         0.16173  -0.00180  -0.01454  -0.00011  -0.01293
  15        1PY        -0.08218  -0.00372  -0.00584   0.00394   0.00632
  16        1PZ         0.01487   0.20054   0.59455   0.56441   0.37849
  17 5   C  1S          0.00035   0.01476   0.01236  -0.01132  -0.01444
  18        1PX         0.40958   0.00517  -0.00289   0.00462  -0.01583
  19        1PY         0.06948   0.00216   0.00123  -0.01312  -0.00228
  20        1PZ         0.00606   0.59598   0.34439  -0.33779  -0.59368
  21 6   H  1S          0.31521  -0.00078  -0.00350   0.00907   0.02000
  22 7   H  1S          0.06553   0.00237   0.00326   0.01357   0.00783
  23 8   H  1S         -0.38773  -0.00371   0.00372   0.01918  -0.01983
  24 9   H  1S         -0.14021   0.00548  -0.00296  -0.00201   0.00379
                          16        17        18        19        20
                           V         V         V         V         V
     Eigenvalues --     0.10086   0.13003   0.14811   0.15172   0.17907
   1 1   C  1S          0.08861   0.19811  -0.03155  -0.26602  -0.18768
   2        1PX         0.02262   0.01370   0.40935  -0.03642  -0.36817
   3        1PY        -0.00074  -0.21782   0.12218  -0.23965   0.00543
   4        1PZ         0.01815   0.01793   0.01279   0.00140  -0.00106
   5 2   C  1S         -0.31975  -0.29692   0.30804   0.04698  -0.13212
   6        1PX         0.04422   0.38518   0.25488   0.16051   0.18596
   7        1PY         0.31830  -0.26004  -0.03145  -0.17834   0.03333
   8        1PZ        -0.02708  -0.02518  -0.01052  -0.00673  -0.00296
   9 3   O  1S          0.21301  -0.09499  -0.00910  -0.04769  -0.04675
  10        1PX         0.21966  -0.09578   0.27868   0.15257  -0.20538
  11        1PY         0.40754  -0.17647  -0.14493  -0.14171  -0.03671
  12        1PZ         0.01135   0.00296  -0.00215   0.00259  -0.00231
  13 4   C  1S         -0.26761   0.15361   0.01789  -0.43446   0.21666
  14        1PX         0.36448  -0.05716   0.33640  -0.14421  -0.15884
  15        1PY         0.18498  -0.15173  -0.14176  -0.12941  -0.00574
  16        1PZ        -0.00696   0.00283   0.01472  -0.01587   0.01380
  17 5   C  1S          0.02769  -0.21778   0.05538   0.30765   0.32655
  18        1PX         0.08116   0.06695   0.39291  -0.03223   0.06301
  19        1PY        -0.00655  -0.15812  -0.03769  -0.27304   0.49838
  20        1PZ        -0.00500   0.00537  -0.01558  -0.00963  -0.02486
  21 6   H  1S         -0.13795   0.24835  -0.37582  -0.09666  -0.49747
  22 7   H  1S          0.21848  -0.24283  -0.34556   0.36521  -0.07981
  23 8   H  1S          0.44658   0.55524  -0.01182   0.07934   0.20778
  24 9   H  1S         -0.11344   0.05384   0.05426   0.46810   0.03599
                          21        22        23        24
                           V         V         V         V
     Eigenvalues --     0.18539   0.18827   0.20820   0.22232
   1 1   C  1S         -0.19290   0.40740  -0.17552  -0.10284
   2        1PX        -0.08077  -0.23558  -0.25742   0.32789
   3        1PY        -0.39526  -0.11486   0.46097   0.06448
   4        1PZ        -0.00742   0.00940  -0.00754   0.00148
   5 2   C  1S         -0.11749  -0.19199   0.10176  -0.04840
   6        1PX        -0.26324  -0.33414   0.24077  -0.00555
   7        1PY         0.08277  -0.28111   0.06434   0.53575
   8        1PZ         0.00941   0.00680  -0.00441  -0.00179
   9 3   O  1S          0.09427  -0.00414   0.00223   0.01542
  10        1PX         0.04403   0.00594   0.06548  -0.44788
  11        1PY         0.22519   0.11859  -0.00827   0.20471
  12        1PZ        -0.00185  -0.00076   0.00023   0.00357
  13 4   C  1S          0.13959  -0.13276  -0.10458   0.04057
  14        1PX         0.37713  -0.03730   0.17542  -0.33191
  15        1PY        -0.22326  -0.37930  -0.33254  -0.34914
  16        1PZ         0.01081  -0.00074  -0.00132  -0.00568
  17 5   C  1S          0.03841   0.26039   0.26721   0.06571
  18        1PX        -0.22912   0.24571  -0.44966   0.15312
  19        1PY         0.07621  -0.26092  -0.19942  -0.26656
  20        1PZ        -0.00156  -0.01446  -0.00843  -0.00148
  21 6   H  1S          0.09752  -0.24275   0.17627  -0.03083
  22 7   H  1S         -0.41792  -0.10590  -0.18899  -0.04137
  23 8   H  1S         -0.09415  -0.13246   0.09925   0.05085
  24 9   H  1S          0.42886  -0.27662  -0.26674   0.08824
     Density Matrix:
                           1         2         3         4         5
   1 1   C  1S          1.20240
   2        1PX        -0.00351   0.91798
   3        1PY         0.08501  -0.03032   0.98811
   4        1PZ        -0.00616  -0.00534   0.00105   1.09146
   5 2   C  1S          0.30638  -0.34853  -0.40587  -0.00028   1.26294
   6        1PX         0.26420  -0.14538  -0.32530   0.02127  -0.10483
   7        1PY         0.35595  -0.40734  -0.31849   0.00733   0.04445
   8        1PZ        -0.01110   0.00039   0.00938   0.82389  -0.00002
   9 3   O  1S         -0.00001  -0.03324   0.00837   0.00186   0.09927
  10        1PX        -0.03644  -0.03834  -0.00052  -0.00155  -0.20057
  11        1PY        -0.07131   0.02134   0.07816   0.00191   0.36887
  12        1PZ         0.00453   0.00231  -0.00223  -0.24804   0.00000
  13 4   C  1S         -0.02818   0.00095   0.02248  -0.00231   0.01376
  14        1PX         0.01192  -0.06657  -0.00323   0.00550  -0.02985
  15        1PY        -0.01819  -0.05885  -0.00519  -0.00247  -0.03806
  16        1PZ        -0.00228  -0.00410   0.00153  -0.09204   0.00233
  17 5   C  1S          0.28105   0.44568  -0.12908   0.01471  -0.02740
  18        1PX        -0.42492  -0.53647   0.18745  -0.00870   0.01650
  19        1PY         0.22059   0.34426   0.02249   0.00691   0.01472
  20        1PZ        -0.01326  -0.01569   0.00743   0.49179   0.00165
  21 6   H  1S         -0.04469  -0.05388   0.02159  -0.00432   0.05914
  22 7   H  1S          0.05014   0.05979  -0.02020   0.00078   0.04879
  23 8   H  1S         -0.06347   0.07275   0.07860   0.00255   0.58258
  24 9   H  1S          0.58020  -0.23637   0.74397   0.00107  -0.05121
                           6         7         8         9        10
   6        1PX         0.96923
   7        1PY         0.06357   0.84018
   8        1PZ         0.00383   0.00080   1.04192
   9 3   O  1S          0.13741  -0.23424  -0.00195   1.86379
  10        1PX        -0.07001   0.36349   0.00361  -0.10613   1.18512
  11        1PY         0.43667  -0.59738  -0.00603  -0.27454   0.05924
  12        1PZ         0.01085  -0.00496   0.43308  -0.00094   0.00145
  13 4   C  1S         -0.00867  -0.04561   0.00692   0.09427   0.39804
  14        1PX         0.03060  -0.03176   0.00496  -0.25061  -0.73298
  15        1PY         0.00182  -0.01081   0.00317  -0.07191  -0.23919
  16        1PZ        -0.00882  -0.00207  -0.35474  -0.00185  -0.00092
  17 5   C  1S         -0.01701  -0.00406  -0.00208  -0.00054  -0.02715
  18        1PX        -0.01117   0.06202  -0.00399   0.03054   0.00702
  19        1PY         0.00312  -0.05894   0.00285  -0.01470   0.06544
  20        1PZ        -0.00213   0.00241  -0.07186   0.00088   0.00186
  21 6   H  1S          0.03292   0.04963   0.00084   0.02313   0.08651
  22 7   H  1S          0.05591  -0.07339  -0.00522  -0.03818  -0.06841
  23 8   H  1S         -0.75084  -0.10813   0.02153  -0.04356   0.01997
  24 9   H  1S         -0.05215  -0.01853   0.00310   0.02291  -0.01860
                          11        12        13        14        15
  11        1PY         1.30708
  12        1PZ        -0.00367   1.72604
  13 4   C  1S          0.12082  -0.00409   1.23756
  14        1PX        -0.29453  -0.00264   0.09254   0.83995
  15        1PY         0.04540   0.00074  -0.03875  -0.07080   0.95926
  16        1PZ        -0.00151   0.40930  -0.00843  -0.00631  -0.00615
  17 5   C  1S         -0.07364  -0.00729   0.31415   0.05008   0.46130
  18        1PX         0.04154   0.00232  -0.02361   0.14501  -0.01381
  19        1PY         0.03138  -0.00313  -0.51788  -0.09237  -0.60373
  20        1PZ         0.00440  -0.23655  -0.01823  -0.00928  -0.01185
  21 6   H  1S          0.05636   0.00464  -0.05710   0.02244  -0.05610
  22 7   H  1S         -0.03932   0.00126   0.60868   0.47181  -0.58061
  23 8   H  1S         -0.07939   0.00075   0.05616  -0.10567  -0.01805
  24 9   H  1S          0.09447  -0.00067   0.05575   0.00693   0.06109
                          16        17        18        19        20
  16        1PZ         1.07463
  17 5   C  1S          0.02546   1.20424
  18        1PX        -0.00095   0.06930   0.98154
  19        1PY        -0.00956   0.04944   0.03693   0.93143
  20        1PZ         0.83142   0.01406  -0.00156  -0.00305   1.06431
  21 6   H  1S         -0.00933   0.57137   0.67341   0.40414  -0.01632
  22 7   H  1S          0.01505  -0.05796   0.00555   0.09040   0.00788
  23 8   H  1S         -0.00377   0.05025  -0.06379   0.02910  -0.00289
  24 9   H  1S          0.00040  -0.04566   0.05989  -0.02971   0.00303
                          21        22        23        24
  21 6   H  1S          0.84058
  22 7   H  1S          0.00597   0.82119
  23 8   H  1S         -0.01674  -0.02367   0.80611
  24 9   H  1S         -0.00954  -0.01660   0.00527   0.84295
    Full Mulliken population analysis:
                           1         2         3         4         5
   1 1   C  1S          1.20240
   2        1PX         0.00000   0.91798
   3        1PY         0.00000   0.00000   0.98811
   4        1PZ         0.00000   0.00000   0.00000   1.09146
   5 2   C  1S          0.00000   0.00000   0.00000   0.00000   1.26294
   6        1PX         0.00000   0.00000   0.00000   0.00000   0.00000
   7        1PY         0.00000   0.00000   0.00000   0.00000   0.00000
   8        1PZ         0.00000   0.00000   0.00000   0.00000   0.00000
   9 3   O  1S          0.00000   0.00000   0.00000   0.00000   0.00000
  10        1PX         0.00000   0.00000   0.00000   0.00000   0.00000
  11        1PY         0.00000   0.00000   0.00000   0.00000   0.00000
  12        1PZ         0.00000   0.00000   0.00000   0.00000   0.00000
  13 4   C  1S          0.00000   0.00000   0.00000   0.00000   0.00000
  14        1PX         0.00000   0.00000   0.00000   0.00000   0.00000
  15        1PY         0.00000   0.00000   0.00000   0.00000   0.00000
  16        1PZ         0.00000   0.00000   0.00000   0.00000   0.00000
  17 5   C  1S          0.00000   0.00000   0.00000   0.00000   0.00000
  18        1PX         0.00000   0.00000   0.00000   0.00000   0.00000
  19        1PY         0.00000   0.00000   0.00000   0.00000   0.00000
  20        1PZ         0.00000   0.00000   0.00000   0.00000   0.00000
  21 6   H  1S          0.00000   0.00000   0.00000   0.00000   0.00000
  22 7   H  1S          0.00000   0.00000   0.00000   0.00000   0.00000
  23 8   H  1S          0.00000   0.00000   0.00000   0.00000   0.00000
  24 9   H  1S          0.00000   0.00000   0.00000   0.00000   0.00000
                           6         7         8         9        10
   6        1PX         0.96923
   7        1PY         0.00000   0.84018
   8        1PZ         0.00000   0.00000   1.04192
   9 3   O  1S          0.00000   0.00000   0.00000   1.86379
  10        1PX         0.00000   0.00000   0.00000   0.00000   1.18512
  11        1PY         0.00000   0.00000   0.00000   0.00000   0.00000
  12        1PZ         0.00000   0.00000   0.00000   0.00000   0.00000
  13 4   C  1S          0.00000   0.00000   0.00000   0.00000   0.00000
  14        1PX         0.00000   0.00000   0.00000   0.00000   0.00000
  15        1PY         0.00000   0.00000   0.00000   0.00000   0.00000
  16        1PZ         0.00000   0.00000   0.00000   0.00000   0.00000
  17 5   C  1S          0.00000   0.00000   0.00000   0.00000   0.00000
  18        1PX         0.00000   0.00000   0.00000   0.00000   0.00000
  19        1PY         0.00000   0.00000   0.00000   0.00000   0.00000
  20        1PZ         0.00000   0.00000   0.00000   0.00000   0.00000
  21 6   H  1S          0.00000   0.00000   0.00000   0.00000   0.00000
  22 7   H  1S          0.00000   0.00000   0.00000   0.00000   0.00000
  23 8   H  1S          0.00000   0.00000   0.00000   0.00000   0.00000
  24 9   H  1S          0.00000   0.00000   0.00000   0.00000   0.00000
                          11        12        13        14        15
  11        1PY         1.30708
  12        1PZ         0.00000   1.72604
  13 4   C  1S          0.00000   0.00000   1.23756
  14        1PX         0.00000   0.00000   0.00000   0.83995
  15        1PY         0.00000   0.00000   0.00000   0.00000   0.95926
  16        1PZ         0.00000   0.00000   0.00000   0.00000   0.00000
  17 5   C  1S          0.00000   0.00000   0.00000   0.00000   0.00000
  18        1PX         0.00000   0.00000   0.00000   0.00000   0.00000
  19        1PY         0.00000   0.00000   0.00000   0.00000   0.00000
  20        1PZ         0.00000   0.00000   0.00000   0.00000   0.00000
  21 6   H  1S          0.00000   0.00000   0.00000   0.00000   0.00000
  22 7   H  1S          0.00000   0.00000   0.00000   0.00000   0.00000
  23 8   H  1S          0.00000   0.00000   0.00000   0.00000   0.00000
  24 9   H  1S          0.00000   0.00000   0.00000   0.00000   0.00000
                          16        17        18        19        20
  16        1PZ         1.07463
  17 5   C  1S          0.00000   1.20424
  18        1PX         0.00000   0.00000   0.98154
  19        1PY         0.00000   0.00000   0.00000   0.93143
  20        1PZ         0.00000   0.00000   0.00000   0.00000   1.06431
  21 6   H  1S          0.00000   0.00000   0.00000   0.00000   0.00000
  22 7   H  1S          0.00000   0.00000   0.00000   0.00000   0.00000
  23 8   H  1S          0.00000   0.00000   0.00000   0.00000   0.00000
  24 9   H  1S          0.00000   0.00000   0.00000   0.00000   0.00000
                          21        22        23        24
  21 6   H  1S          0.84058
  22 7   H  1S          0.00000   0.82119
  23 8   H  1S          0.00000   0.00000   0.80611
  24 9   H  1S          0.00000   0.00000   0.00000   0.84295
     Gross orbital populations:
                           1
   1 1   C  1S          1.20240
   2        1PX         0.91798
   3        1PY         0.98811
   4        1PZ         1.09146
   5 2   C  1S          1.26294
   6        1PX         0.96923
   7        1PY         0.84018
   8        1PZ         1.04192
   9 3   O  1S          1.86379
  10        1PX         1.18512
  11        1PY         1.30708
  12        1PZ         1.72604
  13 4   C  1S          1.23756
  14        1PX         0.83995
  15        1PY         0.95926
  16        1PZ         1.07463
  17 5   C  1S          1.20424
  18        1PX         0.98154
  19        1PY         0.93143
  20        1PZ         1.06431
  21 6   H  1S          0.84058
  22 7   H  1S          0.82119
  23 8   H  1S          0.80611
  24 9   H  1S          0.84295
          Condensed to atoms (all electrons):
               1          2          3          4          5          6
     1  C    4.199943   0.000000   0.000000   0.000000   0.000000   0.000000
     2  C    0.000000   4.114257   0.000000   0.000000   0.000000   0.000000
     3  O    0.000000   0.000000   6.082032   0.000000   0.000000   0.000000
     4  C    0.000000   0.000000   0.000000   4.111411   0.000000   0.000000
     5  C    0.000000   0.000000   0.000000   0.000000   4.181520   0.000000
     6  H    0.000000   0.000000   0.000000   0.000000   0.000000   0.840581
     7  H    0.000000   0.000000   0.000000   0.000000   0.000000   0.000000
     8  H    0.000000   0.000000   0.000000   0.000000   0.000000   0.000000
     9  H    0.000000   0.000000   0.000000   0.000000   0.000000   0.000000
               7          8          9
     1  C    0.000000   0.000000   0.000000
     2  C    0.000000   0.000000   0.000000
     3  O    0.000000   0.000000   0.000000
     4  C    0.000000   0.000000   0.000000
     5  C    0.000000   0.000000   0.000000
     6  H    0.000000   0.000000   0.000000
     7  H    0.821192   0.000000   0.000000
     8  H    0.000000   0.806114   0.000000
     9  H    0.000000   0.000000   0.842952
 Mulliken charges:
               1
     1  C   -0.199943
     2  C   -0.114257
     3  O   -0.082032
     4  C   -0.111411
     5  C   -0.181520
     6  H    0.159419
     7  H    0.178808
     8  H    0.193886
     9  H    0.157048
 Sum of Mulliken charges =   0.00000
 Mulliken charges with hydrogens summed into heavy atoms:
               1
     1  C   -0.042895
     2  C    0.079629
     3  O   -0.082032
     4  C    0.067397
     5  C   -0.022101
 Charge=              0.0000 electrons
 Dipole moment (field-independent basis, Debye):
    X=             -0.0242    Y=              0.3672    Z=              0.0538  Tot=              0.3719
 N-N= 1.037882330708D+02 E-N=-1.716096568060D+02  KE=-1.657785469259D+01
 Orbital energies and kinetic energies (alpha):
                                 1                 2
   1         O                -1.576422         -1.328835
   2         O                -1.253224         -1.057816
   3         O                -1.095388         -0.956740
   4         O                -0.822785         -0.701689
   5         O                -0.813066         -0.719176
   6         O                -0.683863         -0.604189
   7         O                -0.603015         -0.489495
   8         O                -0.550448         -0.494730
   9         O                -0.513735         -0.417440
  10         O                -0.507937         -0.433978
  11         O                -0.497004         -0.426061
  12         O                -0.403187         -0.346572
  13         O                -0.347607         -0.312206
  14         V                 0.031046         -0.193966
  15         V                 0.068962         -0.186416
  16         V                 0.100862         -0.204683
  17         V                 0.130032         -0.225522
  18         V                 0.148109         -0.166236
  19         V                 0.151717         -0.212707
  20         V                 0.179071         -0.173940
  21         V                 0.185389         -0.169545
  22         V                 0.188266         -0.142217
  23         V                 0.208201         -0.118886
  24         V                 0.222323         -0.048642
 Total kinetic energy from orbitals=-1.657785469259D+01
 Leave Link  601 at Tue Dec 15 16:20:31 2015, MaxMem=    33554432 cpu:         0.0
 (Enter /home/Applications/g09/g09/l701.exe)
 Compute integral first derivatives.
 ... and contract with generalized density number  6.
 Leave Link  701 at Tue Dec 15 16:20:31 2015, MaxMem=    33554432 cpu:         0.0
 (Enter /home/Applications/g09/g09/l702.exe)
 L702 exits ... SP integral derivatives will be done elsewhere.
 Leave Link  702 at Tue Dec 15 16:20:31 2015, MaxMem=    33554432 cpu:         0.0
 (Enter /home/Applications/g09/g09/l703.exe)
 Compute integral first derivatives, UseDBF=F ICtDFT=           0.
 Integral derivatives from FoFJK, PRISM(SPDF).
 Calling FoFJK, ICntrl=  10005127 FMM=F ISym2X=0 I1Cent= 0 IOpClX= 0 NMat=1 NMatS=1 NMatT=0.
 FoFJK:  IHMeth= 8 ICntrl=10005127 DoSepK=F KAlg= 0 I1Cent=   0 FoldK=F
 IRaf=         0 NMat=   1 IRICut=       1 DoRegI=T DoRafI=F ISym2E= 0.
 FoFCou: FMM=F IPFlag=           0 FMFlag=      100000 FMFlg1=         800
         NFxFlg=           0 DoJE=F BraDBF=F KetDBF=F FulRan=T
         wScrn=  0.000000 ICntrl=10005127 IOpCl=  0 I1Cent=           0 NGrid=           0
         NMat0=    1 NMatS0=      1 NMatT0=    0 NMatD0=    1 NMtDS0=    0 NMtDT0=    0
 Symmetry not used in FoFCou.
 Leave Link  703 at Tue Dec 15 16:20:31 2015, MaxMem=    33554432 cpu:         0.0
 (Enter /home/Applications/g09/g09/l716.exe)
 Dipole        =-1.68685269D-02 2.72877964D-01 4.52421283D-02
 ***** Axes restored to original set *****
 -------------------------------------------------------------------
 Center     Atomic                   Forces (Hartrees/Bohr)
 Number     Number              X              Y              Z
 -------------------------------------------------------------------
      1        6           0.099975029   -0.004513962   -0.003606458
      2        6          -0.114337551   -0.130509077   -0.000901623
      3        8          -0.075933391    0.008727173    0.002971464
      4        6          -0.083883876    0.060402673   -0.003968687
      5        6           0.136777861    0.009216561    0.006183158
      6        1           0.000300372   -0.003145293   -0.002970583
      7        1          -0.015060551    0.024811884    0.000218082
      8        1           0.028423232    0.039324551    0.001540609
      9        1           0.023738875   -0.004314510    0.000534037
 -------------------------------------------------------------------
 Cartesian Forces:  Max     0.136777861 RMS     0.054200683
 Z-matrix is all fixed cartesians, so copy forces.
 Force constants in Cartesian coordinates: 
                1             2             3             4             5 
      1  0.942459D+00
      2 -0.322365D-01  0.898279D+00
      3 -0.194198D-03 -0.141818D-01  0.238181D+00
      4 -0.532187D+00 -0.124287D+00  0.948485D-03  0.958589D+00
      5 -0.989880D-01 -0.225402D+00  0.975186D-03 -0.705585D-02  0.800115D+00
      6 -0.162320D-02  0.144753D-03 -0.109649D+00  0.251730D-02  0.561871D-02
      7 -0.888716D-02  0.282111D-01 -0.397856D-04 -0.315004D+00  0.180273D+00
      8 -0.742089D-02  0.235686D-01  0.922475D-05  0.225916D+00 -0.361048D+00
      9 -0.182232D-03 -0.764374D-04  0.870354D-02  0.351385D-05 -0.360243D-03
     10  0.101079D-01  0.260388D-03 -0.598781D-03  0.229867D-01  0.191975D-01
     11  0.363426D-01  0.933816D-03 -0.204949D-02 -0.171174D-01 -0.143050D-01
     12 -0.198927D-02 -0.175055D-04 -0.302259D-02  0.209203D-04 -0.145538D-03
     13 -0.179082D+00  0.223511D-01 -0.994939D-04  0.112611D-01 -0.357682D-01
     14 -0.459129D-02 -0.473160D+00  0.158434D-01  0.306430D-03 -0.973357D-03
     15 -0.133700D-03  0.135115D-01 -0.101026D+00 -0.159738D-03  0.337470D-03
     16  0.183594D-01  0.505295D-03 -0.175646D-04  0.328821D-05 -0.108585D-04
     17 -0.228626D-01 -0.661392D-03 -0.936650D-03 -0.177656D-05  0.586664D-05
     18  0.186628D-02  0.828034D-03  0.231484D-01 -0.556546D-04  0.183785D-03
     19  0.110663D-04  0.116918D-04  0.339408D-03 -0.111791D-05  0.000000D+00
     20  0.174840D-04  0.184722D-04  0.536239D-03  0.196653D-05  0.117826D-05
     21  0.268990D-03  0.284192D-03  0.824999D-02  0.597276D-04  0.357863D-04
     22  0.741815D-02 -0.235621D-01 -0.901894D-03 -0.139328D+00 -0.777181D-01
     23 -0.419665D-02  0.133284D-01 -0.537274D-03 -0.707733D-01 -0.220593D+00
     24  0.870394D-04 -0.238941D-03  0.295149D-01 -0.352601D-02 -0.606829D-02
     25 -0.258200D+00  0.128746D+00  0.563824D-03 -0.631924D-02  0.200709D-01
     26  0.133936D+00 -0.236905D+00  0.341168D-03 -0.698934D-02  0.221992D-01
     27  0.190029D-02 -0.253846D-03 -0.940995D-01  0.191457D-03 -0.576865D-03
                6             7             8             9            10 
      6  0.200204D+00
      7  0.103528D-02  0.562233D+00
      8 -0.146702D-02 -0.299787D-01  0.676827D+00
      9 -0.476640D-01 -0.527998D-02 -0.428846D-02  0.557574D-01
     10 -0.365464D-03 -0.270690D+00 -0.194141D+00  0.280403D-02  0.984262D+00
     11  0.779056D-04 -0.150229D+00 -0.343667D+00  0.347544D-02 -0.619549D-01
     12 -0.229702D-02  0.381841D-02  0.566403D-02 -0.469874D-01 -0.936980D-02
     13  0.190508D-02 -0.817620D-02  0.610255D-02  0.755844D-03 -0.561190D+00
     14  0.129184D-03 -0.292935D-01  0.218468D-01  0.144067D-02  0.115080D+00
     15 -0.868465D-03  0.335224D-03 -0.270548D-04  0.655458D-02  0.122196D-01
     16 -0.326360D-03  0.143913D-05  0.000000D+00  0.614662D-04 -0.520164D-02
     17  0.176326D-03 -0.881732D-05  0.000000D+00 -0.376592D-03  0.640549D-02
     18  0.552380D-02  0.169818D-03  0.112323D-04  0.725303D-02  0.121075D-02
     19 -0.791312D-04  0.217366D-01 -0.161685D-01  0.104038D-02 -0.180281D+00
     20  0.139201D-03  0.116455D-01 -0.865806D-02  0.783844D-03  0.115146D+00
     21  0.422783D-02 -0.427939D-04  0.131924D-03  0.526996D-02 -0.616867D-02
     22 -0.320640D-02  0.187859D-01  0.156900D-01  0.793293D-03 -0.140839D-05
     23 -0.495277D-02 -0.106197D-01 -0.886911D-02 -0.595382D-03 -0.138127D-05
     24 -0.740501D-01 -0.417534D-05 -0.173059D-04  0.414133D-02  0.613750D-04
     25  0.142895D-03  0.000000D+00  0.000000D+00  0.368110D-05  0.662938D-05
     26  0.133710D-03  0.000000D+00  0.000000D+00 -0.283240D-05  0.712718D-05
     27  0.245731D-01  0.800720D-05 -0.165726D-04  0.697152D-02  0.206995D-03
               11            12            13            14            15 
     11  0.887746D+00
     12 -0.143365D-01  0.211158D+00
     13  0.915578D-01  0.139481D-01  0.959372D+00
     14 -0.222792D+00 -0.174749D-02  0.355267D-02  0.862295D+00
     15 -0.239759D-02 -0.112953D+00 -0.583265D-02 -0.815995D-02  0.233609D+00
     16 -0.185385D-01 -0.969528D-03 -0.249966D+00 -0.112659D+00 -0.543772D-02
     17  0.229221D-01  0.620776D-04 -0.114240D+00 -0.202220D+00 -0.369764D-02
     18  0.206655D-02  0.275617D-01 -0.863692D-02 -0.640312D-02 -0.900059D-01
     19  0.119933D+00 -0.556250D-02  0.753071D-02  0.270435D-01 -0.107908D-02
     20 -0.330845D+00  0.104001D-01  0.404130D-02  0.143992D-01  0.800289D-03
     21  0.129082D-01 -0.841535D-01  0.140694D-03 -0.213618D-02  0.320925D-01
     22  0.000000D+00 -0.996931D-04 -0.105657D-05  0.348906D-05  0.104866D-03
     23  0.000000D+00 -0.977736D-04  0.326041D-05 -0.107667D-04 -0.323600D-03
     24  0.367733D-04  0.434444D-02 -0.750643D-04  0.247881D-03  0.745024D-02
     25  0.700404D-05  0.203325D-03  0.202504D-01  0.557427D-03 -0.167705D-04
     26  0.752999D-05  0.218593D-03  0.223993D-01  0.615743D-03 -0.434508D-04
     27  0.218694D-03  0.634859D-02 -0.210564D-02  0.785637D-03  0.251469D-01
               16            17            18            19            20 
     16  0.236790D+00
     17  0.130691D+00  0.179923D+00
     18  0.624720D-02  0.443020D-02  0.480496D-01
     19 -0.428125D-05  0.262305D-04 -0.505189D-03  0.151008D+00
     20 -0.676407D-05  0.414422D-04 -0.798162D-03 -0.130846D+00  0.325042D+00
     21 -0.104064D-03  0.637584D-03 -0.122796D-01  0.584611D-02 -0.118615D-01
     22  0.000000D+00  0.000000D+00  0.000000D+00  0.000000D+00  0.000000D+00
     23  0.000000D+00  0.000000D+00  0.000000D+00  0.000000D+00  0.000000D+00
     24  0.000000D+00  0.000000D+00  0.000000D+00  0.000000D+00  0.000000D+00
     25  0.175049D-04 -0.945756D-05 -0.296279D-03  0.000000D+00  0.000000D+00
     26  0.188193D-04 -0.101677D-04 -0.318526D-03  0.000000D+00  0.000000D+00
     27  0.546571D-03 -0.295302D-03 -0.925098D-02  0.000000D+00  0.000000D+00
               21            22            23            24            25 
     21  0.465929D-01
     22  0.000000D+00  0.113127D+00
     23  0.000000D+00  0.855875D-01  0.216146D+00
     24  0.000000D+00  0.346257D-02  0.603548D-02  0.394505D-01
     25  0.000000D+00  0.000000D+00  0.000000D+00 -0.572970D-05  0.244245D+00
     26  0.000000D+00  0.000000D+00  0.000000D+00  0.440868D-05 -0.149372D+00
     27  0.000000D+00 -0.152738D-03  0.471325D-03 -0.108513D-01 -0.594946D-03
               26            27 
     26  0.214093D+00
     27 -0.333070D-03  0.511617D-01
 Leave Link  716 at Tue Dec 15 16:20:31 2015, MaxMem=    33554432 cpu:         0.0
 (Enter /home/Applications/g09/g09/l103.exe)

 GradGradGradGradGradGradGradGradGradGradGradGradGradGradGradGradGradGrad
 Berny optimization.
 Search for a local minimum.
 Step number   1 out of a maximum of    2
 All quantities printed in internal units (Hartrees-Bohrs-Radians)
 Second derivative matrix not updated -- first step.
 ITU=  0
     Eigenvalues ---    0.02208   0.03111   0.06691   0.07360   0.08017
     Eigenvalues ---    0.09030   0.13132   0.15847   0.16231   0.23100
     Eigenvalues ---    0.27023   0.33202   0.41764   0.44383   0.62564
     Eigenvalues ---    0.82274   1.08663   1.35040   1.45015   1.63505
     Eigenvalues ---    1.70221
 Quadratic step=4.983D-01 exceeds max=3.000D-01 adjusted using Lamda=-1.870D-01.
 Angle between NR and scaled steps=  18.15 degrees.
 Angle between quadratic step and forces=  31.63 degrees.
 Linear search not attempted -- first point.
 TrRot= -0.011478 -0.005634  0.000582  0.846781 -0.000301 -0.848034
 Variable       Old X    -DE/DX   Delta X   Delta X   Delta X     New X
                                 (Linear)    (Quad)   (Total)
    X1        1.84553   0.09998   0.00000   0.08371   0.07059   1.91612
    Y1       -1.26474  -0.00451   0.00000  -0.03796  -0.04602  -1.31076
    Z1        0.03933  -0.00361   0.00000  -0.00745  -0.00677   0.03255
    X2       -0.57271  -0.11434   0.00000  -0.08695  -0.10110  -0.67381
    Y2       -2.02612  -0.13051   0.00000  -0.10000  -0.10482  -2.13094
    Z2        0.04029  -0.00090   0.00000  -0.00024  -0.00027   0.04002
    X3       -2.21295  -0.07593   0.00000  -0.11217  -0.12374  -2.33669
    Y3       -0.06256   0.00873   0.00000   0.00005  -0.00268  -0.06524
    Z3        0.04685   0.00297   0.00000   0.00683   0.00693   0.05378
    X4       -0.65027  -0.08388   0.00000  -0.05384  -0.06269  -0.71296
    Y4        2.03573   0.06040   0.00000   0.06133   0.05658   2.09230
    Z4        0.00701  -0.00397   0.00000  -0.01089  -0.00997  -0.00296
    X5        1.77324   0.13678   0.00000   0.11632   0.10658   1.87982
    Y5        1.35864   0.00922   0.00000   0.02115   0.01316   1.37180
    Z5       -0.04869   0.00618   0.00000   0.01465   0.01592  -0.03276
    X6        3.38412   0.00030   0.00000   0.06903   0.06090   3.44502
    Y6        2.65661  -0.00315   0.00000   0.02089   0.01093   2.66754
    Z6        0.00506  -0.00297   0.00000  -0.00444  -0.00256   0.00249
    X7       -1.58876  -0.01506   0.00000  -0.05664  -0.06325  -1.65201
    Y7        3.78717   0.02481   0.00000   0.08751   0.08395   3.87113
    Z7       -0.06822   0.00022   0.00000  -0.00469  -0.00356  -0.07178
    X8       -1.66617   0.02842   0.00000   0.03153   0.01513  -1.65104
    Y8       -3.96038   0.03932   0.00000   0.02084   0.01726  -3.94312
    Z8       -0.02833   0.00154   0.00000   0.00259   0.00195  -0.02637
    X9        3.33771   0.02374   0.00000   0.11236   0.09758   3.43528
    Y9       -2.61389  -0.00431   0.00000  -0.01840  -0.02836  -2.64225
    Z9        0.03799   0.00053   0.00000  -0.00234  -0.00167   0.03632
         Item               Value     Threshold  Converged?
 Maximum Force            0.136778     0.000450     NO 
 RMS     Force            0.054201     0.000300     NO 
 Maximum Displacement     0.123739     0.001800     NO 
 RMS     Displacement     0.057250     0.001200     NO 
 Predicted change in Energy=-4.444157D-02
 GradGradGradGradGradGradGradGradGradGradGradGradGradGradGradGradGradGrad

 Leave Link  103 at Tue Dec 15 16:20:31 2015, MaxMem=    33554432 cpu:         0.0
 (Enter /home/Applications/g09/g09/l9999.exe)
 1\1\GINC-DUSTIN-DESKTOP\Force\RAM1-FC\STO-3G\C4H4O1\DUSTIN\15-Dec-2015
 \0\\#P AM1(Input,print) CIS(Singlets,NStates=15) pop(full) force\\AM1-
 Reparam Input\\0,1\C,0.97661,-0.669271,0.020811\C,-0.303063,-1.072175,
 0.021323\O,-1.171044,-0.033103,0.02479\C,-0.344106,1.07726,0.003709\C,
 0.938358,0.71896,-0.025763\H,1.790798,1.405817,0.002676\H,-0.840737,2.
 004086,-0.036102\H,-0.881697,-2.095744,-0.014991\H,1.766238,-1.383213,
 0.020104\\Version=ES64L-G09RevD.01\State=1-A\HF=0.0267964\RMSD=9.885e-
 09\RMSF=5.420e-02\Dipole=0.2489619,-0.1128254,-0.0456309\PG=C01 [X(C4H
 4O1)]\\@


 REFRAIN FROM ILLUSIONS, INSIST ON WORK AND NOT WORDS,
 PATIENTLY SEEK DIVINE AND SCIENTIFIC TRUTH.
 LAST WORDS OF MARIA MENDELEEVA TO HER SON DMITRI, C. 1850
 Job cpu time:       0 days  0 hours  0 minutes  0.4 seconds.
 File lengths (MBytes):  RWF=      7 Int=      0 D2E=      0 Chk=      2 Scr=      1
 Normal termination of Gaussian 09 at Tue Dec 15 16:20:31 2015.
