 Entering Gaussian System, Link 0=g09
 Input=FuranDFT_57.com
 Output=FuranDFT_57.log
 Initial command:
 /home/Applications/g09/g09/l1.exe "/home/Applications/g09/scratch/Gau-6043.inp" -scrdir="/home/Applications/g09/scratch/"
 Entering Link 1 = /home/Applications/g09/g09/l1.exe PID=      6045.
  
 Copyright (c) 1988,1990,1992,1993,1995,1998,2003,2009,2013,
            Gaussian, Inc.  All Rights Reserved.
  
 This is part of the Gaussian(R) 09 program.  It is based on
 the Gaussian(R) 03 system (copyright 2003, Gaussian, Inc.),
 the Gaussian(R) 98 system (copyright 1998, Gaussian, Inc.),
 the Gaussian(R) 94 system (copyright 1995, Gaussian, Inc.),
 the Gaussian 92(TM) system (copyright 1992, Gaussian, Inc.),
 the Gaussian 90(TM) system (copyright 1990, Gaussian, Inc.),
 the Gaussian 88(TM) system (copyright 1988, Gaussian, Inc.),
 the Gaussian 86(TM) system (copyright 1986, Carnegie Mellon
 University), and the Gaussian 82(TM) system (copyright 1983,
 Carnegie Mellon University). Gaussian is a federally registered
 trademark of Gaussian, Inc.
  
 This software contains proprietary and confidential information,
 including trade secrets, belonging to Gaussian, Inc.
  
 This software is provided under written license and may be
 used, copied, transmitted, or stored only in accord with that
 written license.
  
 The following legend is applicable only to US Government
 contracts under FAR:
  
                    RESTRICTED RIGHTS LEGEND
  
 Use, reproduction and disclosure by the US Government is
 subject to restrictions as set forth in subparagraphs (a)
 and (c) of the Commercial Computer Software - Restricted
 Rights clause in FAR 52.227-19.
  
 Gaussian, Inc.
 340 Quinnipiac St., Bldg. 40, Wallingford CT 06492
  
  
 ---------------------------------------------------------------
 Warning -- This program may not be used in any manner that
 competes with the business of Gaussian, Inc. or will provide
 assistance to any competitor of Gaussian, Inc.  The licensee
 of this program is prohibited from giving any competitor of
 Gaussian, Inc. access to this program.  By using this program,
 the user acknowledges that Gaussian, Inc. is engaged in the
 business of creating and licensing software in the field of
 computational chemistry and represents and warrants to the
 licensee that it is not a competitor of Gaussian, Inc. and that
 it will not use this program in any manner prohibited above.
 ---------------------------------------------------------------
  

 Cite this work as:
 Gaussian 09, Revision D.01,
 M. J. Frisch, G. W. Trucks, H. B. Schlegel, G. E. Scuseria, 
 M. A. Robb, J. R. Cheeseman, G. Scalmani, V. Barone, B. Mennucci, 
 G. A. Petersson, H. Nakatsuji, M. Caricato, X. Li, H. P. Hratchian, 
 A. F. Izmaylov, J. Bloino, G. Zheng, J. L. Sonnenberg, M. Hada, 
 M. Ehara, K. Toyota, R. Fukuda, J. Hasegawa, M. Ishida, T. Nakajima, 
 Y. Honda, O. Kitao, H. Nakai, T. Vreven, J. A. Montgomery, Jr., 
 J. E. Peralta, F. Ogliaro, M. Bearpark, J. J. Heyd, E. Brothers, 
 K. N. Kudin, V. N. Staroverov, T. Keith, R. Kobayashi, J. Normand, 
 K. Raghavachari, A. Rendell, J. C. Burant, S. S. Iyengar, J. Tomasi, 
 M. Cossi, N. Rega, J. M. Millam, M. Klene, J. E. Knox, J. B. Cross, 
 V. Bakken, C. Adamo, J. Jaramillo, R. Gomperts, R. E. Stratmann, 
 O. Yazyev, A. J. Austin, R. Cammi, C. Pomelli, J. W. Ochterski, 
 R. L. Martin, K. Morokuma, V. G. Zakrzewski, G. A. Voth, 
 P. Salvador, J. J. Dannenberg, S. Dapprich, A. D. Daniels, 
 O. Farkas, J. B. Foresman, J. V. Ortiz, J. Cioslowski, 
 and D. J. Fox, Gaussian, Inc., Wallingford CT, 2013.
 
 ******************************************
 Gaussian 09:  ES64L-G09RevD.01 24-Apr-2013
                15-Dec-2015 
 ******************************************
 -------------------------------------------------------
 #P B3LYP/3-21G CIS(Singlets,NStates=15) pop(full) force
 -------------------------------------------------------
 1/10=7,30=1,38=1/1,3;
 2/12=2,17=6,18=5,40=1/2;
 3/5=5,11=9,16=1,25=1,30=1,71=1,74=-5/1,2,8,3;
 4//1;
 5/5=2,38=5/2;
 8/6=1,10=1,108=15/1;
 9/15=2,41=15,42=1,48=1/14;
 10/5=4/2;
 6/7=3,18=1/1;
 7/12=6,13=5,29=1/1,2,3,16;
 1/10=7,30=1/3;
 99//99;
 Leave Link    1 at Tue Dec 15 16:22:15 2015, MaxMem=           0 cpu:         0.0
 (Enter /home/Applications/g09/g09/l101.exe)
 --------
 FuranDFT
 --------
 Symbolic Z-matrix:
 Charge =  0 Multiplicity = 1
 6                     0.96923  -0.76499  -0.01612 
 6                    -0.30838  -1.04856  -0.037 
 8                    -1.15391   0.01372   0.00108 
 6                    -0.33806   1.05834   0.01248 
 6                     0.9902    0.76022   0.0084 
 1                     1.78793   1.40813   0.00119 
 1                    -0.81617   2.01209   0.03004 
 1                    -0.87521  -2.04233  -0.00503 
 1                     1.85664  -1.38225   0.01995 
 
 NAtoms=      9 NQM=        9 NQMF=       0 NMMI=      0 NMMIF=      0
                NMic=       0 NMicF=      0.
                    Isotopes and Nuclear Properties:
 (Nuclear quadrupole moments (NQMom) in fm**2, nuclear magnetic moments (NMagM)
  in nuclear magnetons)

  Atom         1           2           3           4           5           6           7           8           9
 IAtWgt=          12          12          16          12          12           1           1           1           1
 AtmWgt=  12.0000000  12.0000000  15.9949146  12.0000000  12.0000000   1.0078250   1.0078250   1.0078250   1.0078250
 NucSpn=           0           0           0           0           0           1           1           1           1
 AtZEff=   0.0000000   0.0000000   0.0000000   0.0000000   0.0000000   0.0000000   0.0000000   0.0000000   0.0000000
 NQMom=    0.0000000   0.0000000   0.0000000   0.0000000   0.0000000   0.0000000   0.0000000   0.0000000   0.0000000
 NMagM=    0.0000000   0.0000000   0.0000000   0.0000000   0.0000000   2.7928460   2.7928460   2.7928460   2.7928460
 AtZNuc=   6.0000000   6.0000000   8.0000000   6.0000000   6.0000000   1.0000000   1.0000000   1.0000000   1.0000000
 Leave Link  101 at Tue Dec 15 16:22:15 2015, MaxMem=    33554432 cpu:         0.0
 (Enter /home/Applications/g09/g09/l103.exe)

 GradGradGradGradGradGradGradGradGradGradGradGradGradGradGradGradGradGrad
 Berny optimization.
 Initialization pass.
 Trust Radius=3.00D-01 FncErr=1.00D-07 GrdErr=1.00D-07
 Number of steps in this run=      2 maximum allowed number of steps=      2.
 GradGradGradGradGradGradGradGradGradGradGradGradGradGradGradGradGradGrad

 Leave Link  103 at Tue Dec 15 16:22:15 2015, MaxMem=    33554432 cpu:         0.0
 (Enter /home/Applications/g09/g09/l202.exe)
                          Input orientation:                          
 ---------------------------------------------------------------------
 Center     Atomic      Atomic             Coordinates (Angstroms)
 Number     Number       Type             X           Y           Z
 ---------------------------------------------------------------------
      1          6           0        0.969233   -0.764988   -0.016116
      2          6           0       -0.308380   -1.048560   -0.036996
      3          8           0       -1.153908    0.013715    0.001083
      4          6           0       -0.338062    1.058342    0.012479
      5          6           0        0.990195    0.760215    0.008397
      6          1           0        1.787934    1.408128    0.001187
      7          1           0       -0.816173    2.012089    0.030039
      8          1           0       -0.875213   -2.042334   -0.005026
      9          1           0        1.856638   -1.382250    0.019950
 ---------------------------------------------------------------------
                    Distance matrix (angstroms):
                    1          2          3          4          5
     1  C    0.000000
     2  C    1.308871   0.000000
     3  O    2.261504   1.358233   0.000000
     4  C    2.243740   2.107692   1.325511   0.000000
     5  C    1.525544   2.227111   2.270351   1.361309   0.000000
     6  H    2.322284   3.229753   3.255583   2.154608   1.027731
     7  H    3.301812   3.103211   2.026919   1.067020   2.197868
     8  H    2.243595   1.144512   2.074860   3.146908   3.366632
     9  H    1.081573   2.191323   3.318503   3.282263   2.311063
                    6          7          8          9
     6  H    0.000000
     7  H    2.673383   0.000000
     8  H    4.358679   4.055004   0.000000
     9  H    2.791287   4.320365   2.810577   0.000000
 Stoichiometry    C4H4O
 Framework group  C1[X(C4H4O)]
 Deg. of freedom    21
 Full point group                 C1      NOp   1
 Largest Abelian subgroup         C1      NOp   1
 Largest concise Abelian subgroup C1      NOp   1
                         Standard orientation:                         
 ---------------------------------------------------------------------
 Center     Atomic      Atomic             Coordinates (Angstroms)
 Number     Number       Type             X           Y           Z
 ---------------------------------------------------------------------
      1          6           0        0.924730    0.802116   -0.001519
      2          6           0        0.978904   -0.505533   -0.017753
      3          8           0       -0.216221   -1.150469    0.005277
      4          6           0       -1.100722   -0.163239    0.001189
      5          6           0       -0.573084    1.091656    0.000874
      6          1           0       -1.070051    1.991082   -0.016060
      7          1           0       -2.123968   -0.465702    0.005121
      8          1           0        1.856634   -1.238558    0.028856
      9          1           0        1.688186    1.566931    0.043121
 ---------------------------------------------------------------------
 Rotational constants (GHZ):      9.5821456      9.1771420      4.6882359
 Leave Link  202 at Tue Dec 15 16:22:15 2015, MaxMem=    33554432 cpu:         0.0
 (Enter /home/Applications/g09/g09/l301.exe)
 Standard basis: 3-21G (6D, 7F)
 Ernie: Thresh=  0.10000D-02 Tol=  0.10000D-05 Strict=F.
 There are    53 symmetry adapted cartesian basis functions of A   symmetry.
 There are    53 symmetry adapted basis functions of A   symmetry.
    53 basis functions,    87 primitive gaussians,    53 cartesian basis functions
    18 alpha electrons       18 beta electrons
       nuclear repulsion energy       161.2435190257 Hartrees.
 IExCor=  402 DFT=T Ex+Corr=B3LYP ExCW=0 ScaHFX=  0.200000
 ScaDFX=  0.800000  0.720000  1.000000  0.810000 ScalE2=  1.000000  1.000000
 IRadAn=      0 IRanWt=     -1 IRanGd=            0 ICorTp=0 IEmpDi=  4
 NAtoms=    9 NActive=    9 NUniq=    9 SFac= 1.00D+00 NAtFMM=   60 NAOKFM=F Big=F
 Integral buffers will be    131072 words long.
 Regular integral format.
 Two-electron integral symmetry is turned on.
 Leave Link  301 at Tue Dec 15 16:22:15 2015, MaxMem=    33554432 cpu:         0.0
 (Enter /home/Applications/g09/g09/l302.exe)
 NPDir=0 NMtPBC=     1 NCelOv=     1 NCel=       1 NClECP=     1 NCelD=      1
         NCelK=      1 NCelE2=     1 NClLst=     1 CellRange=     0.0.
 One-electron integrals computed using PRISM.
 NBasis=    53 RedAO= T EigKep=  3.32D-03  NBF=    53
 NBsUse=    53 1.00D-06 EigRej= -1.00D+00 NBFU=    53
 Precomputing XC quadrature grid using
 IXCGrd= 4 IRadAn=           0 IRanWt=          -1 IRanGd=           0 AccXCQ= 0.00D+00.
 Generated NRdTot=       0 NPtTot=           0 NUsed=           0 NTot=          32
 NSgBfM=    53    53    53    53    53 MxSgAt=     9 MxSgA2=     9.
 Leave Link  302 at Tue Dec 15 16:22:15 2015, MaxMem=    33554432 cpu:         0.1
 (Enter /home/Applications/g09/g09/l308.exe)
 Leave Link  308 at Tue Dec 15 16:22:15 2015, MaxMem=    33554432 cpu:         0.0
 (Enter /home/Applications/g09/g09/l303.exe)
 DipDrv:  MaxL=1.
 Leave Link  303 at Tue Dec 15 16:22:15 2015, MaxMem=    33554432 cpu:         0.0
 (Enter /home/Applications/g09/g09/l401.exe)
 ExpMin= 1.83D-01 ExpMax= 3.22D+02 ExpMxC= 3.22D+02 IAcc=1 IRadAn=         1 AccDes= 0.00D+00
 Harris functional with IExCor=  402 and IRadAn=       1 diagonalized for initial guess.
 HarFok:  IExCor=  402 AccDes= 0.00D+00 IRadAn=         1 IDoV= 1 UseB2=F ITyADJ=14
 ICtDFT=  3500011 ScaDFX=  1.000000  1.000000  1.000000  1.000000
 FoFCou: FMM=F IPFlag=           0 FMFlag=      100000 FMFlg1=           0
         NFxFlg=           0 DoJE=T BraDBF=F KetDBF=T FulRan=T
         wScrn=  0.000000 ICntrl=     500 IOpCl=  0 I1Cent=   200000004 NGrid=           0
         NMat0=    1 NMatS0=      1 NMatT0=    0 NMatD0=    1 NMtDS0=    0 NMtDT0=    0
 Petite list used in FoFCou.
 Harris En= -228.721144744251    
 JPrj=0 DoOrth=F DoCkMO=F.
 Leave Link  401 at Tue Dec 15 16:22:15 2015, MaxMem=    33554432 cpu:         0.2
 (Enter /home/Applications/g09/g09/l502.exe)
 Closed shell SCF:
 Using DIIS extrapolation, IDIIS=  1040.
 Integral symmetry usage will be decided dynamically.
 Keep R1 ints in memory in canonical form, NReq=1925595.
 IVT=       27707 IEndB=       27707 NGot=    33554432 MDV=    32502130
 LenX=    32502130 LenY=    32498880
 Requested convergence on RMS density matrix=1.00D-08 within 128 cycles.
 Requested convergence on MAX density matrix=1.00D-06.
 Requested convergence on             energy=1.00D-06.
 No special actions if energy rises.
 FoFCou: FMM=F IPFlag=           0 FMFlag=           0 FMFlg1=           0
         NFxFlg=           0 DoJE=F BraDBF=F KetDBF=F FulRan=T
         wScrn=  0.000000 ICntrl=     600 IOpCl=  0 I1Cent=           0 NGrid=           0
         NMat0=    1 NMatS0=   1431 NMatT0=    0 NMatD0=    1 NMtDS0=    0 NMtDT0=    0
 Symmetry not used in FoFCou.
 Integral accuracy reduced to 1.0D-05 until final iterations.

 Cycle   1  Pass 0  IDiag  1:
 E= -228.655274861168    
 DIIS: error= 3.40D-02 at cycle   1 NSaved=   1.
 NSaved= 1 IEnMin= 1 EnMin= -228.655274861168     IErMin= 1 ErrMin= 3.40D-02
 ErrMax= 3.40D-02  0.00D+00 EMaxC= 1.00D-01 BMatC= 7.30D-02 BMatP= 7.30D-02
 IDIUse=3 WtCom= 6.60D-01 WtEn= 3.40D-01
 Coeff-Com:  0.100D+01
 Coeff-En:   0.100D+01
 Coeff:      0.100D+01
 Gap=     0.247 Goal=   None    Shift=    0.000
 GapD=    0.247 DampG=1.000 DampE=0.500 DampFc=0.5000 IDamp=-1.
 Damping current iteration by 5.00D-01
 RMSDP=1.17D-02 MaxDP=9.88D-02              OVMax= 1.82D-01

 Cycle   2  Pass 0  IDiag  1:
 E= -228.684790441974     Delta-E=       -0.029515580806 Rises=F Damp=T
 DIIS: error= 1.45D-02 at cycle   2 NSaved=   2.
 NSaved= 2 IEnMin= 2 EnMin= -228.684790441974     IErMin= 2 ErrMin= 1.45D-02
 ErrMax= 1.45D-02  0.00D+00 EMaxC= 1.00D-01 BMatC= 8.99D-03 BMatP= 7.30D-02
 IDIUse=3 WtCom= 8.55D-01 WtEn= 1.45D-01
 Coeff-Com:  0.112D+00 0.888D+00
 Coeff-En:   0.197D+00 0.803D+00
 Coeff:      0.125D+00 0.875D+00
 Gap=     0.264 Goal=   None    Shift=    0.000
 RMSDP=4.38D-03 MaxDP=3.72D-02 DE=-2.95D-02 OVMax= 1.60D-01

 Cycle   3  Pass 0  IDiag  1:
 E= -228.720959902560     Delta-E=       -0.036169460586 Rises=F Damp=F
 DIIS: error= 2.13D-02 at cycle   3 NSaved=   3.
 NSaved= 3 IEnMin= 3 EnMin= -228.720959902560     IErMin= 2 ErrMin= 1.45D-02
 ErrMax= 2.13D-02  0.00D+00 EMaxC= 1.00D-01 BMatC= 1.20D-02 BMatP= 8.99D-03
 IDIUse=2 WtCom= 0.00D+00 WtEn= 1.00D+00
 Coeff-En:   0.000D+00 0.000D+00 0.100D+01
 Coeff:      0.000D+00 0.000D+00 0.100D+01
 Gap=     0.254 Goal=   None    Shift=    0.000
 RMSDP=6.06D-03 MaxDP=5.00D-02 DE=-3.62D-02 OVMax= 1.23D-01

 Cycle   4  Pass 0  IDiag  1:
 E= -228.687550810445     Delta-E=        0.033409092115 Rises=F Damp=F
 DIIS: error= 4.41D-02 at cycle   4 NSaved=   4.
 NSaved= 4 IEnMin= 3 EnMin= -228.720959902560     IErMin= 2 ErrMin= 1.45D-02
 ErrMax= 4.41D-02  0.00D+00 EMaxC= 1.00D-01 BMatC= 4.84D-02 BMatP= 8.99D-03
 IDIUse=2 WtCom= 0.00D+00 WtEn= 1.00D+00
 Coeff-En:   0.000D+00 0.000D+00 0.752D+00 0.248D+00
 Coeff:      0.000D+00 0.000D+00 0.752D+00 0.248D+00
 Gap=     0.265 Goal=   None    Shift=    0.000
 RMSDP=3.05D-03 MaxDP=2.37D-02 DE= 3.34D-02 OVMax= 6.74D-02

 Cycle   5  Pass 0  IDiag  1:
 E= -228.729443318508     Delta-E=       -0.041892508063 Rises=F Damp=F
 DIIS: error= 1.05D-02 at cycle   5 NSaved=   5.
 NSaved= 5 IEnMin= 5 EnMin= -228.729443318508     IErMin= 5 ErrMin= 1.05D-02
 ErrMax= 1.05D-02  0.00D+00 EMaxC= 1.00D-01 BMatC= 2.82D-03 BMatP= 8.99D-03
 IDIUse=3 WtCom= 8.95D-01 WtEn= 1.05D-01
 Coeff-Com: -0.136D-01 0.407D-01 0.210D+00-0.131D+00 0.894D+00
 Coeff-En:   0.000D+00 0.000D+00 0.233D+00 0.000D+00 0.767D+00
 Coeff:     -0.122D-01 0.364D-01 0.212D+00-0.117D+00 0.881D+00
 Gap=     0.270 Goal=   None    Shift=    0.000
 RMSDP=1.05D-03 MaxDP=8.49D-03 DE=-4.19D-02 OVMax= 2.19D-02

 Cycle   6  Pass 0  IDiag  1:
 E= -228.732007207952     Delta-E=       -0.002563889444 Rises=F Damp=F
 DIIS: error= 6.58D-04 at cycle   6 NSaved=   6.
 NSaved= 6 IEnMin= 6 EnMin= -228.732007207952     IErMin= 6 ErrMin= 6.58D-04
 ErrMax= 6.58D-04  0.00D+00 EMaxC= 1.00D-01 BMatC= 1.22D-05 BMatP= 2.82D-03
 IDIUse=3 WtCom= 9.93D-01 WtEn= 6.58D-03
 Coeff-Com: -0.662D-02 0.162D-01 0.717D-01-0.552D-01 0.380D+00 0.594D+00
 Coeff-En:   0.000D+00 0.000D+00 0.000D+00 0.000D+00 0.000D+00 0.100D+01
 Coeff:     -0.658D-02 0.161D-01 0.713D-01-0.548D-01 0.377D+00 0.597D+00
 Gap=     0.270 Goal=   None    Shift=    0.000
 RMSDP=6.82D-05 MaxDP=5.58D-04 DE=-2.56D-03 OVMax= 1.47D-03

 Cycle   7  Pass 0  IDiag  1:
 E= -228.732018111666     Delta-E=       -0.000010903714 Rises=F Damp=F
 DIIS: error= 1.06D-04 at cycle   7 NSaved=   7.
 NSaved= 7 IEnMin= 7 EnMin= -228.732018111666     IErMin= 7 ErrMin= 1.06D-04
 ErrMax= 1.06D-04  0.00D+00 EMaxC= 1.00D-01 BMatC= 3.69D-07 BMatP= 1.22D-05
 IDIUse=3 WtCom= 9.99D-01 WtEn= 1.06D-03
 Coeff-Com: -0.175D-02 0.331D-02 0.135D-01-0.139D-01 0.990D-01 0.354D+00
 Coeff-Com:  0.546D+00
 Coeff-En:   0.000D+00 0.000D+00 0.000D+00 0.000D+00 0.000D+00 0.000D+00
 Coeff-En:   0.100D+01
 Coeff:     -0.175D-02 0.331D-02 0.134D-01-0.138D-01 0.989D-01 0.354D+00
 Coeff:      0.546D+00
 Gap=     0.270 Goal=   None    Shift=    0.000
 RMSDP=1.08D-05 MaxDP=1.35D-04 DE=-1.09D-05 OVMax= 2.87D-04

 Cycle   8  Pass 0  IDiag  1:
 E= -228.732018465543     Delta-E=       -0.000000353876 Rises=F Damp=F
 DIIS: error= 1.45D-05 at cycle   8 NSaved=   8.
 NSaved= 8 IEnMin= 8 EnMin= -228.732018465543     IErMin= 8 ErrMin= 1.45D-05
 ErrMax= 1.45D-05  0.00D+00 EMaxC= 1.00D-01 BMatC= 8.10D-09 BMatP= 3.69D-07
 IDIUse=1 WtCom= 1.00D+00 WtEn= 0.00D+00
 Coeff-Com: -0.432D-03 0.558D-03 0.435D-02-0.383D-02 0.324D-01 0.156D+00
 Coeff-Com:  0.261D+00 0.550D+00
 Coeff:     -0.432D-03 0.558D-03 0.435D-02-0.383D-02 0.324D-01 0.156D+00
 Coeff:      0.261D+00 0.550D+00
 Gap=     0.270 Goal=   None    Shift=    0.000
 RMSDP=1.55D-06 MaxDP=1.70D-05 DE=-3.54D-07 OVMax= 2.67D-05

 Initial convergence to 1.0D-05 achieved.  Increase integral accuracy.
 Cycle   9  Pass 1  IDiag  1:
 E= -228.732076595158     Delta-E=       -0.000058129615 Rises=F Damp=F
 DIIS: error= 1.30D-05 at cycle   1 NSaved=   1.
 NSaved= 1 IEnMin= 1 EnMin= -228.732076595158     IErMin= 1 ErrMin= 1.30D-05
 ErrMax= 1.30D-05  0.00D+00 EMaxC= 1.00D-01 BMatC= 6.02D-09 BMatP= 6.02D-09
 IDIUse=1 WtCom= 1.00D+00 WtEn= 0.00D+00
 Coeff-Com:  0.100D+01
 Coeff:      0.100D+01
 Gap=     0.270 Goal=   None    Shift=    0.000
 RMSDP=1.55D-06 MaxDP=1.70D-05 DE=-5.81D-05 OVMax= 3.75D-05

 Cycle  10  Pass 1  IDiag  1:
 E= -228.732076603606     Delta-E=       -0.000000008448 Rises=F Damp=F
 DIIS: error= 3.31D-06 at cycle   2 NSaved=   2.
 NSaved= 2 IEnMin= 2 EnMin= -228.732076603606     IErMin= 2 ErrMin= 3.31D-06
 ErrMax= 3.31D-06  0.00D+00 EMaxC= 1.00D-01 BMatC= 5.89D-10 BMatP= 6.02D-09
 IDIUse=1 WtCom= 1.00D+00 WtEn= 0.00D+00
 Coeff-Com:  0.112D+00 0.888D+00
 Coeff:      0.112D+00 0.888D+00
 Gap=     0.270 Goal=   None    Shift=    0.000
 RMSDP=8.33D-07 MaxDP=8.51D-06 DE=-8.45D-09 OVMax= 1.14D-05

 Cycle  11  Pass 1  IDiag  1:
 E= -228.732076603415     Delta-E=        0.000000000191 Rises=F Damp=F
 DIIS: error= 5.42D-06 at cycle   3 NSaved=   3.
 NSaved= 3 IEnMin= 2 EnMin= -228.732076603606     IErMin= 2 ErrMin= 3.31D-06
 ErrMax= 5.42D-06  0.00D+00 EMaxC= 1.00D-01 BMatC= 9.00D-10 BMatP= 5.89D-10
 IDIUse=1 WtCom= 1.00D+00 WtEn= 0.00D+00
 Coeff-Com: -0.182D-01 0.560D+00 0.458D+00
 Coeff:     -0.182D-01 0.560D+00 0.458D+00
 Gap=     0.270 Goal=   None    Shift=    0.000
 RMSDP=4.72D-07 MaxDP=5.36D-06 DE= 1.91D-10 OVMax= 7.59D-06

 Cycle  12  Pass 1  IDiag  1:
 E= -228.732076604022     Delta-E=       -0.000000000606 Rises=F Damp=F
 DIIS: error= 9.90D-07 at cycle   4 NSaved=   4.
 NSaved= 4 IEnMin= 4 EnMin= -228.732076604022     IErMin= 4 ErrMin= 9.90D-07
 ErrMax= 9.90D-07  0.00D+00 EMaxC= 1.00D-01 BMatC= 2.84D-11 BMatP= 5.89D-10
 IDIUse=1 WtCom= 1.00D+00 WtEn= 0.00D+00
 Coeff-Com: -0.140D-01 0.262D+00 0.256D+00 0.497D+00
 Coeff:     -0.140D-01 0.262D+00 0.256D+00 0.497D+00
 Gap=     0.270 Goal=   None    Shift=    0.000
 RMSDP=1.33D-07 MaxDP=1.43D-06 DE=-6.06D-10 OVMax= 2.54D-06

 Cycle  13  Pass 1  IDiag  1:
 E= -228.732076604049     Delta-E=       -0.000000000027 Rises=F Damp=F
 DIIS: error= 3.30D-07 at cycle   5 NSaved=   5.
 NSaved= 5 IEnMin= 5 EnMin= -228.732076604049     IErMin= 5 ErrMin= 3.30D-07
 ErrMax= 3.30D-07  0.00D+00 EMaxC= 1.00D-01 BMatC= 2.90D-12 BMatP= 2.84D-11
 IDIUse=1 WtCom= 1.00D+00 WtEn= 0.00D+00
 Coeff-Com: -0.601D-02 0.873D-01 0.969D-01 0.295D+00 0.526D+00
 Coeff:     -0.601D-02 0.873D-01 0.969D-01 0.295D+00 0.526D+00
 Gap=     0.270 Goal=   None    Shift=    0.000
 RMSDP=3.79D-08 MaxDP=3.43D-07 DE=-2.70D-11 OVMax= 7.94D-07

 Cycle  14  Pass 1  IDiag  1:
 E= -228.732076604051     Delta-E=       -0.000000000002 Rises=F Damp=F
 DIIS: error= 5.36D-08 at cycle   6 NSaved=   6.
 NSaved= 6 IEnMin= 6 EnMin= -228.732076604051     IErMin= 6 ErrMin= 5.36D-08
 ErrMax= 5.36D-08  0.00D+00 EMaxC= 1.00D-01 BMatC= 1.36D-13 BMatP= 2.90D-12
 IDIUse=1 WtCom= 1.00D+00 WtEn= 0.00D+00
 Coeff-Com: -0.596D-03 0.201D-02 0.894D-02 0.721D-01 0.226D+00 0.691D+00
 Coeff:     -0.596D-03 0.201D-02 0.894D-02 0.721D-01 0.226D+00 0.691D+00
 Gap=     0.270 Goal=   None    Shift=    0.000
 RMSDP=9.79D-09 MaxDP=9.08D-08 DE=-2.44D-12 OVMax= 1.52D-07

 SCF Done:  E(RB3LYP) =  -228.732076604     A.U. after   14 cycles
            NFock= 14  Conv=0.98D-08     -V/T= 2.0077
 KE= 2.269814358160D+02 PE=-8.549955486447D+02 EE= 2.380385171989D+02
 Leave Link  502 at Tue Dec 15 16:22:19 2015, MaxMem=    33554432 cpu:         3.7
 (Enter /home/Applications/g09/g09/l801.exe)
 DoSCS=F DFT=T ScalE2(SS,OS)=  1.000000  1.000000
 ExpMin= 1.83D-01 ExpMax= 3.22D+02 ExpMxC= 3.22D+02 IAcc=3 IRadAn=         5 AccDes= 0.00D+00
 HarFok:  IExCor=  205 AccDes= 0.00D+00 IRadAn=         5 IDoV=-2 UseB2=F ITyADJ=14
 ICtDFT= 12500011 ScaDFX=  1.000000  1.000000  1.000000  1.000000
 Largest valence mixing into a core orbital is  1.79D-04
 Largest core mixing into a valence orbital is  4.68D-05
 Range of M.O.s used for correlation:     6    53
 NBasis=    53 NAE=    18 NBE=    18 NFC=     5 NFV=     0
 NROrb=     48 NOA=    13 NOB=    13 NVA=    35 NVB=    35
 Leave Link  801 at Tue Dec 15 16:22:19 2015, MaxMem=    33554432 cpu:         0.2
 (Enter /home/Applications/g09/g09/l914.exe)
 RHF ground state
 MDV=    33554432 DFT=T DoStab=F Mixed=T DoRPA=F DoScal=F NonHer=F
 Keep R1, R2, and R3 ints in memory in canonical form, NReq=5596273.
 FoFCou: FMM=F IPFlag=           0 FMFlag=           0 FMFlg1=           0
         NFxFlg=           0 DoJE=F BraDBF=F KetDBF=F FulRan=T
         wScrn=  0.000000 ICntrl=     600 IOpCl=  0 I1Cent=           0 NGrid=           0
         NMat0=    1 NMatS0=   1431 NMatT0=    0 NMatD0=    1 NMtDS0=    0 NMtDT0=    0
 Symmetry not used in FoFCou.
 Making orbital integer symmetry assigments:
 Orbital symmetries:
       Occupied  (A) (A) (A) (A) (A) (A) (A) (A) (A) (A) (A) (A)
                 (A) (A) (A) (A) (A) (A)
       Virtual   (A) (A) (A) (A) (A) (A) (A) (A) (A) (A) (A) (A)
                 (A) (A) (A) (A) (A) (A) (A) (A) (A) (A) (A) (A)
                 (A) (A) (A) (A) (A) (A) (A) (A) (A) (A) (A)
    60 initial guesses have been made.
 Convergence on wavefunction:    0.000001000000000
 Davidson Disk Diagonalization:  ConvIn= 1.00D-06 SkipCon=T Conv= 1.00D-06.
 Max sub-space:   240 roots to seek:    60 dimension of matrix:          910
 Iteration     1 Dimension    60 NMult     0 NNew     60
 CISAX will form    60 AO SS matrices at one time.
 NMat=    60 NSing=    60 JSym2X= 0.
 New state      1 was old state      3
 New state      2 was old state      1
 New state      3 was old state      5
 New state      4 was old state      7
 New state      5 was old state      4
 New state      6 was old state      9
 New state      7 was old state      6
 New state      9 was old state     10
 New state     10 was old state     13
 New state     11 was old state     12
 New state     12 was old state     11
 New state     13 was old state     14
 New state     14 was old state     16
 Excitation Energies [eV] at current iteration:
 Root      1 :     7.474695884247961
 Root      2 :     8.276008159700027
 Root      3 :     8.698035777396878
 Root      4 :     9.301624825981913
 Root      5 :     9.517286712961557
 Root      6 :     9.582468919721029
 Root      7 :     9.681344827352744
 Root      8 :     9.754621838416966
 Root      9 :    10.030636627935470
 Root     10 :    10.262422253672800
 Root     11 :    10.559773561228310
 Root     12 :    10.580674018934990
 Root     13 :    10.766537156541530
 Root     14 :    10.807658221820310
 Root     15 :    11.007059297179570
 Root     16 :    11.054144429270430
 Root     17 :    11.169334297608840
 Root     18 :    11.535402626311670
 Root     19 :    11.709167568194570
 Root     20 :    11.837398342841330
 Root     21 :    11.903637415256110
 Root     22 :    11.962583234961820
 Root     23 :    12.378229133850220
 Root     24 :    12.819044619477600
 Root     25 :    13.024050409106350
 Root     26 :    13.042170681810820
 Root     27 :    13.218991932407540
 Root     28 :    13.556207514261260
 Root     29 :    13.589342963883090
 Root     30 :    13.784454622477900
 Root     31 :    14.038105075996300
 Root     32 :    14.222170594971690
 Root     33 :    14.372026203014410
 Root     34 :    14.396744444216940
 Root     35 :    14.515520233628100
 Root     36 :    14.716908953455520
 Root     37 :    14.853019748452920
 Root     38 :    14.870683247031850
 Root     39 :    14.948048942853690
 Root     40 :    15.024620645213100
 Root     41 :    15.229917104459350
 Root     42 :    15.291405769819150
 Root     43 :    15.356392354926370
 Root     44 :    15.551880300665210
 Root     45 :    15.637705782122850
 Root     46 :    15.642541656962820
 Root     47 :    15.746663276955890
 Root     48 :    15.758735687823330
 Root     49 :    15.900556669094360
 Root     50 :    15.939440647201480
 Root     51 :    16.053540321029400
 Root     52 :    16.150678345265770
 Root     53 :    16.178431562968850
 Root     54 :    16.241967511630750
 Root     55 :    16.491441157165180
 Root     56 :    16.511502099956540
 Root     57 :    16.668284399544710
 Root     58 :    16.730488708616170
 Root     59 :    17.721054615970820
 Root     60 :    19.315981121041240
 Iteration     2 Dimension   120 NMult    60 NNew     60
 CISAX will form    60 AO SS matrices at one time.
 NMat=    60 NSing=    60 JSym2X= 0.
 Root      1 not converged, maximum delta is    0.124904413227436
 Root      2 not converged, maximum delta is    0.111754773144347
 Root      3 not converged, maximum delta is    0.008591573321386
 New state      4 was old state      5
 Root      4 not converged, maximum delta is    0.276323873617342
 New state      5 was old state      4
 Root      5 not converged, maximum delta is    0.067569494142835
 Root      6 not converged, maximum delta is    0.382588367507549
 Root      7 not converged, maximum delta is    0.035660368627330
 Root      8 not converged, maximum delta is    0.066155674208142
 Root      9 not converged, maximum delta is    0.066365078267967
 New state     10 was old state     16
 Root     10 not converged, maximum delta is    0.327560062194907
 New state     11 was old state     10
 Root     11 not converged, maximum delta is    0.019052841862929
 New state     12 was old state     11
 Root     12 not converged, maximum delta is    0.399856822039855
 New state     13 was old state     12
 Root     13 not converged, maximum delta is    0.406517774863643
 New state     14 was old state     13
 Root     14 not converged, maximum delta is    0.087045454295054
 New state     15 was old state     14
 Root     15 not converged, maximum delta is    0.098008617499379
 Excitation Energies [eV] at current iteration:
 Root      1 :     7.336084159821013   Change is   -0.138611724426948
 Root      2 :     7.580641085462581   Change is   -0.695367074237446
 Root      3 :     8.690813188515719   Change is   -0.007222588881159
 Root      4 :     9.067666171051698   Change is   -0.449620541909859
 Root      5 :     9.275671797916461   Change is   -0.025953028065452
 Root      6 :     9.539463375592435   Change is   -0.043005544128594
 Root      7 :     9.661765291932360   Change is   -0.019579535420383
 Root      8 :     9.732304181378652   Change is   -0.022317657038315
 Root      9 :    10.013029874776400   Change is   -0.017606753159070
 Root     10 :    10.041486317300360   Change is   -1.012658111970076
 Root     11 :    10.240913010013830   Change is   -0.021509243658972
 Root     12 :    10.556054441306210   Change is   -0.003719119922105
 Root     13 :    10.578550731280790   Change is   -0.002123287654206
 Root     14 :    10.753453259347640   Change is   -0.013083897193891
 Root     15 :    10.795365344664680   Change is   -0.012292877155627
 Root     16 :    10.979194408480920   Change is   -0.027864888698653
 Root     17 :    11.119339550154820   Change is   -0.049994747454017
 Root     18 :    11.522884889222160   Change is   -0.012517737089512
 Root     19 :    11.687367762325850   Change is   -0.021799805868725
 Root     20 :    11.821943025563210   Change is   -0.015455317278116
 Root     21 :    11.869688094720710   Change is   -0.033949320535407
 Root     22 :    11.936631664328130   Change is   -0.025951570633693
 Root     23 :    12.296333906684090   Change is   -0.081895227166126
 Root     24 :    12.805406749185370   Change is   -0.013637870292233
 Root     25 :    12.865360742321600   Change is   -0.158689666784758
 Root     26 :    12.962283022273300   Change is   -0.079887659537519
 Root     27 :    13.063367649178910   Change is   -0.155624283228628
 Root     28 :    13.261125892665820   Change is   -0.295081621595436
 Root     29 :    13.487185607531980   Change is   -0.297269014945919
 Root     30 :    13.514866698459160   Change is   -0.074476265423930
 Root     31 :    13.948012382092430   Change is   -0.424013820921978
 Root     32 :    14.012040206863370   Change is   -0.026064869132933
 Root     33 :    14.101022604323870   Change is   -0.121147990647819
 Root     34 :    14.172763002354600   Change is   -0.342757231273502
 Root     35 :    14.368079067165390   Change is   -0.028665377051557
 Root     36 :    14.645237819193670   Change is   -0.207781929259253
 Root     37 :    14.704547004365930   Change is   -0.012361949089596
 Root     38 :    14.789108251447590   Change is   -0.081574995584264
 Root     39 :    14.868448449473920   Change is   -0.156172195739182
 Root     40 :    14.915912690267510   Change is   -0.032136252586179
 Root     41 :    14.983829403963960   Change is   -0.246087700495387
 Root     42 :    15.159094682125070   Change is   -0.197297672801294
 Root     43 :    15.167776730997900   Change is   -0.123629038821256
 Root     44 :    15.191820111352670   Change is   -1.319681988603868
 Root     45 :    15.424116778830240   Change is   -0.218424878132579
 Root     46 :    15.518988145398620   Change is   -0.032892155266589
 Root     47 :    15.570738190261060   Change is   -0.066967591861781
 Root     48 :    15.598295589742710   Change is   -0.160440098080622
 Root     49 :    15.663707957431130   Change is   -0.082955319524760
 Root     50 :    15.830733596902840   Change is   -0.069823072191522
 Root     51 :    15.844100378126380   Change is   -0.306577967139386
 Root     52 :    15.885798820056180   Change is   -0.053641827145303
 Root     53 :    15.933972533923060   Change is   -0.119567787106345
 Root     54 :    16.027835603679620   Change is   -0.150595959289236
 Root     55 :    16.147031782729600   Change is   -0.094935728901156
 Root     56 :    16.224762729900150   Change is   -0.443521669644561
 Root     57 :    16.431280085129960   Change is   -0.060161072035220
 Root     58 :    16.705604506324620   Change is   -0.024884202291553
 Root     59 :    16.737870841780370   Change is   -0.983183774190447
 Root     60 :    16.881809915908160
 Iteration     3 Dimension   135 NMult   120 NNew     15
 CISAX will form    15 AO SS matrices at one time.
 NMat=    15 NSing=    15 JSym2X= 0.
 Root      1 not converged, maximum delta is    0.001040569570725
 Root      2 not converged, maximum delta is    0.002432046016850
 Root      3 not converged, maximum delta is    0.000149516260470
 Root      4 not converged, maximum delta is    0.002550544968477
 Root      5 not converged, maximum delta is    0.000417092025719
 Root      6 not converged, maximum delta is    0.000319558897511
 Root      7 not converged, maximum delta is    0.000440690960663
 Root      8 not converged, maximum delta is    0.000433944844791
 Root      9 not converged, maximum delta is    0.011297653735487
 Root     10 not converged, maximum delta is    0.018934844726572
 Root     11 not converged, maximum delta is    0.000136665600509
 Root     12 not converged, maximum delta is    0.000484698554270
 Root     13 not converged, maximum delta is    0.000629845738754
 Root     14 not converged, maximum delta is    0.000149706494669
 Root     15 not converged, maximum delta is    0.000283266606057
 Excitation Energies [eV] at current iteration:
 Root      1 :     7.335412303211071   Change is   -0.000671856609942
 Root      2 :     7.578870390883413   Change is   -0.001770694579168
 Root      3 :     8.690804732621837   Change is   -0.000008455893882
 Root      4 :     9.065961727988348   Change is   -0.001704443063348
 Root      5 :     9.275634876971734   Change is   -0.000036920944726
 Root      6 :     9.539419133024062   Change is   -0.000044242568373
 Root      7 :     9.661707825206598   Change is   -0.000057466725762
 Root      8 :     9.732269081734691   Change is   -0.000035099643962
 Root      9 :    10.012879027447230   Change is   -0.000150847329171
 Root     10 :    10.037443109428850   Change is   -0.004043207871511
 Root     11 :    10.240900242337920   Change is   -0.000012767675904
 Root     12 :    10.556019182227430   Change is   -0.000035259078776
 Root     13 :    10.578399378867120   Change is   -0.000151352413669
 Root     14 :    10.753443629444100   Change is   -0.000009629903540
 Root     15 :    10.795318810609630   Change is   -0.000046534055051
 Iteration     4 Dimension   150 NMult   135 NNew     15
 CISAX will form    15 AO SS matrices at one time.
 NMat=    15 NSing=    15 JSym2X= 0.
 Root      1 not converged, maximum delta is    0.000034208529509
 Root      2 not converged, maximum delta is    0.000066249851767
 Root      3 not converged, maximum delta is    0.000002631919219
 Root      4 not converged, maximum delta is    0.000061682971466
 Root      5 not converged, maximum delta is    0.000005525416204
 Root      6 not converged, maximum delta is    0.000008329383998
 Root      7 not converged, maximum delta is    0.000010102747761
 Root      8 not converged, maximum delta is    0.000006584090981
 Root      9 not converged, maximum delta is    0.000020356112906
 Root     10 not converged, maximum delta is    0.000099481122159
 Root     11 not converged, maximum delta is    0.000003565593415
 Root     12 not converged, maximum delta is    0.000004441667966
 Root     13 not converged, maximum delta is    0.000018505035213
 Root     14 not converged, maximum delta is    0.000002687847016
 Root     15 not converged, maximum delta is    0.000011803467712
 Excitation Energies [eV] at current iteration:
 Root      1 :     7.335411467485290   Change is   -0.000000835725781
 Root      2 :     7.578868257405583   Change is   -0.000002133477830
 Root      3 :     8.690804722852356   Change is   -0.000000009769480
 Root      4 :     9.065959602799317   Change is   -0.000002125189031
 Root      5 :     9.275634858080513   Change is   -0.000000018891221
 Root      6 :     9.539419072517124   Change is   -0.000000060506939
 Root      7 :     9.661707748997468   Change is   -0.000000076209130
 Root      8 :     9.732269060147635   Change is   -0.000000021587055
 Root      9 :    10.012878790253500   Change is   -0.000000237193727
 Root     10 :    10.037437258612980   Change is   -0.000005850815869
 Root     11 :    10.240900233012940   Change is   -0.000000009324986
 Root     12 :    10.556019162820230   Change is   -0.000000019407198
 Root     13 :    10.578399170952650   Change is   -0.000000207914468
 Root     14 :    10.753443623150510   Change is   -0.000000006293591
 Root     15 :    10.795318753101360   Change is   -0.000000057508270
 Iteration     5 Dimension   165 NMult   150 NNew     15
 CISAX will form    15 AO SS matrices at one time.
 NMat=    15 NSing=    15 JSym2X= 0.
 Root      1 not converged, maximum delta is    0.000001412200617
 Root      2 not converged, maximum delta is    0.000002478646099
 Root      3 has converged.
 Root      4 not converged, maximum delta is    0.000001972518871
 Root      5 has converged.
 Root      6 has converged.
 Root      7 has converged.
 Root      8 has converged.
 Root      9 not converged, maximum delta is    0.000001060449288
 Root     10 not converged, maximum delta is    0.000002968566012
 Root     11 has converged.
 Root     12 has converged.
 Root     13 has converged.
 Root     14 has converged.
 Root     15 has converged.
 Excitation Energies [eV] at current iteration:
 Root      1 :     7.335411466653544   Change is   -0.000000000831746
 Root      2 :     7.578868255349729   Change is   -0.000000002055854
 Root      3 :     8.690804722845579   Change is   -0.000000000006778
 Root      4 :     9.065959600979353   Change is   -0.000000001819965
 Root      5 :     9.275634858068251   Change is   -0.000000000012263
 Root      6 :     9.539419072448663   Change is   -0.000000000068460
 Root      7 :     9.661707748901090   Change is   -0.000000000096378
 Root      8 :     9.732269060132660   Change is   -0.000000000014975
 Root      9 :    10.012878789986700   Change is   -0.000000000266807
 Root     10 :    10.037437251800400   Change is   -0.000000006812580
 Root     11 :    10.240900232999480   Change is   -0.000000000013457
 Root     12 :    10.556019162802210   Change is   -0.000000000018019
 Root     13 :    10.578399170705200   Change is   -0.000000000247456
 Root     14 :    10.753443623143960   Change is   -0.000000000006551
 Root     15 :    10.795318753014170   Change is   -0.000000000087196
 Iteration     6 Dimension   170 NMult   165 NNew      5
 CISAX will form     5 AO SS matrices at one time.
 NMat=     5 NSing=     5 JSym2X= 0.
 Root      1 has converged.
 Root      2 has converged.
 Root      3 has converged.
 Root      4 has converged.
 Root      5 has converged.
 Root      6 has converged.
 Root      7 has converged.
 Root      8 has converged.
 Root      9 has converged.
 Root     10 has converged.
 Root     11 has converged.
 Root     12 has converged.
 Root     13 has converged.
 Root     14 has converged.
 Root     15 has converged.
 Excitation Energies [eV] at current iteration:
 Root      1 :     7.335411466653242   Change is   -0.000000000000302
 Root      2 :     7.578868255348864   Change is   -0.000000000000866
 Root      3 :     8.690804722845568   Change is   -0.000000000000011
 Root      4 :     9.065959600977960   Change is   -0.000000000001393
 Root      5 :     9.275634858068249   Change is   -0.000000000000002
 Root      6 :     9.539419072448618   Change is   -0.000000000000044
 Root      7 :     9.661707748901042   Change is   -0.000000000000047
 Root      8 :     9.732269060132632   Change is   -0.000000000000027
 Root      9 :    10.012878789986450   Change is   -0.000000000000245
 Root     10 :    10.037437251794970   Change is   -0.000000000005430
 Root     11 :    10.240900232999480   Change is   -0.000000000000003
 Root     12 :    10.556019162802210   Change is   -0.000000000000005
 Root     13 :    10.578399170705010   Change is   -0.000000000000187
 Root     14 :    10.753443623143970   Change is    0.000000000000005
 Root     15 :    10.795318753014130   Change is   -0.000000000000036
 Convergence achieved on expansion vectors.
 ***********************************************************************
 Excited states from <AA,BB:AA,BB> singles matrix:
 ***********************************************************************
 
 1PDM for each excited state written to RWF  633
 Ground to excited state transition densities written to RWF  633
 Ground to excited state transition electric dipole moments (Au):
       state          X           Y           Z        Dip. S.      Osc.
         1        -0.3051      0.0207      0.0144      0.0937      0.0168
         2         0.9790     -0.0472     -0.0159      0.9608      0.1784
         3         0.0057      0.0346      0.0445      0.0032      0.0007
         4         0.5481     -0.4103     -0.0217      0.4693      0.1042
         5         0.0383     -0.0284      0.1541      0.0260      0.0059
         6        -0.0882     -0.1054      0.0048      0.0189      0.0044
         7        -0.0423     -0.1607     -0.0171      0.0279      0.0066
         8        -0.0444      0.0098     -0.0715      0.0072      0.0017
         9        -0.0581     -0.2799     -0.0432      0.0836      0.0205
        10        -0.2932     -1.4282     -0.0111      2.1260      0.5228
        11        -0.0151      0.0055     -0.0748      0.0058      0.0015
        12        -0.0373     -0.0317      0.0706      0.0074      0.0019
        13         0.0747      0.2291     -0.0351      0.0593      0.0154
        14        -0.0079     -0.0016     -0.0119      0.0002      0.0001
        15         0.0093      0.1058     -0.0488      0.0137      0.0036
 Ground to excited state transition velocity dipole moments (Au):
       state          X           Y           Z        Dip. S.      Osc.
         1         0.0015     -0.0518     -0.0002      0.0027      0.0066
         2        -0.0314      0.0035     -0.0002      0.0010      0.0024
         3        -0.0030      0.0042     -0.0149      0.0002      0.0005
         4        -0.0530     -0.0005      0.0053      0.0028      0.0057
         5        -0.0062      0.0016     -0.0759      0.0058      0.0113
         6         0.0043      0.0003     -0.0146      0.0002      0.0004
         7         0.0001      0.0024      0.0218      0.0005      0.0009
         8         0.0059      0.0001     -0.0154      0.0003      0.0005
         9        -0.0002      0.0076      0.0319      0.0011      0.0019
        10         0.0088      0.0333     -0.0125      0.0013      0.0024
        11         0.0051     -0.0014      0.0317      0.0010      0.0018
        12         0.0051     -0.0013      0.0404      0.0017      0.0029
        13        -0.0067     -0.0100     -0.0155      0.0004      0.0007
        14         0.0018      0.0008     -0.0113      0.0001      0.0002
        15         0.0015     -0.0061      0.0024      0.0000      0.0001
 Ground to excited state transition magnetic dipole moments (Au):
       state          X           Y           Z
         1        -0.0037      0.0342     -0.1633
         2        -0.0097     -0.0077      0.4882
         3         0.1616      0.4544      0.0109
         4        -0.0803      0.0468     -0.5360
         5         1.4111     -0.4559     -0.0082
         6        -0.4073     -0.0261      0.0442
         7         0.0473     -0.0949      0.0062
         8         0.1850      0.2751      0.0211
         9        -0.6380      0.2968      0.0292
        10         0.1519     -0.0317      0.1201
        11        -0.3019     -1.3547     -0.0414
        12         0.1908      0.1266      0.0184
        13         0.1705      0.0054     -0.0877
        14         0.0047     -0.0221     -0.0156
        15        -0.2304     -0.6119     -0.0184
 Ground to excited state transition velocity quadrupole moments (Au):
       state          XX          YY          ZZ          XY          XZ          YZ
         1        -0.0369     -0.0083      0.0253     -0.0505      0.0015     -0.0015
         2         0.0668     -0.1015      0.0061      0.2065     -0.0051      0.0005
         3        -0.0064     -0.0026     -0.0041      0.0125     -0.0801      0.0635
         4        -0.1579      0.1156      0.0111     -0.2780     -0.0134     -0.0102
         5        -0.0132      0.0059      0.0012     -0.0079      0.0342      0.1981
         6        -0.0185      0.0067      0.0031      0.0454     -0.0294     -0.0056
         7        -0.0313      0.0122      0.0092      0.0158     -0.1464      0.0426
         8         0.0057     -0.0054     -0.0028      0.0222     -0.0885     -0.0465
         9        -0.0660      0.0305      0.0139      0.0372     -0.0536     -0.1172
        10        -0.2818      0.1723      0.0554      0.1908      0.0268      0.0300
        11         0.0121      0.0111     -0.0033     -0.0063      0.0931     -0.0350
        12        -0.0076      0.0043      0.0018      0.0122      0.0104      0.0952
        13         0.0429     -0.0211     -0.0095     -0.0600      0.0104      0.1017
        14         0.0146     -0.0057      0.0010      0.0077     -0.1186      0.0045
        15         0.0254     -0.0100     -0.0109     -0.0427      0.0709     -0.0475
 <0|del|b> * <b|rxdel|0> + <0|del|b> * <b|delr+rdel|0>
 Rotatory Strengths (R) in cgs (10**-40 erg-esu-cm/Gauss)
       state          XX          YY          ZZ    R(velocity)    E-M Angle
         1        -2.1760      0.0149     -2.4267     -1.5293      101.67
         2        -0.2302      0.2773      0.3476      0.1316       89.42
         3         2.0691     -0.7124      1.3979      0.9182       80.60
         4        -4.5850      3.6440      3.9276      0.9955       87.22
         5         0.4418    -10.2744     -8.4784     -6.1036       94.48
         6        -1.3139     -1.7595     -1.7486     -1.6074      112.57
         7         0.6027     -0.1967     -0.5867     -0.0602       90.00
         8        -0.6135      0.8251      1.3751      0.5289       81.58
         9         4.5919     -0.1275      1.8565      2.1070       81.81
        10        -5.5756      2.3830      0.8751     -0.7725       99.68
        11         0.5175     -2.6508      0.4170     -0.5721       91.17
        12         0.9866      1.5622      0.2800      0.9429       80.47
        13         2.1242     -1.2621     -0.5614      0.1002       87.48
        14         0.1488      0.2507     -0.1006      0.0996       58.06
        15         3.6017     -0.3185      2.7152      1.9995       40.59
 1/2[<0|r|b>*<b|rxdel|0> + (<0|rxdel|b>*<b|r|0>)*]
 Rotatory Strengths (R) in cgs (10**-40 erg-esu-cm/Gauss)
       state          XX          YY          ZZ     R(length)
         1        -0.8038     -0.5012      1.6591      0.1180
         2         6.6913     -0.2573      5.4963      3.9767
         3        -0.6515    -11.1036     -0.3426     -4.0326
         4        31.1267     13.5786     -8.2128     12.1642
         5       -38.2346     -9.1425      0.8984    -15.4929
         6       -25.4172     -1.9451     -0.1486     -9.1703
         7         1.4147    -10.7879      0.0748     -3.0995
         8         5.8105     -1.9052      1.0685      1.6580
         9       -26.2067     58.7293      0.8914     11.1380
        10        31.5010    -31.9675      0.9443      0.1593
        11        -3.2194      5.2744     -2.1876     -0.0442
        12         5.0342      2.8407     -0.9182      2.3189
        13        -9.0086     -0.8728     -2.1757     -4.0191
        14         0.0260     -0.0258     -0.1307     -0.0435
        15         1.5099     45.7935     -0.6348     15.5562
  1/2[<0|del|b>*<b|r|0> + (<0|r|b>*<b|del|0>)*] (Au)
       state          X           Y           Z        Dip. S.   Osc.(frdel)
         1        -0.0005     -0.0011      0.0000      0.0015      0.0010
         2        -0.0307     -0.0002      0.0000      0.0309      0.0206
         3         0.0000      0.0001     -0.0007      0.0005      0.0004
         4        -0.0290      0.0002     -0.0001      0.0290      0.0193
         5        -0.0002      0.0000     -0.0117      0.0120      0.0080
         6        -0.0004      0.0000     -0.0001      0.0005      0.0003
         7         0.0000     -0.0004     -0.0004      0.0008      0.0005
         8        -0.0003      0.0000      0.0011     -0.0008     -0.0006
         9         0.0000     -0.0021     -0.0014      0.0035      0.0023
        10        -0.0026     -0.0476      0.0001      0.0500      0.0333
        11        -0.0001      0.0000     -0.0024      0.0025      0.0016
        12        -0.0002      0.0000      0.0029     -0.0027     -0.0018
        13        -0.0005     -0.0023      0.0005      0.0022      0.0015
        14         0.0000      0.0000      0.0001     -0.0001     -0.0001
        15         0.0000     -0.0006     -0.0001      0.0008      0.0005

 Excitation energies and oscillator strengths:
 
 Excited State   1:      Singlet-A      7.3354 eV  169.02 nm  f=0.0168  <S**2>=0.000
      17 -> 19         0.44891
      18 -> 19        -0.22684
      18 -> 20         0.48743
 This state for optimization and/or second-order correction.
 Total Energy, E(CIS) =  -228.462505181    
 Copying the excited state density for this state as the 1-particle RhoCI density.
 
 Excited State   2:      Singlet-A      7.5789 eV  163.59 nm  f=0.1784  <S**2>=0.000
      17 -> 19         0.22378
      18 -> 19         0.64256
      18 -> 20         0.10310
 
 Excited State   3:      Singlet-A      8.6908 eV  142.66 nm  f=0.0007  <S**2>=0.000
      18 -> 21         0.69167
 
 Excited State   4:      Singlet-A      9.0660 eV  136.76 nm  f=0.1042  <S**2>=0.000
      17 -> 19         0.16119
      17 -> 20         0.62365
      18 -> 20        -0.19684
 
 Excited State   5:      Singlet-A      9.2756 eV  133.67 nm  f=0.0059  <S**2>=0.000
      16 -> 19         0.68127
      18 -> 23        -0.11879
 
 Excited State   6:      Singlet-A      9.5394 eV  129.97 nm  f=0.0044  <S**2>=0.000
      15 -> 19         0.10364
      16 -> 19        -0.10207
      17 -> 21         0.29844
      18 -> 22         0.44185
      18 -> 23        -0.41294
 
 Excited State   7:      Singlet-A      9.6617 eV  128.33 nm  f=0.0066  <S**2>=0.000
      17 -> 21        -0.34837
      18 -> 21         0.10760
      18 -> 22         0.50035
      18 -> 23         0.30573
 
 Excited State   8:      Singlet-A      9.7323 eV  127.39 nm  f=0.0017  <S**2>=0.000
      17 -> 21         0.51606
      18 -> 23         0.43504
 
 Excited State   9:      Singlet-A     10.0129 eV  123.82 nm  f=0.0205  <S**2>=0.000
      15 -> 19         0.66854
      18 -> 23         0.10261
 
 Excited State  10:      Singlet-A     10.0374 eV  123.52 nm  f=0.5228  <S**2>=0.000
      15 -> 19        -0.13392
      16 -> 26        -0.10523
      17 -> 19         0.40463
      17 -> 20        -0.24449
      17 -> 22         0.10960
      18 -> 20        -0.40220
      18 -> 22        -0.10097
 
 Excited State  11:      Singlet-A     10.2409 eV  121.07 nm  f=0.0015  <S**2>=0.000
      14 -> 19         0.15247
      15 -> 20         0.11283
      16 -> 20         0.66107
 
 Excited State  12:      Singlet-A     10.5560 eV  117.45 nm  f=0.0019  <S**2>=0.000
      17 -> 23        -0.13172
      18 -> 24         0.66968
 
 Excited State  13:      Singlet-A     10.5784 eV  117.21 nm  f=0.0154  <S**2>=0.000
      14 -> 19        -0.15251
      17 -> 22         0.65401
      18 -> 24         0.11104
 
 Excited State  14:      Singlet-A     10.7534 eV  115.30 nm  f=0.0001  <S**2>=0.000
      14 -> 19        -0.13627
      17 -> 23         0.64334
      17 -> 25         0.15794
      18 -> 24         0.13855
 
 Excited State  15:      Singlet-A     10.7953 eV  114.85 nm  f=0.0036  <S**2>=0.000
      14 -> 19         0.64190
      15 -> 20        -0.10232
      16 -> 20        -0.12272
      17 -> 22         0.16880
      17 -> 23         0.15276
 SavETr:  write IOETrn=   770 NScale= 10 NData=  16 NLR=1 NState=   15 LETran=     280.
 The selected state is a singlet
 CISAX will form     1 AO SS matrices at one time.
 NMat=     1 NSing=     1 JSym2X= 0.
 CISAX will form     1 AO SS matrices at one time.
 NMat=     1 NSing=     1 JSym2X= 0.
 Leave Link  914 at Tue Dec 15 16:22:53 2015, MaxMem=    33554432 cpu:        33.6
 (Enter /home/Applications/g09/g09/l1002.exe)
 Minotr:  Closed shell wavefunction.
          Computing CIS/TD-HF/TD-KS derivatives.
          Using Z-Vector for PSCF gradient.
          Skipping F1 and S1 gradient terms here.
          IDoAtm=111111111
          Frozen-core window.
          Direct CPHF calculation.
          Differentiating once with respect to electric field.
                with respect to dipole field.
          Differentiating once with respect to nuclear coordinates.
          Requested convergence is 1.0D-10 RMS, and 1.0D-09 maximum.
          NewPWx=F KeepS1=T KeepF1=T KeepIn=T MapXYZ=F SortEE=F KeepMc=T.
          MDV=      33554290 using IRadAn=       0.
 Using stored XC quadrature information.
 Keep R1 ints in memory in canonical form, NReq=1898913.
 FoFCou: FMM=F IPFlag=           0 FMFlag=           0 FMFlg1=           0
         NFxFlg=           0 DoJE=F BraDBF=F KetDBF=F FulRan=T
         wScrn=  0.000000 ICntrl=     600 IOpCl=  0 I1Cent=           0 NGrid=           0
         NMat0=    1 NMatS0=   1431 NMatT0=    0 NMatD0=    1 NMtDS0=    0 NMtDT0=    0
 Symmetry not used in FoFCou.
          Solving linear equations separately, MaxMat=       0.
          There are     1 degrees of freedom in the 1st order CPHF.  IDoFFX=0 NUNeed=     1.
 LinEq1:  Iter=  0 NonCon=     1 RMS=2.83D-02 Max=3.66D-01 NDo=     1
 AX will form     1 AO Fock derivatives at one time.
 LinEq1:  Iter=  1 NonCon=     1 RMS=8.94D-03 Max=9.04D-02 NDo=     1
 LinEq1:  Iter=  2 NonCon=     1 RMS=6.74D-03 Max=8.24D-02 NDo=     1
 LinEq1:  Iter=  3 NonCon=     1 RMS=3.19D-03 Max=3.46D-02 NDo=     1
 LinEq1:  Iter=  4 NonCon=     1 RMS=1.70D-03 Max=1.72D-02 NDo=     1
 LinEq1:  Iter=  5 NonCon=     1 RMS=7.16D-04 Max=6.04D-03 NDo=     1
 LinEq1:  Iter=  6 NonCon=     1 RMS=2.55D-04 Max=2.09D-03 NDo=     1
 LinEq1:  Iter=  7 NonCon=     1 RMS=6.33D-05 Max=8.33D-04 NDo=     1
 LinEq1:  Iter=  8 NonCon=     1 RMS=4.80D-05 Max=6.67D-04 NDo=     1
 LinEq1:  Iter=  9 NonCon=     1 RMS=6.20D-06 Max=5.09D-05 NDo=     1
 LinEq1:  Iter= 10 NonCon=     1 RMS=6.64D-07 Max=4.98D-06 NDo=     1
 LinEq1:  Iter= 11 NonCon=     1 RMS=9.99D-08 Max=6.80D-07 NDo=     1
 LinEq1:  Iter= 12 NonCon=     1 RMS=9.22D-09 Max=5.75D-08 NDo=     1
 LinEq1:  Iter= 13 NonCon=     1 RMS=1.21D-09 Max=7.64D-09 NDo=     1
 LinEq1:  Iter= 14 NonCon=     1 RMS=1.39D-10 Max=7.66D-10 NDo=     1
 LinEq1:  Iter= 15 NonCon=     0 RMS=1.63D-11 Max=1.06D-10 NDo=     1
 Linear equations converged to 1.000D-10 1.000D-09 after    15 iterations.
 End of Minotr F.D. properties file   721 does not exist.
 End of Minotr F.D. properties file   722 does not exist.
 End of Minotr F.D. properties file   788 does not exist.
 Leave Link 1002 at Tue Dec 15 16:23:04 2015, MaxMem=    33554432 cpu:        10.9
 (Enter /home/Applications/g09/g09/l601.exe)
 Copying SCF densities to generalized density rwf, IOpCl= 0 IROHF=0.

 **********************************************************************

            Population analysis using the SCF density.

 **********************************************************************

 Orbital symmetries:
       Occupied  (A) (A) (A) (A) (A) (A) (A) (A) (A) (A) (A) (A)
                 (A) (A) (A) (A) (A) (A)
       Virtual   (A) (A) (A) (A) (A) (A) (A) (A) (A) (A) (A) (A)
                 (A) (A) (A) (A) (A) (A) (A) (A) (A) (A) (A) (A)
                 (A) (A) (A) (A) (A) (A) (A) (A) (A) (A) (A)
 The electronic state is 1-A.
 Alpha  occ. eigenvalues --  -19.11918 -10.17786 -10.17420 -10.13047 -10.12538
 Alpha  occ. eigenvalues --   -1.14823  -0.80606  -0.75234  -0.61741  -0.55777
 Alpha  occ. eigenvalues --   -0.54771  -0.45923  -0.44977  -0.42047  -0.39232
 Alpha  occ. eigenvalues --   -0.36493  -0.27590  -0.23844
 Alpha virt. eigenvalues --    0.03196   0.07261   0.12723   0.15621   0.16541
 Alpha virt. eigenvalues --    0.19079   0.20769   0.24411   0.36304   0.42055
 Alpha virt. eigenvalues --    0.45712   0.67100   0.69788   0.70263   0.74712
 Alpha virt. eigenvalues --    0.76507   0.79021   0.80798   0.82702   0.83680
 Alpha virt. eigenvalues --    0.95601   0.97847   0.99898   1.04249   1.18103
 Alpha virt. eigenvalues --    1.20526   1.31855   1.38120   1.50351   1.56274
 Alpha virt. eigenvalues --    1.65558   1.73600   1.94517   2.16492   3.21425
     Molecular Orbital Coefficients:
                           1         2         3         4         5
                           O         O         O         O         O
     Eigenvalues --   -19.11918 -10.17786 -10.17420 -10.13047 -10.12538
   1 1   C  1S          0.00011  -0.00951  -0.00073   0.98219   0.08664
   2        2S          0.00052  -0.00626  -0.00022   0.10991   0.00662
   3        2PX        -0.00098  -0.00057   0.00007  -0.00159  -0.00009
   4        2PY         0.00069   0.00339   0.00073  -0.00171   0.00019
   5        2PZ        -0.00002   0.00005  -0.00003  -0.00001   0.00002
   6        3S         -0.00286   0.04411  -0.01727  -0.10520   0.02125
   7        3PX         0.00649  -0.00300   0.00557   0.02338  -0.01652
   8        3PY         0.00634  -0.02259   0.01039   0.02639  -0.00212
   9        3PZ         0.00018  -0.00026   0.00038   0.00036  -0.00008
  10 2   C  1S         -0.00038   0.98429   0.04883   0.00899   0.00109
  11        2S         -0.00022   0.10726   0.00180  -0.00455  -0.00098
  12        2PX        -0.00240  -0.00308   0.00056   0.00032  -0.00018
  13        2PY        -0.00123   0.00073  -0.00074  -0.00284  -0.00135
  14        2PZ         0.00006   0.00014   0.00007   0.00001   0.00001
  15        3S          0.01780  -0.08069   0.01772   0.04820  -0.00356
  16        3PX        -0.01342   0.00831  -0.01443  -0.01119   0.00189
  17        3PY         0.00051  -0.02254   0.01498   0.02524   0.00086
  18        3PZ         0.00017  -0.00056  -0.00021   0.00019  -0.00006
  19 3   O  1S          0.98283   0.00028   0.00036   0.00008   0.00010
  20        2S          0.10835   0.00197   0.00217   0.00036   0.00050
  21        2PX         0.00065   0.00065  -0.00019  -0.00008   0.00004
  22        2PY         0.00442   0.00056   0.00058   0.00000  -0.00004
  23        2PZ        -0.00008  -0.00003  -0.00003  -0.00002   0.00000
  24        3S         -0.06249  -0.00154  -0.00182  -0.00326  -0.00443
  25        3PX        -0.00192  -0.00163   0.00083  -0.00216   0.00110
  26        3PY        -0.01443  -0.00342  -0.00466  -0.00180  -0.00280
  27        3PZ         0.00022   0.00015   0.00016   0.00008   0.00000
  28 4   C  1S         -0.00030  -0.05012   0.98416  -0.00067   0.01080
  29        2S         -0.00001  -0.00885   0.10679  -0.00006  -0.00343
  30        2PX         0.00177  -0.00110   0.00257  -0.00008  -0.00103
  31        2PY        -0.00212  -0.00043  -0.00099  -0.00095  -0.00210
  32        2PZ        -0.00001   0.00001  -0.00001  -0.00002   0.00000
  33        3S          0.01801   0.02269  -0.07310  -0.01181   0.03952
  34        3PX         0.01492   0.02127  -0.01021  -0.00514   0.01744
  35        3PY        -0.00469   0.00952  -0.01510  -0.00211   0.01693
  36        3PZ         0.00009  -0.00015   0.00008   0.00010  -0.00001
  37 5   C  1S          0.00014   0.00028  -0.01118  -0.08735   0.98208
  38        2S          0.00068   0.00037  -0.00535  -0.01268   0.10912
  39        2PX         0.00126   0.00001   0.00145  -0.00003   0.00080
  40        2PY         0.00039   0.00042   0.00232   0.00064  -0.00150
  41        2PZ         0.00000   0.00001  -0.00001  -0.00001  -0.00004
  42        3S         -0.00358  -0.01950   0.03528   0.03833  -0.09355
  43        3PX        -0.00548  -0.00216  -0.00545   0.01734  -0.01024
  44        3PY         0.00834   0.01342  -0.01739  -0.01486   0.02774
  45        3PZ        -0.00008  -0.00002  -0.00002  -0.00003   0.00007
  46 6   H  1S         -0.00118  -0.00053  -0.00117   0.00036  -0.00471
  47        2S         -0.00414  -0.00282   0.00165   0.00434   0.00550
  48 7   H  1S          0.00010   0.00176  -0.00353  -0.00002  -0.00039
  49        2S          0.00341   0.00792   0.00940  -0.00030   0.00520
  50 8   H  1S         -0.00011  -0.00278   0.00132  -0.00027  -0.00007
  51        2S          0.00219   0.00618   0.00723   0.00486   0.00076
  52 9   H  1S         -0.00111  -0.00091  -0.00062  -0.00381  -0.00066
  53        2S         -0.00367   0.00262  -0.00215   0.00355   0.00394
                           6         7         8         9        10
                           O         O         O         O         O
     Eigenvalues --    -1.14823  -0.80606  -0.75234  -0.61741  -0.55777
   1 1   C  1S         -0.02390   0.15166   0.05416   0.10180   0.06192
   2        2S          0.02409  -0.16258  -0.06104  -0.10473  -0.05799
   3        2PX        -0.01324   0.05258  -0.04391  -0.09023   0.06062
   4        2PY        -0.02813   0.07708   0.08190   0.05615  -0.17686
   5        2PZ         0.00003   0.00021   0.00017  -0.00081  -0.00294
   6        3S          0.03141  -0.30271  -0.08168  -0.34004  -0.22828
   7        3PX        -0.03093   0.03100   0.00415  -0.00889   0.02875
   8        3PY        -0.03098   0.03052  -0.01695   0.05040  -0.05840
   9        3PZ        -0.00099  -0.00006  -0.00067  -0.00039  -0.00192
  10 2   C  1S         -0.07447   0.08322   0.13660  -0.00786  -0.10277
  11        2S          0.08175  -0.09636  -0.14649   0.00285   0.11277
  12        2PX        -0.08645  -0.00608   0.03074  -0.09237   0.09626
  13        2PY        -0.01805  -0.14326   0.00842  -0.20979  -0.01144
  14        2PZ         0.00175  -0.00167  -0.00403   0.00082   0.00353
  15        3S          0.05157  -0.14229  -0.34886   0.08230   0.33526
  16        3PX         0.03161   0.00833   0.01863  -0.04487   0.05817
  17        3PY        -0.00965  -0.04244  -0.03896  -0.04706   0.01165
  18        3PZ         0.00043  -0.00091  -0.00225   0.00058   0.00353
  19 3   O  1S         -0.21078  -0.08587   0.01429  -0.00620   0.05480
  20        2S          0.19065   0.08325  -0.01328   0.00528  -0.05515
  21        2PX         0.01325  -0.03105  -0.21194   0.26583   0.03630
  22        2PY         0.11967  -0.01922   0.04076  -0.04686   0.00750
  23        2PZ        -0.00180  -0.00049   0.00131  -0.00273   0.00086
  24        3S          0.67565   0.31447  -0.05373   0.02709  -0.23655
  25        3PX         0.01918  -0.02251  -0.17662   0.22942   0.03127
  26        3PY         0.14992  -0.00202   0.03016  -0.03841   0.00213
  27        3PZ        -0.00242  -0.00038   0.00131  -0.00235   0.00042
  28 4   C  1S         -0.08055   0.03992  -0.15260   0.02378  -0.10121
  29        2S          0.08714  -0.04819   0.16609  -0.02354   0.11165
  30        2PX         0.08044  -0.02552   0.01944  -0.00443  -0.13983
  31        2PY        -0.05524  -0.12711   0.00613   0.21590   0.05472
  32        2PZ         0.00015   0.00037   0.00056  -0.00147   0.00042
  33        3S          0.05717  -0.05011   0.36651  -0.11268   0.32324
  34        3PX        -0.04310  -0.01623   0.02682  -0.01787  -0.07292
  35        3PY         0.00552  -0.02778   0.03793   0.05511   0.04176
  36        3PZ        -0.00027   0.00018  -0.00010  -0.00056   0.00016
  37 5   C  1S         -0.02297   0.12865  -0.09214  -0.11358   0.05357
  38        2S          0.02214  -0.13648   0.09961   0.11588  -0.05128
  39        2PX         0.00230  -0.03909  -0.06044  -0.09470  -0.12609
  40        2PY        -0.02951   0.06231  -0.06297   0.01481  -0.12887
  41        2PZ        -0.00006   0.00072  -0.00037  -0.00169   0.00077
  42        3S          0.03302  -0.26025   0.17537   0.37124  -0.18709
  43        3PX         0.02611  -0.01191   0.01264  -0.02231  -0.05415
  44        3PY        -0.04154   0.04198   0.00201  -0.03444  -0.04365
  45        3PZ         0.00040   0.00038  -0.00025  -0.00090   0.00047
  46 6   H  1S          0.00795  -0.05579   0.05228   0.11954  -0.07586
  47        2S          0.01991  -0.01551   0.01097   0.06408  -0.04594
  48 7   H  1S          0.01440  -0.00857   0.08928  -0.04159   0.15168
  49        2S         -0.02099  -0.00300   0.03232  -0.02795   0.08106
  50 8   H  1S          0.01140  -0.02122  -0.06958   0.02902   0.12136
  51        2S         -0.01330  -0.00522  -0.02960   0.02466   0.06987
  52 9   H  1S          0.00698  -0.05810  -0.02453  -0.08820  -0.09342
  53        2S          0.01706  -0.01418  -0.00160  -0.04884  -0.06044
                          11        12        13        14        15
                           O         O         O         O         O
     Eigenvalues --    -0.54771  -0.45923  -0.44977  -0.42047  -0.39232
   1 1   C  1S         -0.04265   0.00024  -0.04215   0.02791   0.01768
   2        2S          0.03960  -0.00101   0.04072  -0.03344  -0.01543
   3        2PX         0.12831   0.00232   0.04379   0.09095   0.24298
   4        2PY         0.13313   0.01343   0.22174   0.16162   0.04671
   5        2PZ         0.00527   0.10599   0.00514   0.00176   0.00775
   6        3S          0.19993   0.00387   0.16612  -0.08078  -0.14721
   7        3PX         0.08208  -0.00031   0.04839   0.07245   0.15167
   8        3PY         0.06356   0.00454   0.11928   0.07514   0.07956
   9        3PZ         0.00284   0.07221   0.00356   0.00018   0.00743
  10 2   C  1S         -0.01221   0.00433   0.04897   0.00171  -0.01575
  11        2S          0.01214  -0.00532  -0.05573  -0.00948   0.02085
  12        2PX         0.14727   0.00633  -0.12470   0.22664  -0.11797
  13        2PY        -0.09923  -0.01272  -0.13207  -0.19299  -0.00309
  14        2PZ         0.00353   0.19077  -0.00736  -0.00591   0.00405
  15        3S          0.05396  -0.01381  -0.16542   0.00747   0.08457
  16        3PX         0.09243   0.00854  -0.08088   0.16962  -0.05681
  17        3PY        -0.11871  -0.01028  -0.07128  -0.11801   0.12284
  18        3PZ         0.00314   0.17470  -0.00813  -0.00670   0.00228
  19 3   O  1S         -0.04411  -0.00028   0.00066   0.01254   0.04282
  20        2S          0.04296   0.00038  -0.00049  -0.01239  -0.04813
  21        2PX        -0.02881   0.00541   0.20655  -0.13501   0.09846
  22        2PY        -0.18772   0.00430  -0.04419   0.07589   0.34875
  23        2PZ         0.00391   0.38683  -0.02008  -0.02238  -0.00191
  24        3S          0.16319   0.00103  -0.00666  -0.04819  -0.12381
  25        3PX        -0.02700   0.00516   0.19849  -0.12522   0.10242
  26        3PY        -0.16945   0.00432  -0.04254   0.07340   0.37029
  27        3PZ         0.00366   0.38658  -0.01982  -0.02335  -0.00251
  28 4   C  1S         -0.00416  -0.00205  -0.04518  -0.02140  -0.01964
  29        2S          0.00278   0.00238   0.04928   0.02977   0.02412
  30        2PX        -0.19355   0.01142  -0.09622   0.27275   0.02952
  31        2PY        -0.06229   0.01214   0.14028   0.08175  -0.05006
  32        2PZ         0.00180   0.19471  -0.00807  -0.01178   0.00055
  33        3S          0.03486   0.00744   0.16155   0.07439   0.07870
  34        3PX        -0.14027   0.00965  -0.05682   0.19065   0.02705
  35        3PY        -0.08616   0.00875   0.07595   0.07591   0.08698
  36        3PZ         0.00160   0.17819  -0.00766  -0.01189   0.00040
  37 5   C  1S         -0.03244   0.00004   0.03826  -0.01900   0.03621
  38        2S          0.02883   0.00045  -0.03883   0.02381  -0.03391
  39        2PX        -0.06369   0.00286   0.06415  -0.03147  -0.20618
  40        2PY         0.18322  -0.01832  -0.22073  -0.15089   0.14094
  41        2PZ        -0.00008   0.09939   0.00071  -0.00349   0.00076
  42        3S          0.15851  -0.00544  -0.13842   0.04029  -0.20023
  43        3PX        -0.05560   0.00332   0.05975   0.01035  -0.11066
  44        3PY         0.09307  -0.00975  -0.13014  -0.06822   0.11955
  45        3PZ        -0.00047   0.06957   0.00039  -0.00261   0.00083
  46 6   H  1S          0.12779  -0.01211  -0.19362  -0.05765   0.12211
  47        2S          0.06608  -0.00851  -0.14240  -0.05608   0.12055
  48 7   H  1S          0.10442  -0.00607   0.09076  -0.17189   0.01077
  49        2S          0.04328  -0.00405   0.06576  -0.14647   0.01317
  50 8   H  1S          0.09201   0.00726  -0.06301   0.19262  -0.05407
  51        2S          0.04274   0.00313  -0.04490   0.17446  -0.04887
  52 9   H  1S          0.12850   0.00895   0.16759   0.08638   0.13353
  53        2S          0.07126   0.00782   0.13013   0.08515   0.12987
                          16        17        18        19        20
                           O         O         O         V         V
     Eigenvalues --    -0.36493  -0.27590  -0.23844   0.03196   0.07261
   1 1   C  1S         -0.00740  -0.00078   0.00032  -0.00345   0.00596
   2        2S          0.01031   0.00062  -0.00106   0.00480  -0.00645
   3        2PX         0.22059   0.00517   0.00274   0.00214  -0.01075
   4        2PY        -0.15530   0.01470   0.00599  -0.00027  -0.00801
   5        2PZ        -0.00309  -0.31666  -0.14956  -0.14771   0.34856
   6        3S          0.05699   0.00045   0.00409   0.00885  -0.02648
   7        3PX         0.18841   0.00397   0.00099   0.02132  -0.03749
   8        3PY        -0.10265   0.01181   0.00271   0.01469  -0.04406
   9        3PZ        -0.00174  -0.33135  -0.14375  -0.27131   0.67830
  10 2   C  1S          0.02103  -0.00023  -0.00339   0.00610  -0.00851
  11        2S         -0.02057  -0.00036   0.00390  -0.00475   0.00764
  12        2PX         0.01013   0.00164   0.00154  -0.00445  -0.00471
  13        2PY         0.20626  -0.00678  -0.00473   0.00525  -0.01114
  14        2PZ        -0.00441  -0.14942  -0.30107   0.29293  -0.25642
  15        3S         -0.09248   0.00328   0.01228  -0.03853   0.04531
  16        3PX        -0.03018   0.00297   0.00524  -0.02236   0.00613
  17        3PY         0.06675  -0.00115  -0.00592   0.01890  -0.04279
  18        3PZ        -0.00321  -0.10637  -0.32156   0.44842  -0.49753
  19 3   O  1S         -0.06280   0.00011   0.00063  -0.00152   0.00547
  20        2S          0.05891  -0.00035  -0.00095   0.00162  -0.00412
  21        2PX        -0.02285   0.00561  -0.00114   0.00161  -0.01001
  22        2PY        -0.23162   0.00797   0.00250   0.00081  -0.00966
  23        2PZ         0.00383   0.29996  -0.05766  -0.28885   0.02094
  24        3S          0.26316   0.00121  -0.00140   0.00993  -0.04285
  25        3PX        -0.02658   0.00714   0.00025  -0.00051  -0.01422
  26        3PY        -0.24839   0.00876   0.00330   0.00100  -0.01437
  27        3PZ         0.00426   0.34257  -0.06947  -0.40630   0.02863
  28 4   C  1S          0.00857  -0.00136  -0.00011   0.00094  -0.00021
  29        2S         -0.00934   0.00158  -0.00008   0.00091  -0.00062
  30        2PX         0.07208   0.00142   0.00140  -0.00009   0.00416
  31        2PY         0.23063   0.00112   0.00045   0.00327  -0.00460
  32        2PZ        -0.00013  -0.01983   0.32589   0.33935   0.20258
  33        3S         -0.02658   0.00736   0.00352  -0.01833  -0.00181
  34        3PX         0.05539   0.00131   0.00267  -0.01104   0.01348
  35        3PY         0.08034   0.00395   0.00232   0.00317  -0.01712
  36        3PZ         0.00067   0.01402   0.33679   0.53008   0.38612
  37 5   C  1S         -0.00175   0.00149  -0.00075   0.00104   0.00144
  38        2S          0.00416  -0.00169   0.00087  -0.00138  -0.00020
  39        2PX        -0.25941   0.00062  -0.00129  -0.00192   0.00306
  40        2PY        -0.12598  -0.00262   0.00157  -0.00319  -0.00599
  41        2PZ        -0.00109  -0.23989   0.25792  -0.20654  -0.31268
  42        3S          0.03375  -0.00715   0.00095   0.00311  -0.02040
  43        3PX        -0.20477   0.00317  -0.00120   0.00510  -0.00179
  44        3PY        -0.06752  -0.00101   0.00494  -0.01607  -0.01284
  45        3PZ        -0.00166  -0.25904   0.27348  -0.36721  -0.60255
  46 6   H  1S          0.01196  -0.00190  -0.00102   0.00167   0.00657
  47        2S         -0.01109  -0.00223  -0.00200   0.00992   0.02410
  48 7   H  1S         -0.12078   0.00073  -0.00062   0.00101   0.00008
  49        2S         -0.11986   0.00039  -0.00078  -0.00033   0.00673
  50 8   H  1S         -0.12466   0.00062  -0.00246   0.00918  -0.00899
  51        2S         -0.12939   0.00221  -0.00405   0.03889  -0.04523
  52 9   H  1S          0.04736   0.00301  -0.00048  -0.00299   0.01284
  53        2S          0.02820   0.00590   0.00091  -0.02017   0.06409
                          21        22        23        24        25
                           V         V         V         V         V
     Eigenvalues --     0.12723   0.15621   0.16541   0.19079   0.20769
   1 1   C  1S          0.02547  -0.08794   0.06475  -0.08842   0.02867
   2        2S         -0.00688   0.07161  -0.04695   0.06488   0.00900
   3        2PX        -0.14981   0.06455   0.11963   0.02793   0.14424
   4        2PY        -0.11626   0.05948  -0.06458   0.14968  -0.11065
   5        2PZ        -0.01141   0.02860  -0.00218   0.00557   0.00524
   6        3S         -0.44484   0.77008  -0.58495   0.96387  -0.60185
   7        3PX        -0.39212   0.41816   0.31717   0.27532   0.84151
   8        3PY        -0.29922   0.39155  -0.32923   0.64866  -0.31072
   9        3PZ        -0.02682   0.08640  -0.01189   0.01745   0.01655
  10 2   C  1S          0.04879   0.11775   0.03072  -0.00901   0.08357
  11        2S         -0.02730  -0.08908  -0.02023  -0.01559  -0.06818
  12        2PX        -0.24930  -0.00611   0.17831   0.05205   0.04215
  13        2PY         0.11453   0.15136   0.01106  -0.11142   0.09266
  14        2PZ        -0.00720  -0.03242   0.00147   0.00163  -0.01068
  15        3S         -0.68000  -0.99923  -0.31803   0.41188  -0.88726
  16        3PX        -0.62703  -0.26985   0.53640  -0.01911  -0.07886
  17        3PY         0.25076   0.56335  -0.03500  -0.22906   0.21397
  18        3PZ        -0.01610  -0.08124   0.00512   0.00530  -0.03035
  19 3   O  1S          0.01942  -0.08362  -0.02867   0.02107   0.01303
  20        2S         -0.01111   0.05927   0.02106  -0.01472  -0.01029
  21        2PX        -0.05807   0.06413   0.09810  -0.01455   0.26307
  22        2PY        -0.07197   0.14383   0.01298  -0.03815  -0.07529
  23        2PZ         0.00548   0.00626  -0.00309   0.00103   0.00069
  24        3S         -0.18198   0.70978   0.23233  -0.18195  -0.11196
  25        3PX        -0.11152   0.08754   0.20399  -0.08412   0.50039
  26        3PY        -0.14563   0.23921   0.00219  -0.06062  -0.13403
  27        3PZ         0.01008   0.01073  -0.00654   0.00323   0.00162
  28 4   C  1S          0.03651   0.05245   0.06922  -0.00894  -0.12343
  29        2S         -0.02639  -0.02914  -0.04847   0.02555   0.08998
  30        2PX         0.05568  -0.05287   0.26473   0.13073  -0.01029
  31        2PY         0.00777   0.10021   0.05032   0.02028  -0.10113
  32        2PZ        -0.00476   0.00331  -0.00108  -0.00289   0.00182
  33        3S         -0.47480  -0.51836  -0.86296  -0.30877   1.41975
  34        3PX         0.11743  -0.07592   0.97767   0.10528  -0.28774
  35        3PY        -0.03622   0.35343   0.19647   0.01567  -0.21134
  36        3PZ        -0.01272   0.01171  -0.00445  -0.00769   0.00495
  37 5   C  1S          0.05508  -0.00906  -0.05602   0.11273   0.00790
  38        2S         -0.03427   0.00202   0.04788  -0.08080  -0.02766
  39        2PX        -0.04184  -0.05322   0.16397   0.00589   0.21831
  40        2PY        -0.09196   0.05033  -0.06353  -0.18804   0.01238
  41        2PZ         0.01111  -0.01237  -0.00010   0.00540  -0.00055
  42        3S         -0.62140   0.17801   0.32447  -1.33547   0.04129
  43        3PX        -0.09555  -0.16165   0.41940   0.16097   1.13893
  44        3PY        -0.32116   0.11508   0.02288  -0.94734  -0.18366
  45        3PZ         0.02752  -0.03447   0.00314   0.01522  -0.00057
  46 6   H  1S          0.06443  -0.03522   0.00862   0.06064   0.04958
  47        2S          0.69850  -0.38354   0.11591   1.73259   0.77986
  48 7   H  1S          0.01859   0.03123   0.10414  -0.01645   0.01716
  49        2S          0.39179   0.32021   1.66002   0.28932  -1.00440
  50 8   H  1S          0.09934   0.08080  -0.03386  -0.00061  -0.02672
  51        2S          1.14921   1.15110  -0.34531  -0.34576   0.55568
  52 9   H  1S          0.09570  -0.07749  -0.00705  -0.02744  -0.04251
  53        2S          0.93497  -1.08271   0.25119  -1.15481  -0.15348
                          26        27        28        29        30
                           V         V         V         V         V
     Eigenvalues --     0.24411   0.36304   0.42055   0.45712   0.67100
   1 1   C  1S         -0.04514   0.06120   0.02812  -0.12271   0.05086
   2        2S          0.01028  -0.01689  -0.02620   0.01355   0.07279
   3        2PX         0.19628   0.13254   0.24559  -0.09037   0.45119
   4        2PY         0.01613   0.07496  -0.10007  -0.22015  -0.38514
   5        2PZ        -0.00014   0.00535  -0.00081  -0.00914   0.02107
   6        3S          1.07907  -1.15081  -0.08745   3.44460  -0.11605
   7        3PX         0.67143   0.13257   1.35932  -1.22847  -0.34265
   8        3PY        -0.22797   1.33473  -0.80067  -2.40899   0.91316
   9        3PZ         0.00514   0.03062  -0.01337  -0.04709  -0.00560
  10 2   C  1S          0.00990  -0.07382  -0.02340   0.10468   0.00314
  11        2S         -0.00373   0.00564   0.01983  -0.02643   0.09527
  12        2PX        -0.21230  -0.08959  -0.23185   0.23066   0.33746
  13        2PY        -0.11250   0.20447  -0.17953  -0.00228   0.49834
  14        2PZ         0.00151  -0.00081   0.00236   0.00575   0.02517
  15        3S         -0.51371   1.61042  -0.19507  -2.76497   0.62300
  16        3PX        -0.70762  -0.61048  -0.99954   0.63935  -0.43530
  17        3PY        -0.61776   1.02307  -0.93375  -2.51673  -0.32194
  18        3PZ        -0.00642   0.00966   0.00567  -0.01337  -0.02019
  19 3   O  1S          0.10816   0.04514  -0.00541   0.00061  -0.00595
  20        2S         -0.05271  -0.02205  -0.00074   0.00162   0.03445
  21        2PX         0.01620  -0.05956  -0.33596   0.06087   0.13111
  22        2PY        -0.09448  -0.15588   0.06464   0.00740   0.10064
  23        2PZ         0.00408   0.00027   0.00453  -0.00067   0.00268
  24        3S         -1.15424  -0.57083   0.10393  -0.01464  -0.15395
  25        3PX         0.02996  -0.15436  -0.81327  -0.01694  -0.04767
  26        3PY        -0.30106  -0.46159   0.18668   0.03919   0.05661
  27        3PZ         0.01022   0.00162   0.00954   0.00020   0.00859
  28 4   C  1S         -0.00168  -0.08565   0.04055  -0.08776   0.03608
  29        2S          0.00545   0.00011  -0.01551   0.04341  -0.03604
  30        2PX         0.17169   0.18027  -0.15727   0.19173   0.01861
  31        2PY        -0.19371   0.22727   0.18646  -0.09434  -0.26855
  32        2PZ        -0.00128   0.00133  -0.00054  -0.00258   0.03170
[...]
               1          2          3          4          5          6
     1  C    5.251447   0.453045  -0.078031  -0.127704   0.423938  -0.021422
     2  C    0.453045   5.099683   0.296262  -0.167926  -0.139624   0.004747
     3  O   -0.078031   0.296262   8.117614   0.280293  -0.072557   0.002000
     4  C   -0.127704  -0.167926   0.280293   5.077790   0.466657  -0.030963
     5  C    0.423938  -0.139624  -0.072557   0.466657   5.256320   0.390123
     6  H   -0.021422   0.004747   0.002000  -0.030963   0.390123   0.468058
     7  H    0.003240   0.005353  -0.032027   0.388115  -0.043177  -0.000395
     8  H   -0.039631   0.380809  -0.029705   0.004674   0.003345  -0.000029
     9  H    0.383240  -0.026511   0.001654   0.004232  -0.023694  -0.000693
               7          8          9
     1  C    0.003240  -0.039631   0.383240
     2  C    0.005353   0.380809  -0.026511
     3  O   -0.032027  -0.029705   0.001654
     4  C    0.388115   0.004674   0.004232
     5  C   -0.043177   0.003345  -0.023694
     6  H   -0.000395  -0.000029  -0.000693
     7  H    0.466795  -0.000071  -0.000029
     8  H   -0.000071   0.480216  -0.000723
     9  H   -0.000029  -0.000723   0.468450
 Mulliken charges:
               1
     1  C   -0.248121
     2  C    0.094162
     3  O   -0.485503
     4  C    0.104832
     5  C   -0.261330
     6  H    0.188575
     7  H    0.212196
     8  H    0.201115
     9  H    0.194074
 Sum of Mulliken charges =   0.00000
 Mulliken charges with hydrogens summed into heavy atoms:
               1
     1  C   -0.054047
     2  C    0.295277
     3  O   -0.485503
     4  C    0.317029
     5  C   -0.072756
 Electronic spatial extent (au):  <R**2>=            290.5598
 Charge=              0.0000 electrons
 Dipole moment (field-independent basis, Debye):
    X=              0.1074    Y=              0.7510    Z=              0.0529  Tot=              0.7604
 Quadrupole moment (field-independent basis, Debye-Ang):
   XX=            -24.2594   YY=            -27.7787   ZZ=            -31.7737
   XY=             -0.5829   XZ=              0.1702   YZ=              0.0020
 Traceless Quadrupole moment (field-independent basis, Debye-Ang):
   XX=              3.6779   YY=              0.1586   ZZ=             -3.8365
   XY=             -0.5829   XZ=              0.1702   YZ=              0.0020
 Octapole moment (field-independent basis, Debye-Ang**2):
  XXX=             -2.3591  YYY=              1.9036  ZZZ=              0.1158  XYY=              1.8315
  XXY=             -2.8215  XXZ=              0.3267  XZZ=             -0.7719  YZZ=             -3.4528
  YYZ=              0.1324  XYZ=              0.0918
 Hexadecapole moment (field-independent basis, Debye-Ang**3):
 XXXX=           -158.5527 YYYY=           -156.5694 ZZZZ=            -30.8278 XXXY=              2.9673
 XXXZ=              0.6297 YYYX=             -3.4255 YYYZ=             -0.0364 ZZZX=              0.1782
 ZZZY=             -0.0515 XXYY=            -45.8948 XXZZ=            -38.9966 YYZZ=            -34.6999
 XXYZ=             -0.0412 YYXZ=              0.4664 ZZXY=              0.7772
 N-N= 1.612435190257D+02 E-N=-8.549955533141D+02  KE= 2.269814358160D+02
 Orbital energies and kinetic energies (alpha):
                                 1                 2
   1         O               -19.119184         28.828353
   2         O               -10.177858         15.800937
   3         O               -10.174195         15.798159
   4         O               -10.130465         15.806044
   5         O               -10.125377         15.805765
   6         O                -1.148227          2.541534
   7         O                -0.806056          1.775370
   8         O                -0.752339          1.834078
   9         O                -0.617409          1.732354
  10         O                -0.557770          1.435597
  11         O                -0.547711          1.226076
  12         O                -0.459230          1.620895
  13         O                -0.449769          1.480642
  14         O                -0.420472          1.393489
  15         O                -0.392315          1.900846
  16         O                -0.364928          1.755612
  17         O                -0.275905          1.516445
  18         O                -0.238444          1.238521
  19         V                 0.031963          1.832585
  20         V                 0.072605          1.496736
  21         V                 0.127229          1.150378
  22         V                 0.156208          1.712793
  23         V                 0.165407          1.402040
  24         V                 0.190791          1.269043
  25         V                 0.207693          1.914789
  26         V                 0.244109          1.799272
  27         V                 0.363044          1.941069
  28         V                 0.420553          2.425334
  29         V                 0.457119          2.152971
  30         V                 0.670999          2.602728
  31         V                 0.697875          2.497727
  32         V                 0.702625          2.664975
  33         V                 0.747125          2.458254
  34         V                 0.765075          2.480899
  35         V                 0.790208          2.619192
  36         V                 0.807985          2.727528
  37         V                 0.827021          2.712425
  38         V                 0.836799          2.592101
  39         V                 0.956006          2.867582
  40         V                 0.978465          3.118952
  41         V                 0.998982          3.217843
  42         V                 1.042489          3.186346
  43         V                 1.181029          2.718570
  44         V                 1.205261          2.924975
  45         V                 1.318551          2.572796
  46         V                 1.381202          2.929345
  47         V                 1.503508          4.948357
  48         V                 1.562742          3.349064
  49         V                 1.655583          3.959365
  50         V                 1.736000          4.253771
  51         V                 1.945169          4.069131
  52         V                 2.164921          4.216485
  53         V                 3.214249          6.851865
 Total kinetic energy from orbitals= 2.269814358160D+02
 No NMR shielding tensors so no spin-rotation constants.
 Leave Link  601 at Tue Dec 15 16:23:04 2015, MaxMem=    33554432 cpu:         0.1
 (Enter /home/Applications/g09/g09/l701.exe)
 Compute integral first derivatives.
 ... and contract with generalized density number  6.
 Leave Link  701 at Tue Dec 15 16:23:04 2015, MaxMem=    33554432 cpu:         0.1
 (Enter /home/Applications/g09/g09/l702.exe)
 L702 exits ... SP integral derivatives will be done elsewhere.
 Leave Link  702 at Tue Dec 15 16:23:04 2015, MaxMem=    33554432 cpu:         0.0
 (Enter /home/Applications/g09/g09/l703.exe)
 Compute integral first derivatives, UseDBF=F ICtDFT=           0.
 Integral derivatives from FoFJK, PRISM(SPDF).
 Calling FoFJK, ICntrl=  10005127 FMM=F ISym2X=0 I1Cent= 0 IOpClX= 0 NMat=1 NMatS=1 NMatT=0.
 FoFJK:  IHMeth= 1 ICntrl=10005127 DoSepK=F KAlg= 0 I1Cent=   0 FoldK=F
 IRaf=         0 NMat=   1 IRICut=       1 DoRegI=T DoRafI=F ISym2E= 0.
 FoFCou: FMM=F IPFlag=           0 FMFlag=      100000 FMFlg1=         800
         NFxFlg=           0 DoJE=F BraDBF=F KetDBF=F FulRan=T
         wScrn=  0.000000 ICntrl=10005127 IOpCl=  0 I1Cent=           0 NGrid=           0
         NMat0=    1 NMatS0=      1 NMatT0=    0 NMatD0=    1 NMtDS0=    0 NMtDT0=    0
 Symmetry not used in FoFCou.
 Leave Link  703 at Tue Dec 15 16:23:05 2015, MaxMem=    33554432 cpu:         1.2
 (Enter /home/Applications/g09/g09/l716.exe)
 Dipole        =-4.58436125D-01 4.59494569D-01 5.07218440D-02
 ***** Axes restored to original set *****
 -------------------------------------------------------------------
 Center     Atomic                   Forces (Hartrees/Bohr)
 Number     Number              X              Y              Z
 -------------------------------------------------------------------
      1        6           0.149968383    0.040900541    0.001371960
      2        6          -0.120919960   -0.167650748   -0.005634247
      3        8          -0.052318548    0.020320287    0.002281554
      4        6          -0.046425713    0.101444371    0.002571462
      5        6           0.025597165   -0.059509109   -0.001319576
      6        1           0.030754008    0.023408938   -0.000345739
      7        1          -0.002265165    0.007127101    0.000339216
      8        1           0.024670513    0.033372552   -0.000947850
      9        1          -0.009060684    0.000586067    0.001683221
 -------------------------------------------------------------------
 Cartesian Forces:  Max     0.167650748 RMS     0.057764031
 Z-matrix is all fixed cartesians, so copy forces.
 Force constants in Cartesian coordinates: 
                1             2             3             4             5 
      1  0.102657D+01
      2 -0.206832D-01  0.675662D+00
      3  0.180557D-01  0.259143D-02  0.205196D+00
      4 -0.626249D+00 -0.107639D+00 -0.108502D-01  0.105157D+01
      5 -0.835410D-01 -0.222299D+00 -0.416317D-02 -0.531894D-02  0.818830D+00
      6 -0.649820D-02 -0.272000D-02 -0.122912D+00 -0.366917D-02  0.905005D-02
      7 -0.669529D-02  0.300596D-01  0.143118D-02 -0.304681D+00  0.172789D+00
      8 -0.532148D-02  0.239205D-01  0.782584D-03  0.219211D+00 -0.365018D+00
      9 -0.213294D-03  0.205471D-03  0.721058D-02  0.111541D-01 -0.113514D-01
     10  0.738297D-02 -0.990885D-04 -0.441441D-04  0.239696D-01  0.190760D-01
     11  0.328822D-01 -0.456532D-03  0.133697D-03 -0.187081D-01 -0.148878D-01
     12  0.665651D-03  0.956558D-04  0.565323D-04 -0.110678D-02 -0.962041D-03
     13 -0.147080D+00  0.956175D-02 -0.784616D-03  0.760224D-02 -0.342047D-01
     14 -0.131218D-01 -0.298286D+00 -0.447233D-02 -0.107438D-03  0.490335D-03
     15 -0.110040D-02 -0.442547D-02 -0.598969D-01  0.162256D-03 -0.122729D-02
     16  0.179988D-01 -0.243511D-03 -0.240164D-03  0.000000D+00  0.000000D+00
     17 -0.221695D-01  0.298037D-03  0.414074D-03  0.000000D+00  0.000000D+00
     18 -0.774958D-03 -0.160312D-03  0.106373D-01 -0.152767D-04 -0.189497D-04
     19  0.000000D+00  0.000000D+00 -0.704594D-05  0.000000D+00  0.000000D+00
     20  0.000000D+00  0.180277D-05 -0.112220D-03 -0.144060D-05  0.211890D-05
     21 -0.314350D-05 -0.948333D-04  0.590323D-02  0.930705D-04 -0.136892D-03
     22  0.561658D-02 -0.253637D-01  0.795422D-03 -0.148328D+00 -0.863988D-01
     23 -0.322221D-02  0.144671D-01  0.683875D-03 -0.817992D-01 -0.242521D+00
     24 -0.578165D-03  0.118071D-05  0.353609D-01  0.515527D-02  0.708264D-02
     25 -0.277546D+00  0.114407D+00 -0.835616D-02 -0.388290D-02  0.175998D-01
     26  0.115177D+00 -0.193308D+00  0.414205D-02 -0.563618D-02  0.254032D-01
     27 -0.955318D-02  0.450688D-02 -0.815552D-01 -0.923342D-03  0.172709D-02
                6             7             8             9            10 
      6  0.214629D+00
      7  0.813617D-02  0.610647D+00
      8 -0.106133D-01  0.324381D-01  0.751211D+00
      9 -0.539539D-01 -0.760515D-02  0.147459D-01  0.655854D-01
     10  0.800634D-04 -0.334421D+00 -0.249718D+00 -0.177602D-02  0.984070D+00
     11 -0.767919D-04 -0.205476D+00 -0.415755D+00 -0.433046D-02  0.367137D-01
     12  0.166807D-02 -0.916857D-03 -0.389737D-02 -0.523676D-01 -0.149496D-02
     13 -0.637669D-03 -0.669759D-02  0.522751D-02  0.823955D-04 -0.509812D+00
     14  0.000000D+00 -0.298355D-01  0.232986D-01 -0.210860D-04  0.836915D-01
     15 -0.877073D-03 -0.186851D-03  0.242819D-03  0.797427D-02  0.959535D-03
     16  0.266328D-04  0.000000D+00  0.000000D+00  0.328775D-04 -0.442098D-02
     17 -0.195256D-04  0.000000D+00  0.000000D+00  0.433429D-04  0.544349D-02
     18  0.119211D-02  0.400341D-05 -0.853010D-04  0.753260D-02  0.173927D-04
     19  0.344345D-04  0.223189D-01 -0.174265D-01 -0.401415D-03 -0.166772D+00
     20 -0.910981D-04  0.111890D-01 -0.873542D-02 -0.282171D-03  0.104892D+00
     21  0.588542D-02 -0.301211D-04 -0.244354D-04  0.439629D-02  0.218627D-02
     22  0.396340D-02  0.195273D-01  0.155811D-01 -0.106278D-02  0.360407D-05
     23  0.460309D-02 -0.111627D-01 -0.891155D-02  0.739300D-03  0.000000D+00
     24 -0.786728D-01 -0.764780D-03 -0.757054D-03  0.413764D-02  0.723997D-04
     25 -0.143566D-02  0.150219D-05  0.875073D-05 -0.210760D-03  0.000000D+00
     26 -0.133363D-03 -0.179031D-05 -0.104291D-04  0.251185D-03  0.000000D+00
     27  0.330420D-01 -0.676021D-04 -0.393805D-03  0.948474D-02  0.000000D+00
               11            12            13            14            15 
     11  0.931691D+00
     12  0.105056D-01  0.192074D+00
     13  0.646619D-01  0.188520D-03  0.941628D+00
     14 -0.203801D+00 -0.114464D-02  0.822829D-01  0.712213D+00
     15 -0.977497D-03 -0.982705D-01 -0.314476D-02  0.437780D-02  0.175714D+00
     16 -0.197014D-01  0.324035D-03 -0.307130D+00 -0.149595D+00  0.261682D-02
     17  0.242542D-01 -0.119367D-03 -0.152812D+00 -0.247068D+00  0.797688D-03
     18 -0.266535D-03  0.251257D-01  0.334376D-02  0.137851D-02 -0.700558D-01
     19  0.109632D+00  0.216389D-02  0.603948D-02  0.269008D-01  0.520132D-03
     20 -0.321045D+00 -0.447973D-02  0.302528D-02  0.134822D-01 -0.255372D-03
     21 -0.486543D-02 -0.738657D-01  0.124642D-03  0.171505D-03  0.280320D-01
     22 -0.530104D-05  0.227908D-03  0.251903D-05  0.312467D-05 -0.196571D-03
     23  0.000000D+00  0.172895D-04 -0.445080D-05 -0.552089D-05  0.347317D-03
     24 -0.106489D-03  0.457828D-02 -0.936886D-04 -0.116214D-03  0.731096D-02
     25  0.000000D+00 -0.514087D-04  0.154477D-01 -0.218254D-03  0.369845D-03
     26  0.000000D+00 -0.153898D-04  0.222623D-01 -0.323967D-03  0.112001D-02
     27 -0.160890D-04  0.100152D-02  0.921412D-03 -0.174487D-03  0.100687D-01
               16            17            18            19            20 
     16  0.293550D+00
     17  0.169540D+00  0.222515D+00
     18 -0.267475D-02 -0.108105D-02  0.381821D-01
     19  0.000000D+00  0.000000D+00  0.130379D-04  0.138413D+00
     20  0.000000D+00  0.119484D-05  0.207653D-03 -0.119105D+00  0.316293D+00
     21 -0.476772D-04 -0.628536D-04 -0.109234D-01 -0.232304D-02  0.501293D-02
     22  0.000000D+00  0.000000D+00  0.000000D+00  0.000000D+00  0.000000D+00
     23  0.000000D+00  0.000000D+00  0.000000D+00  0.000000D+00  0.000000D+00
     24  0.000000D+00  0.000000D+00  0.000000D+00  0.000000D+00  0.000000D+00
     25  0.193887D-05 -0.142147D-05  0.867860D-04  0.000000D+00  0.000000D+00
     26  0.000000D+00  0.000000D+00  0.259805D-04  0.000000D+00  0.000000D+00
     27 -0.377722D-04  0.276924D-04 -0.169072D-02  0.000000D+00  0.000000D+00
               21            22            23            24            25 
     21  0.405722D-01
     22  0.000000D+00  0.123186D+00
     23  0.000000D+00  0.961739D-01  0.236989D+00
     24  0.000000D+00 -0.409419D-02 -0.574277D-02  0.409275D-01
     25  0.000000D+00 -0.815084D-05  0.144015D-04  0.303149D-03  0.265986D+00
     26  0.000000D+00  0.971418D-05 -0.171637D-04 -0.361294D-03 -0.131812D+00
     27  0.000000D+00  0.366808D-03 -0.648103D-03 -0.136425D-01  0.929421D-02
               26            27 
     26  0.168257D+00
     27 -0.502918D-02  0.432914D-01
 Leave Link  716 at Tue Dec 15 16:23:05 2015, MaxMem=    33554432 cpu:         0.0
 (Enter /home/Applications/g09/g09/l103.exe)

 GradGradGradGradGradGradGradGradGradGradGradGradGradGradGradGradGradGrad
 Berny optimization.
 Search for a local minimum.
 Step number   1 out of a maximum of    2
 All quantities printed in internal units (Hartrees-Bohrs-Radians)
 Second derivative matrix not updated -- first step.
 ITU=  0
     Eigenvalues ---    0.01587   0.02991   0.06976   0.07228   0.07885
     Eigenvalues ---    0.08893   0.11603   0.12754   0.15268   0.23128
     Eigenvalues ---    0.27482   0.31548   0.38498   0.40735   0.59873
     Eigenvalues ---    0.85931   1.08713   1.26129   1.42706   1.65950
     Eigenvalues ---    1.80204
 Quadratic step=4.511D-01 exceeds max=3.000D-01 adjusted using Lamda=-1.148D-01.
 Angle between NR and scaled steps=  17.27 degrees.
 Angle between quadratic step and forces=  36.79 degrees.
 Linear search not attempted -- first point.
 TrRot= -0.008917 -0.006108 -0.001087 -0.610795  0.000692  0.610515
 Variable       Old X    -DE/DX   Delta X   Delta X   Delta X     New X
                                 (Linear)    (Quad)   (Total)
    X1        1.83158   0.14997   0.00000   0.09832   0.08898   1.92056
    Y1       -1.44562   0.04090   0.00000  -0.01399  -0.02062  -1.46624
    Z1       -0.03045   0.00137   0.00000  -0.00291  -0.00567  -0.03613
    X2       -0.58275  -0.12092   0.00000  -0.06565  -0.07521  -0.65796
    Y2       -1.98149  -0.16765   0.00000  -0.15895  -0.16484  -2.14634
    Z2       -0.06991  -0.00563   0.00000  -0.01054  -0.01211  -0.08203
    X3       -2.18057  -0.05232   0.00000  -0.05013  -0.05904  -2.23961
    Y3        0.02592   0.02032   0.00000   0.02248   0.01699   0.04291
    Z3        0.00205   0.00228   0.00000   0.00314   0.00333   0.00538
    X4       -0.63884  -0.04643   0.00000  -0.05340  -0.06171  -0.70055
    Y4        1.99998   0.10144   0.00000   0.12688   0.12096   2.12094
    Z4        0.02358   0.00257   0.00000   0.00522   0.00536   0.02895
    X5        1.87120   0.02560   0.00000   0.02863   0.02012   1.89132
    Y5        1.43660  -0.05951   0.00000  -0.02102  -0.02767   1.40893
    Z5        0.01587  -0.00132   0.00000  -0.00403  -0.00563   0.01023
    X6        3.37871   0.03075   0.00000   0.08064   0.07248   3.45118
    Y6        2.66098   0.02341   0.00000   0.02613   0.01905   2.68003
    Z6        0.00224  -0.00035   0.00000  -0.00173  -0.00371  -0.00147
    X7       -1.54234  -0.00227   0.00000  -0.03462  -0.04241  -1.58475
    Y7        3.80230   0.00713   0.00000   0.11742   0.11173   3.91402
    Z7        0.05677   0.00034   0.00000   0.00524   0.00660   0.06336
    X8       -1.65391   0.02467   0.00000   0.02071   0.01069  -1.64322
    Y8       -3.85945   0.03337   0.00000  -0.03409  -0.03973  -3.89918
    Z8       -0.00950  -0.00095   0.00000   0.00046  -0.00125  -0.01074
    X9        3.50854  -0.00906   0.00000   0.05572   0.04610   3.55463
    Y9       -2.61207   0.00059   0.00000  -0.00874  -0.01586  -2.62794
    Z9        0.03770   0.00168   0.00000   0.01723   0.01309   0.05079
         Item               Value     Threshold  Converged?
 Maximum Force            0.167651     0.000450     NO 
 RMS     Force            0.057764     0.000300     NO 
 Maximum Displacement     0.164844     0.001800     NO 
 RMS     Displacement     0.057414     0.001200     NO 
 Predicted change in Energy=-4.125143D-02
 GradGradGradGradGradGradGradGradGradGradGradGradGradGradGradGradGradGrad

 Leave Link  103 at Tue Dec 15 16:23:05 2015, MaxMem=    33554432 cpu:         0.0
 (Enter /home/Applications/g09/g09/l9999.exe)
 1\1\GINC-DUSTIN-DESKTOP\Force\RB3LYP-FC\3-21G\C4H4O1\DUSTIN\15-Dec-201
 5\0\\#P B3LYP/3-21G CIS(Singlets,NStates=15) pop(full) force\\FuranDFT
 \\0,1\C,0.969233,-0.764988,-0.016116\C,-0.30838,-1.04856,-0.036996\O,-
 1.153908,0.013715,0.001083\C,-0.338062,1.058342,0.012479\C,0.990195,0.
 760215,0.008397\H,1.787934,1.408128,0.001187\H,-0.816173,2.012089,0.03
 0039\H,-0.875213,-2.042334,-0.005026\H,1.856638,-1.38225,0.01995\\Vers
 ion=ES64L-G09RevD.01\State=1-A\HF=-228.7320766\RMSD=9.791e-09\RMSF=5.7
 76e-02\Dipole=0.3714616,0.5314654,0.058587\PG=C01 [X(C4H4O1)]\\@


 THE MORE POWERFUL THE METHOD, THE MORE CATASTROPHIC THE ERRORS.
     -- M.D. KAMEN
 Job cpu time:       0 days  0 hours  0 minutes 50.3 seconds.
 File lengths (MBytes):  RWF=     14 Int=      0 D2E=      0 Chk=      3 Scr=      1
 Normal termination of Gaussian 09 at Tue Dec 15 16:23:05 2015.
