 Entering Gaussian System, Link 0=g09
 Input=FuranDFT_90.com
 Output=FuranDFT_90.log
 Initial command:
 /home/Applications/g09/g09/l1.exe "/home/Applications/g09/scratch/Gau-6386.inp" -scrdir="/home/Applications/g09/scratch/"
 Entering Link 1 = /home/Applications/g09/g09/l1.exe PID=      6388.
  
 Copyright (c) 1988,1990,1992,1993,1995,1998,2003,2009,2013,
            Gaussian, Inc.  All Rights Reserved.
  
 This is part of the Gaussian(R) 09 program.  It is based on
 the Gaussian(R) 03 system (copyright 2003, Gaussian, Inc.),
 the Gaussian(R) 98 system (copyright 1998, Gaussian, Inc.),
 the Gaussian(R) 94 system (copyright 1995, Gaussian, Inc.),
 the Gaussian 92(TM) system (copyright 1992, Gaussian, Inc.),
 the Gaussian 90(TM) system (copyright 1990, Gaussian, Inc.),
 the Gaussian 88(TM) system (copyright 1988, Gaussian, Inc.),
 the Gaussian 86(TM) system (copyright 1986, Carnegie Mellon
 University), and the Gaussian 82(TM) system (copyright 1983,
 Carnegie Mellon University). Gaussian is a federally registered
 trademark of Gaussian, Inc.
  
 This software contains proprietary and confidential information,
 including trade secrets, belonging to Gaussian, Inc.
  
 This software is provided under written license and may be
 used, copied, transmitted, or stored only in accord with that
 written license.
  
 The following legend is applicable only to US Government
 contracts under FAR:
  
                    RESTRICTED RIGHTS LEGEND
  
 Use, reproduction and disclosure by the US Government is
 subject to restrictions as set forth in subparagraphs (a)
 and (c) of the Commercial Computer Software - Restricted
 Rights clause in FAR 52.227-19.
  
 Gaussian, Inc.
 340 Quinnipiac St., Bldg. 40, Wallingford CT 06492
  
  
 ---------------------------------------------------------------
 Warning -- This program may not be used in any manner that
 competes with the business of Gaussian, Inc. or will provide
 assistance to any competitor of Gaussian, Inc.  The licensee
 of this program is prohibited from giving any competitor of
 Gaussian, Inc. access to this program.  By using this program,
 the user acknowledges that Gaussian, Inc. is engaged in the
 business of creating and licensing software in the field of
 computational chemistry and represents and warrants to the
 licensee that it is not a competitor of Gaussian, Inc. and that
 it will not use this program in any manner prohibited above.
 ---------------------------------------------------------------
  

 Cite this work as:
 Gaussian 09, Revision D.01,
 M. J. Frisch, G. W. Trucks, H. B. Schlegel, G. E. Scuseria, 
 M. A. Robb, J. R. Cheeseman, G. Scalmani, V. Barone, B. Mennucci, 
 G. A. Petersson, H. Nakatsuji, M. Caricato, X. Li, H. P. Hratchian, 
 A. F. Izmaylov, J. Bloino, G. Zheng, J. L. Sonnenberg, M. Hada, 
 M. Ehara, K. Toyota, R. Fukuda, J. Hasegawa, M. Ishida, T. Nakajima, 
 Y. Honda, O. Kitao, H. Nakai, T. Vreven, J. A. Montgomery, Jr., 
 J. E. Peralta, F. Ogliaro, M. Bearpark, J. J. Heyd, E. Brothers, 
 K. N. Kudin, V. N. Staroverov, T. Keith, R. Kobayashi, J. Normand, 
 K. Raghavachari, A. Rendell, J. C. Burant, S. S. Iyengar, J. Tomasi, 
 M. Cossi, N. Rega, J. M. Millam, M. Klene, J. E. Knox, J. B. Cross, 
 V. Bakken, C. Adamo, J. Jaramillo, R. Gomperts, R. E. Stratmann, 
 O. Yazyev, A. J. Austin, R. Cammi, C. Pomelli, J. W. Ochterski, 
 R. L. Martin, K. Morokuma, V. G. Zakrzewski, G. A. Voth, 
 P. Salvador, J. J. Dannenberg, S. Dapprich, A. D. Daniels, 
 O. Farkas, J. B. Foresman, J. V. Ortiz, J. Cioslowski, 
 and D. J. Fox, Gaussian, Inc., Wallingford CT, 2013.
 
 ******************************************
 Gaussian 09:  ES64L-G09RevD.01 24-Apr-2013
                15-Dec-2015 
 ******************************************
 -------------------------------------------------------
 #P B3LYP/3-21G CIS(Singlets,NStates=15) pop(full) force
 -------------------------------------------------------
 1/10=7,30=1,38=1/1,3;
 2/12=2,17=6,18=5,40=1/2;
 3/5=5,11=9,16=1,25=1,30=1,71=1,74=-5/1,2,8,3;
 4//1;
 5/5=2,38=5/2;
 8/6=1,10=1,108=15/1;
 9/15=2,41=15,42=1,48=1/14;
 10/5=4/2;
 6/7=3,18=1/1;
 7/12=6,13=5,29=1/1,2,3,16;
 1/10=7,30=1/3;
 99//99;
 Leave Link    1 at Tue Dec 15 16:28:56 2015, MaxMem=           0 cpu:         0.0
 (Enter /home/Applications/g09/g09/l101.exe)
 --------
 FuranDFT
 --------
 Symbolic Z-matrix:
 Charge =  0 Multiplicity = 1
 6                     0.92628  -0.67964  -0.01283 
 6                    -0.36053  -1.05481   0.03577 
 8                    -1.13172   0.02027  -0.01731 
 6                    -0.36997   1.06964   0.03949 
 6                     0.98257   0.68459   0.04271 
 1                     1.85673   1.40124  -0.03785 
 1                    -0.8211    2.01599   0.0444 
 1                    -0.87049  -2.03595   0.04283 
 1                     1.84386  -1.33915  -0.02853 
 
 NAtoms=      9 NQM=        9 NQMF=       0 NMMI=      0 NMMIF=      0
                NMic=       0 NMicF=      0.
                    Isotopes and Nuclear Properties:
 (Nuclear quadrupole moments (NQMom) in fm**2, nuclear magnetic moments (NMagM)
  in nuclear magnetons)

  Atom         1           2           3           4           5           6           7           8           9
 IAtWgt=          12          12          16          12          12           1           1           1           1
 AtmWgt=  12.0000000  12.0000000  15.9949146  12.0000000  12.0000000   1.0078250   1.0078250   1.0078250   1.0078250
 NucSpn=           0           0           0           0           0           1           1           1           1
 AtZEff=   0.0000000   0.0000000   0.0000000   0.0000000   0.0000000   0.0000000   0.0000000   0.0000000   0.0000000
 NQMom=    0.0000000   0.0000000   0.0000000   0.0000000   0.0000000   0.0000000   0.0000000   0.0000000   0.0000000
 NMagM=    0.0000000   0.0000000   0.0000000   0.0000000   0.0000000   2.7928460   2.7928460   2.7928460   2.7928460
 AtZNuc=   6.0000000   6.0000000   8.0000000   6.0000000   6.0000000   1.0000000   1.0000000   1.0000000   1.0000000
 Leave Link  101 at Tue Dec 15 16:28:56 2015, MaxMem=    33554432 cpu:         0.0
 (Enter /home/Applications/g09/g09/l103.exe)

 GradGradGradGradGradGradGradGradGradGradGradGradGradGradGradGradGradGrad
 Berny optimization.
 Initialization pass.
 Trust Radius=3.00D-01 FncErr=1.00D-07 GrdErr=1.00D-07
 Number of steps in this run=      2 maximum allowed number of steps=      2.
 GradGradGradGradGradGradGradGradGradGradGradGradGradGradGradGradGradGrad

 Leave Link  103 at Tue Dec 15 16:28:56 2015, MaxMem=    33554432 cpu:         0.0
 (Enter /home/Applications/g09/g09/l202.exe)
                          Input orientation:                          
 ---------------------------------------------------------------------
 Center     Atomic      Atomic             Coordinates (Angstroms)
 Number     Number       Type             X           Y           Z
 ---------------------------------------------------------------------
      1          6           0        0.926283   -0.679638   -0.012828
      2          6           0       -0.360531   -1.054810    0.035767
      3          8           0       -1.131721    0.020270   -0.017310
      4          6           0       -0.369969    1.069637    0.039491
      5          6           0        0.982572    0.684591    0.042709
      6          1           0        1.856729    1.401238   -0.037854
      7          1           0       -0.821098    2.015985    0.044398
      8          1           0       -0.870486   -2.035950    0.042830
      9          1           0        1.843856   -1.339146   -0.028525
 ---------------------------------------------------------------------
                    Distance matrix (angstroms):
                    1          2          3          4          5
     1  C    0.000000
     2  C    1.341270   0.000000
     3  O    2.173769   1.324141   0.000000
     4  C    2.177836   2.124471   1.297946   0.000000
     5  C    1.366519   2.197610   2.217016   1.406285   0.000000
     6  H    2.279562   3.309658   3.292162   2.252582   1.133236
     7  H    3.212942   3.105154   2.020686   1.048387   2.241838
     8  H    2.251901   1.105776   2.073620   3.145664   3.291682
     9  H    1.130105   2.223579   3.271421   3.272290   2.200544
                    6          7          8          9
     6  H    0.000000
     7  H    2.748715   0.000000
     8  H    4.388448   4.052236   0.000000
     9  H    2.740430   4.285347   2.803262   0.000000
 Stoichiometry    C4H4O
 Framework group  C1[X(C4H4O)]
 Deg. of freedom    21
 Full point group                 C1      NOp   1
 Largest Abelian subgroup         C1      NOp   1
 Largest concise Abelian subgroup C1      NOp   1
                         Standard orientation:                         
 ---------------------------------------------------------------------
 Center     Atomic      Atomic             Coordinates (Angstroms)
 Number     Number       Type             X           Y           Z
 ---------------------------------------------------------------------
      1          6           0        0.136899    1.145612    0.021080
      2          6           0       -1.020423    0.469537   -0.029252
      3          8           0       -0.771031   -0.829433    0.032619
      4          6           0        0.514860   -0.998840   -0.016891
      5          6           0        1.165948    0.247622   -0.024180
      6          1           0        2.287033    0.389486    0.061056
      7          1           0        0.891306   -1.977307   -0.014250
      8          1           0       -2.083258    0.774374   -0.043303
      9          1           0        0.289466    2.265327    0.031001
 ---------------------------------------------------------------------
 Rotational constants (GHZ):     10.0380026      9.3721319      4.8513607
 Leave Link  202 at Tue Dec 15 16:28:56 2015, MaxMem=    33554432 cpu:         0.0
 (Enter /home/Applications/g09/g09/l301.exe)
 Standard basis: 3-21G (6D, 7F)
 Ernie: Thresh=  0.10000D-02 Tol=  0.10000D-05 Strict=F.
 There are    53 symmetry adapted cartesian basis functions of A   symmetry.
 There are    53 symmetry adapted basis functions of A   symmetry.
    53 basis functions,    87 primitive gaussians,    53 cartesian basis functions
    18 alpha electrons       18 beta electrons
       nuclear repulsion energy       163.5587046853 Hartrees.
 IExCor=  402 DFT=T Ex+Corr=B3LYP ExCW=0 ScaHFX=  0.200000
 ScaDFX=  0.800000  0.720000  1.000000  0.810000 ScalE2=  1.000000  1.000000
 IRadAn=      0 IRanWt=     -1 IRanGd=            0 ICorTp=0 IEmpDi=  4
 NAtoms=    9 NActive=    9 NUniq=    9 SFac= 1.00D+00 NAtFMM=   60 NAOKFM=F Big=F
 Integral buffers will be    131072 words long.
 Regular integral format.
 Two-electron integral symmetry is turned on.
 Leave Link  301 at Tue Dec 15 16:28:57 2015, MaxMem=    33554432 cpu:         0.0
 (Enter /home/Applications/g09/g09/l302.exe)
 NPDir=0 NMtPBC=     1 NCelOv=     1 NCel=       1 NClECP=     1 NCelD=      1
         NCelK=      1 NCelE2=     1 NClLst=     1 CellRange=     0.0.
 One-electron integrals computed using PRISM.
 NBasis=    53 RedAO= T EigKep=  3.03D-03  NBF=    53
 NBsUse=    53 1.00D-06 EigRej= -1.00D+00 NBFU=    53
 Precomputing XC quadrature grid using
 IXCGrd= 4 IRadAn=           0 IRanWt=          -1 IRanGd=           0 AccXCQ= 0.00D+00.
 Generated NRdTot=       0 NPtTot=           0 NUsed=           0 NTot=          32
 NSgBfM=    53    53    53    53    53 MxSgAt=     9 MxSgA2=     9.
 Leave Link  302 at Tue Dec 15 16:28:57 2015, MaxMem=    33554432 cpu:         0.1
 (Enter /home/Applications/g09/g09/l308.exe)
 Leave Link  308 at Tue Dec 15 16:28:57 2015, MaxMem=    33554432 cpu:         0.0
 (Enter /home/Applications/g09/g09/l303.exe)
 DipDrv:  MaxL=1.
 Leave Link  303 at Tue Dec 15 16:28:57 2015, MaxMem=    33554432 cpu:         0.0
 (Enter /home/Applications/g09/g09/l401.exe)
 ExpMin= 1.83D-01 ExpMax= 3.22D+02 ExpMxC= 3.22D+02 IAcc=1 IRadAn=         1 AccDes= 0.00D+00
 Harris functional with IExCor=  402 and IRadAn=       1 diagonalized for initial guess.
 HarFok:  IExCor=  402 AccDes= 0.00D+00 IRadAn=         1 IDoV= 1 UseB2=F ITyADJ=14
 ICtDFT=  3500011 ScaDFX=  1.000000  1.000000  1.000000  1.000000
 FoFCou: FMM=F IPFlag=           0 FMFlag=      100000 FMFlg1=           0
         NFxFlg=           0 DoJE=T BraDBF=F KetDBF=T FulRan=T
         wScrn=  0.000000 ICntrl=     500 IOpCl=  0 I1Cent=   200000004 NGrid=           0
         NMat0=    1 NMatS0=      1 NMatT0=    0 NMatD0=    1 NMtDS0=    0 NMtDT0=    0
 Petite list used in FoFCou.
 Harris En= -228.715590697538    
 JPrj=0 DoOrth=F DoCkMO=F.
 Leave Link  401 at Tue Dec 15 16:28:57 2015, MaxMem=    33554432 cpu:         0.1
 (Enter /home/Applications/g09/g09/l502.exe)
 Closed shell SCF:
 Using DIIS extrapolation, IDIIS=  1040.
 Integral symmetry usage will be decided dynamically.
 Keep R1 ints in memory in canonical form, NReq=1925595.
 IVT=       27707 IEndB=       27707 NGot=    33554432 MDV=    32502130
 LenX=    32502130 LenY=    32498880
 Requested convergence on RMS density matrix=1.00D-08 within 128 cycles.
 Requested convergence on MAX density matrix=1.00D-06.
 Requested convergence on             energy=1.00D-06.
 No special actions if energy rises.
 FoFCou: FMM=F IPFlag=           0 FMFlag=           0 FMFlg1=           0
         NFxFlg=           0 DoJE=F BraDBF=F KetDBF=F FulRan=T
         wScrn=  0.000000 ICntrl=     600 IOpCl=  0 I1Cent=           0 NGrid=           0
         NMat0=    1 NMatS0=   1431 NMatT0=    0 NMatD0=    1 NMtDS0=    0 NMtDT0=    0
 Symmetry not used in FoFCou.
 Integral accuracy reduced to 1.0D-05 until final iterations.

 Cycle   1  Pass 0  IDiag  1:
 E= -228.643425522316    
 DIIS: error= 3.43D-02 at cycle   1 NSaved=   1.
 NSaved= 1 IEnMin= 1 EnMin= -228.643425522316     IErMin= 1 ErrMin= 3.43D-02
 ErrMax= 3.43D-02  0.00D+00 EMaxC= 1.00D-01 BMatC= 8.03D-02 BMatP= 8.03D-02
 IDIUse=3 WtCom= 6.57D-01 WtEn= 3.43D-01
 Coeff-Com:  0.100D+01
 Coeff-En:   0.100D+01
 Coeff:      0.100D+01
 Gap=     0.226 Goal=   None    Shift=    0.000
 GapD=    0.226 DampG=1.000 DampE=0.500 DampFc=0.5000 IDamp=-1.
 Damping current iteration by 5.00D-01
 RMSDP=1.26D-02 MaxDP=1.24D-01              OVMax= 1.99D-01

 Cycle   2  Pass 0  IDiag  1:
 E= -228.675994958072     Delta-E=       -0.032569435756 Rises=F Damp=T
 DIIS: error= 1.29D-02 at cycle   2 NSaved=   2.
 NSaved= 2 IEnMin= 2 EnMin= -228.675994958072     IErMin= 2 ErrMin= 1.29D-02
 ErrMax= 1.29D-02  0.00D+00 EMaxC= 1.00D-01 BMatC= 8.81D-03 BMatP= 8.03D-02
 IDIUse=3 WtCom= 8.71D-01 WtEn= 1.29D-01
 Coeff-Com:  0.116D+00 0.884D+00
 Coeff-En:   0.205D+00 0.795D+00
 Coeff:      0.128D+00 0.872D+00
 Gap=     0.243 Goal=   None    Shift=    0.000
 RMSDP=4.15D-03 MaxDP=3.26D-02 DE=-3.26D-02 OVMax= 1.61D-01

 Cycle   3  Pass 0  IDiag  1:
 E= -228.718824617762     Delta-E=       -0.042829659690 Rises=F Damp=F
 DIIS: error= 1.68D-02 at cycle   3 NSaved=   3.
 NSaved= 3 IEnMin= 3 EnMin= -228.718824617762     IErMin= 2 ErrMin= 1.29D-02
 ErrMax= 1.68D-02  0.00D+00 EMaxC= 1.00D-01 BMatC= 9.89D-03 BMatP= 8.81D-03
 IDIUse=2 WtCom= 0.00D+00 WtEn= 1.00D+00
 Coeff-En:   0.000D+00 0.000D+00 0.100D+01
 Coeff:      0.000D+00 0.000D+00 0.100D+01
 Gap=     0.236 Goal=   None    Shift=    0.000
 RMSDP=5.37D-03 MaxDP=4.43D-02 DE=-4.28D-02 OVMax= 1.06D-01

 Cycle   4  Pass 0  IDiag  1:
 E= -228.695421694381     Delta-E=        0.023402923381 Rises=F Damp=F
 DIIS: error= 3.41D-02 at cycle   4 NSaved=   4.
 NSaved= 4 IEnMin= 3 EnMin= -228.718824617762     IErMin= 2 ErrMin= 1.29D-02
 ErrMax= 3.41D-02  0.00D+00 EMaxC= 1.00D-01 BMatC= 3.55D-02 BMatP= 8.81D-03
 IDIUse=2 WtCom= 0.00D+00 WtEn= 1.00D+00
 Coeff-En:   0.000D+00 0.000D+00 0.738D+00 0.262D+00
 Coeff:      0.000D+00 0.000D+00 0.738D+00 0.262D+00
 Gap=     0.246 Goal=   None    Shift=    0.000
 RMSDP=2.73D-03 MaxDP=2.20D-02 DE= 2.34D-02 OVMax= 5.94D-02

 Cycle   5  Pass 0  IDiag  1:
 E= -228.726239572027     Delta-E=       -0.030817877646 Rises=F Damp=F
 DIIS: error= 7.41D-03 at cycle   5 NSaved=   5.
 NSaved= 5 IEnMin= 5 EnMin= -228.726239572027     IErMin= 5 ErrMin= 7.41D-03
 ErrMax= 7.41D-03  0.00D+00 EMaxC= 1.00D-01 BMatC= 1.78D-03 BMatP= 8.81D-03
 IDIUse=3 WtCom= 9.26D-01 WtEn= 7.41D-02
 Coeff-Com: -0.745D-02 0.254D-01 0.236D+00-0.714D-01 0.817D+00
 Coeff-En:   0.000D+00 0.000D+00 0.183D+00 0.000D+00 0.817D+00
 Coeff:     -0.689D-02 0.235D-01 0.232D+00-0.661D-01 0.817D+00
 Gap=     0.250 Goal=   None    Shift=    0.000
 RMSDP=8.60D-04 MaxDP=6.39D-03 DE=-3.08D-02 OVMax= 1.73D-02

 Cycle   6  Pass 0  IDiag  1:
 E= -228.727865775563     Delta-E=       -0.001626203536 Rises=F Damp=F
 DIIS: error= 5.05D-04 at cycle   6 NSaved=   6.
 NSaved= 6 IEnMin= 6 EnMin= -228.727865775563     IErMin= 6 ErrMin= 5.05D-04
 ErrMax= 5.05D-04  0.00D+00 EMaxC= 1.00D-01 BMatC= 8.70D-06 BMatP= 1.78D-03
 IDIUse=3 WtCom= 9.95D-01 WtEn= 5.05D-03
 Coeff-Com: -0.662D-02 0.152D-01 0.655D-01-0.548D-01 0.394D+00 0.587D+00
 Coeff-En:   0.000D+00 0.000D+00 0.000D+00 0.000D+00 0.000D+00 0.100D+01
 Coeff:     -0.659D-02 0.151D-01 0.652D-01-0.545D-01 0.392D+00 0.589D+00
 Gap=     0.250 Goal=   None    Shift=    0.000
 RMSDP=6.71D-05 MaxDP=6.77D-04 DE=-1.63D-03 OVMax= 1.47D-03

 Cycle   7  Pass 0  IDiag  1:
 E= -228.727874340543     Delta-E=       -0.000008564980 Rises=F Damp=F
 DIIS: error= 1.23D-04 at cycle   7 NSaved=   7.
 NSaved= 7 IEnMin= 7 EnMin= -228.727874340543     IErMin= 7 ErrMin= 1.23D-04
 ErrMax= 1.23D-04  0.00D+00 EMaxC= 1.00D-01 BMatC= 5.03D-07 BMatP= 8.70D-06
 IDIUse=3 WtCom= 9.99D-01 WtEn= 1.23D-03
 Coeff-Com: -0.321D-02 0.670D-02 0.205D-01-0.265D-01 0.170D+00 0.359D+00
 Coeff-Com:  0.474D+00
 Coeff-En:   0.000D+00 0.000D+00 0.000D+00 0.000D+00 0.000D+00 0.000D+00
 Coeff-En:   0.100D+01
 Coeff:     -0.321D-02 0.669D-02 0.205D-01-0.264D-01 0.169D+00 0.358D+00
 Coeff:      0.475D+00
 Gap=     0.250 Goal=   None    Shift=    0.000
 RMSDP=1.46D-05 MaxDP=1.81D-04 DE=-8.56D-06 OVMax= 4.23D-04

 Cycle   8  Pass 0  IDiag  1:
 E= -228.727874864645     Delta-E=       -0.000000524102 Rises=F Damp=F
 DIIS: error= 1.90D-05 at cycle   8 NSaved=   8.
 NSaved= 8 IEnMin= 8 EnMin= -228.727874864645     IErMin= 8 ErrMin= 1.90D-05
 ErrMax= 1.90D-05  0.00D+00 EMaxC= 1.00D-01 BMatC= 1.39D-08 BMatP= 5.03D-07
 IDIUse=1 WtCom= 1.00D+00 WtEn= 0.00D+00
 Coeff-Com: -0.185D-03 0.661D-04 0.165D-02-0.206D-02 0.175D-01 0.841D-01
 Coeff-Com:  0.170D+00 0.729D+00
 Coeff:     -0.185D-03 0.661D-04 0.165D-02-0.206D-02 0.175D-01 0.841D-01
 Coeff:      0.170D+00 0.729D+00
 Gap=     0.250 Goal=   None    Shift=    0.000
 RMSDP=1.97D-06 MaxDP=1.83D-05 DE=-5.24D-07 OVMax= 3.25D-05

 Initial convergence to 1.0D-05 achieved.  Increase integral accuracy.
 Cycle   9  Pass 1  IDiag  1:
 E= -228.727815050772     Delta-E=        0.000059813874 Rises=F Damp=F
 DIIS: error= 2.30D-05 at cycle   1 NSaved=   1.
 NSaved= 1 IEnMin= 1 EnMin= -228.727815050772     IErMin= 1 ErrMin= 2.30D-05
 ErrMax= 2.30D-05  0.00D+00 EMaxC= 1.00D-01 BMatC= 1.04D-08 BMatP= 1.04D-08
 IDIUse=1 WtCom= 1.00D+00 WtEn= 0.00D+00
 Coeff-Com:  0.100D+01
 Coeff:      0.100D+01
 Gap=     0.250 Goal=   None    Shift=    0.000
 RMSDP=1.97D-06 MaxDP=1.83D-05 DE= 5.98D-05 OVMax= 6.48D-05

 Cycle  10  Pass 1  IDiag  1:
 E= -228.727815065778     Delta-E=       -0.000000015006 Rises=F Damp=F
 DIIS: error= 4.91D-06 at cycle   2 NSaved=   2.
 NSaved= 2 IEnMin= 2 EnMin= -228.727815065778     IErMin= 2 ErrMin= 4.91D-06
 ErrMax= 4.91D-06  0.00D+00 EMaxC= 1.00D-01 BMatC= 1.58D-09 BMatP= 1.04D-08
 IDIUse=1 WtCom= 1.00D+00 WtEn= 0.00D+00
 Coeff-Com:  0.139D+00 0.861D+00
 Coeff:      0.139D+00 0.861D+00
 Gap=     0.250 Goal=   None    Shift=    0.000
 RMSDP=2.34D-06 MaxDP=2.39D-05 DE=-1.50D-08 OVMax= 4.13D-05

 Cycle  11  Pass 1  IDiag  1:
 E= -228.727815064006     Delta-E=        0.000000001772 Rises=F Damp=F
 DIIS: error= 9.19D-06 at cycle   3 NSaved=   3.
 NSaved= 3 IEnMin= 2 EnMin= -228.727815065778     IErMin= 2 ErrMin= 4.91D-06
 ErrMax= 9.19D-06  0.00D+00 EMaxC= 1.00D-01 BMatC= 3.47D-09 BMatP= 1.58D-09
 IDIUse=1 WtCom= 1.00D+00 WtEn= 0.00D+00
 Coeff-Com: -0.563D-02 0.603D+00 0.402D+00
 Coeff:     -0.563D-02 0.603D+00 0.402D+00
 Gap=     0.250 Goal=   None    Shift=    0.000
 RMSDP=1.21D-06 MaxDP=1.22D-05 DE= 1.77D-09 OVMax= 2.48D-05

 Cycle  12  Pass 1  IDiag  1:
 E= -228.727815067596     Delta-E=       -0.000000003590 Rises=F Damp=F
 DIIS: error= 1.00D-06 at cycle   4 NSaved=   4.
 NSaved= 4 IEnMin= 4 EnMin= -228.727815067596     IErMin= 4 ErrMin= 1.00D-06
 ErrMax= 1.00D-06  0.00D+00 EMaxC= 1.00D-01 BMatC= 5.07D-11 BMatP= 1.58D-09
 IDIUse=1 WtCom= 1.00D+00 WtEn= 0.00D+00
 Coeff-Com: -0.993D-02 0.277D+00 0.191D+00 0.542D+00
 Coeff:     -0.993D-02 0.277D+00 0.191D+00 0.542D+00
 Gap=     0.250 Goal=   None    Shift=    0.000
 RMSDP=1.28D-07 MaxDP=1.29D-06 DE=-3.59D-09 OVMax= 2.05D-06

 Cycle  13  Pass 1  IDiag  1:
 E= -228.727815067629     Delta-E=       -0.000000000033 Rises=F Damp=F
 DIIS: error= 3.82D-07 at cycle   5 NSaved=   5.
 NSaved= 5 IEnMin= 5 EnMin= -228.727815067629     IErMin= 5 ErrMin= 3.82D-07
 ErrMax= 3.82D-07  0.00D+00 EMaxC= 1.00D-01 BMatC= 4.63D-12 BMatP= 5.07D-11
 IDIUse=1 WtCom= 1.00D+00 WtEn= 0.00D+00
 Coeff-Com: -0.420D-02 0.670D-01 0.437D-01 0.267D+00 0.626D+00
 Coeff:     -0.420D-02 0.670D-01 0.437D-01 0.267D+00 0.626D+00
 Gap=     0.250 Goal=   None    Shift=    0.000
 RMSDP=3.90D-08 MaxDP=3.59D-07 DE=-3.29D-11 OVMax= 7.01D-07

 Cycle  14  Pass 1  IDiag  1:
 E= -228.727815067633     Delta-E=       -0.000000000003 Rises=F Damp=F
 DIIS: error= 5.50D-08 at cycle   6 NSaved=   6.
 NSaved= 6 IEnMin= 6 EnMin= -228.727815067633     IErMin= 6 ErrMin= 5.50D-08
 ErrMax= 5.50D-08  0.00D+00 EMaxC= 1.00D-01 BMatC= 1.55D-13 BMatP= 4.63D-12
 IDIUse=1 WtCom= 1.00D+00 WtEn= 0.00D+00
 Coeff-Com: -0.100D-02 0.123D-01 0.851D-02 0.701D-01 0.251D+00 0.659D+00
 Coeff:     -0.100D-02 0.123D-01 0.851D-02 0.701D-01 0.251D+00 0.659D+00
 Gap=     0.250 Goal=   None    Shift=    0.000
 RMSDP=8.87D-09 MaxDP=1.06D-07 DE=-3.41D-12 OVMax= 1.09D-07

 SCF Done:  E(RB3LYP) =  -228.727815068     A.U. after   14 cycles
            NFock= 14  Conv=0.89D-08     -V/T= 2.0071
 KE= 2.271180944589D+02 PE=-8.596690112539D+02 EE= 2.402643970422D+02
 Leave Link  502 at Tue Dec 15 16:29:00 2015, MaxMem=    33554432 cpu:         3.0
 (Enter /home/Applications/g09/g09/l801.exe)
 DoSCS=F DFT=T ScalE2(SS,OS)=  1.000000  1.000000
 ExpMin= 1.83D-01 ExpMax= 3.22D+02 ExpMxC= 3.22D+02 IAcc=3 IRadAn=         5 AccDes= 0.00D+00
 HarFok:  IExCor=  205 AccDes= 0.00D+00 IRadAn=         5 IDoV=-2 UseB2=F ITyADJ=14
 ICtDFT= 12500011 ScaDFX=  1.000000  1.000000  1.000000  1.000000
 Largest valence mixing into a core orbital is  1.84D-04
 Largest core mixing into a valence orbital is  4.39D-05
 Range of M.O.s used for correlation:     6    53
 NBasis=    53 NAE=    18 NBE=    18 NFC=     5 NFV=     0
 NROrb=     48 NOA=    13 NOB=    13 NVA=    35 NVB=    35
 Leave Link  801 at Tue Dec 15 16:29:00 2015, MaxMem=    33554432 cpu:         0.2
 (Enter /home/Applications/g09/g09/l914.exe)
 RHF ground state
 MDV=    33554432 DFT=T DoStab=F Mixed=T DoRPA=F DoScal=F NonHer=F
 Keep R1, R2, and R3 ints in memory in canonical form, NReq=5596273.
 FoFCou: FMM=F IPFlag=           0 FMFlag=           0 FMFlg1=           0
         NFxFlg=           0 DoJE=F BraDBF=F KetDBF=F FulRan=T
         wScrn=  0.000000 ICntrl=     600 IOpCl=  0 I1Cent=           0 NGrid=           0
         NMat0=    1 NMatS0=   1431 NMatT0=    0 NMatD0=    1 NMtDS0=    0 NMtDT0=    0
 Symmetry not used in FoFCou.
 Making orbital integer symmetry assigments:
 Orbital symmetries:
       Occupied  (A) (A) (A) (A) (A) (A) (A) (A) (A) (A) (A) (A)
                 (A) (A) (A) (A) (A) (A)
       Virtual   (A) (A) (A) (A) (A) (A) (A) (A) (A) (A) (A) (A)
                 (A) (A) (A) (A) (A) (A) (A) (A) (A) (A) (A) (A)
                 (A) (A) (A) (A) (A) (A) (A) (A) (A) (A) (A)
    60 initial guesses have been made.
 Convergence on wavefunction:    0.000001000000000
 Davidson Disk Diagonalization:  ConvIn= 1.00D-06 SkipCon=T Conv= 1.00D-06.
 Max sub-space:   240 roots to seek:    60 dimension of matrix:          910
 Iteration     1 Dimension    60 NMult     0 NNew     60
 CISAX will form    60 AO SS matrices at one time.
 NMat=    60 NSing=    60 JSym2X= 0.
 New state      1 was old state      3
 New state      2 was old state      4
 New state      3 was old state      1
 New state      4 was old state      7
 New state      5 was old state      6
 New state      6 was old state      9
 New state      7 was old state      8
 New state      8 was old state     10
 New state      9 was old state     11
 New state     10 was old state     12
 New state     11 was old state      5
 New state     12 was old state     14
 New state     14 was old state     15
 New state     15 was old state      2
 Excitation Energies [eV] at current iteration:
 Root      1 :     7.524915603205731
 Root      2 :     8.117527037248623
 Root      3 :     8.301351900152344
 Root      4 :     8.949467756712799
 Root      5 :     9.370252588195882
 Root      6 :     9.649144445724518
 Root      7 :     9.857696888349752
 Root      8 :     9.997766416396262
 Root      9 :    10.025821726482230
 Root     10 :    10.399039752182290
 Root     11 :    10.657415982685170
 Root     12 :    10.907650546306290
 Root     13 :    10.967998831387480
 Root     14 :    11.062837435796900
 Root     15 :    11.244781963258430
 Root     16 :    11.417548499780990
 Root     17 :    11.603646815646070
 Root     18 :    11.697217830066800
 Root     19 :    11.760626409766710
 Root     20 :    11.872208050135620
 Root     21 :    12.034741534940330
 Root     22 :    12.093396338502450
 Root     23 :    12.856396772641540
 Root     24 :    13.044058287033070
 Root     25 :    13.306984644005980
 Root     26 :    13.391455349386770
 Root     27 :    13.540456264422100
 Root     28 :    13.596430816953890
 Root     29 :    13.714235054682640
 Root     30 :    13.742886651422330
 Root     31 :    14.062404192703700
 Root     32 :    14.200079488711050
 Root     33 :    14.261888211224850
 Root     34 :    14.494942681940800
 Root     35 :    14.561519034834010
 Root     36 :    14.752305964821420
 Root     37 :    14.829901560352720
 Root     38 :    14.918086300647340
 Root     39 :    15.026258567863130
 Root     40 :    15.182986152186760
 Root     41 :    15.226261924362000
 Root     42 :    15.373199533222380
 Root     43 :    15.465140115335560
 Root     44 :    15.646254571715760
 Root     45 :    15.657693758839190
 Root     46 :    15.774874075729030
 Root     47 :    15.864498332634560
 Root     48 :    15.952484956643630
 Root     49 :    16.018251190876270
 Root     50 :    16.078996284470610
 Root     51 :    16.364146463936350
 Root     52 :    16.395374100470160
 Root     53 :    16.571032493306960
 Root     54 :    16.609951864084850
 Root     55 :    16.707132923429750
 Root     56 :    16.770583885737380
 Root     57 :    16.805559800620100
 Root     58 :    16.975074700169360
 Root     59 :    17.928279078140310
 Root     60 :    19.304851403203040
 Iteration     2 Dimension   120 NMult    60 NNew     60
 CISAX will form    60 AO SS matrices at one time.
 NMat=    60 NSing=    60 JSym2X= 0.
 New state      1 was old state      3
 Root      1 not converged, maximum delta is    0.430413235789106
 New state      2 was old state      1
 Root      2 not converged, maximum delta is    0.045029651275418
 New state      3 was old state      2
 Root      3 not converged, maximum delta is    0.420240333167829
 Root      4 not converged, maximum delta is    0.045022272234819
 Root      5 not converged, maximum delta is    0.019154128856047
 Root      6 not converged, maximum delta is    0.196023620025646
 New state      7 was old state     11
 Root      7 not converged, maximum delta is    0.400648570646844
 New state      8 was old state      7
 Root      8 not converged, maximum delta is    0.142256633829152
 New state      9 was old state      8
 Root      9 not converged, maximum delta is    0.122983197433765
 New state     10 was old state      9
 Root     10 not converged, maximum delta is    0.066490930503459
 New state     11 was old state     15
 Root     11 not converged, maximum delta is    0.395124754138858
 New state     12 was old state     10
 Root     12 not converged, maximum delta is    0.232991329364707
 New state     13 was old state     12
 Root     13 not converged, maximum delta is    0.318150096237765
 New state     14 was old state     13
 Root     14 not converged, maximum delta is    0.291403917437823
 New state     15 was old state     14
 Root     15 not converged, maximum delta is    0.328189130375454
 Excitation Energies [eV] at current iteration:
 Root      1 :     7.327794077831995   Change is   -0.973557822320349
 Root      2 :     7.400338641591167   Change is   -0.124576961614564
 Root      3 :     8.168526596222016   Change is    0.050999558973394
 Root      4 :     8.910187355295967   Change is   -0.039280401416833
 Root      5 :     9.348963228754846   Change is   -0.021289359441036
 Root      6 :     9.582926630578015   Change is   -0.066217815146503
 Root      7 :     9.789941270228763   Change is   -0.867474712456409
 Root      8 :     9.849340119503276   Change is   -0.008356768846476
 Root      9 :     9.983851579761680   Change is   -0.013914836634582
 Root     10 :    10.008743223722390   Change is   -0.017078502759838
 Root     11 :    10.240582365800330   Change is   -1.004199597458100
 Root     12 :    10.437340422402830   Change is    0.038300670220542
 Root     13 :    10.841477730222040   Change is   -0.066172816084252
 Root     14 :    10.966919895618060   Change is   -0.001078935769427
 Root     15 :    11.082754614405170   Change is    0.019917178608272
 Root     16 :    11.385168015069790   Change is   -0.032380484711201
 Root     17 :    11.562692920298350   Change is   -0.040953895347722
 Root     18 :    11.657159112730720   Change is   -0.040058717336080
 Root     19 :    11.720331618673150   Change is   -0.040294791093557
 Root     20 :    11.839271486055870   Change is   -0.032936564079745
 Root     21 :    11.991451068025060   Change is   -0.043290466915268
 Root     22 :    12.037545289231740   Change is   -0.055851049270709
 Root     23 :    12.829271332517690   Change is   -0.027125440123850
 Root     24 :    12.965624871740710   Change is   -0.078433415292361
 Root     25 :    13.229380587635050   Change is   -0.162074761751724
 Root     26 :    13.277467963957350   Change is   -0.029516680048625
 Root     27 :    13.419024911238620   Change is   -0.177405905715269
 Root     28 :    13.509211775577440   Change is   -0.031244488844657
 Root     29 :    13.601843981392620   Change is   -0.112391073290020
 Root     30 :    13.696033212986690   Change is   -0.046853438435631
 Root     31 :    13.714848799220180   Change is   -1.203237501427165
 Root     32 :    14.087511549373600   Change is    0.025107356669896
 Root     33 :    14.170168308095010   Change is   -0.029911180616039
 Root     34 :    14.205226234355230   Change is   -0.056661976869614
 Root     35 :    14.272995078614290   Change is   -0.288523956219719
 Root     36 :    14.538854650620860   Change is    0.043911968680061
 Root     37 :    14.685858348475760   Change is   -0.066447616345660
 Root     38 :    14.782718145432880   Change is   -0.047183414919833
 Root     39 :    14.925757607668180   Change is   -0.539382507667384
 Root     40 :    14.985796082692580   Change is   -0.040462485170551
 Root     41 :    15.057336813807950   Change is   -0.168925110554056
 Root     42 :    15.152141910643150   Change is   -0.030844241543612
 Root     43 :    15.278657184518420   Change is   -0.094542348703963
 Root     44 :    15.376468431610760   Change is   -0.281225327228431
 Root     45 :    15.543917412139970   Change is   -0.102337159575793
 Root     46 :    15.607492657826160   Change is   -0.167381417902864
 Root     47 :    15.734070803616470   Change is   -0.130427529018096
 Root     48 :    15.766371330173890   Change is   -0.251879860702383
 Root     49 :    15.906618755158180   Change is   -0.045866201485449
 Root     50 :    15.976528893562910   Change is   -0.102467390907701
 Root     51 :    16.075978618579380   Change is   -0.533973245505462
 Root     52 :    16.256404174391510   Change is   -0.138969926078659
 Root     53 :    16.332932570117250   Change is   -0.031213893819098
 Root     54 :    16.480239214026290   Change is   -0.226893709403463
 Root     55 :    16.531726247488260   Change is   -0.039306245818693
 Root     56 :    16.596633582966470   Change is   -0.378441117202897
 Root     57 :    16.703090521152340   Change is   -0.067493364585044
 Root     58 :    16.785798664770870   Change is   -0.019761135849231
 Root     59 :    16.791763033487320   Change is   -1.136516044652988
 Root     60 :    17.692333456070000   Change is   -1.612517947133045
 Iteration     3 Dimension   135 NMult   120 NNew     15
 CISAX will form    15 AO SS matrices at one time.
 NMat=    15 NSing=    15 JSym2X= 0.
 Root      1 not converged, maximum delta is    0.002862751311036
 Root      2 not converged, maximum delta is    0.001428526963082
 Root      3 not converged, maximum delta is    0.000347428515839
 Root      4 not converged, maximum delta is    0.000301467376872
 Root      5 not converged, maximum delta is    0.000166228656007
 Root      6 not converged, maximum delta is    0.003148695136853
 Root      7 not converged, maximum delta is    0.011812103797169
 Root      8 not converged, maximum delta is    0.005729937859674
 Root      9 not converged, maximum delta is    0.001248821356585
 Root     10 not converged, maximum delta is    0.000463808273706
 Root     11 not converged, maximum delta is    0.003809489860268
 Root     12 not converged, maximum delta is    0.000903176395897
 Root     13 not converged, maximum delta is    0.000725776185820
 Root     14 not converged, maximum delta is    0.000278886029711
 Root     15 not converged, maximum delta is    0.000422436401572
 Excitation Energies [eV] at current iteration:
 Root      1 :     7.325443235135706   Change is   -0.002350842696289
 Root      2 :     7.399529366056266   Change is   -0.000809275534901
 Root      3 :     8.168492676350303   Change is   -0.000033919871715
 Root      4 :     8.910111347846781   Change is   -0.000076007449186
 Root      5 :     9.348944111505151   Change is   -0.000019117249695
 Root      6 :     9.581710302390327   Change is   -0.001216328187687
 Root      7 :     9.787495652885823   Change is   -0.002445617342939
 Root      8 :     9.848886582862443   Change is   -0.000453536640833
 Root      9 :     9.983661218460258   Change is   -0.000190361301423
 Root     10 :    10.008710442879440   Change is   -0.000032780842950
 Root     11 :    10.237385835098700   Change is   -0.003196530701632
 Root     12 :    10.437195525253550   Change is   -0.000144897149282
 Root     13 :    10.841368468914590   Change is   -0.000109261307453
 Root     14 :    10.966878253031010   Change is   -0.000041642587042
 Root     15 :    11.082682688121050   Change is   -0.000071926284124
 Iteration     4 Dimension   150 NMult   135 NNew     15
 CISAX will form    15 AO SS matrices at one time.
 NMat=    15 NSing=    15 JSym2X= 0.
 Root      1 not converged, maximum delta is    0.000095672668525
 Root      2 not converged, maximum delta is    0.000032517085266
 Root      3 not converged, maximum delta is    0.000012564523744
 Root      4 not converged, maximum delta is    0.000009389219216
 Root      5 not converged, maximum delta is    0.000004235401347
 Root      6 not converged, maximum delta is    0.000049569294603
 Root      7 not converged, maximum delta is    0.000072772293199
 Root      8 not converged, maximum delta is    0.000030615788736
 Root      9 not converged, maximum delta is    0.000018827415006
 Root     10 not converged, maximum delta is    0.000009452582764
 Root     11 not converged, maximum delta is    0.000073995268002
 Root     12 not converged, maximum delta is    0.000020519342737
 Root     13 not converged, maximum delta is    0.000017064193871
 Root     14 not converged, maximum delta is    0.000010067371072
 Root     15 not converged, maximum delta is    0.000012726270327
 Excitation Energies [eV] at current iteration:
 Root      1 :     7.325440105427325   Change is   -0.000003129708381
 Root      2 :     7.399528230647618   Change is   -0.000001135408647
 Root      3 :     8.168492631770976   Change is   -0.000000044579327
 Root      4 :     8.910111268003526   Change is   -0.000000079843256
 Root      5 :     9.348944096135462   Change is   -0.000000015369690
 Root      6 :     9.581708430262937   Change is   -0.000001872127391
 Root      7 :     9.787491814602868   Change is   -0.000003838282955
 Root      8 :     9.848885898121951   Change is   -0.000000684740492
 Root      9 :     9.983660954164165   Change is   -0.000000264296094
 Root     10 :    10.008710401415410   Change is   -0.000000041464031
 Root     11 :    10.237380770076470   Change is   -0.000005065022229
 Root     12 :    10.437195299164720   Change is   -0.000000226088831
 Root     13 :    10.841368283835230   Change is   -0.000000185079358
 Root     14 :    10.966878189615160   Change is   -0.000000063415850
 Root     15 :    11.082682574103750   Change is   -0.000000114017300
 Iteration     5 Dimension   165 NMult   150 NNew     15
 CISAX will form    15 AO SS matrices at one time.
 NMat=    15 NSing=    15 JSym2X= 0.
 Root      1 not converged, maximum delta is    0.000003083778261
 Root      2 has converged.
 Root      3 has converged.
 Root      4 has converged.
 Root      5 has converged.
 Root      6 not converged, maximum delta is    0.000001408893739
 Root      7 not converged, maximum delta is    0.000002073057922
 Root      8 not converged, maximum delta is    0.000001114375461
 Root      9 has converged.
 Root     10 not converged, maximum delta is    0.000001006239231
 Root     11 not converged, maximum delta is    0.000004780180106
 Root     12 has converged.
 Root     13 has converged.
 Root     14 has converged.
 Root     15 has converged.
 Excitation Energies [eV] at current iteration:
 Root      1 :     7.325440102621866   Change is   -0.000000002805460
 Root      2 :     7.399528229602964   Change is   -0.000000001044654
 Root      3 :     8.168492631732363   Change is   -0.000000000038612
 Root      4 :     8.910111267945235   Change is   -0.000000000058290
 Root      5 :     9.348944096124594   Change is   -0.000000000010867
 Root      6 :     9.581708428827421   Change is   -0.000000001435518
 Root      7 :     9.787491811566756   Change is   -0.000000003036111
 Root      8 :     9.848885897544635   Change is   -0.000000000577316
 Root      9 :     9.983660953930260   Change is   -0.000000000233905
 Root     10 :    10.008710401367450   Change is   -0.000000000047959
 Root     11 :    10.237380764317630   Change is   -0.000000005758840
 Root     12 :    10.437195298932640   Change is   -0.000000000232082
 Root     13 :    10.841368283632350   Change is   -0.000000000202881
 Root     14 :    10.966878189538280   Change is   -0.000000000076888
 Root     15 :    11.082682573968260   Change is   -0.000000000135486
 Iteration     6 Dimension   170 NMult   165 NNew      5
 CISAX will form     5 AO SS matrices at one time.
 NMat=     5 NSing=     5 JSym2X= 0.
 Root      1 has converged.
 Root      2 has converged.
 Root      3 has converged.
 Root      4 has converged.
 Root      5 has converged.
 Root      6 has converged.
 Root      7 has converged.
 Root      8 has converged.
 Root      9 has converged.
 Root     10 has converged.
 Root     11 has converged.
 Root     12 has converged.
 Root     13 has converged.
 Root     14 has converged.
 Root     15 has converged.
 Excitation Energies [eV] at current iteration:
 Root      1 :     7.325440102620472   Change is   -0.000000000001394
 Root      2 :     7.399528229602777   Change is   -0.000000000000187
 Root      3 :     8.168492631732333   Change is   -0.000000000000030
 Root      4 :     8.910111267945210   Change is   -0.000000000000026
 Root      5 :     9.348944096124596   Change is    0.000000000000002
 Root      6 :     9.581708428826753   Change is   -0.000000000000668
 Root      7 :     9.787491811565301   Change is   -0.000000000001456
 Root      8 :     9.848885897544333   Change is   -0.000000000000302
 Root      9 :     9.983660953930162   Change is   -0.000000000000097
 Root     10 :    10.008710401367430   Change is   -0.000000000000023
 Root     11 :    10.237380764313420   Change is   -0.000000000004208
 Root     12 :    10.437195298932520   Change is   -0.000000000000116
 Root     13 :    10.841368283632230   Change is   -0.000000000000121
 Root     14 :    10.966878189538240   Change is   -0.000000000000035
 Root     15 :    11.082682573968180   Change is   -0.000000000000083
 Convergence achieved on expansion vectors.
 ***********************************************************************
 Excited states from <AA,BB:AA,BB> singles matrix:
 ***********************************************************************
 
 1PDM for each excited state written to RWF  633
 Ground to excited state transition densities written to RWF  633
 Ground to excited state transition electric dipole moments (Au):
       state          X           Y           Z        Dip. S.      Osc.
         1        -0.7374      0.9255     -0.0383      1.4017      0.2516
         2         0.0895     -0.0225      0.0190      0.0089      0.0016
         3        -0.1311      0.0672      0.0130      0.0219      0.0044
         4        -0.1609     -0.0498     -0.1447      0.0493      0.0108
         5        -0.0661     -0.0130     -0.0290      0.0054      0.0012
         6         0.7316      0.3263     -0.0410      0.6435      0.1511
         7        -1.0331     -0.5240      0.0281      1.3426      0.3220
         8        -0.3304     -0.2834     -0.0380      0.1909      0.0461
         9        -0.2239      0.0233      0.0315      0.0517      0.0126
        10         0.0615     -0.0676     -0.0378      0.0098      0.0024
        11        -0.1317      0.9884      0.0731      0.9996      0.2507
        12         0.2426     -0.0333      0.1170      0.0736      0.0188
        13         0.1802     -0.0696      0.0390      0.0388      0.0103
        14         0.0647      0.1047     -0.0364      0.0165      0.0044
        15        -0.1008     -0.1034      0.0349      0.0221      0.0060
 Ground to excited state transition velocity dipole moments (Au):
       state          X           Y           Z        Dip. S.      Osc.
         1         0.0064      0.0040     -0.0028      0.0001      0.0002
         2        -0.0370     -0.0320      0.0041      0.0024      0.0059
         3         0.0087     -0.0042     -0.0017      0.0001      0.0002
         4         0.0063     -0.0004      0.0770      0.0060      0.0121
         5         0.0149     -0.0054     -0.0138      0.0004      0.0009
         6        -0.0428      0.0083     -0.0417      0.0036      0.0069
         7         0.0670      0.0083     -0.0462      0.0067      0.0124
         8         0.0161      0.0110      0.0008      0.0004      0.0007
         9         0.0184     -0.0036     -0.0056      0.0004      0.0007
        10        -0.0076      0.0114      0.0210      0.0006      0.0011
        11         0.0429     -0.1004      0.0010      0.0119      0.0211
        12        -0.0299      0.0166     -0.0355      0.0024      0.0042
        13        -0.0254      0.0153     -0.0202      0.0013      0.0022
        14        -0.0076     -0.0155     -0.0227      0.0008      0.0013
        15         0.0098      0.0067     -0.0024      0.0001      0.0002
 Ground to excited state transition magnetic dipole moments (Au):
       state          X           Y           Z
         1         0.0660     -0.0139     -0.3099
         2        -0.0458      0.0490      0.0668
         3        -0.2606     -0.3726     -0.0535
         4        -1.2557      1.0131     -0.0326
         5         0.0050      0.1329      0.0562
         6        -0.2710      0.1736      0.0004
         7        -0.0863     -0.0223     -0.0400
         8        -0.1217      0.0499     -0.0333
         9        -0.0597     -0.1325      0.0368
        10         0.0391      0.3170      0.0745
        11        -0.1398      0.0313      0.1544
        12        -0.1998     -0.1049      0.0023
        13        -0.6055     -0.3230     -0.0780
        14         0.1317     -0.1940      0.0364
        15        -0.2824     -0.3643     -0.0254
 Ground to excited state transition velocity quadrupole moments (Au):
       state          XX          YY          ZZ          XY          XZ          YZ
         1        -0.2693      0.2483     -0.0034     -0.0221      0.0004      0.0035
         2         0.0023     -0.0210      0.0216     -0.0183     -0.0078      0.0011
         3        -0.0516      0.0610      0.0029      0.0110      0.0867     -0.0365
         4        -0.0290      0.0101      0.0126      0.0162     -0.1344     -0.1303
         5        -0.0292     -0.0109      0.0065      0.0220      0.1236     -0.1139
         6        -0.0953      0.0983     -0.0271     -0.1294     -0.0721     -0.0048
         7         0.0737     -0.0781      0.0311      0.2267     -0.0355      0.0376
         8        -0.0048      0.0334      0.0085      0.0662     -0.0292     -0.0880
         9         0.0879     -0.0563     -0.0055      0.0215     -0.0448     -0.0842
        10        -0.0063      0.0223     -0.0032     -0.0029     -0.0430     -0.0949
        11         0.4082     -0.4328     -0.0183     -0.1223     -0.0098     -0.0372
        12        -0.1186      0.0865      0.0009     -0.0340     -0.0332     -0.0494
        13        -0.0934      0.0858     -0.0012     -0.0262      0.0425     -0.0758
        14         0.0320     -0.0240     -0.0015     -0.0427      0.0751      0.0348
        15         0.0064     -0.0170      0.0011      0.0529     -0.0294      0.0444
 <0|del|b> * <b|rxdel|0> + <0|del|b> * <b|delr+rdel|0>
 Rotatory Strengths (R) in cgs (10**-40 erg-esu-cm/Gauss)
       state          XX          YY          ZZ    R(velocity)    E-M Angle
         1         1.1483      1.6475      0.4552      1.0837       61.12
         2        -2.1054      2.6036      0.5395      0.3459       85.07
         3         2.3699     -2.9162     -0.8792     -0.4752       97.72
         4        -1.8581    -13.4290     -7.9883     -7.7585       94.96
         5        -1.1593     -2.1577      0.4143     -0.9676      117.71
         6         7.4576      6.4091     12.2834      8.7167       47.89
         7        -8.3791      8.9260     -8.6252     -2.6928      120.95
         8         0.8760     -3.3744     -0.3071     -0.9352      122.85
         9        -0.0070     -2.6282      1.0507     -0.5281      106.31
        10         5.4071      1.9737      2.0277      3.1361       53.56
        11        -3.8502     -6.8696     -6.1602     -5.6267      112.98
        12        -0.0572      5.6914      2.0368      2.5570       68.04
        13        -3.1017     16.2778      8.1224      7.0995       61.03
        14         3.7818     -2.6829      0.9691      0.6893       79.95
        15        -1.9905     -1.8606     -5.0495     -2.9669      156.95
 1/2[<0|r|b>*<b|rxdel|0> + (<0|rxdel|b>*<b|r|0>)*]
 Rotatory Strengths (R) in cgs (10**-40 erg-esu-cm/Gauss)
       state          XX          YY          ZZ     R(length)
         1        34.3936      9.1285     -8.3873     11.7116
         2         2.8963      0.7804     -0.8964      0.9268
         3       -24.1716     17.6945      0.4935     -1.9946
         4      -142.8704     35.7101     -3.3365    -36.8323
         5         0.2356      1.2180      1.1545      0.8694
         6       140.2056    -40.0723      0.0123     33.3819
         7       -63.0146     -8.2607      0.7963    -23.4930
         8       -28.4334      9.9936     -0.8949     -6.4449
         9        -9.4603      2.1867     -0.8186     -2.6974
        10        -1.6994     15.1639      1.9902      5.1516
        11       -13.0224    -21.8656     -7.9865    -14.2915
        12        34.2673     -2.4747     -0.1863     10.5354
        13        77.1648    -15.8915      2.1530     21.1421
        14        -6.0309     14.3691      0.9369      3.0917
        15       -20.1281    -26.6509      0.6254    -15.3845
  1/2[<0|del|b>*<b|r|0> + (<0|r|b>*<b|del|0>)*] (Au)
       state          X           Y           Z        Dip. S.   Osc.(frdel)
         1        -0.0047      0.0037      0.0001      0.0009      0.0006
         2        -0.0033      0.0007      0.0001      0.0025      0.0017
         3        -0.0011     -0.0003      0.0000      0.0014      0.0010
         4        -0.0010      0.0000     -0.0111      0.0121      0.0081
         5        -0.0010      0.0001      0.0004      0.0005      0.0003
         6        -0.0313      0.0027      0.0017      0.0269      0.0179
         7        -0.0692     -0.0043     -0.0013      0.0748      0.0499
         8        -0.0053     -0.0031      0.0000      0.0085      0.0056
         9        -0.0041     -0.0001     -0.0002      0.0044      0.0029
        10        -0.0005     -0.0008     -0.0008      0.0020      0.0014
        11        -0.0056     -0.0992      0.0001      0.1048      0.0699
        12        -0.0073     -0.0006     -0.0042      0.0120      0.0080
        13        -0.0046     -0.0011     -0.0008      0.0064      0.0043
        14        -0.0005     -0.0016      0.0008      0.0013      0.0009
        15        -0.0010     -0.0007     -0.0001      0.0018      0.0012

 Excitation energies and oscillator strengths:
 
 Excited State   1:      Singlet-A      7.3254 eV  169.25 nm  f=0.2516  <S**2>=0.000
      18 -> 19         0.68139
 This state for optimization and/or second-order correction.
 Total Energy, E(CIS) =  -228.458610086    
 Copying the excited state density for this state as the 1-particle RhoCI density.
 
 Excited State   2:      Singlet-A      7.3995 eV  167.56 nm  f=0.0016  <S**2>=0.000
      17 -> 19         0.49019
      18 -> 20         0.50152
 
 Excited State   3:      Singlet-A      8.1685 eV  151.78 nm  f=0.0044  <S**2>=0.000
      18 -> 21         0.69858
 
 Excited State   4:      Singlet-A      8.9101 eV  139.15 nm  f=0.0108  <S**2>=0.000
      16 -> 19         0.69301
 
 Excited State   5:      Singlet-A      9.3489 eV  132.62 nm  f=0.0012  <S**2>=0.000
      18 -> 22         0.69291
 
 Excited State   6:      Singlet-A      9.5817 eV  129.40 nm  f=0.1511  <S**2>=0.000
      17 -> 19        -0.25622
      17 -> 20        -0.14741
      17 -> 21         0.40761
      18 -> 20         0.25545
      18 -> 23        -0.33422
      18 -> 24        -0.19929
 
 Excited State   7:      Singlet-A      9.7875 eV  126.68 nm  f=0.3220  <S**2>=0.000
      17 -> 19         0.33265
      17 -> 20         0.13496
      17 -> 21         0.13402
      18 -> 20        -0.33157
      18 -> 23        -0.29727
      18 -> 24        -0.31146
 
 Excited State   8:      Singlet-A      9.8489 eV  125.89 nm  f=0.0461  <S**2>=0.000
      17 -> 19         0.12858
      17 -> 21         0.53478
      18 -> 20        -0.12341
      18 -> 23         0.32983
      18 -> 24         0.21436
 
 Excited State   9:      Singlet-A      9.9837 eV  124.19 nm  f=0.0126  <S**2>=0.000
      15 -> 19        -0.29702
      17 -> 20         0.14865
      18 -> 23        -0.34895
      18 -> 24         0.49119
 
 Excited State  10:      Singlet-A     10.0087 eV  123.88 nm  f=0.0024  <S**2>=0.000
      15 -> 19         0.59172
      16 -> 20        -0.14409
      18 -> 23        -0.23427
      18 -> 24         0.24243
 
 Excited State  11:      Singlet-A     10.2374 eV  121.11 nm  f=0.2507  <S**2>=0.000
      15 -> 19         0.13286
      17 -> 19        -0.13229
      17 -> 20         0.61425
      17 -> 21         0.11687
      18 -> 20         0.12424
 
 Excited State  12:      Singlet-A     10.4372 eV  118.79 nm  f=0.0188  <S**2>=0.000
      14 -> 19         0.68224
      16 -> 20         0.10178
 
 Excited State  13:      Singlet-A     10.8414 eV  114.36 nm  f=0.0103  <S**2>=0.000
      14 -> 19        -0.11429
      15 -> 19         0.14449
      16 -> 20         0.66121
 
 Excited State  14:      Singlet-A     10.9669 eV  113.05 nm  f=0.0044  <S**2>=0.000
      17 -> 22         0.69809
 
 Excited State  15:      Singlet-A     11.0827 eV  111.87 nm  f=0.0060  <S**2>=0.000
      18 -> 25         0.69306
 SavETr:  write IOETrn=   770 NScale= 10 NData=  16 NLR=1 NState=   15 LETran=     280.
 The selected state is a singlet
 CISAX will form     1 AO SS matrices at one time.
 NMat=     1 NSing=     1 JSym2X= 0.
 CISAX will form     1 AO SS matrices at one time.
 NMat=     1 NSing=     1 JSym2X= 0.
 Leave Link  914 at Tue Dec 15 16:29:27 2015, MaxMem=    33554432 cpu:        27.4
 (Enter /home/Applications/g09/g09/l1002.exe)
 Minotr:  Closed shell wavefunction.
          Computing CIS/TD-HF/TD-KS derivatives.
          Using Z-Vector for PSCF gradient.
          Skipping F1 and S1 gradient terms here.
          IDoAtm=111111111
          Frozen-core window.
          Direct CPHF calculation.
          Differentiating once with respect to electric field.
                with respect to dipole field.
          Differentiating once with respect to nuclear coordinates.
          Requested convergence is 1.0D-10 RMS, and 1.0D-09 maximum.
          NewPWx=F KeepS1=T KeepF1=T KeepIn=T MapXYZ=F SortEE=F KeepMc=T.
          MDV=      33554290 using IRadAn=       0.
 Using stored XC quadrature information.
 Keep R1 ints in memory in canonical form, NReq=1898913.
 FoFCou: FMM=F IPFlag=           0 FMFlag=           0 FMFlg1=           0
         NFxFlg=           0 DoJE=F BraDBF=F KetDBF=F FulRan=T
         wScrn=  0.000000 ICntrl=     600 IOpCl=  0 I1Cent=           0 NGrid=           0
         NMat0=    1 NMatS0=   1431 NMatT0=    0 NMatD0=    1 NMtDS0=    0 NMtDT0=    0
 Symmetry not used in FoFCou.
          Solving linear equations separately, MaxMat=       0.
          There are     1 degrees of freedom in the 1st order CPHF.  IDoFFX=0 NUNeed=     1.
 LinEq1:  Iter=  0 NonCon=     1 RMS=2.68D-02 Max=4.38D-01 NDo=     1
 AX will form     1 AO Fock derivatives at one time.
 LinEq1:  Iter=  1 NonCon=     1 RMS=2.30D-02 Max=4.42D-01 NDo=     1
 LinEq1:  Iter=  2 NonCon=     1 RMS=1.08D-02 Max=2.01D-01 NDo=     1
 LinEq1:  Iter=  3 NonCon=     1 RMS=3.24D-03 Max=2.46D-02 NDo=     1
 LinEq1:  Iter=  4 NonCon=     1 RMS=1.06D-03 Max=1.30D-02 NDo=     1
 LinEq1:  Iter=  5 NonCon=     1 RMS=7.74D-04 Max=9.84D-03 NDo=     1
 LinEq1:  Iter=  6 NonCon=     1 RMS=3.86D-04 Max=2.79D-03 NDo=     1
 LinEq1:  Iter=  7 NonCon=     1 RMS=7.93D-05 Max=8.78D-04 NDo=     1
 LinEq1:  Iter=  8 NonCon=     1 RMS=4.88D-05 Max=6.53D-04 NDo=     1
 LinEq1:  Iter=  9 NonCon=     1 RMS=9.89D-06 Max=6.62D-05 NDo=     1
 LinEq1:  Iter= 10 NonCon=     1 RMS=1.17D-06 Max=7.30D-06 NDo=     1
 LinEq1:  Iter= 11 NonCon=     1 RMS=1.48D-07 Max=9.31D-07 NDo=     1
 LinEq1:  Iter= 12 NonCon=     1 RMS=1.32D-08 Max=7.92D-08 NDo=     1
 LinEq1:  Iter= 13 NonCon=     1 RMS=2.17D-09 Max=1.37D-08 NDo=     1
 LinEq1:  Iter= 14 NonCon=     1 RMS=2.69D-10 Max=1.48D-09 NDo=     1
 LinEq1:  Iter= 15 NonCon=     0 RMS=3.24D-11 Max=2.24D-10 NDo=     1
 Linear equations converged to 1.000D-10 1.000D-09 after    15 iterations.
 End of Minotr F.D. properties file   721 does not exist.
 End of Minotr F.D. properties file   722 does not exist.
 End of Minotr F.D. properties file   788 does not exist.
 Leave Link 1002 at Tue Dec 15 16:29:42 2015, MaxMem=    33554432 cpu:        14.7
 (Enter /home/Applications/g09/g09/l601.exe)
 Copying SCF densities to generalized density rwf, IOpCl= 0 IROHF=0.

 **********************************************************************

            Population analysis using the SCF density.

 **********************************************************************

 Orbital symmetries:
       Occupied  (A) (A) (A) (A) (A) (A) (A) (A) (A) (A) (A) (A)
                 (A) (A) (A) (A) (A) (A)
       Virtual   (A) (A) (A) (A) (A) (A) (A) (A) (A) (A) (A) (A)
                 (A) (A) (A) (A) (A) (A) (A) (A) (A) (A) (A) (A)
                 (A) (A) (A) (A) (A) (A) (A) (A) (A) (A) (A)
 The electronic state is 1-A.
 Alpha  occ. eigenvalues --  -19.12566 -10.17257 -10.17204 -10.12467 -10.12152
 Alpha  occ. eigenvalues --   -1.17080  -0.81585  -0.76008  -0.60405  -0.57095
 Alpha  occ. eigenvalues --   -0.54636  -0.47312  -0.45121  -0.41198  -0.39772
 Alpha  occ. eigenvalues --   -0.36228  -0.28639  -0.22508
 Alpha virt. eigenvalues --    0.02487   0.08830   0.12000   0.15842   0.17810
 Alpha virt. eigenvalues --    0.18220   0.23433   0.25748   0.34802   0.42581
 Alpha virt. eigenvalues --    0.50416   0.68924   0.69723   0.72878   0.74986
 Alpha virt. eigenvalues --    0.76948   0.78441   0.80342   0.82906   0.84209
 Alpha virt. eigenvalues --    0.94402   0.97418   0.99171   0.99857   1.19631
 Alpha virt. eigenvalues --    1.20828   1.34053   1.35973   1.50094   1.58008
 Alpha virt. eigenvalues --    1.59921   1.72289   1.96107   2.12953   3.24668
     Molecular Orbital Coefficients:
                           1         2         3         4         5
                           O         O         O         O         O
     Eigenvalues --   -19.12566 -10.17257 -10.17204 -10.12467 -10.12152
   1 1   C  1S          0.00017   0.00377  -0.00965  -0.19606   0.96631
   2        2S          0.00065   0.00198  -0.00515  -0.02660   0.10731
   3        2PX         0.00138  -0.00077   0.00295  -0.00119  -0.00046
   4        2PY        -0.00018  -0.00005   0.00108   0.00189  -0.00205
   5        2PZ         0.00002  -0.00004   0.00007   0.00010  -0.00022
   6        3S         -0.00583  -0.03120   0.02915   0.06392  -0.09900
   7        3PX         0.00198   0.01227  -0.01245   0.01058   0.00564
   8        3PY         0.00898   0.01273  -0.00748  -0.02751   0.02866
   9        3PZ        -0.00017   0.00088  -0.00047  -0.00115   0.00186
  10 2   C  1S         -0.00033  -0.38501   0.90710  -0.00164   0.00991
  11        2S         -0.00016  -0.04487   0.09717   0.00019  -0.00373
  12        2PX         0.00043  -0.00187   0.00148  -0.00024  -0.00233
  13        2PY        -0.00281   0.00102  -0.00214  -0.00053  -0.00120
  14        2PZ         0.00009  -0.00007   0.00025   0.00004  -0.00008
  15        3S          0.01914   0.04649  -0.06224  -0.01592   0.03978
  16        3PX         0.01170   0.02742  -0.00970  -0.00860   0.02456
  17        3PY        -0.01067  -0.00064  -0.00641   0.00178   0.00356
  18        3PZ         0.00098   0.00071  -0.00082  -0.00049   0.00078
  19 3   O  1S          0.98288   0.00021   0.00046   0.00006   0.00008
  20        2S          0.10895   0.00105   0.00268   0.00025   0.00028
  21        2PX         0.00312   0.00019   0.00030  -0.00001  -0.00008
  22        2PY         0.00315  -0.00001   0.00062  -0.00003  -0.00008
  23        2PZ        -0.00030   0.00000  -0.00010   0.00002  -0.00004
  24        3S         -0.06509  -0.00144  -0.00266  -0.00291  -0.00454
  25        3PX        -0.01061  -0.00332  -0.00381  -0.00291  -0.00013
  26        3PY        -0.01053  -0.00040  -0.00452   0.00064  -0.00255
  27        3PZ         0.00094   0.00011   0.00069  -0.00002   0.00021
  28 4   C  1S         -0.00023   0.90752   0.38389   0.01105   0.00248
  29        2S          0.00009   0.09963   0.03865  -0.00240  -0.00103
  30        2PX        -0.00293  -0.00249  -0.00090  -0.00047  -0.00081
  31        2PY         0.00014   0.00168  -0.00052  -0.00130  -0.00101
  32        2PZ         0.00007   0.00006   0.00010   0.00006  -0.00007
  33        3S          0.01802  -0.07056  -0.01191   0.03680  -0.00051
  34        3PX        -0.01275  -0.00231  -0.00685   0.00096   0.00189
  35        3PY         0.01111  -0.02275   0.01344   0.02300   0.00205
  36        3PZ         0.00050   0.00028  -0.00035  -0.00002   0.00043
  37 5   C  1S          0.00021  -0.01054  -0.00485   0.96642   0.19564
  38        2S          0.00087  -0.00417  -0.00172   0.10874   0.01732
  39        2PX        -0.00032   0.00020   0.00049  -0.00258   0.00129
  40        2PY         0.00141   0.00184   0.00121  -0.00008  -0.00092
  41        2PZ        -0.00008   0.00001  -0.00003   0.00018   0.00003
  42        3S         -0.00567   0.03497  -0.00343  -0.10996   0.01994
  43        3PX         0.00849  -0.01135   0.00612   0.03679  -0.01677
  44        3PY         0.00060  -0.01604   0.00006   0.00244   0.00862
  45        3PZ         0.00034   0.00007   0.00014  -0.00119  -0.00003
  46 6   H  1S         -0.00089  -0.00078  -0.00090  -0.00287  -0.00067
  47        2S         -0.00261   0.00160  -0.00128   0.00290   0.00524
  48 7   H  1S          0.00035  -0.00423  -0.00005  -0.00031  -0.00003
  49        2S          0.00446   0.00576   0.01189   0.00487   0.00148
  50 8   H  1S          0.00028   0.00267  -0.00234  -0.00012  -0.00018
  51        2S          0.00371   0.00410   0.01013  -0.00106   0.00514
  52 9   H  1S         -0.00097   0.00003  -0.00106   0.00006  -0.00283
  53        2S         -0.00290  -0.00161   0.00102   0.00282   0.00460
                           6         7         8         9        10
                           O         O         O         O         O
     Eigenvalues --    -1.17080  -0.81585  -0.76008  -0.60405  -0.57095
   1 1   C  1S         -0.02720   0.15815   0.03656   0.10127   0.04817
   2        2S          0.02584  -0.16990  -0.04046  -0.10314  -0.04791
   3        2PX        -0.01494  -0.00892   0.08713   0.13671  -0.17371
   4        2PY        -0.03106   0.10130   0.00469  -0.05003   0.00994
   5        2PZ        -0.00077   0.00684   0.00139   0.00490  -0.00073
   6        3S          0.05127  -0.31592  -0.05718  -0.34830  -0.16515
   7        3PX        -0.01062   0.00128  -0.02839   0.04722  -0.06027
   8        3PY        -0.05086   0.04986   0.00117   0.01264   0.01879
   9        3PZ        -0.00035   0.00486  -0.00066   0.00428   0.00012
  10 2   C  1S         -0.07586   0.06700   0.14013   0.02083  -0.10588
  11        2S          0.08297  -0.07829  -0.15063  -0.02562   0.11678
  12        2PX         0.04258  -0.10207  -0.00428  -0.10260  -0.09464
  13        2PY        -0.08260  -0.07616   0.06345  -0.21131   0.08310
  14        2PZ         0.00438  -0.00195  -0.00819   0.00140  -0.00195
  15        3S          0.03818  -0.10224  -0.34847  -0.02572   0.33939
  16        3PX        -0.04364  -0.03659  -0.04301  -0.02026  -0.04708
  17        3PY         0.02366  -0.01321  -0.00617  -0.07337   0.05229
  18        3PZ        -0.00204  -0.00181  -0.00360   0.00073  -0.00075
  19 3   O  1S         -0.21101  -0.08604   0.01195  -0.00743   0.04814
  20        2S          0.19034   0.08282  -0.01078   0.00693  -0.04863
  21        2PX         0.08723   0.00167   0.19589  -0.18443  -0.04157
  22        2PY         0.08332  -0.04073  -0.18021   0.17341   0.01072
  23        2PZ        -0.00798  -0.00213   0.00099  -0.00317  -0.00423
  24        3S          0.67975   0.31771  -0.04593   0.03135  -0.21366
  25        3PX         0.10794   0.01123   0.15868  -0.16080  -0.03937
  26        3PY         0.10718  -0.02284  -0.15097   0.15335   0.00541
  27        3PZ        -0.01019  -0.00204   0.00151  -0.00282  -0.00440
  28 4   C  1S         -0.08069   0.02921  -0.15022   0.00449  -0.10779
  29        2S          0.08633  -0.03554   0.16353  -0.00522   0.11872
  30        2PX        -0.09360  -0.08114  -0.04737   0.17796   0.14882
  31        2PY         0.03616  -0.09144   0.00655   0.11914  -0.10339
  32        2PZ         0.00326   0.00176   0.00502  -0.00605  -0.00584
  33        3S          0.05249  -0.03279   0.35112  -0.03786   0.33530
  34        3PX         0.03217  -0.00499   0.00693   0.05446   0.07894
  35        3PY        -0.03880  -0.03605   0.04449   0.03281  -0.05668
  36        3PZ        -0.00089   0.00072   0.00009  -0.00214  -0.00251
  37 5   C  1S         -0.02479   0.13864  -0.07221  -0.11629   0.03016
  38        2S          0.02287  -0.14940   0.07733   0.11780  -0.03247
  39        2PX        -0.02765   0.10098  -0.01884   0.05130   0.05014
  40        2PY        -0.01526  -0.02209  -0.06567  -0.07741  -0.17459
  41        2PZ         0.00099  -0.00469   0.00251   0.00530  -0.00604
  42        3S          0.04071  -0.26447   0.14646   0.39283  -0.08535
  43        3PX        -0.04256   0.03523  -0.01559  -0.01761   0.02178
  44        3PY        -0.00419   0.01165   0.02374  -0.03399  -0.06615
  45        3PZ        -0.00088  -0.00344   0.00292   0.00465  -0.00371
  46 6   H  1S          0.00607  -0.04315   0.03181   0.10079  -0.01109
  47        2S          0.01329  -0.00940   0.00959   0.06099  -0.00527
  48 7   H  1S          0.01328  -0.00493   0.08879  -0.02258   0.17275
  49        2S         -0.02672  -0.00798   0.03338  -0.01347   0.08527
  50 8   H  1S          0.01045  -0.01803  -0.07441  -0.00183   0.14298
  51        2S         -0.02304  -0.00724  -0.03010   0.00587   0.07521
  52 9   H  1S          0.00670  -0.05171  -0.01528  -0.08495  -0.04232
  53        2S          0.01637  -0.01390  -0.00322  -0.04887  -0.02806
                          11        12        13        14        15
                           O         O         O         O         O
     Eigenvalues --    -0.54636  -0.47312  -0.45121  -0.41198  -0.39772
   1 1   C  1S         -0.05529  -0.00031   0.04962   0.00986   0.00026
   2        2S          0.05393  -0.00180  -0.05377  -0.01122  -0.00777
   3        2PX         0.12339  -0.02098  -0.02792  -0.24006   0.05970
   4        2PY         0.16371  -0.00562  -0.00842   0.12110   0.32549
   5        2PZ         0.00466   0.10518   0.00026   0.00265   0.01746
   6        3S          0.22865   0.01779  -0.17125  -0.05514  -0.00469
   7        3PX         0.04303  -0.00967  -0.02996  -0.09802   0.03183
   8        3PY         0.11245  -0.02410  -0.01530   0.07994   0.23542
   9        3PZ         0.00019   0.07237  -0.00025   0.00260   0.01425
  10 2   C  1S          0.01239   0.00156  -0.03564  -0.01523   0.02930
  11        2S         -0.01729  -0.00056   0.03409   0.02205  -0.03484
  12        2PX        -0.16539   0.01202  -0.19391   0.22003  -0.14316
  13        2PY         0.02619   0.01213   0.16645   0.01413  -0.09261
  14        2PZ        -0.00143   0.18789  -0.01146   0.00167   0.00537
  15        3S         -0.00609  -0.01494   0.13253   0.06233  -0.09576
  16        3PX        -0.13861  -0.00466  -0.13079   0.18327  -0.06717
  17        3PY        -0.01632   0.01105   0.09933   0.03768  -0.01189
  18        3PZ         0.00031   0.16433  -0.00676  -0.00261   0.00455
  19 3   O  1S         -0.05738  -0.00378   0.00379  -0.00065   0.01712
  20        2S          0.05746   0.00351  -0.00372  -0.00302  -0.01917
  21        2PX        -0.15114   0.00459   0.18095   0.09524   0.08165
  22        2PY        -0.15597   0.01151  -0.14084   0.10976   0.16307
  23        2PZ         0.00862   0.39336   0.00366  -0.02924   0.00055
  24        3S          0.21640   0.01621  -0.01175   0.03824  -0.04453
  25        3PX        -0.13834   0.00415   0.17103   0.10099   0.08113
  26        3PY        -0.14384   0.01264  -0.13393   0.10959   0.17246
  27        3PZ         0.00913   0.39295   0.00368  -0.03150  -0.00042
  28 4   C  1S          0.01735   0.00121   0.02481   0.01654  -0.04798
  29        2S         -0.02135  -0.00191  -0.02200  -0.01893   0.05614
  30        2PX         0.03238   0.01557  -0.17335  -0.01714   0.02990
  31        2PY        -0.16975  -0.00026   0.19968  -0.02350   0.19557
  32        2PZ         0.00353   0.18998   0.01143  -0.00917   0.00095
  33        3S         -0.02857   0.00433  -0.09536  -0.05123   0.18127
  34        3PX        -0.00791   0.00735  -0.08742   0.02740   0.05567
  35        3PY        -0.15165   0.00445   0.13434   0.00969   0.17767
  36        3PZ         0.00249   0.16748   0.00628  -0.01102   0.00119
  37 5   C  1S         -0.04888   0.00226  -0.04778   0.00701   0.02784
  38        2S          0.04605  -0.00193   0.05018  -0.01390  -0.02625
  39        2PX         0.13203   0.01251   0.08197   0.33697  -0.04553
  40        2PY         0.13422  -0.01253  -0.03337  -0.07780  -0.18444
  41        2PZ         0.00829   0.09746   0.00725   0.00264  -0.00304
  42        3S          0.20987  -0.02052   0.16915  -0.02498  -0.12770
  43        3PX         0.08511   0.02206   0.05537   0.23621  -0.05214
  44        3PY         0.04313  -0.00734   0.00071  -0.03320  -0.06556
  45        3PZ         0.00705   0.06758   0.00660   0.00305  -0.00194
  46 6   H  1S          0.10870   0.00749   0.09689   0.21019  -0.08437
  47        2S          0.06133   0.00010   0.07340   0.19744  -0.07369
  48 7   H  1S          0.06757   0.00256  -0.19379  -0.01481  -0.06111
  49        2S          0.02162   0.00319  -0.14790  -0.00920  -0.05439
  50 8   H  1S          0.06782  -0.00788   0.18777  -0.12798   0.03569
  51        2S          0.02898  -0.01046   0.14875  -0.11358   0.03865
  52 9   H  1S          0.12784  -0.00410  -0.05910   0.05022   0.23252
  53        2S          0.06844   0.00354  -0.03848   0.05046   0.22555
                          16        17        18        19        20
                           O         O         O         V         V
     Eigenvalues --    -0.36228  -0.28639  -0.22508   0.02487   0.08830
   1 1   C  1S          0.01806   0.00654   0.00048  -0.00052  -0.00420
   2        2S         -0.01718  -0.00830  -0.00126   0.00079  -0.00357
   3        2PX         0.17966   0.00845   0.00077  -0.01000  -0.00257
   4        2PY        -0.01540   0.01793   0.00669   0.00500   0.00904
   5        2PZ         0.01641  -0.31647  -0.14797  -0.13345   0.35747
   6        3S         -0.11538  -0.02484   0.00789   0.02275   0.10041
   7        3PX         0.15829   0.01793  -0.00474  -0.02929   0.01538
   8        3PY        -0.04767   0.00660   0.00200   0.00800  -0.00714
   9        3PZ         0.01752  -0.31664  -0.15712  -0.22531   0.73630
  10 2   C  1S         -0.02872  -0.00196  -0.00366   0.00326  -0.01041
  11        2S          0.03456   0.00159   0.00516   0.00161   0.00655
  12        2PX        -0.10237   0.00025   0.01392  -0.00868  -0.00085
  13        2PY        -0.13618  -0.00556  -0.00969   0.00453  -0.01629
  14        2PZ         0.00392  -0.10157  -0.32896   0.29812  -0.23533
  15        3S          0.10457   0.01285   0.00778  -0.04820   0.10024
  16        3PX        -0.01332   0.00744   0.00348  -0.03131  -0.00987
  17        3PY         0.00797   0.00743  -0.01128   0.00360  -0.02560
  18        3PZ         0.00172  -0.06556  -0.35965   0.45412  -0.47021
  19 3   O  1S          0.06497  -0.00076  -0.00099  -0.00052   0.00109
  20        2S         -0.06439   0.00036   0.00042   0.00103  -0.00011
  21        2PX         0.25846   0.02218  -0.00921  -0.00008   0.01575
  22        2PY         0.26057   0.02795  -0.00155  -0.00038  -0.00929
  23        2PZ        -0.01303   0.28314  -0.02655  -0.30316   0.02193
  24        3S         -0.24201   0.00935   0.00631   0.00617  -0.01334
  25        3PX         0.28083   0.02365  -0.01119   0.00138   0.02512
  26        3PY         0.28486   0.03110   0.00028  -0.00064  -0.01899
  27        3PZ        -0.01539   0.32198  -0.03328  -0.43204   0.03367
  28 4   C  1S         -0.00963   0.00074   0.00141   0.00115   0.00507
  29        2S          0.01464  -0.00133  -0.00181   0.00104  -0.00968
  30        2PX        -0.15198  -0.00414   0.02018   0.00518   0.01179
  31        2PY        -0.19112  -0.00861   0.00471  -0.00070  -0.01494
  32        2PZ         0.01721  -0.02410   0.33311   0.34324   0.17717
  33        3S          0.01559   0.00339  -0.00833  -0.00410  -0.00155
  34        3PX        -0.00976   0.00593   0.01450   0.02014   0.01736
  35        3PY        -0.07281   0.00286   0.00367   0.00209   0.00064
  36        3PZ         0.01111   0.00186   0.36103   0.52820   0.34170
  37 5   C  1S          0.01573  -0.00338   0.00510  -0.00971  -0.01257
  38        2S         -0.01362   0.00439  -0.00526   0.00946   0.00785
  39        2PX         0.05360   0.01422  -0.00468   0.00455   0.04042
  40        2PY         0.24308   0.01648  -0.01313   0.00652   0.00386
  41        2PZ         0.02427  -0.28021   0.21195  -0.19138  -0.32080
  42        3S         -0.11995  -0.00439  -0.02463   0.06908   0.09854
  43        3PX         0.02821   0.01463  -0.00547   0.02900   0.12454
  44        3PY         0.18374   0.01420  -0.01395   0.02187   0.00771
  45        3PZ         0.01763  -0.28167   0.23568  -0.31435  -0.66128
  46 6   H  1S          0.04956   0.00282   0.00055  -0.01423  -0.02853
  47        2S          0.06686   0.00724   0.00043  -0.05851  -0.16690
  48 7   H  1S          0.11529   0.00522   0.00202   0.00079  -0.00313
  49        2S          0.11281   0.00736   0.00359  -0.00425  -0.01716
  50 8   H  1S          0.08913   0.00225  -0.00732   0.00103  -0.00883
  51        2S          0.08928   0.00277  -0.01277  -0.00530  -0.06817
  52 9   H  1S         -0.01550   0.00423   0.00647  -0.00467  -0.00950
  53        2S          0.00396   0.00848   0.01026  -0.02102  -0.06015
                          21        22        23        24        25
                           V         V         V         V         V
     Eigenvalues --     0.12000   0.15842   0.17810   0.18220   0.23433
   1 1   C  1S          0.03647  -0.04620  -0.08414   0.05983  -0.07653
   2        2S         -0.01564   0.04725   0.06496  -0.05692   0.01756
   3        2PX        -0.03244  -0.02056   0.05056  -0.00669  -0.04974
   4        2PY        -0.20625   0.05250   0.17885   0.00023   0.11453
   5        2PZ         0.02719   0.00420   0.01383   0.00358  -0.02081
   6        3S         -0.50178   0.29889   0.77904  -0.34927   1.50024
   7        3PX        -0.10494  -0.02006   0.11039  -0.08167  -0.12243
   8        3PY        -0.51486   0.37930   0.81963  -0.29312   0.18632
   9        3PZ         0.06773   0.01275   0.05710  -0.00832  -0.08662
  10 2   C  1S          0.03861   0.12163   0.01964  -0.03300  -0.01332
  11        2S         -0.02471  -0.08784  -0.03638   0.03088   0.01577
  12        2PX         0.11953   0.17753  -0.15241  -0.14579   0.00911
  13        2PY        -0.10411   0.06832   0.05293   0.12260  -0.28636
  14        2PZ        -0.00778  -0.01348  -0.01021  -0.00268   0.01611
  15        3S         -0.55002  -1.18895   0.13612   0.34812  -0.14341
  16        3PX         0.26681   0.74171  -0.23278  -0.61378  -0.14450
  17        3PY        -0.28660   0.07773   0.03632   0.47748  -1.02292
  18        3PZ        -0.02088  -0.01683  -0.01876  -0.01138   0.04297
  19 3   O  1S          0.02664  -0.08261  -0.00788  -0.02430   0.09852
  20        2S         -0.01670   0.06078   0.00445   0.01695  -0.04633
  21        2PX        -0.05068   0.05483  -0.03179   0.03058   0.03223
  22        2PY        -0.07515   0.09829   0.04264   0.00547  -0.10101
  23        2PZ        -0.00367  -0.00563  -0.00287  -0.00225   0.01344
  24        3S         -0.24165   0.68490   0.07552   0.20945  -1.04887
  25        3PX        -0.08840   0.08704  -0.02084   0.01194   0.00478
  26        3PY        -0.14233   0.14191   0.04813   0.03941  -0.28102
  27        3PZ        -0.00575  -0.01163  -0.00725  -0.00415   0.03408
  28 4   C  1S          0.02930   0.07663  -0.01337   0.09894   0.04483
  29        2S         -0.02016  -0.05135   0.02787  -0.07481  -0.02317
  30        2PX        -0.06177   0.09430  -0.03010  -0.09196  -0.21321
  31        2PY         0.05283   0.06549   0.13648   0.21406   0.00643
  32        2PZ         0.02912  -0.01018   0.01297  -0.00484  -0.00302
  33        3S         -0.42136  -0.80220  -0.17688  -1.18284  -0.88159
  34        3PX        -0.16977   0.20814   0.03255  -0.45765  -0.84735
  35        3PY         0.08842   0.32674   0.25867   0.93049  -0.16384
  36        3PZ         0.06892  -0.02221   0.04307  -0.01719  -0.00729
  37 5   C  1S          0.06006  -0.01959   0.09059  -0.06056  -0.03771
  38        2S         -0.03889   0.01704  -0.06358   0.06412   0.00754
  39        2PX        -0.16627   0.06527  -0.20197  -0.04409   0.13119
  40        2PY        -0.07373   0.00133  -0.02486  -0.00873  -0.17591
  41        2PZ        -0.05270   0.00636  -0.03630   0.00948   0.01767
  42        3S         -0.66293   0.23032  -0.91126   0.29845   0.69242
  43        3PX        -0.45928   0.20448  -0.86965   0.24883   0.40603
  44        3PY        -0.16649  -0.03141  -0.12575   0.03568  -0.84050
  45        3PZ        -0.12977   0.02672  -0.09881   0.02471   0.05086
  46 6   H  1S          0.09697  -0.03303   0.06758  -0.02313   0.03949
  47        2S          1.00426  -0.38076   1.39326  -0.35757  -0.53310
  48 7   H  1S          0.02961   0.05327   0.00800   0.07351  -0.03510
  49        2S          0.43976   0.72622   0.38896   1.80889   0.53671
  50 8   H  1S          0.06202   0.09070  -0.00972  -0.03755  -0.00174
  51        2S          0.72812   1.42374  -0.36257  -0.95372   0.18384
  52 9   H  1S          0.10237  -0.04623  -0.06292   0.01281   0.06572
  53        2S          0.99420  -0.57796  -1.27576   0.44608  -0.66631
                          26        27        28        29        30
                           V         V         V         V         V
     Eigenvalues --     0.25748   0.34802   0.42581   0.50416   0.68924
   1 1   C  1S          0.04444   0.05331   0.05724  -0.12365   0.00050
   2        2S         -0.01332  -0.03127   0.00446   0.02731  -0.05203
   3        2PX        -0.18830  -0.04497   0.25967   0.00790   0.59172
   4        2PY         0.09464   0.12670   0.07328  -0.19996  -0.07673
   5        2PZ         0.01564  -0.00175   0.00428   0.00974   0.05475
   6        3S         -0.87980  -0.82459  -1.81230   3.61834   0.17113
   7        3PX        -1.17931   0.75633   2.28391   0.63958  -0.49996
   8        3PY         0.58932   0.54651   1.04884  -2.54962  -0.03027
   9        3PZ         0.05533   0.00751   0.07516  -0.11464  -0.03447
  10 2   C  1S          0.07712  -0.06575  -0.07232   0.09313  -0.03836
  11        2S         -0.05656  -0.00366   0.01462  -0.01267  -0.05771
  12        2PX        -0.00054   0.21252   0.13639  -0.08032  -0.04563
  13        2PY         0.05316   0.03123   0.07425   0.32794  -0.42655
  14        2PZ        -0.01606   0.01196   0.00844  -0.00794   0.06194
  15        3S         -1.08629   1.22710   2.10866  -1.77646  -0.11044
  16        3PX        -0.06007   0.98249   1.88276  -1.65184   0.25524
  17        3PY         0.05836  -0.24492   1.39058   0.47141   0.43777
  18        3PZ        -0.06209   0.07299   0.07046  -0.06970  -0.04482
  19 3   O  1S          0.04308   0.06233   0.01296  -0.00154   0.03444
  20        2S         -0.01998  -0.02548  -0.00321   0.00247  -0.07921
  21        2PX        -0.23861  -0.07870  -0.14129  -0.20521  -0.07639
  22        2PY         0.18351  -0.14945   0.08696   0.20290  -0.12810
  23        2PZ         0.00919   0.00160  -0.00865  -0.00857   0.00845
  24        3S         -0.48394  -0.82768  -0.20887   0.00460  -0.01888
  25        3PX        -0.56474  -0.26307  -0.44182  -0.45202  -0.13952
  26        3PY         0.38284  -0.45843   0.24380   0.45188  -0.05139
  27        3PZ         0.01895   0.01152  -0.01520  -0.00394   0.01592
  28 4   C  1S         -0.07882  -0.08715   0.02807  -0.08496  -0.05647
  29        2S          0.05378  -0.00424  -0.03550   0.02174  -0.03550
  30        2PX        -0.21186   0.06220  -0.03012  -0.28622  -0.09875
  31        2PY         0.02797   0.30835  -0.04199   0.04777   0.11677
[...]
          Condensed to atoms (all electrons):
               1          2          3          4          5          6
     1  C    5.247454   0.489184  -0.078328  -0.152469   0.440185  -0.024431
     2  C    0.489184   5.081301   0.287132  -0.175609  -0.158831   0.004622
     3  O   -0.078328   0.287132   8.138211   0.291139  -0.082750   0.001708
     4  C   -0.152469  -0.175609   0.291139   5.088040   0.480265  -0.026459
     5  C    0.440185  -0.158831  -0.082750   0.480265   5.245250   0.377986
     6  H   -0.024431   0.004622   0.001708  -0.026459   0.377986   0.486464
     7  H    0.003357   0.004750  -0.032451   0.388589  -0.037913  -0.000312
     8  H   -0.037093   0.384787  -0.028527   0.004022   0.003013  -0.000027
     9  H    0.375444  -0.024238   0.002063   0.005648  -0.030811  -0.001675
               7          8          9
     1  C    0.003357  -0.037093   0.375444
     2  C    0.004750   0.384787  -0.024238
     3  O   -0.032451  -0.028527   0.002063
     4  C    0.388589   0.004022   0.005648
     5  C   -0.037913   0.003013  -0.030811
     6  H   -0.000312  -0.000027  -0.001675
     7  H    0.457341  -0.000061  -0.000036
     8  H   -0.000061   0.462530  -0.000667
     9  H   -0.000036  -0.000667   0.490997
 Mulliken charges:
               1
     1  C   -0.263302
     2  C    0.106902
     3  O   -0.498198
     4  C    0.096833
     5  C   -0.236393
     6  H    0.182123
     7  H    0.216736
     8  H    0.212023
     9  H    0.183276
 Sum of Mulliken charges =   0.00000
 Mulliken charges with hydrogens summed into heavy atoms:
               1
     1  C   -0.080026
     2  C    0.318925
     3  O   -0.498198
     4  C    0.313569
     5  C   -0.054270
 Electronic spatial extent (au):  <R**2>=            284.3713
 Charge=              0.0000 electrons
 Dipole moment (field-independent basis, Debye):
    X=              0.3763    Y=              0.3494    Z=              0.0286  Tot=              0.5143
 Quadrupole moment (field-independent basis, Debye-Ang):
   XX=            -25.7749   YY=            -26.2839   ZZ=            -31.7294
   XY=             -1.8751   XZ=              0.2934   YZ=              0.1061
 Traceless Quadrupole moment (field-independent basis, Debye-Ang):
   XX=              2.1545   YY=              1.6455   ZZ=             -3.8000
   XY=             -1.8751   XZ=              0.2934   YZ=              0.1061
 Octapole moment (field-independent basis, Debye-Ang**2):
  XXX=             -3.7098  YYY=             -3.8001  ZZZ=              0.3619  XYY=              2.2357
  XXY=              1.6840  XXZ=              0.3184  XZZ=             -2.4334  YZZ=             -2.6707
  YYZ=              0.1264  XYZ=              0.1506
 Hexadecapole moment (field-independent basis, Debye-Ang**3):
 XXXX=           -143.2098 YYYY=           -144.6242 ZZZZ=            -30.9014 XXXY=             -1.5029
 XXXZ=              1.3742 YYYX=             -1.7435 YYYZ=              0.1954 ZZZX=              0.0601
 ZZZY=             -0.1451 XXYY=            -55.0029 XXZZ=            -36.8039 YYZZ=            -35.8460
 XXYZ=              0.1357 YYXZ=              0.1737 ZZXY=              1.6959
 N-N= 1.635587046853D+02 E-N=-8.596690080516D+02  KE= 2.271180944589D+02
 Orbital energies and kinetic energies (alpha):
                                 1                 2
   1         O               -19.125656         28.827505
   2         O               -10.172569         15.803568
   3         O               -10.172041         15.793857
   4         O               -10.124668         15.805143
   5         O               -10.121522         15.806473
   6         O                -1.170799          2.561827
   7         O                -0.815846          1.815457
   8         O                -0.760082          1.905064
   9         O                -0.604048          1.700369
  10         O                -0.570952          1.418595
  11         O                -0.546365          1.375478
  12         O                -0.473121          1.648158
  13         O                -0.451209          1.442827
  14         O                -0.411980          1.357684
  15         O                -0.397719          1.457094
  16         O                -0.362281          2.125453
  17         O                -0.286395          1.484746
  18         O                -0.225079          1.229751
  19         V                 0.024870          1.878921
  20         V                 0.088299          1.492077
  21         V                 0.119999          1.126625
  22         V                 0.158420          1.609457
  23         V                 0.178101          1.263408
  24         V                 0.182202          1.240637
  25         V                 0.234326          1.813066
  26         V                 0.257483          2.058394
  27         V                 0.348021          2.017849
  28         V                 0.425808          1.626953
  29         V                 0.504156          2.869900
  30         V                 0.689240          2.564976
  31         V                 0.697232          2.498326
  32         V                 0.728783          2.832910
  33         V                 0.749863          2.743777
  34         V                 0.769481          2.513729
  35         V                 0.784405          2.558841
  36         V                 0.803420          2.691611
  37         V                 0.829061          2.710884
  38         V                 0.842095          2.605354
  39         V                 0.944023          2.880897
  40         V                 0.974175          3.370871
  41         V                 0.991710          3.099504
  42         V                 0.998567          3.062483
  43         V                 1.196315          2.729343
  44         V                 1.208283          2.890073
  45         V                 1.340526          2.580227
  46         V                 1.359733          2.857212
  47         V                 1.500937          4.933588
  48         V                 1.580079          3.465434
  49         V                 1.599212          3.479322
  50         V                 1.722893          4.485015
  51         V                 1.961066          4.019481
  52         V                 2.129526          4.229307
  53         V                 3.246684          6.850252
 Total kinetic energy from orbitals= 2.271180944589D+02
 No NMR shielding tensors so no spin-rotation constants.
 Leave Link  601 at Tue Dec 15 16:29:42 2015, MaxMem=    33554432 cpu:         0.1
 (Enter /home/Applications/g09/g09/l701.exe)
 Compute integral first derivatives.
 ... and contract with generalized density number  6.
 Leave Link  701 at Tue Dec 15 16:29:42 2015, MaxMem=    33554432 cpu:         0.1
 (Enter /home/Applications/g09/g09/l702.exe)
 L702 exits ... SP integral derivatives will be done elsewhere.
 Leave Link  702 at Tue Dec 15 16:29:43 2015, MaxMem=    33554432 cpu:         0.0
 (Enter /home/Applications/g09/g09/l703.exe)
 Compute integral first derivatives, UseDBF=F ICtDFT=           0.
 Integral derivatives from FoFJK, PRISM(SPDF).
 Calling FoFJK, ICntrl=  10005127 FMM=F ISym2X=0 I1Cent= 0 IOpClX= 0 NMat=1 NMatS=1 NMatT=0.
 FoFJK:  IHMeth= 1 ICntrl=10005127 DoSepK=F KAlg= 0 I1Cent=   0 FoldK=F
 IRaf=         0 NMat=   1 IRICut=       1 DoRegI=T DoRafI=F ISym2E= 0.
 FoFCou: FMM=F IPFlag=           0 FMFlag=      100000 FMFlg1=         800
         NFxFlg=           0 DoJE=F BraDBF=F KetDBF=F FulRan=T
         wScrn=  0.000000 ICntrl=10005127 IOpCl=  0 I1Cent=           0 NGrid=           0
         NMat0=    1 NMatS0=      1 NMatT0=    0 NMatD0=    1 NMtDS0=    0 NMtDT0=    0
 Symmetry not used in FoFCou.
 Leave Link  703 at Tue Dec 15 16:29:44 2015, MaxMem=    33554432 cpu:         1.4
 (Enter /home/Applications/g09/g09/l716.exe)
 Dipole        = 7.19175607D-02 2.01047904D-01 5.21981410D-02
 ***** Axes restored to original set *****
 -------------------------------------------------------------------
 Center     Atomic                   Forces (Hartrees/Bohr)
 Number     Number              X              Y              Z
 -------------------------------------------------------------------
      1        6           0.130311079   -0.030363255    0.003987896
      2        6          -0.017484244   -0.124606776    0.000901968
      3        8          -0.171919030   -0.009647786   -0.014317934
      4        6           0.040596123    0.097473633    0.010220581
      5        6           0.071133254    0.041604471   -0.004293654
      6        1          -0.024256765   -0.025023152    0.001414910
      7        1          -0.009981887    0.019303614    0.000850077
      8        1           0.010928481    0.017076241    0.003230945
      9        1          -0.029327012    0.014183010   -0.001994790
 -------------------------------------------------------------------
 Cartesian Forces:  Max     0.171919030 RMS     0.056057360
 Z-matrix is all fixed cartesians, so copy forces.
 Force constants in Cartesian coordinates: 
                1             2             3             4             5 
      1  0.927927D+00
      2  0.188756D-01  0.874381D+00
      3 -0.217887D-01  0.155282D-01  0.232413D+00
      4 -0.538210D+00 -0.116377D+00  0.189432D-01  0.979014D+00
      5 -0.881998D-01 -0.221740D+00  0.551286D-02 -0.153525D-01  0.929290D+00
      6  0.187188D-01  0.527802D-02 -0.115143D+00 -0.351591D-02 -0.250248D-01
      7 -0.902260D-02  0.306532D-01 -0.218224D-02 -0.315694D+00  0.199799D+00
      8 -0.642594D-02  0.219088D-01 -0.765484D-03  0.248218D+00 -0.437061D+00
      9  0.101669D-02 -0.138405D-02  0.104391D-01 -0.171068D-01  0.184573D-01
     10  0.995543D-02 -0.391818D-03  0.422528D-03  0.265854D-01  0.191622D-01
     11  0.349646D-01 -0.145426D-02  0.310605D-03 -0.193992D-01 -0.140018D-01
     12  0.202444D-02 -0.532031D-03 -0.136592D-02  0.184063D-02  0.170715D-02
     13 -0.178664D+00 -0.208137D-02  0.199191D-02  0.105077D-01 -0.364848D-01
     14 -0.279388D-01 -0.514887D+00 -0.211853D-01 -0.425396D-03  0.141030D-02
     15  0.219979D-02 -0.197528D-01 -0.966046D-01 -0.230386D-03  0.233480D-02
     16  0.179872D-01 -0.746856D-03  0.115243D-03  0.422502D-04 -0.359806D-04
     17 -0.221981D-01  0.816709D-03  0.243676D-02 -0.149810D-04  0.127580D-04
     18 -0.229075D-02 -0.838810D-03  0.229266D-01  0.325176D-03 -0.276923D-03
     19  0.000000D+00  0.000000D+00 -0.239452D-04  0.213785D-04  0.000000D+00
     20  0.000000D+00  0.157545D-05 -0.392490D-04  0.129150D-04  0.000000D+00
     21 -0.741126D-04 -0.215471D-03  0.536800D-02 -0.525302D-03 -0.151741D-04
     22  0.749351D-02 -0.256797D-01  0.173507D-03 -0.157469D+00 -0.954051D-01
     23 -0.389129D-02  0.133628D-01  0.122759D-03 -0.899506D-01 -0.280933D+00
     24  0.488788D-03  0.215491D-02  0.295801D-01 -0.127061D-02 -0.894109D-03
     25 -0.237466D+00  0.957472D-01  0.234844D-02 -0.479708D-02  0.165158D-01
     26  0.948132D-01 -0.172389D+00 -0.192113D-02 -0.671083D-02  0.230213D-01
     27 -0.294977D-03 -0.237952D-03 -0.876134D-01  0.153994D-02 -0.180110D-02
                6             7             8             9            10 
      6  0.214687D+00
      7 -0.149876D-01  0.634449D+00
      8  0.194196D-01  0.310115D-01  0.890226D+00
      9 -0.558193D-01  0.354089D-01  0.344918D-02  0.702262D-01
     10  0.200115D-02 -0.347268D+00 -0.277340D+00 -0.201588D-01  0.913057D+00
     11 -0.132175D-02 -0.231669D+00 -0.480232D+00 -0.203407D-01  0.587117D-01
     12 -0.271635D-02 -0.191589D-01 -0.226590D-01 -0.537366D-01  0.191464D-01
     13 -0.320821D-02 -0.848094D-02  0.615414D-02 -0.558934D-03 -0.425300D+00
     14  0.270170D-03 -0.297874D-01  0.216919D-01 -0.757201D-03  0.848458D-01
     15 -0.296748D-02 -0.219234D-02  0.403070D-03  0.998073D-02  0.813282D-03
     16  0.841016D-03 -0.159403D-05 -0.469563D-05  0.108127D-03 -0.487673D-02
     17 -0.298207D-03 -0.620516D-05 -0.182790D-04  0.420910D-03  0.592288D-02
     18  0.647284D-02 -0.724940D-04 -0.213551D-03  0.491744D-02 -0.228628D-03
     19 -0.298113D-03  0.239942D-01 -0.174478D-01  0.555236D-03 -0.172169D+00
     20 -0.180094D-03  0.114301D-01 -0.831063D-02  0.246796D-03  0.109097D+00
     21  0.732511D-02  0.156046D-02 -0.131950D-02  0.344981D-02 -0.147661D-02
     22 -0.311477D-04  0.220196D-01  0.158204D-01  0.506842D-03  0.151216D-04
     23  0.182886D-02 -0.114342D-01 -0.821391D-02 -0.239321D-03 -0.110529D-04
     24 -0.787116D-01  0.148522D-02  0.123078D-02  0.334981D-02 -0.443588D-03
     25  0.479965D-03  0.442124D-05  0.144650D-04  0.228752D-03  0.000000D+00
     26  0.281717D-04  0.284243D-05  0.929961D-05  0.147065D-03  0.304446D-05
     27  0.268729D-01  0.139021D-03  0.454836D-03  0.719283D-02 -0.756906D-04
               11            12            13            14            15 
     11  0.101516D+01
     12  0.239292D-01  0.186918D+00
     13  0.593197D-01 -0.528111D-02  0.798766D+00
     14 -0.194178D+00  0.431837D-03  0.434182D-01  0.858631D+00
     15 -0.721639D-03 -0.890326D-01 -0.133711D-01  0.852140D-02  0.206781D+00
     16 -0.171108D-01  0.234818D-02 -0.221254D+00 -0.957824D-01  0.124239D-01
     17  0.207985D-01 -0.788469D-03 -0.973356D-01 -0.184294D+00  0.988017D-02
     18 -0.648774D-03  0.184653D-01  0.166637D-01  0.129716D-01 -0.798914D-01
     19  0.115180D+00 -0.644005D-03  0.751124D-02  0.263842D-01 -0.449383D-04
     20 -0.346097D+00 -0.202231D-02  0.357929D-02  0.125718D-01 -0.135479D-03
     21 -0.974062D-03 -0.701998D-01  0.261551D-03  0.110258D-02  0.219966D-01
     22  0.000000D+00 -0.210864D-03  0.163048D-04 -0.138853D-04  0.324557D-03
     23  0.000000D+00  0.154127D-03 -0.568222D-05  0.483902D-05 -0.113108D-03
     24 -0.128136D-04  0.618564D-02  0.387888D-03 -0.330329D-03  0.772116D-02
     25  0.259733D-05 -0.647071D-04  0.168980D-01 -0.700370D-03  0.773139D-04
     26  0.885129D-05 -0.220512D-03  0.234361D-01 -0.950034D-03 -0.416443D-03
     27 -0.220058D-03  0.548230D-02  0.311438D-02 -0.102477D-02  0.220162D-01
               16            17            18            19            20 
     16  0.208089D+00
     17  0.113634D+00  0.162696D+00
     18 -0.145341D-01 -0.114005D-01  0.434700D-01
     19  0.000000D+00  0.291257D-05  0.340272D-04  0.140641D+00
     20  0.122639D-05  0.477404D-05  0.557745D-04 -0.124121D+00  0.341829D+00
     21 -0.167731D-03 -0.652937D-03 -0.762817D-02  0.421739D-03  0.207456D-02
     22  0.000000D+00  0.000000D+00  0.000000D+00  0.000000D+00  0.000000D+00
     23  0.000000D+00  0.000000D+00  0.000000D+00  0.000000D+00  0.000000D+00
     24  0.000000D+00  0.000000D+00  0.000000D+00  0.000000D+00  0.000000D+00
     25  0.133920D-04 -0.474851D-05  0.103071D-03  0.000000D+00  0.000000D+00
     26  0.456377D-04 -0.161822D-04  0.351249D-03  0.000000D+00  0.000000D+00
     27 -0.113463D-02  0.402317D-03 -0.873265D-02  0.000000D+00  0.000000D+00
               21            22            23            24            25 
     21  0.396884D-01
     22  0.000000D+00  0.127940D+00
     23  0.000000D+00  0.105288D+00  0.275776D+00
     24  0.000000D+00 -0.289638D-03 -0.191824D-02  0.431336D-01
     25  0.000000D+00 -0.150508D-04  0.524522D-05 -0.358057D-03  0.225361D+00
     26  0.000000D+00 -0.967622D-05  0.337217D-05 -0.230196D-03 -0.111580D+00
     27  0.000000D+00 -0.473256D-03  0.164930D-03 -0.112587D-01 -0.281477D-02
               26            27 
     26  0.150313D+00
     27  0.226179D-02  0.460405D-01
 Leave Link  716 at Tue Dec 15 16:29:44 2015, MaxMem=    33554432 cpu:         0.0
 (Enter /home/Applications/g09/g09/l103.exe)

 GradGradGradGradGradGradGradGradGradGradGradGradGradGradGradGradGradGrad
 Berny optimization.
 Search for a local minimum.
 Step number   1 out of a maximum of    2
 All quantities printed in internal units (Hartrees-Bohrs-Radians)
 Second derivative matrix not updated -- first step.
 ITU=  0
     Eigenvalues ---    0.02035   0.03493   0.06626   0.07151   0.07717
     Eigenvalues ---    0.08345   0.12938   0.14751   0.16925   0.22920
     Eigenvalues ---    0.24469   0.30470   0.40074   0.41737   0.62081
     Eigenvalues ---    0.80018   1.17400   1.40603   1.49946   1.63011
     Eigenvalues ---    1.78830
 Quadratic step=4.176D-01 exceeds max=3.000D-01 adjusted using Lamda=-1.094D-01.
 Angle between NR and scaled steps=  19.62 degrees.
 Angle between quadratic step and forces=  27.05 degrees.
 Linear search not attempted -- first point.
 TrRot= -0.005221 -0.001937 -0.002309  0.214820 -0.001925 -0.214018
 Variable       Old X    -DE/DX   Delta X   Delta X   Delta X     New X
                                 (Linear)    (Quad)   (Total)
    X1        1.75042   0.13031   0.00000   0.13005   0.12589   1.87632
    Y1       -1.28433  -0.03036   0.00000  -0.03442  -0.03484  -1.31917
    Z1       -0.02424   0.00399   0.00000   0.01638   0.01707  -0.00717
    X2       -0.68130  -0.01748   0.00000  -0.00825  -0.01191  -0.69322
    Y2       -1.99330  -0.12461   0.00000  -0.08004  -0.08255  -2.07585
    Z2        0.06759   0.00090   0.00000  -0.00900  -0.01345   0.05414
    X3       -2.13864  -0.17192   0.00000  -0.18708  -0.19223  -2.33088
    Y3        0.03830  -0.00965   0.00000   0.00017  -0.00361   0.03470
    Z3       -0.03271  -0.01432   0.00000  -0.02012  -0.02678  -0.05949
    X4       -0.69914   0.04060   0.00000  -0.00627  -0.01334  -0.71248
    Y4        2.02132   0.09747   0.00000   0.07700   0.07446   2.09578
    Z4        0.07463   0.01022   0.00000   0.01757   0.01480   0.08942
    X5        1.85679   0.07113   0.00000   0.08767   0.08124   1.93804
    Y5        1.29369   0.04160   0.00000   0.02732   0.02691   1.32060
    Z5        0.08071  -0.00429   0.00000  -0.00877  -0.00688   0.07383
    X6        3.50871  -0.02426   0.00000   0.00488  -0.00228   3.50643
    Y6        2.64796  -0.02502   0.00000  -0.03989  -0.03897   2.60898
    Z6       -0.07153   0.00141   0.00000  -0.01358  -0.00821  -0.07975
    X7       -1.55165  -0.00998   0.00000  -0.01367  -0.02222  -1.57387
    Y7        3.80966   0.01930   0.00000   0.10334   0.10011   3.90977
    Z7        0.08390   0.00085   0.00000   0.01663   0.01297   0.09687
    X8       -1.64498   0.01093   0.00000   0.03011   0.02782  -1.61716
    Y8       -3.84739   0.01708   0.00000  -0.02659  -0.02986  -3.87725
    Z8        0.08094   0.00323   0.00000   0.01719   0.01026   0.09120
    X9        3.48438  -0.02933   0.00000   0.01011   0.00703   3.49142
    Y9       -2.53062   0.01418   0.00000  -0.01254  -0.01165  -2.54227
    Z9       -0.05390  -0.00199   0.00000  -0.00300   0.00022  -0.05368
         Item               Value     Threshold  Converged?
 Maximum Force            0.171919     0.000450     NO 
 RMS     Force            0.056057     0.000300     NO 
 Maximum Displacement     0.192232     0.001800     NO 
 RMS     Displacement     0.057645     0.001200     NO 
 Predicted change in Energy=-4.389847D-02
 GradGradGradGradGradGradGradGradGradGradGradGradGradGradGradGradGradGrad

 Leave Link  103 at Tue Dec 15 16:29:44 2015, MaxMem=    33554432 cpu:         0.0
 (Enter /home/Applications/g09/g09/l9999.exe)
 1\1\GINC-DUSTIN-DESKTOP\Force\RB3LYP-FC\3-21G\C4H4O1\DUSTIN\15-Dec-201
 5\0\\#P B3LYP/3-21G CIS(Singlets,NStates=15) pop(full) force\\FuranDFT
 \\0,1\C,0.926283,-0.679638,-0.012828\C,-0.360531,-1.05481,0.035767\O,-
 1.131721,0.02027,-0.01731\C,-0.369969,1.069637,0.039491\C,0.982572,0.6
 84591,0.042709\H,1.856729,1.401238,-0.037854\H,-0.821098,2.015985,0.04
 4398\H,-0.870486,-2.03595,0.04283\H,1.843856,-1.339146,-0.028525\\Vers
 ion=ES64L-G09RevD.01\State=1-A\HF=-228.7278151\RMSD=8.866e-09\RMSF=5.6
 06e-02\Dipole=0.1953406,-0.085723,-0.0530155\PG=C01 [X(C4H4O1)]\\@


 GARBAGE IN, GARBAGE OUT
 Job cpu time:       0 days  0 hours  0 minutes 47.3 seconds.
 File lengths (MBytes):  RWF=     14 Int=      0 D2E=      0 Chk=      3 Scr=      1
 Normal termination of Gaussian 09 at Tue Dec 15 16:29:44 2015.
