 Entering Gaussian System, Link 0=g09
 Input=FuranAM1_12P9.com
 Output=FuranAM1_12P9.log
 Initial command:
 /home/Applications/g09/g09/l1.exe "/home/Applications/g09/scratch/Gau-9047.inp" -scrdir="/home/Applications/g09/scratch/"
 Entering Link 1 = /home/Applications/g09/g09/l1.exe PID=      9050.
  
 Copyright (c) 1988,1990,1992,1993,1995,1998,2003,2009,2013,
            Gaussian, Inc.  All Rights Reserved.
  
 This is part of the Gaussian(R) 09 program.  It is based on
 the Gaussian(R) 03 system (copyright 2003, Gaussian, Inc.),
 the Gaussian(R) 98 system (copyright 1998, Gaussian, Inc.),
 the Gaussian(R) 94 system (copyright 1995, Gaussian, Inc.),
 the Gaussian 92(TM) system (copyright 1992, Gaussian, Inc.),
 the Gaussian 90(TM) system (copyright 1990, Gaussian, Inc.),
 the Gaussian 88(TM) system (copyright 1988, Gaussian, Inc.),
 the Gaussian 86(TM) system (copyright 1986, Carnegie Mellon
 University), and the Gaussian 82(TM) system (copyright 1983,
 Carnegie Mellon University). Gaussian is a federally registered
 trademark of Gaussian, Inc.
  
 This software contains proprietary and confidential information,
 including trade secrets, belonging to Gaussian, Inc.
  
 This software is provided under written license and may be
 used, copied, transmitted, or stored only in accord with that
 written license.
  
 The following legend is applicable only to US Government
 contracts under FAR:
  
                    RESTRICTED RIGHTS LEGEND
  
 Use, reproduction and disclosure by the US Government is
 subject to restrictions as set forth in subparagraphs (a)
 and (c) of the Commercial Computer Software - Restricted
 Rights clause in FAR 52.227-19.
  
 Gaussian, Inc.
 340 Quinnipiac St., Bldg. 40, Wallingford CT 06492
  
  
 ---------------------------------------------------------------
 Warning -- This program may not be used in any manner that
 competes with the business of Gaussian, Inc. or will provide
 assistance to any competitor of Gaussian, Inc.  The licensee
 of this program is prohibited from giving any competitor of
 Gaussian, Inc. access to this program.  By using this program,
 the user acknowledges that Gaussian, Inc. is engaged in the
 business of creating and licensing software in the field of
 computational chemistry and represents and warrants to the
 licensee that it is not a competitor of Gaussian, Inc. and that
 it will not use this program in any manner prohibited above.
 ---------------------------------------------------------------
  

 Cite this work as:
 Gaussian 09, Revision D.01,
 M. J. Frisch, G. W. Trucks, H. B. Schlegel, G. E. Scuseria, 
 M. A. Robb, J. R. Cheeseman, G. Scalmani, V. Barone, B. Mennucci, 
 G. A. Petersson, H. Nakatsuji, M. Caricato, X. Li, H. P. Hratchian, 
 A. F. Izmaylov, J. Bloino, G. Zheng, J. L. Sonnenberg, M. Hada, 
 M. Ehara, K. Toyota, R. Fukuda, J. Hasegawa, M. Ishida, T. Nakajima, 
 Y. Honda, O. Kitao, H. Nakai, T. Vreven, J. A. Montgomery, Jr., 
 J. E. Peralta, F. Ogliaro, M. Bearpark, J. J. Heyd, E. Brothers, 
 K. N. Kudin, V. N. Staroverov, T. Keith, R. Kobayashi, J. Normand, 
 K. Raghavachari, A. Rendell, J. C. Burant, S. S. Iyengar, J. Tomasi, 
 M. Cossi, N. Rega, J. M. Millam, M. Klene, J. E. Knox, J. B. Cross, 
 V. Bakken, C. Adamo, J. Jaramillo, R. Gomperts, R. E. Stratmann, 
 O. Yazyev, A. J. Austin, R. Cammi, C. Pomelli, J. W. Ochterski, 
 R. L. Martin, K. Morokuma, V. G. Zakrzewski, G. A. Voth, 
 P. Salvador, J. J. Dannenberg, S. Dapprich, A. D. Daniels, 
 O. Farkas, J. B. Foresman, J. V. Ortiz, J. Cioslowski, 
 and D. J. Fox, Gaussian, Inc., Wallingford CT, 2013.
 
 ******************************************
 Gaussian 09:  ES64L-G09RevD.01 24-Apr-2013
                15-Dec-2015 
 ******************************************
 ------------------------------------------------------------
 #P AM1(Input,print) CIS(Singlets,NStates=15) pop(full) force
 ------------------------------------------------------------
 1/10=7,30=1,38=1/1,3;
 2/12=2,17=6,18=5,40=1/2;
 3/5=2,16=1,25=1,41=700000,71=1,135=100,136=1/1,2,8,3;
 4/35=1/1;
 5/5=2,35=1,38=5/2;
 8/6=1,10=1,108=15/1;
 9/15=2,41=15,42=1,48=1,49=10/14;
 10/5=4/2;
 6/7=3,18=1/1;
 7/12=6,13=5,29=1/1,2,3,16;
 1/10=7,30=1/3;
 99//99;
 Leave Link    1 at Tue Dec 15 17:07:13 2015, MaxMem=           0 cpu:         0.0
 (Enter /home/Applications/g09/g09/l101.exe)
 -----------------
 AM1-Reparam Input
 -----------------
 Symbolic Z-matrix:
 Charge =  0 Multiplicity = 1
 6                     0.91477  -0.70406  -0.00251 
 6                    -0.31941  -1.07223   0.00278 
 8                    -1.16233  -0.02503   0.01809 
 6                    -0.35226   1.11579   0.01818 
 6                     0.96011   0.71435   0.00276 
 1                     1.77564   1.33569  -0.03249 
 1                    -0.80082   2.08179   0.0471 
 1                    -0.83532  -1.99992  -0.00884 
 1                     1.80753  -1.34696   0.00343 
 
 NAtoms=      9 NQM=        9 NQMF=       0 NMMI=      0 NMMIF=      0
                NMic=       0 NMicF=      0.
                    Isotopes and Nuclear Properties:
 (Nuclear quadrupole moments (NQMom) in fm**2, nuclear magnetic moments (NMagM)
  in nuclear magnetons)

  Atom         1           2           3           4           5           6           7           8           9
 IAtWgt=          12          12          16          12          12           1           1           1           1
 AtmWgt=  12.0000000  12.0000000  15.9949146  12.0000000  12.0000000   1.0078250   1.0078250   1.0078250   1.0078250
 NucSpn=           0           0           0           0           0           1           1           1           1
 AtZEff=   0.0000000   0.0000000   0.0000000   0.0000000   0.0000000   0.0000000   0.0000000   0.0000000   0.0000000
 NQMom=    0.0000000   0.0000000   0.0000000   0.0000000   0.0000000   0.0000000   0.0000000   0.0000000   0.0000000
 NMagM=    0.0000000   0.0000000   0.0000000   0.0000000   0.0000000   2.7928460   2.7928460   2.7928460   2.7928460
 AtZNuc=   6.0000000   6.0000000   8.0000000   6.0000000   6.0000000   1.0000000   1.0000000   1.0000000   1.0000000
 Leave Link  101 at Tue Dec 15 17:07:13 2015, MaxMem=    33554432 cpu:         0.0
 (Enter /home/Applications/g09/g09/l103.exe)

 GradGradGradGradGradGradGradGradGradGradGradGradGradGradGradGradGradGrad
 Berny optimization.
 Initialization pass.
 Trust Radius=3.00D-01 FncErr=1.00D-07 GrdErr=1.00D-07
 Number of steps in this run=      2 maximum allowed number of steps=      2.
 GradGradGradGradGradGradGradGradGradGradGradGradGradGradGradGradGradGrad

 Leave Link  103 at Tue Dec 15 17:07:13 2015, MaxMem=    33554432 cpu:         0.0
 (Enter /home/Applications/g09/g09/l202.exe)
                          Input orientation:                          
 ---------------------------------------------------------------------
 Center     Atomic      Atomic             Coordinates (Angstroms)
 Number     Number       Type             X           Y           Z
 ---------------------------------------------------------------------
      1          6           0        0.914771   -0.704061   -0.002510
      2          6           0       -0.319413   -1.072232    0.002775
      3          8           0       -1.162329   -0.025031    0.018094
      4          6           0       -0.352258    1.115789    0.018178
      5          6           0        0.960111    0.714346    0.002755
      6          1           0        1.775637    1.335691   -0.032492
      7          1           0       -0.800824    2.081787    0.047104
      8          1           0       -0.835319   -1.999924   -0.008835
      9          1           0        1.807528   -1.346964    0.003429
 ---------------------------------------------------------------------
                    Distance matrix (angstroms):
                    1          2          3          4          5
     1  C    0.000000
     2  C    1.287939   0.000000
     3  O    2.185372   1.344385   0.000000
     4  C    2.217576   2.188322   1.399173   0.000000
     5  C    1.419141   2.197508   2.247591   1.372482   0.000000
     6  H    2.214176   3.191954   3.238173   2.139827   1.025863
     7  H    3.272106   3.190855   2.137805   1.065458   2.229967
     8  H    2.177640   1.061558   2.001965   3.153053   3.254376
     9  H    1.100170   2.144611   3.250811   3.275675   2.228703
                    6          7          8          9
     6  H    0.000000
     7  H    2.683495   0.000000
     8  H    4.236033   4.082240   0.000000
     9  H    2.683085   4.308334   2.722342   0.000000
 Stoichiometry    C4H4O
 Framework group  C1[X(C4H4O)]
 Deg. of freedom    21
 Full point group                 C1      NOp   1
 Largest Abelian subgroup         C1      NOp   1
 Largest concise Abelian subgroup C1      NOp   1
                         Standard orientation:                         
 ---------------------------------------------------------------------
 Center     Atomic      Atomic             Coordinates (Angstroms)
 Number     Number       Type             X           Y           Z
 ---------------------------------------------------------------------
      1          6           0       -0.649419    0.961871   -0.002631
      2          6           0       -1.095568   -0.246318    0.001723
      3          8           0       -0.104229   -1.154401    0.000617
      4          6           0        1.085947   -0.418762   -0.000511
      5          6           0        0.768999    0.916622    0.000003
      6          1           0        1.440928    1.691179    0.031100
      7          1           0        2.021488   -0.928274   -0.019471
      8          1           0       -2.054341   -0.701881    0.012815
      9          1           0       -1.233998    1.893702   -0.020884
 ---------------------------------------------------------------------
 Rotational constants (GHZ):      9.5964214      9.4703737      4.7666775
 Leave Link  202 at Tue Dec 15 17:07:13 2015, MaxMem=    33554432 cpu:         0.0
 (Enter /home/Applications/g09/g09/l301.exe)

 Semi-emprical parameters in input format:
 Method=8 CoreType=1 PeptideFC=0.0106250000 RIJScale=0.5404210000
 ****
 H       
 PQN=1 NValence=1 F0ss=0.4980120000 ZetaOverlap=1.0856700000 U=-0.3768230000
 Beta=-0.2268830000 CoreKO=1.0354420000 KON=0,0,0,1.0458670000 KON=1,0,1,1.0589200000
 KON=0,1,1,1.0589200000 KON=2,1,1,1.0697690000 EISol=-0.4188110042 EHeat=0.0830298228
 Alpha=1.4609850000
 GCore=0.0085280000,1.5127750000,2.2676710000
 GCore=0.0003530000,1.4551640000,3.4779940000
 GCore=-0.0011900000,0.5600570000,3.5861320000
 ****
 C       
 PQN=2,2 NValence=4 F0ss=0.4494440000 F0sp=0.4215150000 F0pp=0.3497590000 F2pp=0.1878900000
 G1sp=0.2701540000
 ZetaOverlap=1.8086650000,1.3781170000
 U=-1.7923890000,-1.4557970000
 Beta=-0.5453250000,-0.3063130000 DDN=0,1,0.7474020000 DDN=1,1,0.7268010000
 CoreKO=1.1124280000 KON=0,0,0,1.1723100000 KON=1,0,1,0.8998210000 KON=0,1,1,1.1012040000
 KON=2,1,1,0.7783930000 EISol=-4.4398989268 EHeat=0.2723305520 Alpha=1.2756240000
 DipHyp=1.4947180026
 GCore=0.0007890000,1.2095400000,2.6678360000
 GCore=0.0028980000,1.4001430000,3.2840710000
 GCore=-0.0013790000,1.3017660000,3.8739390000
 GCore=-0.0001030000,1.4001430000,4.6088130000
 ****
 O       
 PQN=2,2 NValence=6 F0ss=0.5310640000 F0sp=0.5321300000 F0pp=0.4958710000 F2pp=0.2543430000
 G1sp=0.4013240000
 ZetaOverlap=2.6354490000,2.5240390000
 U=-3.5951870000,-2.0345890000
 Beta=-1.1573400000,-1.2994290000 DDN=0,1,0.4953610000 DDN=1,1,0.5082060000
 CoreKO=0.8515990000 KON=0,0,0,0.8822960000 KON=1,0,1,0.5019540000 KON=0,1,1,0.8671530000
 KON=2,1,1,0.5515580000 EISol=-11.6164441184 EHeat=0.0949133088 Alpha=2.4031680000
 DipHyp=0.9906650029
 GCore=0.0204720000,1.2640290000,1.6023330000
 GCore=0.0051530000,1.9602000000,2.7307880000
 ****
 
 Standard basis: VSTO-6G (5D, 7F)
 Ernie: Thresh=  0.10000D-02 Tol=  0.10000D-05 Strict=F.
  NNHCO=     0 NNPyr=     0 NCTC=     0               EPep=         0.000000000
    EC=        69.292257992  ECS=         2.562606924   EG=         0.366016935
   EHC=         0.000000000  EAt=       -31.051283842  AtH=         1.516354808
 EPDDG=         0.000000000  ECC=        72.220881851 EAtT=        32.567638650
 There are    24 symmetry adapted cartesian basis functions of A   symmetry.
 There are    24 symmetry adapted basis functions of A   symmetry.
    24 basis functions,   144 primitive gaussians,    24 cartesian basis functions
    13 alpha electrons       13 beta electrons
       nuclear repulsion energy       104.7885205017 Hartrees.
 IExCor=    0 DFT=F Ex=HF Corr=None ExCW=0 ScaHFX=  1.000000
 ScaDFX=  1.000000  1.000000  1.000000  1.000000 ScalE2=  1.000000  1.000000
 IRadAn=      0 IRanWt=     -1 IRanGd=            0 ICorTp=0 IEmpDi=  4
 Integral buffers will be    131072 words long.
 Regular integral format.
 Two-electron integral symmetry is turned off.
 Leave Link  301 at Tue Dec 15 17:07:13 2015, MaxMem=    33554432 cpu:         0.0
 (Enter /home/Applications/g09/g09/l302.exe)
 Do NDO integrals.
 NPDir=0 NMtPBC=     1 NCelOv=     1 NCel=       1 NClECP=     1 NCelD=      1
         NCelK=      1 NCelE2=     1 NClLst=     1 CellRange=     0.0.
 One-electron integrals computed using PRISM.
 NBasis=    24 RedAO= F EigKep=  0.00D+00  NBF=    24
 NBsUse=    24 1.00D-04 EigRej=  0.00D+00 NBFU=    24
 Leave Link  302 at Tue Dec 15 17:07:13 2015, MaxMem=    33554432 cpu:         0.0
 (Enter /home/Applications/g09/g09/l308.exe)
 Leave Link  308 at Tue Dec 15 17:07:13 2015, MaxMem=    33554432 cpu:         0.0
 (Enter /home/Applications/g09/g09/l303.exe)
 DipDrv:  MaxL=1.
 Leave Link  303 at Tue Dec 15 17:07:13 2015, MaxMem=    33554432 cpu:         0.0
 (Enter /home/Applications/g09/g09/l401.exe)
 Simple Huckel Guess.
 JPrj=0 DoOrth=F DoCkMO=F.
 Leave Link  401 at Tue Dec 15 17:07:13 2015, MaxMem=    33554432 cpu:         0.0
 (Enter /home/Applications/g09/g09/l502.exe)
 Closed shell SCF:
 Using DIIS extrapolation, IDIIS=  1040.
 Overlap will be assumed to be unity.
 Two-electron integral symmetry not used.
 Keep J ints in memory in canonical form, NReq=888082.
 IVT=       79475 IEndB=       79475 NGot=    33554432 MDV=    33473473
 LenX=    33473473 LenY=    33472456
 Requested convergence on RMS density matrix=1.00D-08 within 128 cycles.
 Requested convergence on MAX density matrix=1.00D-06.
 Requested convergence on             energy=1.00D-06.
 No special actions if energy rises.
 FoFCou: FMM=F IPFlag=           0 FMFlag=           0 FMFlg1=           0
         NFxFlg=           0 DoJE=F BraDBF=F KetDBF=F FulRan=T
         wScrn=  0.000000 ICntrl=     600 IOpCl=  2 I1Cent=           0 NGrid=           0
         NMat0=    1 NMatS0=     54 NMatT0=    0 NMatD0=    1 NMtDS0=    0 NMtDT0=    0
 Symmetry not used in FoFCou.

 Cycle   1  Pass 1  IDiag  1:
 E=  4.52199481662642    
 DIIS: error= 1.23D-01 at cycle   1 NSaved=   1.
 NSaved= 1 IEnMin= 1 EnMin=  4.52199481662642     IErMin= 1 ErrMin= 1.23D-01
 ErrMax= 1.23D-01  0.00D+00 EMaxC= 1.00D-01 BMatC= 5.16D-01 BMatP= 5.16D-01
 IDIUse=3 WtCom= 0.00D+00 WtEn= 1.00D+00
 Coeff-Com:  0.100D+01
 Coeff-En:   0.100D+01
 Coeff:      0.100D+01
 GapD=    2.000 DampG=2.000 DampE=0.250 DampFc=0.5000 IDamp=-1.
 Damping current iteration by 5.00D-01
 RMSDP=6.68D-02 MaxDP=7.23D-01              OVMax= 0.00D+00

 Cycle   2  Pass 1  IDiag  1:
 E=  3.45637705943081     Delta-E=       -1.065617757196 Rises=F Damp=T
 DIIS: error= 7.22D-02 at cycle   2 NSaved=   2.
 NSaved= 2 IEnMin= 2 EnMin=  3.45637705943081     IErMin= 2 ErrMin= 7.22D-02
 ErrMax= 7.22D-02  0.00D+00 EMaxC= 1.00D-01 BMatC= 1.76D-01 BMatP= 5.16D-01
 IDIUse=3 WtCom= 2.78D-01 WtEn= 7.22D-01
 Coeff-Com: -0.115D+01 0.215D+01
 Coeff-En:   0.000D+00 0.100D+01
 Coeff:     -0.319D+00 0.132D+01
 RMSDP=3.77D-02 MaxDP=3.76D-01 DE=-1.07D+00 OVMax= 0.00D+00

 Cycle   3  Pass 1  IDiag  1:
 E=  2.13303834464364     Delta-E=       -1.323338714787 Rises=F Damp=F
 DIIS: error= 1.44D-02 at cycle   3 NSaved=   3.
 NSaved= 3 IEnMin= 3 EnMin=  2.13303834464364     IErMin= 3 ErrMin= 1.44D-02
 ErrMax= 1.44D-02  0.00D+00 EMaxC= 1.00D-01 BMatC= 1.07D-02 BMatP= 1.76D-01
 IDIUse=3 WtCom= 8.56D-01 WtEn= 1.44D-01
 Coeff-Com:  0.303D+00-0.676D+00 0.137D+01
 Coeff-En:   0.000D+00 0.000D+00 0.100D+01
 Coeff:      0.260D+00-0.579D+00 0.132D+01
 RMSDP=9.76D-03 MaxDP=5.15D-02 DE=-1.32D+00 OVMax= 0.00D+00

 Cycle   4  Pass 1  IDiag  3:
 E=  2.09074706889886     Delta-E=       -0.042291275745 Rises=F Damp=F
 DIIS: error= 4.09D-03 at cycle   4 NSaved=   4.
 NSaved= 4 IEnMin= 4 EnMin=  2.09074706889886     IErMin= 4 ErrMin= 4.09D-03
 ErrMax= 4.09D-03  0.00D+00 EMaxC= 1.00D-01 BMatC= 9.19D-04 BMatP= 1.07D-02
 IDIUse=3 WtCom= 9.59D-01 WtEn= 4.09D-02
 Coeff-Com: -0.578D-01 0.109D+00-0.427D+00 0.138D+01
 Coeff-En:   0.000D+00 0.000D+00 0.000D+00 0.100D+01
 Coeff:     -0.555D-01 0.104D+00-0.410D+00 0.136D+01
 Gap=     0.404 Goal=   None    Shift=    0.000
 RMSDP=3.71D-03 MaxDP=1.93D-02 DE=-4.23D-02 OVMax= 4.00D-02

 Cycle   5  Pass 1  IDiag  3:
 E=  2.08652121704951     Delta-E=       -0.004225851849 Rises=F Damp=F
 DIIS: error= 9.56D-04 at cycle   5 NSaved=   5.
 NSaved= 5 IEnMin= 5 EnMin=  2.08652121704951     IErMin= 5 ErrMin= 9.56D-04
 ErrMax= 9.56D-04  0.00D+00 EMaxC= 1.00D-01 BMatC= 3.52D-05 BMatP= 9.19D-04
 IDIUse=3 WtCom= 9.90D-01 WtEn= 9.56D-03
 Coeff-Com:  0.150D-01-0.268D-01 0.132D+00-0.566D+00 0.145D+01
 Coeff-En:   0.000D+00 0.000D+00 0.000D+00 0.000D+00 0.100D+01
 Coeff:      0.148D-01-0.265D-01 0.131D+00-0.560D+00 0.144D+01
 Gap=     0.404 Goal=   None    Shift=    0.000
 RMSDP=7.95D-04 MaxDP=3.56D-03 DE=-4.23D-03 OVMax= 6.94D-03

 Cycle   6  Pass 1  IDiag  3:
 E=  2.08634360083751     Delta-E=       -0.000177616212 Rises=F Damp=F
 DIIS: error= 1.77D-04 at cycle   6 NSaved=   6.
 NSaved= 6 IEnMin= 6 EnMin=  2.08634360083751     IErMin= 6 ErrMin= 1.77D-04
 ErrMax= 1.77D-04  0.00D+00 EMaxC= 1.00D-01 BMatC= 1.29D-06 BMatP= 3.52D-05
 IDIUse=3 WtCom= 9.98D-01 WtEn= 1.77D-03
 Coeff-Com: -0.130D-02 0.256D-02-0.294D-01 0.145D+00-0.522D+00 0.140D+01
 Coeff-En:   0.000D+00 0.000D+00 0.000D+00 0.000D+00 0.000D+00 0.100D+01
 Coeff:     -0.129D-02 0.256D-02-0.293D-01 0.145D+00-0.521D+00 0.140D+01
 Gap=     0.405 Goal=   None    Shift=    0.000
 RMSDP=1.50D-04 MaxDP=1.02D-03 DE=-1.78D-04 OVMax= 1.24D-03

 Cycle   7  Pass 1  IDiag  3:
 E=  2.08633767883457     Delta-E=       -0.000005922003 Rises=F Damp=F
 DIIS: error= 2.75D-05 at cycle   7 NSaved=   7.
 NSaved= 7 IEnMin= 7 EnMin=  2.08633767883457     IErMin= 7 ErrMin= 2.75D-05
 ErrMax= 2.75D-05  0.00D+00 EMaxC= 1.00D-01 BMatC= 3.13D-08 BMatP= 1.29D-06
 IDIUse=1 WtCom= 1.00D+00 WtEn= 0.00D+00
 Coeff-Com:  0.146D-03-0.291D-03 0.986D-02-0.530D-01 0.210D+00-0.646D+00
 Coeff-Com:  0.148D+01
 Coeff:      0.146D-03-0.291D-03 0.986D-02-0.530D-01 0.210D+00-0.646D+00
 Coeff:      0.148D+01
 Gap=     0.404 Goal=   None    Shift=    0.000
 RMSDP=2.20D-05 MaxDP=1.47D-04 DE=-5.92D-06 OVMax= 1.35D-04

 Cycle   8  Pass 1  IDiag  3:
 E=  2.08633753835221     Delta-E=       -0.000000140482 Rises=F Damp=F
 DIIS: error= 4.35D-06 at cycle   8 NSaved=   8.
 NSaved= 8 IEnMin= 8 EnMin=  2.08633753835221     IErMin= 8 ErrMin= 4.35D-06
 ErrMax= 4.35D-06  0.00D+00 EMaxC= 1.00D-01 BMatC= 7.37D-10 BMatP= 3.13D-08
 IDIUse=1 WtCom= 1.00D+00 WtEn= 0.00D+00
 Coeff-Com:  0.480D-05-0.300D-04-0.146D-02 0.908D-02-0.411D-01 0.136D+00
 Coeff-Com: -0.395D+00 0.129D+01
 Coeff:      0.480D-05-0.300D-04-0.146D-02 0.908D-02-0.411D-01 0.136D+00
 Coeff:     -0.395D+00 0.129D+01
 Gap=     0.404 Goal=   None    Shift=    0.000
 RMSDP=3.25D-06 MaxDP=2.30D-05 DE=-1.40D-07 OVMax= 2.20D-05

 Cycle   9  Pass 1  IDiag  3:
 E=  2.08633753507799     Delta-E=       -0.000000003274 Rises=F Damp=F
 DIIS: error= 1.10D-06 at cycle   9 NSaved=   9.
 NSaved= 9 IEnMin= 9 EnMin=  2.08633753507799     IErMin= 9 ErrMin= 1.10D-06
 ErrMax= 1.10D-06  0.00D+00 EMaxC= 1.00D-01 BMatC= 4.23D-11 BMatP= 7.37D-10
 IDIUse=1 WtCom= 1.00D+00 WtEn= 0.00D+00
 Coeff-Com:  0.296D-05 0.106D-05 0.137D-03-0.103D-02 0.566D-02-0.195D-01
 Coeff-Com:  0.656D-01-0.374D+00 0.132D+01
 Coeff:      0.296D-05 0.106D-05 0.137D-03-0.103D-02 0.566D-02-0.195D-01
 Coeff:      0.656D-01-0.374D+00 0.132D+01
 Gap=     0.404 Goal=   None    Shift=    0.000
 RMSDP=8.89D-07 MaxDP=8.19D-06 DE=-3.27D-09 OVMax= 8.73D-06

 Cycle  10  Pass 1  IDiag  3:
 E=  2.08633753483586     Delta-E=       -0.000000000242 Rises=F Damp=F
 DIIS: error= 3.93D-07 at cycle  10 NSaved=  10.
 NSaved=10 IEnMin=10 EnMin=  2.08633753483586     IErMin=10 ErrMin= 3.93D-07
 ErrMax= 3.93D-07  0.00D+00 EMaxC= 1.00D-01 BMatC= 5.34D-12 BMatP= 4.23D-11
 IDIUse=1 WtCom= 1.00D+00 WtEn= 0.00D+00
 Coeff-Com: -0.262D-06-0.149D-05-0.535D-04 0.406D-03-0.228D-02 0.768D-02
 Coeff-Com: -0.259D-01 0.167D+00-0.866D+00 0.172D+01
 Coeff:     -0.262D-06-0.149D-05-0.535D-04 0.406D-03-0.228D-02 0.768D-02
 Coeff:     -0.259D-01 0.167D+00-0.866D+00 0.172D+01
 Gap=     0.404 Goal=   None    Shift=    0.000
 RMSDP=4.29D-07 MaxDP=3.94D-06 DE=-2.42D-10 OVMax= 4.46D-06

 Cycle  11  Pass 1  IDiag  3:
 E=  2.08633753479933     Delta-E=       -0.000000000037 Rises=F Damp=F
 DIIS: error= 7.86D-08 at cycle  11 NSaved=  11.
 NSaved=11 IEnMin=11 EnMin=  2.08633753479933     IErMin=11 ErrMin= 7.86D-08
 ErrMax= 7.86D-08  0.00D+00 EMaxC= 1.00D-01 BMatC= 1.90D-13 BMatP= 5.34D-12
 IDIUse=1 WtCom= 1.00D+00 WtEn= 0.00D+00
 Coeff-Com: -0.718D-06 0.146D-05 0.120D-05-0.303D-04 0.265D-03-0.908D-03
 Coeff-Com:  0.397D-02-0.377D-01 0.248D+00-0.655D+00 0.144D+01
 Coeff:     -0.718D-06 0.146D-05 0.120D-05-0.303D-04 0.265D-03-0.908D-03
 Coeff:      0.397D-02-0.377D-01 0.248D+00-0.655D+00 0.144D+01
 Gap=     0.404 Goal=   None    Shift=    0.000
 RMSDP=7.58D-08 MaxDP=6.48D-07 DE=-3.65D-11 OVMax= 7.33D-07

 Cycle  12  Pass 1  IDiag  3:
 E=  2.08633753479835     Delta-E=       -0.000000000001 Rises=F Damp=F
 DIIS: error= 8.35D-09 at cycle  12 NSaved=  12.
 NSaved=12 IEnMin=12 EnMin=  2.08633753479835     IErMin=12 ErrMin= 8.35D-09
 ErrMax= 8.35D-09  0.00D+00 EMaxC= 1.00D-01 BMatC= 5.02D-15 BMatP= 1.90D-13
 IDIUse=1 WtCom= 1.00D+00 WtEn= 0.00D+00
 Coeff-Com:  0.530D-07-0.104D-06-0.315D-06 0.631D-05-0.622D-04 0.197D-03
 Coeff-Com: -0.990D-03 0.114D-01-0.803D-01 0.225D+00-0.583D+00 0.143D+01
 Coeff:      0.530D-07-0.104D-06-0.315D-06 0.631D-05-0.622D-04 0.197D-03
 Coeff:     -0.990D-03 0.114D-01-0.803D-01 0.225D+00-0.583D+00 0.143D+01
 Gap=     0.404 Goal=   None    Shift=    0.000
 RMSDP=9.83D-09 MaxDP=4.43D-08 DE=-9.81D-13 OVMax= 6.70D-08

 Cycle  13  Pass 2  IDiag  1:
 SCF Done:  E(RAM1) =   2.08633753480     A.U. after   13 cycles
            NFock= 12  Conv=0.98D-08     -V/T= 1.1342
 KE=-1.554360744471D+01 PE=-1.703619710800D+02 EE= 8.320339555789D+01
 Leave Link  502 at Tue Dec 15 17:07:13 2015, MaxMem=    33554432 cpu:         0.0
 (Enter /home/Applications/g09/g09/l801.exe)
 Range of M.O.s used for correlation:     1    24
 NBasis=    24 NAE=    13 NBE=    13 NFC=     0 NFV=     0
 NROrb=     24 NOA=    13 NOB=    13 NVA=    11 NVB=    11
 Leave Link  801 at Tue Dec 15 17:07:13 2015, MaxMem=    33554432 cpu:         0.0
 (Enter /home/Applications/g09/g09/l914.exe)
 RHF ground state
 MDV=    33554432 DFT=F DoStab=F Mixed=F DoRPA=F DoScal=F NonHer=F
 Making orbital integer symmetry assigments:
 Orbital symmetries:
       Occupied  (A) (A) (A) (A) (A) (A) (A) (A) (A) (A) (A) (A)
                 (A)
       Virtual   (A) (A) (A) (A) (A) (A) (A) (A) (A) (A) (A)
    60 initial guesses have been made.
 Convergence on wavefunction:    0.000001000000000
 Davidson Disk Diagonalization:  ConvIn= 1.00D-06 SkipCon=T Conv= 1.00D-06.
 Max sub-space:   240 roots to seek:    60 dimension of matrix:          286
 Iteration     1 Dimension    60 NMult     0 NNew     60
 CISAX will form    60 AO SS matrices at one time.
 NMat=    60 NSing=    60 JSym2X= 0.
 FoFJK:  IHMeth= 8 ICntrl=       0 DoSepK=F KAlg= 0 I1Cent=   0 FoldK=F
 IRaf=         1 NMat= 120 IRICut=       1 DoRegI=T DoRafI=F ISym2E= 0.
 FoFCou: FMM=F IPFlag=           0 FMFlag=      100000 FMFlg1=           0
         NFxFlg=           0 DoJE=F BraDBF=F KetDBF=F FulRan=T
         wScrn=  0.000000 ICntrl=       0 IOpCl=  0 I1Cent=           0 NGrid=           0
         NMat0=  120 NMatS0=     60 NMatT0=    0 NMatD0=  120 NMtDS0=    0 NMtDT0=    0
 Symmetry not used in FoFCou.
 New state      3 was old state      4
 New state      4 was old state      3
 New state      6 was old state      8
 New state      7 was old state      6
 New state      8 was old state      7
 New state     12 was old state     14
 New state     13 was old state     12
 New state     14 was old state     17
 Excitation Energies [eV] at current iteration:
 Root      1 :     5.417338636014846
 Root      2 :     6.640320568568578
 Root      3 :     6.813670308825148
 Root      4 :     6.998111916320915
 Root      5 :     7.764279603671099
 Root      6 :     7.966805853193356
 Root      7 :     8.550612602010993
 Root      8 :     8.856907226695323
 Root      9 :     9.114321134412322
 Root     10 :     9.662772795526628
 Root     11 :     9.684563975243924
 Root     12 :     9.881891070669466
 Root     13 :    10.117545779375860
 Root     14 :    10.410096620121700
 Root     15 :    10.447159920296920
 Root     16 :    10.702836272505710
 Root     17 :    10.793650071855370
 Root     18 :    10.802868187164720
 Root     19 :    11.044137626475530
 Root     20 :    11.252146835235410
 Root     21 :    11.437756315942310
 Root     22 :    11.563353899868370
 Root     23 :    11.604133359027830
 Root     24 :    11.961505656343680
 Root     25 :    12.035334398149510
 Root     26 :    12.182131761005600
 Root     27 :    12.697982505050140
 Root     28 :    12.739193560247420
 Root     29 :    12.893540979464340
 Root     30 :    13.013686036941160
 Root     31 :    13.076142603679240
 Root     32 :    13.186154498071000
 Root     33 :    13.308822250191530
 Root     34 :    13.582084197430310
 Root     35 :    13.641709005342960
 Root     36 :    13.754116581082710
 Root     37 :    13.950530013714480
 Root     38 :    14.205253827697960
 Root     39 :    14.222014942236920
 Root     40 :    14.320010287936500
 Root     41 :    14.398114472892890
 Root     42 :    14.649266079679810
 Root     43 :    14.806262283826670
 Root     44 :    15.001371232396430
 Root     45 :    15.321298641886760
 Root     46 :    15.372380804314660
 Root     47 :    15.589727911002020
 Root     48 :    15.648146294455690
 Root     49 :    15.713059903557400
 Root     50 :    15.826620363479830
 Root     51 :    15.951362443189880
 Root     52 :    16.136315011218430
 Root     53 :    16.400676899223220
 Root     54 :    16.667031629485800
 Root     55 :    17.061092721668050
 Root     56 :    17.500249982741670
 Root     57 :    17.622976262328330
 Root     58 :    17.873198360504760
 Root     59 :    18.011039877785880
 Root     60 :    18.193857492432370
 Iteration     2 Dimension   120 NMult    60 NNew     60
 CISAX will form    60 AO SS matrices at one time.
 NMat=    60 NSing=    60 JSym2X= 0.
 Root      1 not converged, maximum delta is    0.022123332989860
 Root      2 not converged, maximum delta is    0.023002719749129
 Root      3 not converged, maximum delta is    0.026556758865348
 Root      4 not converged, maximum delta is    0.033521930638900
 Root      5 not converged, maximum delta is    0.017387882282573
 Root      6 not converged, maximum delta is    0.023385177301289
 Root      7 not converged, maximum delta is    0.017812776987764
 Root      8 not converged, maximum delta is    0.021566404975087
 Root      9 not converged, maximum delta is    0.013916328007903
 Root     10 not converged, maximum delta is    0.147339388580136
 Root     11 not converged, maximum delta is    0.034996601140612
 Root     12 not converged, maximum delta is    0.109269336642810
 Root     13 not converged, maximum delta is    0.039930443773508
 Root     14 not converged, maximum delta is    0.135896268510598
 Root     15 not converged, maximum delta is    0.108969265636283
 Excitation Energies [eV] at current iteration:
 Root      1 :     5.350514103574505   Change is   -0.066824532440341
 Root      2 :     6.606962189206675   Change is   -0.033358379361904
 Root      3 :     6.783811707709322   Change is   -0.029858601115826
 Root      4 :     6.952028925419815   Change is   -0.046082990901100
 Root      5 :     7.749635585487054   Change is   -0.014644018184045
 Root      6 :     7.935226316657944   Change is   -0.031579536535413
 Root      7 :     8.533691104762418   Change is   -0.016921497248575
 Root      8 :     8.830131004260782   Change is   -0.026776222434542
 Root      9 :     9.104994379639200   Change is   -0.009326754773123
 Root     10 :     9.455090930203401   Change is   -0.207681865323228
 Root     11 :     9.621261559090362   Change is   -0.063302416153560
 Root     12 :     9.783659558978608   Change is   -0.098231511690859
 Root     13 :    10.050360860880420   Change is   -0.067184918495447
 Root     14 :    10.340428129812300   Change is   -0.069668490309407
 Root     15 :    10.396546067233220   Change is   -0.050613853063704
 Root     16 :    10.500277108508180   Change is   -0.202559163997528
 Root     17 :    10.619668419339980   Change is   -0.173981652515387
 Root     18 :    10.771326242056160   Change is   -0.031541945108567
 Root     19 :    10.945157031828560   Change is   -0.098980594646969
 Root     20 :    11.089410172173240   Change is   -0.162736663062166
 Root     21 :    11.265662312197740   Change is   -0.172094003744574
 Root     22 :    11.478382281557410   Change is   -0.084971618310959
 Root     23 :    11.570770902025720   Change is   -0.033362457002108
 Root     24 :    11.630027571942090   Change is   -0.331478084401595
 Root     25 :    11.852513989013070   Change is   -0.182820409136439
 Root     26 :    12.028780206592390   Change is   -0.153351554413203
 Root     27 :    12.454841348260790   Change is   -0.243141156789350
 Root     28 :    12.523647731522480   Change is   -0.215545828724948
 Root     29 :    12.698583463508280   Change is   -0.194957515956059
 Root     30 :    12.895787563376110   Change is   -0.180355040303135
 Root     31 :    12.897106832946940   Change is   -0.116579203994215
 Root     32 :    13.068170553023970   Change is   -0.117983945047025
 Root     33 :    13.134228443111780   Change is   -0.174593807079746
 Root     34 :    13.422940010325440   Change is   -0.159144187104874
 Root     35 :    13.521102060057790   Change is   -0.120606945285175
 Root     36 :    13.678259560133090   Change is   -0.075857020949615
 Root     37 :    13.786777112219340   Change is   -0.163752901495139
 Root     38 :    13.873998071482830   Change is   -0.348016870754088
 Root     39 :    13.996068904944680   Change is   -0.209184922753274
 Root     40 :    14.239876853988150   Change is   -0.158237618904736
 Root     41 :    14.250797340758420   Change is   -0.069212947178087
 Root     42 :    14.578747657184110   Change is   -0.070518422495696
 Root     43 :    14.612178639050010   Change is   -0.194083644776655
 Root     44 :    14.881984110045710   Change is   -0.119387122350724
 Root     45 :    15.124996268464600   Change is   -0.196302373422158
 Root     46 :    15.175809791450140   Change is   -0.196571012864515
 Root     47 :    15.323788534618340   Change is   -0.265939376383676
 Root     48 :    15.480003302338890   Change is   -0.168142992116806
 Root     49 :    15.576418564441900   Change is   -0.250201799037927
 Root     50 :    15.639462000786720   Change is   -0.073597902770674
 Root     51 :    15.768233260012520   Change is   -0.183129183177363
 Root     52 :    15.916977856765250   Change is   -0.219337154453185
 Root     53 :    16.115447462412500   Change is   -0.285229436810722
 Root     54 :    16.203346992613620   Change is   -0.463684636872172
 Root     55 :    16.421447833174880
 Root     56 :    16.591294858272770   Change is   -1.031681404055560
 Root     57 :    16.842544457629440   Change is   -0.218548264038614
 Root     58 :    16.871787158784990
 Root     59 :    17.321958781825970   Change is   -0.178291200915704
 Root     60 :    17.368778101554470
 Iteration     3 Dimension   135 NMult   120 NNew     15
 CISAX will form    15 AO SS matrices at one time.
 NMat=    15 NSing=    15 JSym2X= 0.
 Root      1 not converged, maximum delta is    0.001647224370083
 Root      2 not converged, maximum delta is    0.000049209839548
 Root      3 not converged, maximum delta is    0.000020537920247
 Root      4 not converged, maximum delta is    0.000038119230580
 Root      5 not converged, maximum delta is    0.000070078881529
 Root      6 not converged, maximum delta is    0.000023110181802
 Root      7 not converged, maximum delta is    0.000058699123746
 Root      8 not converged, maximum delta is    0.000653219752811
 Root      9 not converged, maximum delta is    0.000035066651200
 Root     10 not converged, maximum delta is    0.001793869897540
 Root     11 not converged, maximum delta is    0.000045721257574
 Root     12 not converged, maximum delta is    0.001537096585855
 Root     13 not converged, maximum delta is    0.000070706934914
 Root     14 not converged, maximum delta is    0.001864969238866
 Root     15 not converged, maximum delta is    0.001623964870780
 Excitation Energies [eV] at current iteration:
 Root      1 :     5.350050908434739   Change is   -0.000463195139766
 Root      2 :     6.606961950086473   Change is   -0.000000239120202
 Root      3 :     6.783811588540740   Change is   -0.000000119168582
 Root      4 :     6.952028797728216   Change is   -0.000000127691598
 Root      5 :     7.749635138120554   Change is   -0.000000447366500
 Root      6 :     7.935226205678842   Change is   -0.000000110979101
 Root      7 :     8.533690723984988   Change is   -0.000000380777430
 Root      8 :     8.830011159459199   Change is   -0.000119844801583
 Root      9 :     9.104994088499632   Change is   -0.000000291139568
 Root     10 :     9.454281924888940   Change is   -0.000809005314460
 Root     11 :     9.621261063213643   Change is   -0.000000495876720
 Root     12 :     9.783315663279469   Change is   -0.000343895699139
 Root     13 :    10.050359423718610   Change is   -0.000001437161811
 Root     14 :    10.339984112673630   Change is   -0.000444017138671
 Root     15 :    10.396463097078760   Change is   -0.000082970154458
 Iteration     4 Dimension   143 NMult   135 NNew      8
 CISAX will form     8 AO SS matrices at one time.
 NMat=     8 NSing=     8 JSym2X= 0.
 Root      1 not converged, maximum delta is    0.000075021859779
 Root      2 not converged, maximum delta is    0.000002733991692
 Root      3 has converged.
 Root      4 not converged, maximum delta is    0.000002462587656
 Root      5 not converged, maximum delta is    0.000005752864453
 Root      6 not converged, maximum delta is    0.000001615402718
 Root      7 not converged, maximum delta is    0.000005081481779
 Root      8 not converged, maximum delta is    0.000050272531532
 Root      9 not converged, maximum delta is    0.000004264045827
 Root     10 not converged, maximum delta is    0.000218746134010
 Root     11 not converged, maximum delta is    0.000001657126870
 Root     12 not converged, maximum delta is    0.000145605844054
 Root     13 not converged, maximum delta is    0.000002876997443
 Root     14 not converged, maximum delta is    0.000071754301161
 Root     15 not converged, maximum delta is    0.000029423731976
 Excitation Energies [eV] at current iteration:
 Root      1 :     5.350049529393013   Change is   -0.000001379041726
 Root      2 :     6.606961949230253   Change is   -0.000000000856220
 Root      3 :     6.783811588341651   Change is   -0.000000000199089
 Root      4 :     6.952028797196524   Change is   -0.000000000531692
 Root      5 :     7.749635135095257   Change is   -0.000000003025297
 Root      6 :     7.935226205417518   Change is   -0.000000000261324
 Root      7 :     8.533690722367597   Change is   -0.000000001617391
 Root      8 :     8.830010723900795   Change is   -0.000000435558403
 Root      9 :     9.104994087442725   Change is   -0.000000001056908
 Root     10 :     9.454278152074894   Change is   -0.000003772814047
 Root     11 :     9.621261062333568   Change is   -0.000000000880074
 Root     12 :     9.783314683769822   Change is   -0.000000979509647
 Root     13 :    10.050359421424500   Change is   -0.000000002294106
 Root     14 :    10.339982871245860   Change is   -0.000001241427767
 Root     15 :    10.396462836512200   Change is   -0.000000260566558
 Convergence achieved on expansion vectors.
 ***********************************************************************
 Excited states from <AA,BB:AA,BB> singles matrix:
 ***********************************************************************
 
 1PDM for each excited state written to RWF  633
 Ground to excited state transition densities written to RWF  633
 Ground to excited state transition electric dipole moments (Au):
       state          X           Y           Z        Dip. S.      Osc.
         1        -1.6145      0.0546      0.0039      2.6096      0.3421
         2        -0.0247     -0.0028      0.1645      0.0277      0.0045
         3        -0.0075     -0.0075     -0.0017      0.0001      0.0000
         4        -0.0212      0.0085      0.2140      0.0463      0.0079
         5        -0.0368      0.0143     -0.1768      0.0328      0.0062
         6        -0.0041      0.0021      0.0953      0.0091      0.0018
         7        -0.0195      0.0031      0.2837      0.0809      0.0169
         8        -0.0236     -0.6899      0.0013      0.4765      0.1031
         9        -0.0091     -0.0037      0.1290      0.0167      0.0037
        10         0.2937      0.3256     -0.0179      0.1926      0.0446
        11        -0.0010      0.0039     -0.2932      0.0860      0.0203
        12         0.6605      0.0828     -0.0050      0.4431      0.1062
        13         0.0154      0.0026      0.4792      0.2299      0.0566
        14        -0.7388      0.1546     -0.0191      0.5700      0.1444
        15         0.2901     -0.0736     -0.0013      0.0896      0.0228
 Ground to excited state transition velocity dipole moments (Au):
       state          X           Y           Z        Dip. S.      Osc.
         1         0.1902     -0.0052      0.0025      0.0362      0.1228
         2         0.0022     -0.0005     -0.1431      0.0205      0.0562
         3         0.0005      0.0010     -0.0201      0.0004      0.0011
         4         0.0027     -0.0016     -0.1349      0.0182      0.0475
         5         0.0077     -0.0030      0.0066      0.0001      0.0003
         6         0.0007      0.0009     -0.0215      0.0005      0.0011
         7         0.0055     -0.0004     -0.0279      0.0008      0.0017
         8         0.0108      0.2269     -0.0012      0.0516      0.1060
         9         0.0036      0.0006      0.0134      0.0002      0.0004
        10        -0.0692     -0.0495     -0.0004      0.0072      0.0139
        11        -0.0002     -0.0011     -0.0151      0.0002      0.0004
        12        -0.1000      0.0204     -0.0066      0.0105      0.0194
        13        -0.0046     -0.0003      0.0560      0.0032      0.0057
        14         0.1181     -0.0127     -0.0098      0.0142      0.0249
        15        -0.0481      0.0044     -0.0623      0.0062      0.0108
 Ground to excited state transition magnetic dipole moments (Au):
       state          X           Y           Z
         1        -0.0055      0.0031     -0.5530
         2        -0.1528     -0.2583     -0.0095
         3         0.1586      0.8323      0.0006
         4        -0.2397      0.0163     -0.0143
         5         0.8428     -0.1573     -0.0163
         6        -0.0661      0.6942     -0.0037
         7        -0.4507      0.0011     -0.0133
         8         0.0127     -0.0237      0.0123
         9        -0.2731     -0.2139     -0.0106
        10         0.0040     -0.0018      0.1038
        11        -0.0330     -0.0906      0.0087
        12         0.0013     -0.0078      0.1731
        13         0.1627     -0.1468     -0.0040
        14         0.0044     -0.1416     -0.2750
        15         0.0704     -0.3179      0.1096
 Ground to excited state transition velocity quadrupole moments (Au):
       state          XX          YY          ZZ          XY          XZ          YZ
         1         0.0424     -0.0205     -0.0004      0.3071      0.0010      0.0061
         2         0.0054      0.0038     -0.0018      0.0078      0.1232     -0.1234
         3        -0.0104     -0.0055      0.0003      0.0022      0.2096     -0.0453
         4         0.0005     -0.0063      0.0026      0.0063     -0.1170     -0.0972
         5         0.0099      0.0003      0.0005      0.0105     -0.0900     -0.1349
         6        -0.0028      0.0030     -0.0003      0.0008     -0.4298      0.0179
         7        -0.0003      0.0001      0.0000      0.0076      0.0864     -0.1476
         8        -0.2479      0.3164     -0.0270      0.1017     -0.0096     -0.0023
         9         0.0132      0.0033     -0.0032      0.0038      0.0521     -0.0789
        10         0.1127     -0.0708      0.0043     -0.0815      0.0068      0.0071
        11        -0.0175     -0.0119      0.0043     -0.0001      0.2041     -0.0554
        12         0.3319      0.2311      0.0690     -0.2310      0.0134      0.0011
        13        -0.0023     -0.0017      0.0058     -0.0132      0.1677      0.1145
        14         0.2899      0.1219      0.0148      0.2059      0.1490      0.0051
        15        -0.1349     -0.0524     -0.0134     -0.0722      0.3057      0.0850
 <0|del|b> * <b|rxdel|0> + <0|del|b> * <b|delr+rdel|0>
 Rotatory Strengths (R) in cgs (10**-40 erg-esu-cm/Gauss)
       state          XX          YY          ZZ    R(velocity)    E-M Angle
         1        -1.1215     -3.6214     -4.0043     -2.9157       91.32
         2         0.6422      2.7265      0.0053      1.1247       88.46
         3         0.8331      0.1201      1.6661      0.8731       86.90
         4         1.1929      2.5944     -0.3135      1.1579       87.79
         5         0.2007      6.5640     10.2813      5.6820       41.00
         6         1.3197      0.0777      0.2218      0.5397       87.46
         7         0.2181     -3.0301     -1.9086     -1.5735       99.39
         8        -3.6364      0.2424     -8.0650     -3.8197      141.50
         9        -0.2754     -1.5498     -0.8516     -0.8923      105.18
        10         0.4241     -0.8548     -0.0339     -0.1549       91.48
        11         0.1832     -0.1186     -0.1242     -0.0198       90.00
        12        -0.0460     -2.8632      0.0916     -0.9392       94.64
        13        -0.8209     -0.7421     -0.2213     -0.5948       94.34
        14         4.0568      5.4420     -0.1595      3.1131       82.18
        15        -4.6845    -17.4014      0.6004     -7.1618      115.37
 1/2[<0|r|b>*<b|rxdel|0> + (<0|rxdel|b>*<b|r|0>)*]
 Rotatory Strengths (R) in cgs (10**-40 erg-esu-cm/Gauss)
       state          XX          YY          ZZ     R(length)
         1        -6.2272     -0.1194      1.5255     -1.6070
         2        -2.6670     -0.5097      1.1083     -0.6895
         3         0.8469      4.3892      0.0008      1.7456
         4        -3.5875     -0.0979      2.1621     -0.5078
         5        21.9389      1.5898     -2.0317      7.1657
         6        -0.1908     -1.0475      0.2516     -0.3289
         7        -6.2011     -0.0024      2.6685     -1.1783
         8         0.2128    -11.5686     -0.0109     -3.7889
         9        -1.7650     -0.5581      0.9639     -0.4531
        10        -0.8306      0.4080      1.3168      0.2981
        11        -0.0233      0.2472      1.8063      0.6767
        12        -0.5881      0.4562      0.6127      0.1602
        13        -1.7728      0.2723      1.3671     -0.0445
        14         2.3146     15.4785     -3.7063      4.6956
        15       -14.4339    -16.5494      0.0993    -10.2947
  1/2[<0|del|b>*<b|r|0> + (<0|r|b>*<b|del|0>)*] (Au)
       state          X           Y           Z        Dip. S.   Osc.(frdel)
         1        -0.3071     -0.0003      0.0000      0.3074      0.2049
         2        -0.0001      0.0000     -0.0235      0.0236      0.0157
         3         0.0000      0.0000      0.0000      0.0000      0.0000
         4        -0.0001      0.0000     -0.0289      0.0289      0.0193
         5        -0.0003      0.0000     -0.0012      0.0015      0.0010
         6         0.0000      0.0000     -0.0021      0.0021      0.0014
         7        -0.0001      0.0000     -0.0079      0.0080      0.0054
         8        -0.0003     -0.1565      0.0000      0.1568      0.1045
         9         0.0000      0.0000      0.0017     -0.0017     -0.0011
        10        -0.0203     -0.0161      0.0000      0.0364      0.0243
        11         0.0000      0.0000      0.0044     -0.0044     -0.0030
        12        -0.0661      0.0017      0.0000      0.0643      0.0429
        13        -0.0001      0.0000      0.0268     -0.0267     -0.0178
        14        -0.0872     -0.0020      0.0002      0.0890      0.0593
        15        -0.0140     -0.0003      0.0001      0.0142      0.0095

 Excitation energies and oscillator strengths:
 
 Excited State   1:      Singlet-A      5.3500 eV  231.74 nm  f=0.3421  <S**2>=0.000
      13 -> 14         0.69499
 This state for optimization and/or second-order correction.
 Total Energy, E(CIS) =   2.28294824585    
 Copying the excited state density for this state as the 1-particle RhoCI density.
 
 Excited State   2:      Singlet-A      6.6070 eV  187.66 nm  f=0.0045  <S**2>=0.000
      10 -> 15         0.10026
      13 -> 15         0.65233
      13 -> 17         0.16979
      13 -> 18         0.15692
 
 Excited State   3:      Singlet-A      6.7838 eV  182.76 nm  f=0.0000  <S**2>=0.000
      12 -> 14         0.69237
 
 Excited State   4:      Singlet-A      6.9520 eV  178.34 nm  f=0.0079  <S**2>=0.000
      13 -> 16         0.63927
      13 -> 17         0.11391
      13 -> 18        -0.23489
 
 Excited State   5:      Singlet-A      7.7496 eV  159.99 nm  f=0.0062  <S**2>=0.000
      10 -> 14         0.10692
      11 -> 14         0.68952
 
 Excited State   6:      Singlet-A      7.9352 eV  156.25 nm  f=0.0018  <S**2>=0.000
      13 -> 15        -0.11730
      13 -> 16         0.16891
      13 -> 18         0.43251
      13 -> 19         0.41296
      13 -> 20         0.26698
 
 Excited State   7:      Singlet-A      8.5337 eV  145.29 nm  f=0.0169  <S**2>=0.000
      13 -> 15        -0.17022
      13 -> 17         0.62910
      13 -> 18         0.10783
      13 -> 19        -0.19745
 
 Excited State   8:      Singlet-A      8.8300 eV  140.41 nm  f=0.1031  <S**2>=0.000
      10 -> 14         0.67620
      11 -> 14        -0.10602
 
 Excited State   9:      Singlet-A      9.1050 eV  136.17 nm  f=0.0037  <S**2>=0.000
      10 -> 16         0.15205
      13 -> 16        -0.16742
      13 -> 17         0.19496
      13 -> 18        -0.39973
      13 -> 19         0.47521
 
 Excited State  10:      Singlet-A      9.4543 eV  131.14 nm  f=0.0446  <S**2>=0.000
       8 -> 15        -0.10527
      11 -> 15        -0.16709
      11 -> 16        -0.12641
      11 -> 17        -0.19958
      12 -> 15         0.31172
      12 -> 16        -0.28715
      12 -> 18         0.34410
      12 -> 19         0.20077
 
 Excited State  11:      Singlet-A      9.6213 eV  128.86 nm  f=0.0203  <S**2>=0.000
      13 -> 18        -0.20396
      13 -> 19        -0.22651
      13 -> 20         0.60010
      13 -> 21         0.19053
 
 Excited State  12:      Singlet-A      9.7833 eV  126.73 nm  f=0.1062  <S**2>=0.000
      11 -> 15         0.23660
      11 -> 17         0.13407
      12 -> 15         0.54954
      12 -> 16         0.13248
      12 -> 17         0.20863
      12 -> 19        -0.11608
 
 Excited State  13:      Singlet-A     10.0504 eV  123.36 nm  f=0.0566  <S**2>=0.000
      13 -> 20        -0.20555
      13 -> 21         0.66008
 
 Excited State  14:      Singlet-A     10.3400 eV  119.91 nm  f=0.1444  <S**2>=0.000
      10 -> 15         0.19916
      11 -> 15        -0.13475
      11 -> 16        -0.39365
      11 -> 17        -0.13051
      11 -> 18         0.11487
      12 -> 16         0.42401
      12 -> 19         0.18580
 
 Excited State  15:      Singlet-A     10.3965 eV  119.26 nm  f=0.0228  <S**2>=0.000
       7 -> 15        -0.11988
      10 -> 15         0.54981
      10 -> 16         0.24040
      10 -> 17         0.12797
      11 -> 16         0.13093
      12 -> 16        -0.17621
      13 -> 15        -0.11231
 SavETr:  write IOETrn=   770 NScale= 10 NData=  16 NLR=1 NState=   15 LETran=     280.
 The selected state is a singlet
 CISAX will form     1 AO SS matrices at one time.
 NMat=     1 NSing=     1 JSym2X= 0.
 Leave Link  914 at Tue Dec 15 17:07:13 2015, MaxMem=    33554432 cpu:         0.1
 (Enter /home/Applications/g09/g09/l1002.exe)
 Minotr:  Closed shell wavefunction.
          Computing CIS/TD-HF/TD-KS derivatives.
          Using Z-Vector for PSCF gradient.
          Skipping F1 and S1 gradient terms here.
          IDoAtm=111111111
          Direct CPHF calculation.
          Differentiating once with respect to electric field.
                with respect to dipole field.
          Differentiating once with respect to nuclear coordinates.
          Electric field/nuclear overlap derivatives assumed to be zero.
          Requested convergence is 1.0D-10 RMS, and 1.0D-09 maximum.
          NewPWx=T KeepS1=F KeepF1=F KeepIn=T MapXYZ=F SortEE=F KeepMc=T.
          MDV=      33495423 using IRadAn=       0.
 Keep J ints in memory in canonical form, NReq=871704.
 FoFCou: FMM=F IPFlag=           0 FMFlag=           0 FMFlg1=           0
         NFxFlg=           0 DoJE=F BraDBF=F KetDBF=F FulRan=T
         wScrn=  0.000000 ICntrl=     600 IOpCl=  2 I1Cent=           0 NGrid=           0
         NMat0=    1 NMatS0=     54 NMatT0=    0 NMatD0=    1 NMtDS0=    0 NMtDT0=    0
 Symmetry not used in FoFCou.
          Solving linear equations separately, MaxMat=       0.
          There are     1 degrees of freedom in the 1st order CPHF.  IDoFFX=0 NUNeed=     1.
 LinEq1:  Iter=  0 NonCon=     1 RMS=6.42D-03 Max=4.64D-02 NDo=     1
 AX will form     1 AO Fock derivatives at one time.
 LinEq1:  Iter=  1 NonCon=     1 RMS=4.92D-04 Max=1.85D-03 NDo=     1
 LinEq1:  Iter=  2 NonCon=     1 RMS=4.80D-05 Max=1.49D-04 NDo=     1
 LinEq1:  Iter=  3 NonCon=     1 RMS=5.54D-06 Max=3.43D-05 NDo=     1
 LinEq1:  Iter=  4 NonCon=     1 RMS=8.63D-07 Max=2.99D-06 NDo=     1
 LinEq1:  Iter=  5 NonCon=     1 RMS=1.25D-07 Max=5.94D-07 NDo=     1
 LinEq1:  Iter=  6 NonCon=     1 RMS=1.55D-08 Max=4.97D-08 NDo=     1
 LinEq1:  Iter=  7 NonCon=     1 RMS=2.25D-09 Max=7.83D-09 NDo=     1
 LinEq1:  Iter=  8 NonCon=     1 RMS=2.89D-10 Max=9.48D-10 NDo=     1
 LinEq1:  Iter=  9 NonCon=     0 RMS=3.67D-11 Max=1.25D-10 NDo=     1
 Linear equations converged to 1.000D-10 1.000D-09 after     9 iterations.
 End of Minotr F.D. properties file   721 does not exist.
 End of Minotr F.D. properties file   722 does not exist.
 End of Minotr F.D. properties file   788 does not exist.
 Leave Link 1002 at Tue Dec 15 17:07:13 2015, MaxMem=    33554432 cpu:         0.0
 (Enter /home/Applications/g09/g09/l601.exe)
 Copying SCF densities to generalized density rwf, IOpCl= 0 IROHF=0.

 **********************************************************************

            Population analysis using the SCF density.

 **********************************************************************

 Orbital symmetries:
       Occupied  (A) (A) (A) (A) (A) (A) (A) (A) (A) (A) (A) (A)
                 (A)
       Virtual   (A) (A) (A) (A) (A) (A) (A) (A) (A) (A) (A)
 The electronic state is 1-A.
 Alpha  occ. eigenvalues --   -1.94320  -1.21456  -0.96744  -0.82427  -0.79198
 Alpha  occ. eigenvalues --   -0.69165  -0.65608  -0.54719  -0.53876  -0.44134
 Alpha  occ. eigenvalues --   -0.43618  -0.40739  -0.28936
 Alpha virt. eigenvalues --    0.11507   0.18460   0.21074   0.26332   0.27680
 Alpha virt. eigenvalues --    0.29208   0.30970   0.32077   0.34960   0.44077
 Alpha virt. eigenvalues --    0.48149
     Molecular Orbital Coefficients:
                           1         2         3         4         5
                           O         O         O         O         O
     Eigenvalues --    -1.94320  -1.21456  -0.96744  -0.82427  -0.79198
   1 1   C  1S          0.08744   0.49212   0.22737   0.29419  -0.16483
   2        1PX         0.04493   0.14524  -0.25035  -0.18000  -0.20990
   3        1PY        -0.11021  -0.12986  -0.14255   0.09743  -0.31001
   4        1PZ         0.00022   0.00048  -0.00013  -0.00373  -0.00080
   5 2   C  1S          0.24594   0.27103   0.54384  -0.21679   0.29026
   6        1PX         0.21534   0.16367  -0.09755  -0.08434  -0.08976
   7        1PY        -0.14603   0.28034  -0.04090   0.54789  -0.02120
   8        1PZ        -0.00023  -0.00074   0.00033  -0.00463  -0.00103
   9 3   O  1S          0.84900  -0.29041  -0.03307   0.09059  -0.25452
  10        1PX        -0.00442   0.01336  -0.22780   0.28333   0.09593
  11        1PY         0.05249   0.16460   0.02629  -0.06749   0.14723
  12        1PZ        -0.00002  -0.00010   0.00049  -0.00183  -0.00128
  13 4   C  1S          0.21370   0.23258  -0.47988   0.03613   0.47335
  14        1PX        -0.22201  -0.12090  -0.01529  -0.19139   0.02513
  15        1PY        -0.09138   0.26353   0.00448  -0.42765  -0.24368
  16        1PZ         0.00007   0.00008   0.00116  -0.00314  -0.00531
  17 5   C  1S          0.07965   0.46054  -0.28609  -0.23977  -0.24497
  18        1PX        -0.05648  -0.17301  -0.16998  -0.24168   0.12141
  19        1PY        -0.09340  -0.10286   0.11751   0.04561  -0.35993
  20        1PZ         0.00000   0.00058  -0.00096  -0.00414  -0.00387
  21 6   H  1S          0.00663   0.13503  -0.13860  -0.16420  -0.19625
  22 7   H  1S          0.04073   0.02855  -0.21143   0.00935   0.26313
  23 8   H  1S          0.05593   0.03272   0.27431  -0.13375   0.17061
  24 9   H  1S          0.00538   0.13609   0.10212   0.20104  -0.13775
                           6         7         8         9        10
                           O         O         O         O         O
     Eigenvalues --    -0.69165  -0.65608  -0.54719  -0.53876  -0.44134
   1 1   C  1S         -0.16391  -0.00283   0.14383  -0.08477  -0.02196
   2        1PX         0.19077  -0.00158  -0.05760  -0.25074  -0.01807
   3        1PY        -0.18738  -0.00310  -0.02667  -0.32464  -0.05789
   4        1PZ        -0.00106   0.41357   0.00702   0.00019  -0.16553
   5 2   C  1S         -0.09784  -0.00042   0.06129  -0.10344   0.02864
   6        1PX         0.49672  -0.00483   0.56700  -0.05307   0.02641
   7        1PY        -0.06771   0.00672   0.05161   0.49295   0.03600
   8        1PZ        -0.00376   0.62183   0.01051  -0.00462  -0.61392
   9 3   O  1S         -0.18637  -0.00174   0.01993   0.23498  -0.01102
  10        1PX         0.00216   0.00636  -0.16709  -0.01554   0.01471
  11        1PY         0.21951   0.00146   0.00142  -0.11198   0.01393
  12        1PZ        -0.00075   0.24247   0.00389  -0.00038   0.00757
  13 4   C  1S         -0.15541   0.00278  -0.05716  -0.13183  -0.00900
  14        1PX        -0.41655  -0.01130   0.62800   0.10956  -0.02280
  15        1PY         0.01613  -0.00607  -0.11089   0.51063  -0.05975
  16        1PZ         0.00047   0.49806   0.00350   0.00368   0.70366
  17 5   C  1S         -0.19709  -0.00177  -0.13719  -0.04843   0.01505
  18        1PX        -0.21334  -0.00034  -0.01696   0.25937   0.06524
  19        1PY        -0.15266  -0.00060   0.05793  -0.30266   0.08551
  20        1PZ        -0.00380   0.36744   0.00453   0.00061   0.26240
  21 6   H  1S         -0.23485   0.00364  -0.04810  -0.06378   0.08212
  22 7   H  1S         -0.26783  -0.00633   0.31007  -0.12352  -0.00987
  23 8   H  1S         -0.28153   0.00401  -0.28786  -0.11438  -0.01202
  24 9   H  1S         -0.21459  -0.00529   0.07158  -0.12749  -0.03464
                          11        12        13        14        15
                           O         O         O         V         V
     Eigenvalues --    -0.43618  -0.40739  -0.28936   0.11507   0.18460
   1 1   C  1S         -0.12658   0.01434   0.00236  -0.00126  -0.13845
   2        1PX         0.01429   0.51464  -0.00345   0.00298   0.17250
   3        1PY        -0.39609  -0.31108   0.00876  -0.00692   0.25371
   4        1PZ         0.03361  -0.00202   0.59103  -0.67042  -0.00087
   5 2   C  1S          0.13756  -0.06405  -0.00194  -0.00382  -0.12508
   6        1PX         0.08738  -0.27771  -0.00224  -0.00061   0.38404
   7        1PY         0.24962   0.09656  -0.00473  -0.00090   0.31357
   8        1PZ         0.09725  -0.02570  -0.35001   0.21814  -0.00403
   9 3   O  1S         -0.03162   0.08828   0.00011   0.00009   0.01590
  10        1PX         0.08365  -0.00155  -0.00193  -0.00021   0.04770
  11        1PY         0.03904  -0.16590  -0.00010  -0.00019   0.10717
  12        1PZ        -0.00713   0.00004  -0.21752   0.00978  -0.00180
  13 4   C  1S         -0.09793  -0.11250   0.00017  -0.00344  -0.01808
  14        1PX        -0.09285   0.28373  -0.00126   0.00015   0.02925
  15        1PY        -0.32417  -0.08337   0.00524   0.00023   0.06431
  16        1PZ        -0.13540   0.02886  -0.37688  -0.21808   0.00045
  17 5   C  1S          0.10839   0.07051  -0.00483  -0.00486  -0.11658
  18        1PX         0.27531  -0.45466  -0.00874  -0.00764   0.10027
  19        1PY         0.48281  -0.03804  -0.01012  -0.00837   0.04543
  20        1PZ        -0.03771   0.00738   0.58176   0.67453   0.00203
  21 6   H  1S          0.41257  -0.18402  -0.00207   0.00712  -0.05986
  22 7   H  1S         -0.02642   0.12615   0.00192   0.00246   0.02202
  23 8   H  1S         -0.02948   0.13114  -0.00133   0.00160   0.75800
  24 9   H  1S         -0.28700  -0.36127   0.00197   0.00424  -0.03927
                          16        17        18        19        20
                           V         V         V         V         V
     Eigenvalues --     0.21074   0.26332   0.27680   0.29208   0.30970
   1 1   C  1S         -0.12421  -0.10859   0.02101   0.12286   0.66316
   2        1PX        -0.13760   0.12766   0.55604   0.23518  -0.01995
   3        1PY         0.06589   0.45721   0.08331  -0.38595   0.08893
   4        1PZ        -0.00234  -0.00765   0.00230   0.00338  -0.00396
   5 2   C  1S          0.03441   0.44027   0.25029  -0.17825  -0.18317
   6        1PX        -0.06783  -0.07801  -0.12625  -0.04648   0.01508
   7        1PY         0.05433   0.23564   0.12180  -0.10979  -0.20301
   8        1PZ        -0.00044   0.00177  -0.00038   0.00046   0.00041
   9 3   O  1S          0.02377   0.03426   0.00509   0.01202  -0.02619
  10        1PX        -0.02620   0.01438   0.04284  -0.01308  -0.01994
  11        1PY         0.12503   0.00769   0.03089   0.02834  -0.10551
  12        1PZ         0.00294  -0.00129   0.00028  -0.00202   0.00214
  13 4   C  1S         -0.01288   0.31349  -0.29329   0.36742   0.00861
  14        1PX        -0.29367   0.14716  -0.15728   0.07232  -0.10900
  15        1PY         0.40795   0.09582  -0.06320   0.22174   0.02883
  16        1PZ         0.00479  -0.00318   0.00136  -0.00125  -0.00043
  17 5   C  1S         -0.14708  -0.07293  -0.12660  -0.29581  -0.18432
  18        1PX        -0.22503   0.01858   0.47736   0.14346   0.33157
  19        1PY         0.38441   0.22106  -0.17591   0.45235  -0.00184
  20        1PZ         0.00083   0.00751   0.00257   0.00461   0.00282
  21 6   H  1S         -0.06130  -0.20992  -0.11711  -0.23215  -0.05901
  22 7   H  1S          0.66120  -0.32923   0.28781  -0.20926   0.06636
  23 8   H  1S         -0.08226  -0.24730  -0.17436   0.03639   0.05376
  24 9   H  1S         -0.12267  -0.32952   0.26579   0.36384  -0.54515
                          21        22        23        24
                           V         V         V         V
     Eigenvalues --     0.32077   0.34960   0.44077   0.48149
   1 1   C  1S          0.05409  -0.00125   0.09020   0.02291
   2        1PX         0.19135   0.00086  -0.04447  -0.03596
   3        1PY         0.05802  -0.00016   0.02359  -0.03493
   4        1PZ         0.00296   0.03841  -0.00048   0.00027
   5 2   C  1S          0.02073   0.00021  -0.15211   0.17015
   6        1PX        -0.07836  -0.00011  -0.22188   0.11730
   7        1PY         0.02804   0.00059  -0.01586  -0.22043
   8        1PZ        -0.00043  -0.23670   0.00040  -0.00026
   9 3   O  1S          0.02468   0.00007   0.13413  -0.00807
  10        1PX         0.00394   0.00071   0.11269   0.89706
  11        1PY         0.11203  -0.00012   0.88751  -0.11387
  12        1PZ         0.00020   0.94533   0.00014  -0.00064
  13 4   C  1S          0.10902   0.00093  -0.14514  -0.15692
  14        1PX         0.06297   0.00053   0.22854   0.14873
  15        1PY         0.13427  -0.00014  -0.03494   0.19481
  16        1PZ         0.00121  -0.21892  -0.00066  -0.00036
  17 5   C  1S         -0.56481  -0.00007   0.08773  -0.02117
  18        1PX        -0.20475  -0.00016   0.04848  -0.03394
  19        1PY        -0.19840   0.00020   0.01337   0.03382
  20        1PZ        -0.01205   0.03023   0.00099   0.00008
  21 6   H  1S          0.70491  -0.00021  -0.07211  -0.00237
  22 7   H  1S         -0.06120  -0.00226  -0.05140  -0.01102
  23 8   H  1S         -0.03974   0.00066  -0.03358   0.01737
  24 9   H  1S          0.00126   0.00135  -0.06807   0.00638
     Density Matrix:
                           1         2         3         4         5
   1 1   C  1S          0.97340
   2        1PX        -0.02441   1.06046
   3        1PY         0.15035  -0.11627   1.10649
   4        1PZ         0.00000   0.00007   0.00112   1.09792
   5 2   C  1S          0.36315  -0.27080  -0.47377  -0.00021   1.21766
   6        1PX         0.11239   0.05032  -0.10438  -0.00044   0.11741
   7        1PY         0.45254  -0.27330  -0.46860   0.00167  -0.23825
   8        1PZ        -0.00154   0.00033   0.00378   0.31070  -0.00004
   9 3   O  1S          0.02282  -0.01814  -0.03919   0.00045   0.00685
  10        1PX        -0.02418   0.00340   0.00930  -0.00081  -0.30349
  11        1PY         0.02707  -0.02855  -0.10521  -0.00027   0.27154
  12        1PZ        -0.00003   0.00068   0.00008  -0.05948   0.00033
  13 4   C  1S         -0.00792   0.01044   0.03835  -0.00175   0.00598
  14        1PX         0.04565   0.01497  -0.01699   0.00024  -0.02117
  15        1PY         0.03274  -0.00773   0.00222   0.00189  -0.05760
  16        1PZ         0.00036   0.00217  -0.00229  -0.27562  -0.00040
  17 5   C  1S          0.28406   0.51339   0.03063  -0.00395  -0.00716
  18        1PX        -0.50424  -0.60611  -0.04700  -0.01009  -0.00741
  19        1PY         0.07225   0.09607   0.12759  -0.00708   0.03963
  20        1PZ         0.00031  -0.00666   0.00532   0.90228   0.00114
  21 6   H  1S         -0.00028   0.01806   0.00275   0.00337   0.07802
  22 7   H  1S          0.06656   0.05748  -0.00975   0.00250   0.04622
  23 8   H  1S          0.07239  -0.02861  -0.09264   0.00042   0.51852
  24 9   H  1S          0.52143  -0.43065   0.67452  -0.00817   0.06283
                           6         7         8         9        10
   6        1PX         1.50873
   7        1PY        -0.12097   1.45092
   8        1PZ         0.00363   0.00269   1.79273
   9 3   O  1S          0.06483  -0.03862  -0.00005   1.95697
  10        1PX        -0.18758   0.34358   0.00118  -0.01837   0.35399
  11        1PY         0.38757  -0.15690   0.00038  -0.26186  -0.00661
  12        1PZ         0.00186   0.00039   0.44325  -0.00004   0.00015
  13 4   C  1S          0.01038  -0.05929   0.00024   0.00533   0.34051
  14        1PX         0.00734   0.02343  -0.00051  -0.06492  -0.33023
  15        1PY        -0.01548   0.02322   0.00034  -0.02530  -0.31785
  16        1PZ        -0.00028  -0.00047  -0.00847   0.00015   0.00113
  17 5   C  1S         -0.04032   0.03963   0.00103   0.01844   0.02393
  18        1PX         0.01660   0.00068   0.00353   0.01185   0.00576
  19        1PY         0.01634  -0.00657   0.00296  -0.03730  -0.02585
  20        1PZ         0.00008  -0.00146  -0.28000  -0.00040  -0.00037
  21 6   H  1S          0.03457   0.05387  -0.00217   0.00740   0.02510
  22 7   H  1S          0.04283  -0.02265   0.00012   0.01264   0.04638
  23 8   H  1S         -0.69942  -0.26878   0.00631   0.01172  -0.07476
  24 9   H  1S          0.04800  -0.01236  -0.00010   0.00796  -0.02432
                          11        12        13        14        15
  11        1PY         0.29349
  12        1PZ         0.00002   0.21248
  13 4   C  1S          0.19885   0.00054   1.24510
  14        1PX        -0.33837   0.00215  -0.14301   1.54216
  15        1PY        -0.04356  -0.00063  -0.22603   0.10308   1.41813
  16        1PZ        -0.00067   0.41814   0.00220   0.00479  -0.00280
  17 5   C  1S          0.01458   0.00033   0.32595  -0.05798   0.44084
  18        1PX         0.01893   0.00110   0.20307   0.07190   0.21634
  19        1PY        -0.09600   0.00032  -0.50492   0.04572  -0.54355
  20        1PZ         0.00064  -0.07032   0.00098  -0.00028  -0.00129
  21 6   H  1S          0.00885  -0.00103   0.05546  -0.04196  -0.00392
  22 7   H  1S         -0.05447  -0.00169   0.54069   0.65371  -0.33672
  23 8   H  1S         -0.04558   0.00136   0.05478  -0.05308  -0.02270
  24 9   H  1S          0.01407   0.00078   0.08194  -0.03158   0.06439
                          16        17        18        19        20
  16        1PZ         1.80895
  17 5   C  1S         -0.00019   0.98955
  18        1PX        -0.00133   0.04656   1.07017
  19        1PY        -0.00375   0.15319   0.11469   1.04994
  20        1PZ         0.30751  -0.00100  -0.00067  -0.00094   1.08771
  21 6   H  1S          0.00021   0.55755   0.50537   0.59591   0.01411
  22 7   H  1S         -0.00954   0.06459   0.02587  -0.09609  -0.00072
  23 8   H  1S          0.00019   0.07541  -0.07129  -0.00637  -0.00206
  24 9   H  1S          0.00119   0.00195  -0.02410   0.00786  -0.00197
                          21        22        23        24
  21 6   H  1S          0.75068
  22 7   H  1S          0.00234   0.63278
  23 8   H  1S          0.01048   0.01308   0.63976
  24 9   H  1S         -0.00286   0.01189  -0.00351   0.73983
    Full Mulliken population analysis:
                           1         2         3         4         5
   1 1   C  1S          0.97340
   2        1PX         0.00000   1.06046
   3        1PY         0.00000   0.00000   1.10649
   4        1PZ         0.00000   0.00000   0.00000   1.09792
   5 2   C  1S          0.00000   0.00000   0.00000   0.00000   1.21766
   6        1PX         0.00000   0.00000   0.00000   0.00000   0.00000
   7        1PY         0.00000   0.00000   0.00000   0.00000   0.00000
   8        1PZ         0.00000   0.00000   0.00000   0.00000   0.00000
   9 3   O  1S          0.00000   0.00000   0.00000   0.00000   0.00000
  10        1PX         0.00000   0.00000   0.00000   0.00000   0.00000
  11        1PY         0.00000   0.00000   0.00000   0.00000   0.00000
  12        1PZ         0.00000   0.00000   0.00000   0.00000   0.00000
  13 4   C  1S          0.00000   0.00000   0.00000   0.00000   0.00000
  14        1PX         0.00000   0.00000   0.00000   0.00000   0.00000
  15        1PY         0.00000   0.00000   0.00000   0.00000   0.00000
  16        1PZ         0.00000   0.00000   0.00000   0.00000   0.00000
  17 5   C  1S          0.00000   0.00000   0.00000   0.00000   0.00000
  18        1PX         0.00000   0.00000   0.00000   0.00000   0.00000
  19        1PY         0.00000   0.00000   0.00000   0.00000   0.00000
  20        1PZ         0.00000   0.00000   0.00000   0.00000   0.00000
  21 6   H  1S          0.00000   0.00000   0.00000   0.00000   0.00000
  22 7   H  1S          0.00000   0.00000   0.00000   0.00000   0.00000
  23 8   H  1S          0.00000   0.00000   0.00000   0.00000   0.00000
  24 9   H  1S          0.00000   0.00000   0.00000   0.00000   0.00000
                           6         7         8         9        10
   6        1PX         1.50873
   7        1PY         0.00000   1.45092
   8        1PZ         0.00000   0.00000   1.79273
   9 3   O  1S          0.00000   0.00000   0.00000   1.95697
  10        1PX         0.00000   0.00000   0.00000   0.00000   0.35399
  11        1PY         0.00000   0.00000   0.00000   0.00000   0.00000
  12        1PZ         0.00000   0.00000   0.00000   0.00000   0.00000
  13 4   C  1S          0.00000   0.00000   0.00000   0.00000   0.00000
  14        1PX         0.00000   0.00000   0.00000   0.00000   0.00000
  15        1PY         0.00000   0.00000   0.00000   0.00000   0.00000
  16        1PZ         0.00000   0.00000   0.00000   0.00000   0.00000
  17 5   C  1S          0.00000   0.00000   0.00000   0.00000   0.00000
  18        1PX         0.00000   0.00000   0.00000   0.00000   0.00000
  19        1PY         0.00000   0.00000   0.00000   0.00000   0.00000
  20        1PZ         0.00000   0.00000   0.00000   0.00000   0.00000
  21 6   H  1S          0.00000   0.00000   0.00000   0.00000   0.00000
  22 7   H  1S          0.00000   0.00000   0.00000   0.00000   0.00000
  23 8   H  1S          0.00000   0.00000   0.00000   0.00000   0.00000
  24 9   H  1S          0.00000   0.00000   0.00000   0.00000   0.00000
                          11        12        13        14        15
  11        1PY         0.29349
  12        1PZ         0.00000   0.21248
  13 4   C  1S          0.00000   0.00000   1.24510
  14        1PX         0.00000   0.00000   0.00000   1.54216
  15        1PY         0.00000   0.00000   0.00000   0.00000   1.41813
  16        1PZ         0.00000   0.00000   0.00000   0.00000   0.00000
  17 5   C  1S          0.00000   0.00000   0.00000   0.00000   0.00000
  18        1PX         0.00000   0.00000   0.00000   0.00000   0.00000
  19        1PY         0.00000   0.00000   0.00000   0.00000   0.00000
  20        1PZ         0.00000   0.00000   0.00000   0.00000   0.00000
  21 6   H  1S          0.00000   0.00000   0.00000   0.00000   0.00000
  22 7   H  1S          0.00000   0.00000   0.00000   0.00000   0.00000
  23 8   H  1S          0.00000   0.00000   0.00000   0.00000   0.00000
  24 9   H  1S          0.00000   0.00000   0.00000   0.00000   0.00000
                          16        17        18        19        20
  16        1PZ         1.80895
  17 5   C  1S          0.00000   0.98955
  18        1PX         0.00000   0.00000   1.07017
  19        1PY         0.00000   0.00000   0.00000   1.04994
  20        1PZ         0.00000   0.00000   0.00000   0.00000   1.08771
  21 6   H  1S          0.00000   0.00000   0.00000   0.00000   0.00000
  22 7   H  1S          0.00000   0.00000   0.00000   0.00000   0.00000
  23 8   H  1S          0.00000   0.00000   0.00000   0.00000   0.00000
  24 9   H  1S          0.00000   0.00000   0.00000   0.00000   0.00000
                          21        22        23        24
  21 6   H  1S          0.75068
  22 7   H  1S          0.00000   0.63278
  23 8   H  1S          0.00000   0.00000   0.63976
  24 9   H  1S          0.00000   0.00000   0.00000   0.73983
     Gross orbital populations:
                           1
   1 1   C  1S          0.97340
   2        1PX         1.06046
   3        1PY         1.10649
   4        1PZ         1.09792
   5 2   C  1S          1.21766
   6        1PX         1.50873
   7        1PY         1.45092
   8        1PZ         1.79273
   9 3   O  1S          1.95697
  10        1PX         0.35399
  11        1PY         0.29349
  12        1PZ         0.21248
  13 4   C  1S          1.24510
  14        1PX         1.54216
  15        1PY         1.41813
  16        1PZ         1.80895
  17 5   C  1S          0.98955
  18        1PX         1.07017
  19        1PY         1.04994
  20        1PZ         1.08771
  21 6   H  1S          0.75068
  22 7   H  1S          0.63278
  23 8   H  1S          0.63976
  24 9   H  1S          0.73983
          Condensed to atoms (all electrons):
               1          2          3          4          5          6
     1  C    4.238275   0.000000   0.000000   0.000000   0.000000   0.000000
     2  C    0.000000   5.970051   0.000000   0.000000   0.000000   0.000000
     3  O    0.000000   0.000000   2.816925   0.000000   0.000000   0.000000
     4  C    0.000000   0.000000   0.000000   6.014338   0.000000   0.000000
     5  C    0.000000   0.000000   0.000000   0.000000   4.197371   0.000000
     6  H    0.000000   0.000000   0.000000   0.000000   0.000000   0.750680
     7  H    0.000000   0.000000   0.000000   0.000000   0.000000   0.000000
     8  H    0.000000   0.000000   0.000000   0.000000   0.000000   0.000000
     9  H    0.000000   0.000000   0.000000   0.000000   0.000000   0.000000
               7          8          9
     1  C    0.000000   0.000000   0.000000
     2  C    0.000000   0.000000   0.000000
     3  O    0.000000   0.000000   0.000000
     4  C    0.000000   0.000000   0.000000
     5  C    0.000000   0.000000   0.000000
     6  H    0.000000   0.000000   0.000000
     7  H    0.632778   0.000000   0.000000
     8  H    0.000000   0.639756   0.000000
     9  H    0.000000   0.000000   0.739826
 Mulliken charges:
               1
     1  C   -0.238275
     2  C   -1.970051
     3  O    3.183075
     4  C   -2.014338
     5  C   -0.197371
     6  H    0.249320
     7  H    0.367222
     8  H    0.360244
     9  H    0.260174
 Sum of Mulliken charges =   0.00000
 Mulliken charges with hydrogens summed into heavy atoms:
               1
     1  C    0.021899
     2  C   -1.609807
     3  O    3.183075
     4  C   -1.647116
     5  C    0.051949
 Charge=              0.0000 electrons
 Dipole moment (field-independent basis, Debye):
    X=             -1.4655    Y=            -10.4270    Z=             -0.0043  Tot=             10.5295
 N-N= 1.047885205017D+02 E-N=-1.703619710853D+02  KE=-1.554360744471D+01
 Orbital energies and kinetic energies (alpha):
                                 1                 2
   1         O                -1.943203         -1.387769
   2         O                -1.214560         -1.079286
   3         O                -0.967438         -0.886787
   4         O                -0.824270         -0.600620
   5         O                -0.791977         -0.678597
   6         O                -0.691651         -0.572310
   7         O                -0.656085         -0.527235
   8         O                -0.547187         -0.377195
   9         O                -0.538759         -0.330398
  10         O                -0.441343         -0.329500
  11         O                -0.436175         -0.404930
  12         O                -0.407389         -0.336490
  13         O                -0.289357         -0.260686
  14         V                 0.115071         -0.170026
  15         V                 0.184600         -0.172467
  16         V                 0.210744         -0.153916
  17         V                 0.263323         -0.135023
  18         V                 0.276796         -0.104237
  19         V                 0.292080         -0.108253
  20         V                 0.309701         -0.138787
  21         V                 0.320769         -0.158019
  22         V                 0.349604          0.489569
  23         V                 0.440773          0.512140
  24         V                 0.481488          0.586691
 Total kinetic energy from orbitals=-1.554360744471D+01
 Leave Link  601 at Tue Dec 15 17:07:13 2015, MaxMem=    33554432 cpu:         0.0
 (Enter /home/Applications/g09/g09/l701.exe)
 Compute integral first derivatives.
 ... and contract with generalized density number  6.
 Leave Link  701 at Tue Dec 15 17:07:13 2015, MaxMem=    33554432 cpu:         0.0
 (Enter /home/Applications/g09/g09/l702.exe)
 L702 exits ... SP integral derivatives will be done elsewhere.
 Leave Link  702 at Tue Dec 15 17:07:13 2015, MaxMem=    33554432 cpu:         0.0
 (Enter /home/Applications/g09/g09/l703.exe)
 Compute integral first derivatives, UseDBF=F ICtDFT=           0.
 Integral derivatives from FoFJK, PRISM(SPDF).
 Calling FoFJK, ICntrl=  10005127 FMM=F ISym2X=0 I1Cent= 0 IOpClX= 0 NMat=1 NMatS=1 NMatT=0.
 FoFJK:  IHMeth= 8 ICntrl=10005127 DoSepK=F KAlg= 0 I1Cent=   0 FoldK=F
 IRaf=         0 NMat=   1 IRICut=       1 DoRegI=T DoRafI=F ISym2E= 0.
 FoFCou: FMM=F IPFlag=           0 FMFlag=      100000 FMFlg1=         800
         NFxFlg=           0 DoJE=F BraDBF=F KetDBF=F FulRan=T
         wScrn=  0.000000 ICntrl=10005127 IOpCl=  0 I1Cent=           0 NGrid=           0
         NMat0=    1 NMatS0=      1 NMatT0=    0 NMatD0=    1 NMtDS0=    0 NMtDT0=    0
 Symmetry not used in FoFCou.
 Leave Link  703 at Tue Dec 15 17:07:13 2015, MaxMem=    33554432 cpu:         0.0
 (Enter /home/Applications/g09/g09/l716.exe)
 Dipole        =-5.75311451D-01-4.49343667D+00-5.83237140D-04
 ***** Axes restored to original set *****
 -------------------------------------------------------------------
 Center     Atomic                   Forces (Hartrees/Bohr)
 Number     Number              X              Y              Z
 -------------------------------------------------------------------
      1        6           0.290671799   -0.039586943   -0.000095353
      2        6          -0.369734545   -0.118037123   -0.000082541
      3        8           0.123588459    0.076459022   -0.000945433
      4        6          -0.268529945    0.018851821    0.005250749
      5        6           0.102829403    0.043976015   -0.000963961
      6        1           0.098170092    0.072384073   -0.003796733
      7        1          -0.011324110    0.081792775    0.001110429
      8        1          -0.013499967   -0.101013512   -0.001011459
      9        1           0.047828815   -0.034826127    0.000534302
 -------------------------------------------------------------------
 Cartesian Forces:  Max     0.369734545 RMS     0.118386235
 Z-matrix is all fixed cartesians, so copy forces.
 Force constants in Cartesian coordinates: 
                1             2             3             4             5 
      1  0.106620D+01
      2  0.371527D-01  0.824150D+00
      3 -0.231061D-02  0.517029D-03  0.243291D+00
      4 -0.664974D+00 -0.150690D+00  0.241744D-02  0.113560D+01
      5 -0.124859D+00 -0.250153D+00  0.437134D-03  0.561631D-01  0.937647D+00
      6  0.301150D-02  0.281396D-03 -0.138979D+00 -0.448978D-02  0.702826D-02
      7 -0.900101D-02  0.301782D-01  0.389028D-03 -0.319128D+00  0.187371D+00
      8 -0.724700D-02  0.242963D-01  0.170233D-03  0.231522D+00 -0.382625D+00
      9  0.129183D-03 -0.356246D-03  0.978036D-02  0.370817D-02 -0.406142D-02
     10  0.105112D-01 -0.335689D-03 -0.271443D-04  0.236359D-01  0.190279D-01
     11  0.343544D-01 -0.109810D-02 -0.533075D-04 -0.167834D-01 -0.135112D-01
     12  0.213130D-03  0.181746D-04 -0.935043D-03 -0.312586D-03 -0.239225D-03
     13 -0.171100D+00  0.437547D-02  0.985842D-03  0.109401D-01 -0.366817D-01
     14 -0.189846D-01 -0.425682D+00 -0.235548D-02 -0.349087D-03  0.117088D-02
     15  0.124226D-02 -0.187557D-02 -0.867897D-01 -0.144951D-03  0.434624D-03
     16  0.186005D-01 -0.594256D-03 -0.855667D-04  0.135550D-05  0.000000D+00
     17 -0.244468D-01  0.776956D-03  0.121130D-02  0.000000D+00  0.000000D+00
     18 -0.587363D-03 -0.531372D-04  0.193734D-01  0.287198D-04 -0.205096D-04
     19  0.000000D+00  0.000000D+00  0.191032D-04  0.000000D+00  0.000000D+00
     20 -0.189718D-05  0.000000D+00 -0.180447D-03  0.000000D+00  0.000000D+00
     21  0.664718D-04 -0.255928D-04  0.632235D-02  0.382400D-04 -0.274465D-04
     22  0.818468D-02 -0.274400D-01 -0.224965D-03 -0.180797D+00 -0.118726D+00
     23 -0.455253D-02  0.152555D-01 -0.384180D-03 -0.112528D+00 -0.317113D+00
     24  0.706143D-04  0.347443D-03  0.406943D-01 -0.152544D-02 -0.310540D-02
     25 -0.258425D+00  0.107354D+00 -0.116312D-02 -0.528280D-02  0.177062D-01
     26  0.108585D+00 -0.187547D+00  0.637717D-03 -0.733329D-02  0.245833D-01
     27 -0.183518D-02  0.114650D-02 -0.927575D-01  0.280194D-03 -0.446011D-03
                6             7             8             9            10 
      6  0.249944D+00
      7  0.363388D-02  0.546515D+00
      8 -0.472696D-02 -0.509977D-01  0.690217D+00
      9 -0.516399D-01 -0.516477D-02  0.529173D-02  0.563721D-01
     10 -0.206833D-03 -0.253277D+00 -0.180881D+00  0.167573D-02  0.863559D+00
     11  0.135944D-03 -0.136564D+00 -0.335179D+00 -0.453976D-03 -0.472607D-01
     12 -0.222781D-02  0.149048D-02 -0.581964D-03 -0.432105D-01 -0.974865D-02
     13 -0.562614D-03 -0.869535D-02  0.617450D-02  0.746789D-04 -0.476513D+00
     14  0.314244D-04 -0.284260D-01  0.201846D-01  0.129393D-04  0.101967D+00
     15 -0.141327D-02 -0.223530D-04  0.394472D-04  0.341667D-02  0.393975D-02
     16  0.249110D-03  0.124141D-05  0.000000D+00  0.128825D-03 -0.562593D-02
     17 -0.275545D-04  0.176169D-05 -0.126440D-05  0.182816D-03  0.739392D-02
     18  0.527804D-02  0.597786D-04 -0.429043D-04  0.620341D-02  0.172598D-03
     19  0.101236D-03  0.222105D-01 -0.157711D-01 -0.791277D-03 -0.162291D+00
     20 -0.721789D-04  0.103206D-01 -0.732842D-02 -0.533065D-03  0.100090D+00
     21  0.398036D-02 -0.237445D-03  0.168197D-03  0.553135D-02  0.410056D-02
     22 -0.154069D-02  0.213748D-01  0.172017D-01  0.229509D-03  0.000000D+00
     23 -0.269585D-02 -0.118842D-01 -0.956322D-02 -0.181771D-03  0.000000D+00
     24 -0.993036D-01 -0.212884D-03 -0.234636D-03  0.432583D-02  0.493052D-04
     25 -0.195808D-03  0.000000D+00  0.000000D+00  0.995227D-05  0.000000D+00
     26  0.455211D-04  0.000000D+00  0.000000D+00  0.989992D-04  0.000000D+00
     27  0.343618D-01  0.642865D-04 -0.831401D-04  0.922074D-02  0.446872D-04
               11            12            13            14            15 
     11  0.865691D+00
     12  0.990508D-02  0.179076D+00
     13  0.813055D-01  0.315688D-02  0.939112D+00
     14 -0.210244D+00 -0.137556D-02  0.687796D-01  0.841119D+00
     15 -0.743795D-03 -0.961703D-01 -0.158648D-01 -0.432620D-02  0.212717D+00
     16 -0.184417D-01  0.129602D-02 -0.318636D+00 -0.149013D+00  0.980696D-02
     17  0.241823D-01 -0.275974D-03 -0.150991D+00 -0.238130D+00  0.682390D-02
     18 -0.400904D-03  0.251218D-01  0.111395D-01  0.784212D-02 -0.869549D-01
     19  0.103390D+00  0.393549D-02  0.813620D-02  0.265627D-01  0.925077D-03
     20 -0.329842D+00 -0.736734D-02  0.376592D-02  0.123256D-01 -0.373485D-03
     21 -0.833645D-02 -0.710363D-01  0.406117D-03  0.297323D-03  0.268182D-01
     22  0.000000D+00  0.796978D-05  0.000000D+00  0.000000D+00  0.962246D-04
     23  0.000000D+00 -0.686602D-04  0.000000D+00  0.000000D+00 -0.178827D-03
     24 -0.353884D-04  0.513212D-02  0.544857D-04 -0.389099D-04  0.100132D-01
     25  0.000000D+00 -0.387446D-04  0.167555D-01 -0.535679D-03  0.217940D-04
     26  0.000000D+00 -0.145384D-04  0.232730D-01 -0.744672D-03  0.199901D-03
     27 -0.172053D-04  0.425034D-02  0.609853D-03 -0.876574D-04  0.183634D-01
               16            17            18            19            20 
     16  0.305657D+00
     17  0.168044D+00  0.213163D+00
     18 -0.108463D-01 -0.764528D-02  0.484289D-01
     19  0.000000D+00  0.000000D+00 -0.313836D-04  0.131944D+00
     20  0.615620D-05  0.873631D-05  0.296445D-03 -0.114180D+00  0.324835D+00
     21 -0.215696D-03 -0.306096D-03 -0.103866D-01 -0.415825D-02  0.823007D-02
     22  0.000000D+00  0.000000D+00  0.000000D+00  0.000000D+00  0.000000D+00
     23  0.000000D+00  0.000000D+00  0.000000D+00  0.000000D+00  0.000000D+00
     24  0.000000D+00  0.000000D+00  0.000000D+00  0.000000D+00  0.000000D+00
     25  0.303920D-05  0.000000D+00  0.643933D-04  0.000000D+00  0.000000D+00
     26  0.114042D-05  0.000000D+00  0.241627D-04  0.000000D+00  0.000000D+00
     27 -0.333405D-03  0.368785D-04 -0.706403D-02  0.000000D+00  0.000000D+00
               21            22            23            24            25 
     21  0.387707D-01
     22  0.000000D+00  0.151238D+00
     23  0.000000D+00  0.128966D+00  0.311416D+00
     24  0.000000D+00  0.158062D-02  0.323300D-02  0.546089D-01
     25  0.000000D+00  0.000000D+00  0.000000D+00 -0.166982D-04  0.246950D+00
     26  0.000000D+00 -0.159621D-05  0.296646D-05 -0.166103D-03 -0.124525D+00
     27  0.000000D+00 -0.148670D-03  0.276294D-03 -0.154708D-01  0.131823D-02
               26            27 
     26  0.163706D+00
     27 -0.825659D-03  0.490961D-01
 Leave Link  716 at Tue Dec 15 17:07:13 2015, MaxMem=    33554432 cpu:         0.0
 (Enter /home/Applications/g09/g09/l103.exe)

 GradGradGradGradGradGradGradGradGradGradGradGradGradGradGradGradGradGrad
 Berny optimization.
 Search for a local minimum.
 Step number   1 out of a maximum of    2
 All quantities printed in internal units (Hartrees-Bohrs-Radians)
 Second derivative matrix not updated -- first step.
 ITU=  0
     Eigenvalues ---    0.02041   0.03341   0.07267   0.07671   0.08237
     Eigenvalues ---    0.09375   0.13469   0.15401   0.16512   0.24958
     Eigenvalues ---    0.27562   0.32805   0.45622   0.45768   0.67082
     Eigenvalues ---    0.85835   1.09129   1.38990   1.46012   1.53431
     Eigenvalues ---    1.92467
 Quadratic step=1.455D+00 exceeds max=3.000D-01 adjusted using Lamda=-1.064D+00.
 Angle between NR and scaled steps=  30.93 degrees.
 Angle between quadratic step and forces=  20.97 degrees.
 Linear search not attempted -- first point.
 TrRot= -0.003765  0.001386  0.000119 -0.000292 -0.000018 -0.000292
 Variable       Old X    -DE/DX   Delta X   Delta X   Delta X     New X
                                 (Linear)    (Quad)   (Total)
    X1        1.72867   0.29067   0.00000   0.10732   0.10276   1.83142
    Y1       -1.33048  -0.03959   0.00000  -0.04290  -0.04258  -1.37307
    Z1       -0.00474  -0.00010   0.00000   0.00035   0.00050  -0.00425
    X2       -0.60360  -0.36973   0.00000  -0.13689  -0.14187  -0.74548
    Y2       -2.02622  -0.11804   0.00000  -0.06685  -0.06503  -2.09125
    Z2        0.00524  -0.00008   0.00000  -0.00062  -0.00052   0.00473
    X3       -2.19648   0.12359   0.00000   0.04754   0.04377  -2.15271
    Y3       -0.04730   0.07646   0.00000   0.03885   0.04150  -0.00581
    Z3        0.03419  -0.00095   0.00000  -0.00043  -0.00035   0.03384
    X4       -0.66567  -0.26853   0.00000  -0.12109  -0.12361  -0.78928
    Y4        2.10854   0.01885   0.00000   0.02731   0.02915   2.13769
    Z4        0.03435   0.00525   0.00000   0.00303   0.00314   0.03749
    X5        1.81435   0.10283   0.00000   0.04796   0.04500   1.85935
    Y5        1.34992   0.04398   0.00000   0.03638   0.03668   1.38660
    Z5        0.00521  -0.00096   0.00000  -0.00099  -0.00084   0.00437
    X6        3.35547   0.09817   0.00000   0.07858   0.07633   3.43180
    Y6        2.52409   0.07238   0.00000   0.06163   0.06101   2.58510
    Z6       -0.06140  -0.00380   0.00000  -0.00327  -0.00310  -0.06450
    X7       -1.51334  -0.01132   0.00000  -0.02250  -0.02393  -1.53727
    Y7        3.93401   0.08179   0.00000   0.07057   0.07285   4.00686
    Z7        0.08901   0.00111   0.00000   0.00101   0.00110   0.09012
    X8       -1.57852  -0.01350   0.00000  -0.02727  -0.03330  -1.61182
    Y8       -3.77931  -0.10101   0.00000  -0.09717  -0.09485  -3.87416
    Z8       -0.01670  -0.00101   0.00000  -0.00086  -0.00077  -0.01747
    X9        3.41573   0.04783   0.00000   0.06012   0.05485   3.47058
    Y9       -2.54539  -0.03483   0.00000  -0.03808  -0.03872  -2.58411
    Z9        0.00648   0.00053   0.00000   0.00065   0.00083   0.00731
         Item               Value     Threshold  Converged?
 Maximum Force            0.369735     0.000450     NO 
 RMS     Force            0.118386     0.000300     NO 
 Maximum Displacement     0.141873     0.001800     NO 
 RMS     Displacement     0.057712     0.001200     NO 
 Predicted change in Energy=-1.341245D-01
 GradGradGradGradGradGradGradGradGradGradGradGradGradGradGradGradGradGrad

 Leave Link  103 at Tue Dec 15 17:07:13 2015, MaxMem=    33554432 cpu:         0.0
 (Enter /home/Applications/g09/g09/l9999.exe)
 1\1\GINC-DUSTIN-DESKTOP\Force\RAM1-FC\STO-3G\C4H4O1\DUSTIN\15-Dec-2015
 \0\\#P AM1(Input,print) CIS(Singlets,NStates=15) pop(full) force\\AM1-
 Reparam Input\\0,1\C,0.914771,-0.704061,-0.00251\C,-0.319413,-1.072232
 ,0.002775\O,-1.162329,-0.025031,0.018094\C,-0.352258,1.115789,0.018178
 \C,0.960111,0.714346,0.002755\H,1.775637,1.335691,-0.032492\H,-0.80082
 4,2.081787,0.047104\H,-0.835319,-1.999924,-0.008835\H,1.807528,-1.3469
 64,0.003429\\Version=ES64L-G09RevD.01\State=1-A\HF=2.0863375\RMSD=9.83
 2e-09\RMSF=1.184e-01\Dipole=-4.5207806,-0.2876195,0.0421252\PG=C01 [X(
 C4H4O1)]\\@


 PENOTUS DIED A HUNDRED YEARS OLD WANTING BUT TWO...
 AND HE USED TO SAY BEFORE HE DIED, HAVING SPENT HIS
 WHOLE LIFE IN VAINLY SEARCHING AFTER THE PHILOSOPHER'S
 STONE, THAT IF HE HAD A MORTAL ENEMY HE DID NOT DARE
 TO ENCOUNTER OPENLY, HE WOULD ADVISE HIM ABOVE ALL
 THINGS TO GIVE HIMSELF UP TO THE STUDY AND PRACTICE
 OF ALCHEMY.  --  NICOLAS LEMERY, M.D.
 "A COURSE OF CHYMISTRY", WALTER KETTILBY, LONDON, 1686
 Job cpu time:       0 days  0 hours  0 minutes  0.7 seconds.
 File lengths (MBytes):  RWF=      7 Int=      0 D2E=      0 Chk=      2 Scr=      1
 Normal termination of Gaussian 09 at Tue Dec 15 17:07:13 2015.
