 Entering Gaussian System, Link 0=g09
 Input=FuranAM1_41.com
 Output=FuranAM1_41.log
 Initial command:
 /home/Applications/g09/g09/l1.exe "/home/Applications/g09/scratch/Gau-5853.inp" -scrdir="/home/Applications/g09/scratch/"
 Entering Link 1 = /home/Applications/g09/g09/l1.exe PID=      5855.
  
 Copyright (c) 1988,1990,1992,1993,1995,1998,2003,2009,2013,
            Gaussian, Inc.  All Rights Reserved.
  
 This is part of the Gaussian(R) 09 program.  It is based on
 the Gaussian(R) 03 system (copyright 2003, Gaussian, Inc.),
 the Gaussian(R) 98 system (copyright 1998, Gaussian, Inc.),
 the Gaussian(R) 94 system (copyright 1995, Gaussian, Inc.),
 the Gaussian 92(TM) system (copyright 1992, Gaussian, Inc.),
 the Gaussian 90(TM) system (copyright 1990, Gaussian, Inc.),
 the Gaussian 88(TM) system (copyright 1988, Gaussian, Inc.),
 the Gaussian 86(TM) system (copyright 1986, Carnegie Mellon
 University), and the Gaussian 82(TM) system (copyright 1983,
 Carnegie Mellon University). Gaussian is a federally registered
 trademark of Gaussian, Inc.
  
 This software contains proprietary and confidential information,
 including trade secrets, belonging to Gaussian, Inc.
  
 This software is provided under written license and may be
 used, copied, transmitted, or stored only in accord with that
 written license.
  
 The following legend is applicable only to US Government
 contracts under FAR:
  
                    RESTRICTED RIGHTS LEGEND
  
 Use, reproduction and disclosure by the US Government is
 subject to restrictions as set forth in subparagraphs (a)
 and (c) of the Commercial Computer Software - Restricted
 Rights clause in FAR 52.227-19.
  
 Gaussian, Inc.
 340 Quinnipiac St., Bldg. 40, Wallingford CT 06492
  
  
 ---------------------------------------------------------------
 Warning -- This program may not be used in any manner that
 competes with the business of Gaussian, Inc. or will provide
 assistance to any competitor of Gaussian, Inc.  The licensee
 of this program is prohibited from giving any competitor of
 Gaussian, Inc. access to this program.  By using this program,
 the user acknowledges that Gaussian, Inc. is engaged in the
 business of creating and licensing software in the field of
 computational chemistry and represents and warrants to the
 licensee that it is not a competitor of Gaussian, Inc. and that
 it will not use this program in any manner prohibited above.
 ---------------------------------------------------------------
  

 Cite this work as:
 Gaussian 09, Revision D.01,
 M. J. Frisch, G. W. Trucks, H. B. Schlegel, G. E. Scuseria, 
 M. A. Robb, J. R. Cheeseman, G. Scalmani, V. Barone, B. Mennucci, 
 G. A. Petersson, H. Nakatsuji, M. Caricato, X. Li, H. P. Hratchian, 
 A. F. Izmaylov, J. Bloino, G. Zheng, J. L. Sonnenberg, M. Hada, 
 M. Ehara, K. Toyota, R. Fukuda, J. Hasegawa, M. Ishida, T. Nakajima, 
 Y. Honda, O. Kitao, H. Nakai, T. Vreven, J. A. Montgomery, Jr., 
 J. E. Peralta, F. Ogliaro, M. Bearpark, J. J. Heyd, E. Brothers, 
 K. N. Kudin, V. N. Staroverov, T. Keith, R. Kobayashi, J. Normand, 
 K. Raghavachari, A. Rendell, J. C. Burant, S. S. Iyengar, J. Tomasi, 
 M. Cossi, N. Rega, J. M. Millam, M. Klene, J. E. Knox, J. B. Cross, 
 V. Bakken, C. Adamo, J. Jaramillo, R. Gomperts, R. E. Stratmann, 
 O. Yazyev, A. J. Austin, R. Cammi, C. Pomelli, J. W. Ochterski, 
 R. L. Martin, K. Morokuma, V. G. Zakrzewski, G. A. Voth, 
 P. Salvador, J. J. Dannenberg, S. Dapprich, A. D. Daniels, 
 O. Farkas, J. B. Foresman, J. V. Ortiz, J. Cioslowski, 
 and D. J. Fox, Gaussian, Inc., Wallingford CT, 2013.
 
 ******************************************
 Gaussian 09:  ES64L-G09RevD.01 24-Apr-2013
                15-Dec-2015 
 ******************************************
 ------------------------------------------------------------
 #P AM1(Input,print) CIS(Singlets,NStates=15) pop(full) force
 ------------------------------------------------------------
 1/10=7,30=1,38=1/1,3;
 2/12=2,17=6,18=5,40=1/2;
 3/5=2,16=1,25=1,41=700000,71=1,135=100,136=1/1,2,8,3;
 4/35=1/1;
 5/5=2,35=1,38=5/2;
 8/6=1,10=1,108=15/1;
 9/15=2,41=15,42=1,48=1,49=10/14;
 10/5=4/2;
 6/7=3,18=1/1;
 7/12=6,13=5,29=1/1,2,3,16;
 1/10=7,30=1/3;
 99//99;
 Leave Link    1 at Tue Dec 15 16:18:50 2015, MaxMem=           0 cpu:         0.0
 (Enter /home/Applications/g09/g09/l101.exe)
 -----------------
 AM1-Reparam Input
 -----------------
 Symbolic Z-matrix:
 Charge =  0 Multiplicity = 1
 6                     0.94834  -0.73215  -0.00965 
 6                    -0.37038  -1.14023  -0.00899 
 8                    -1.13204   0.00132  -0.02748 
 6                    -0.32331   1.11987  -0.03173 
 6                     0.91894   0.70638  -0.00289 
 1                     1.78588   1.32233  -0.01345 
 1                    -0.86994   2.05109  -0.01902 
 1                    -0.8649   -2.06847   0.03474 
 1                     1.78923  -1.40972   0.03058 
 
 NAtoms=      9 NQM=        9 NQMF=       0 NMMI=      0 NMMIF=      0
                NMic=       0 NMicF=      0.
                    Isotopes and Nuclear Properties:
 (Nuclear quadrupole moments (NQMom) in fm**2, nuclear magnetic moments (NMagM)
  in nuclear magnetons)

  Atom         1           2           3           4           5           6           7           8           9
 IAtWgt=          12          12          16          12          12           1           1           1           1
 AtmWgt=  12.0000000  12.0000000  15.9949146  12.0000000  12.0000000   1.0078250   1.0078250   1.0078250   1.0078250
 NucSpn=           0           0           0           0           0           1           1           1           1
 AtZEff=   0.0000000   0.0000000   0.0000000   0.0000000   0.0000000   0.0000000   0.0000000   0.0000000   0.0000000
 NQMom=    0.0000000   0.0000000   0.0000000   0.0000000   0.0000000   0.0000000   0.0000000   0.0000000   0.0000000
 NMagM=    0.0000000   0.0000000   0.0000000   0.0000000   0.0000000   2.7928460   2.7928460   2.7928460   2.7928460
 AtZNuc=   6.0000000   6.0000000   8.0000000   6.0000000   6.0000000   1.0000000   1.0000000   1.0000000   1.0000000
 Leave Link  101 at Tue Dec 15 16:18:50 2015, MaxMem=    33554432 cpu:         0.0
 (Enter /home/Applications/g09/g09/l103.exe)

 GradGradGradGradGradGradGradGradGradGradGradGradGradGradGradGradGradGrad
 Berny optimization.
 Initialization pass.
 Trust Radius=3.00D-01 FncErr=1.00D-07 GrdErr=1.00D-07
 Number of steps in this run=      2 maximum allowed number of steps=      2.
 GradGradGradGradGradGradGradGradGradGradGradGradGradGradGradGradGradGrad

 Leave Link  103 at Tue Dec 15 16:18:50 2015, MaxMem=    33554432 cpu:         0.0
 (Enter /home/Applications/g09/g09/l202.exe)
                          Input orientation:                          
 ---------------------------------------------------------------------
 Center     Atomic      Atomic             Coordinates (Angstroms)
 Number     Number       Type             X           Y           Z
 ---------------------------------------------------------------------
      1          6           0        0.948337   -0.732153   -0.009651
      2          6           0       -0.370382   -1.140231   -0.008986
      3          8           0       -1.132037    0.001318   -0.027477
      4          6           0       -0.323307    1.119870   -0.031727
      5          6           0        0.918939    0.706384   -0.002893
      6          1           0        1.785880    1.322327   -0.013450
      7          1           0       -0.869935    2.051088   -0.019024
      8          1           0       -0.864904   -2.068469    0.034737
      9          1           0        1.789228   -1.409724    0.030576
 ---------------------------------------------------------------------
                    Distance matrix (angstroms):
                    1          2          3          4          5
     1  C    0.000000
     2  C    1.380416   0.000000
     3  O    2.205959   1.372441   0.000000
     4  C    2.246676   2.260706   1.380297   0.000000
     5  C    1.438853   2.252193   2.168923   1.309571   0.000000
     6  H    2.218644   3.273175   3.203046   2.118960   1.063524
     7  H    3.324550   3.230197   2.066477   1.079875   2.237981
     8  H    2.252899   1.052658   2.087881   3.234695   3.298988
     9  H    1.080656   2.176719   3.244719   3.296291   2.288326
                    6          7          8          9
     6  H    0.000000
     7  H    2.753993   0.000000
     8  H    4.304239   4.119911   0.000000
     9  H    2.732408   4.364725   2.734662   0.000000
 Stoichiometry    C4H4O
 Framework group  C1[X(C4H4O)]
 Deg. of freedom    21
 Full point group                 C1      NOp   1
 Largest Abelian subgroup         C1      NOp   1
 Largest concise Abelian subgroup C1      NOp   1
                         Standard orientation:                         
 ---------------------------------------------------------------------
 Center     Atomic      Atomic             Coordinates (Angstroms)
 Number     Number       Type             X           Y           Z
 ---------------------------------------------------------------------
      1          6           0        0.742803    0.936896   -0.010631
      2          6           0        1.121547   -0.390514   -0.001570
      3          8           0       -0.036720   -1.126727   -0.003046
      4          6           0       -1.137069   -0.293390   -0.004775
      5          6           0       -0.695913    0.939560    0.009100
      6          1           0       -1.292563    1.819857   -0.003905
      7          1           0       -2.080019   -0.819037    0.021126
      8          1           0        2.038956   -0.905150    0.038451
      9          1           0        1.439177    1.762834    0.015956
 ---------------------------------------------------------------------
 Rotational constants (GHZ):      9.6776411      9.1239213      4.6967374
 Leave Link  202 at Tue Dec 15 16:18:50 2015, MaxMem=    33554432 cpu:         0.0
 (Enter /home/Applications/g09/g09/l301.exe)

 Semi-emprical parameters in input format:
 Method=8 CoreType=1 PeptideFC=0.0114510000 RIJScale=0.5291770000
 ****
 H       
 PQN=1 NValence=1 F0ss=0.4721550000 ZetaOverlap=1.1880780000 U=-0.4188110000
 Beta=-0.2268830000 CoreKO=1.0589200000 KON=0,0,0,1.0589200000 KON=1,0,1,1.0589200000
 KON=0,1,1,1.0589200000 KON=2,1,1,1.0589200000 EISol=-0.4188110042 EHeat=0.0830298228
 Alpha=1.5252600000
 GCore=0.0085280000,1.4001430000,2.2676710000
 GCore=0.0003530000,1.4001430000,3.4015070000
 GCore=-0.0012730000,0.5600570000,3.9684250000
 ****
 C       
 PQN=2,2 NValence=4 F0ss=0.4494440000 F0sp=0.4215150000 F0pp=0.3768030000 F2pp=0.1898720000
 G1sp=0.2679030000
 ZetaOverlap=1.8086650000,1.6851160000
 U=-1.9120180000,-1.4557970000
 Beta=-0.5775440000,-0.2836780000 DDN=0,1,0.8236740000 DDN=1,1,0.7268010000
 CoreKO=1.1124280000 KON=0,0,0,1.1124280000 KON=1,0,1,0.8219700000 KON=0,1,1,1.1124280000
 KON=2,1,1,0.7783930000 EISol=-4.4398989268 EHeat=0.2723305520 Alpha=1.4014060000
 DipHyp=1.6472532266
 GCore=0.0007890000,1.4001430000,3.0235620000
 GCore=0.0031890000,1.4001430000,3.4959930000
 GCore=-0.0013930000,1.4001430000,3.8739390000
 GCore=-0.0000880000,1.4001430000,5.0077740000
 ****
 O       
 PQN=2,2 NValence=6 F0ss=0.5666750000 F0sp=0.5321300000 F0pp=0.4958710000 F2pp=0.2358080000
 G1sp=0.4343770000
 ZetaOverlap=3.1080320000,2.5240390000
 U=-3.5951870000,-2.8760900000
 Beta=-1.0757550000,-1.0757550000 DDN=0,1,0.4988900000 DDN=1,1,0.4852320000
 CoreKO=0.8822960000 KON=0,0,0,0.8822960000 KON=1,0,1,0.5019540000 KON=0,1,1,0.8822960000
 KON=2,1,1,0.5515580000 EISol=-11.6164441184 EHeat=0.0949133088 Alpha=2.3576810000
 DipHyp=0.9977225968
 GCore=0.0195120000,1.4001430000,1.6023330000
 GCore=0.0056550000,1.9602000000,2.7307880000
 ****
 
 Standard basis: VSTO-6G (5D, 7F)
 Ernie: Thresh=  0.10000D-02 Tol=  0.10000D-05 Strict=F.
  NNHCO=     0 NNPyr=     0 NCTC=     0               EPep=         0.000000000
    EC=        68.779579619  ECS=         1.838757711   EG=         0.348206802
   EHC=         0.000000000  EAt=       -31.051283842  AtH=         1.516354808
 EPDDG=         0.000000000  ECC=        70.966544133 EAtT=        32.567638650
 There are    24 symmetry adapted cartesian basis functions of A   symmetry.
 There are    24 symmetry adapted basis functions of A   symmetry.
    24 basis functions,   144 primitive gaussians,    24 cartesian basis functions
    13 alpha electrons       13 beta electrons
       nuclear repulsion energy       103.5341827832 Hartrees.
 IExCor=    0 DFT=F Ex=HF Corr=None ExCW=0 ScaHFX=  1.000000
 ScaDFX=  1.000000  1.000000  1.000000  1.000000 ScalE2=  1.000000  1.000000
 IRadAn=      0 IRanWt=     -1 IRanGd=            0 ICorTp=0 IEmpDi=  4
 Integral buffers will be    131072 words long.
 Regular integral format.
 Two-electron integral symmetry is turned off.
 Leave Link  301 at Tue Dec 15 16:18:50 2015, MaxMem=    33554432 cpu:         0.0
 (Enter /home/Applications/g09/g09/l302.exe)
 Do NDO integrals.
 NPDir=0 NMtPBC=     1 NCelOv=     1 NCel=       1 NClECP=     1 NCelD=      1
         NCelK=      1 NCelE2=     1 NClLst=     1 CellRange=     0.0.
 One-electron integrals computed using PRISM.
 NBasis=    24 RedAO= F EigKep=  0.00D+00  NBF=    24
 NBsUse=    24 1.00D-04 EigRej=  0.00D+00 NBFU=    24
 Leave Link  302 at Tue Dec 15 16:18:50 2015, MaxMem=    33554432 cpu:         0.0
 (Enter /home/Applications/g09/g09/l308.exe)
 Leave Link  308 at Tue Dec 15 16:18:50 2015, MaxMem=    33554432 cpu:         0.0
 (Enter /home/Applications/g09/g09/l303.exe)
 DipDrv:  MaxL=1.
 Leave Link  303 at Tue Dec 15 16:18:50 2015, MaxMem=    33554432 cpu:         0.0
 (Enter /home/Applications/g09/g09/l401.exe)
 Simple Huckel Guess.
 JPrj=0 DoOrth=F DoCkMO=F.
 Leave Link  401 at Tue Dec 15 16:18:50 2015, MaxMem=    33554432 cpu:         0.0
 (Enter /home/Applications/g09/g09/l502.exe)
 Closed shell SCF:
 Using DIIS extrapolation, IDIIS=  1040.
 Overlap will be assumed to be unity.
 Two-electron integral symmetry not used.
 Keep J ints in memory in canonical form, NReq=888082.
 IVT=       79475 IEndB=       79475 NGot=    33554432 MDV=    33473473
 LenX=    33473473 LenY=    33472456
 Requested convergence on RMS density matrix=1.00D-08 within 128 cycles.
 Requested convergence on MAX density matrix=1.00D-06.
 Requested convergence on             energy=1.00D-06.
 No special actions if energy rises.
 FoFCou: FMM=F IPFlag=           0 FMFlag=           0 FMFlg1=           0
         NFxFlg=           0 DoJE=F BraDBF=F KetDBF=F FulRan=T
         wScrn=  0.000000 ICntrl=     600 IOpCl=  2 I1Cent=           0 NGrid=           0
         NMat0=    1 NMatS0=     54 NMatT0=    0 NMatD0=    1 NMtDS0=    0 NMtDT0=    0
 Symmetry not used in FoFCou.

 Cycle   1  Pass 1  IDiag  1:
 E= 0.325206821115714    
 DIIS: error= 5.71D-02 at cycle   1 NSaved=   1.
 NSaved= 1 IEnMin= 1 EnMin= 0.325206821115714     IErMin= 1 ErrMin= 5.71D-02
 ErrMax= 5.71D-02  0.00D+00 EMaxC= 1.00D-01 BMatC= 1.10D-01 BMatP= 1.10D-01
 IDIUse=3 WtCom= 4.29D-01 WtEn= 5.71D-01
 Coeff-Com:  0.100D+01
 Coeff-En:   0.100D+01
 Coeff:      0.100D+01
 GapD=    2.000 DampG=2.000 DampE=0.500 DampFc=1.0000 IDamp=-1.
 RMSDP=1.92D-02 MaxDP=1.61D-01              OVMax= 0.00D+00

 Cycle   2  Pass 1  IDiag  1:
 E= 0.512376613511236E-01 Delta-E=       -0.273969159765 Rises=F Damp=F
 DIIS: error= 1.97D-02 at cycle   2 NSaved=   2.
 NSaved= 2 IEnMin= 2 EnMin= 0.512376613511236E-01 IErMin= 2 ErrMin= 1.97D-02
 ErrMax= 1.97D-02  0.00D+00 EMaxC= 1.00D-01 BMatC= 9.48D-03 BMatP= 1.10D-01
 IDIUse=3 WtCom= 8.03D-01 WtEn= 1.97D-01
 Coeff-Com: -0.359D+00 0.136D+01
 Coeff-En:   0.000D+00 0.100D+01
 Coeff:     -0.288D+00 0.129D+01
 RMSDP=8.20D-03 MaxDP=7.53D-02 DE=-2.74D-01 OVMax= 0.00D+00

 Cycle   3  Pass 1  IDiag  3:
 E= 0.206740148858131E-01 Delta-E=       -0.030563646465 Rises=F Damp=F
 DIIS: error= 3.68D-03 at cycle   3 NSaved=   3.
 NSaved= 3 IEnMin= 3 EnMin= 0.206740148858131E-01 IErMin= 3 ErrMin= 3.68D-03
 ErrMax= 3.68D-03  0.00D+00 EMaxC= 1.00D-01 BMatC= 3.90D-04 BMatP= 9.48D-03
 IDIUse=3 WtCom= 9.63D-01 WtEn= 3.68D-02
 Coeff-Com:  0.138D+00-0.618D+00 0.148D+01
 Coeff-En:   0.000D+00 0.000D+00 0.100D+01
 Coeff:      0.132D+00-0.595D+00 0.146D+01
 Gap=     0.380 Goal=   None    Shift=    0.000
 RMSDP=2.68D-03 MaxDP=3.27D-02 DE=-3.06D-02 OVMax= 3.60D-02

 Cycle   4  Pass 1  IDiag  3:
 E= 0.184608264804496E-01 Delta-E=       -0.002213188405 Rises=F Damp=F
 DIIS: error= 1.18D-03 at cycle   4 NSaved=   4.
 NSaved= 4 IEnMin= 4 EnMin= 0.184608264804496E-01 IErMin= 4 ErrMin= 1.18D-03
 ErrMax= 1.18D-03  0.00D+00 EMaxC= 1.00D-01 BMatC= 3.02D-05 BMatP= 3.90D-04
 IDIUse=3 WtCom= 9.88D-01 WtEn= 1.18D-02
 Coeff-Com:  0.140D-01-0.443D-01-0.221D+00 0.125D+01
 Coeff-En:   0.000D+00 0.000D+00 0.000D+00 0.100D+01
 Coeff:      0.139D-01-0.438D-01-0.218D+00 0.125D+01
 Gap=     0.381 Goal=   None    Shift=    0.000
 RMSDP=8.92D-04 MaxDP=1.14D-02 DE=-2.21D-03 OVMax= 1.25D-02

 Cycle   5  Pass 1  IDiag  3:
 E= 0.182660634480101E-01 Delta-E=       -0.000194763032 Rises=F Damp=F
 DIIS: error= 2.14D-04 at cycle   5 NSaved=   5.
 NSaved= 5 IEnMin= 5 EnMin= 0.182660634480101E-01 IErMin= 5 ErrMin= 2.14D-04
 ErrMax= 2.14D-04  0.00D+00 EMaxC= 1.00D-01 BMatC= 2.02D-06 BMatP= 3.02D-05
 IDIUse=3 WtCom= 9.98D-01 WtEn= 2.14D-03
 Coeff-Com: -0.781D-02 0.311D-01 0.303D-01-0.501D+00 0.145D+01
 Coeff-En:   0.000D+00 0.000D+00 0.000D+00 0.000D+00 0.100D+01
 Coeff:     -0.779D-02 0.310D-01 0.302D-01-0.500D+00 0.145D+01
 Gap=     0.381 Goal=   None    Shift=    0.000
 RMSDP=2.60D-04 MaxDP=2.26D-03 DE=-1.95D-04 OVMax= 2.65D-03

 Cycle   6  Pass 1  IDiag  3:
 E= 0.182513482434246E-01 Delta-E=       -0.000014715205 Rises=F Damp=F
 DIIS: error= 8.91D-05 at cycle   6 NSaved=   6.
 NSaved= 6 IEnMin= 6 EnMin= 0.182513482434246E-01 IErMin= 6 ErrMin= 8.91D-05
 ErrMax= 8.91D-05  0.00D+00 EMaxC= 1.00D-01 BMatC= 1.77D-07 BMatP= 2.02D-06
 IDIUse=1 WtCom= 1.00D+00 WtEn= 0.00D+00
 Coeff-Com:  0.351D-02-0.141D-01 0.270D-02 0.164D+00-0.709D+00 0.155D+01
 Coeff:      0.351D-02-0.141D-01 0.270D-02 0.164D+00-0.709D+00 0.155D+01
 Gap=     0.381 Goal=   None    Shift=    0.000
 RMSDP=9.10D-05 MaxDP=7.39D-04 DE=-1.47D-05 OVMax= 1.19D-03

 Cycle   7  Pass 1  IDiag  3:
 E= 0.182498044605950E-01 Delta-E=       -0.000001543783 Rises=F Damp=F
 DIIS: error= 3.26D-05 at cycle   7 NSaved=   7.
 NSaved= 7 IEnMin= 7 EnMin= 0.182498044605950E-01 IErMin= 7 ErrMin= 3.26D-05
 ErrMax= 3.26D-05  0.00D+00 EMaxC= 1.00D-01 BMatC= 1.43D-08 BMatP= 1.77D-07
 IDIUse=1 WtCom= 1.00D+00 WtEn= 0.00D+00
 Coeff-Com: -0.591D-03 0.192D-02 0.138D-02-0.386D-01 0.180D+00-0.628D+00
 Coeff-Com:  0.148D+01
 Coeff:     -0.591D-03 0.192D-02 0.138D-02-0.386D-01 0.180D+00-0.628D+00
 Coeff:      0.148D+01
 Gap=     0.381 Goal=   None    Shift=    0.000
 RMSDP=2.95D-05 MaxDP=2.77D-04 DE=-1.54D-06 OVMax= 3.59D-04

 Cycle   8  Pass 1  IDiag  3:
 E= 0.182496700503236E-01 Delta-E=       -0.000000134410 Rises=F Damp=F
 DIIS: error= 7.92D-06 at cycle   8 NSaved=   8.
 NSaved= 8 IEnMin= 8 EnMin= 0.182496700503236E-01 IErMin= 8 ErrMin= 7.92D-06
 ErrMax= 7.92D-06  0.00D+00 EMaxC= 1.00D-01 BMatC= 8.12D-10 BMatP= 1.43D-08
 IDIUse=1 WtCom= 1.00D+00 WtEn= 0.00D+00
 Coeff-Com:  0.449D-04 0.102D-03-0.166D-02 0.117D-01-0.500D-01 0.206D+00
 Coeff-Com: -0.702D+00 0.153D+01
 Coeff:      0.449D-04 0.102D-03-0.166D-02 0.117D-01-0.500D-01 0.206D+00
 Coeff:     -0.702D+00 0.153D+01
 Gap=     0.381 Goal=   None    Shift=    0.000
 RMSDP=7.20D-06 MaxDP=7.09D-05 DE=-1.34D-07 OVMax= 8.53D-05

 Cycle   9  Pass 1  IDiag  3:
 E= 0.182496629422246E-01 Delta-E=       -0.000000007108 Rises=F Damp=F
 DIIS: error= 1.12D-06 at cycle   9 NSaved=   9.
 NSaved= 9 IEnMin= 9 EnMin= 0.182496629422246E-01 IErMin= 9 ErrMin= 1.12D-06
 ErrMax= 1.12D-06  0.00D+00 EMaxC= 1.00D-01 BMatC= 2.60D-11 BMatP= 8.12D-10
 IDIUse=1 WtCom= 1.00D+00 WtEn= 0.00D+00
 Coeff-Com:  0.199D-04-0.190D-03 0.628D-03-0.274D-02 0.117D-01-0.588D-01
 Coeff-Com:  0.234D+00-0.635D+00 0.145D+01
 Coeff:      0.199D-04-0.190D-03 0.628D-03-0.274D-02 0.117D-01-0.588D-01
 Coeff:      0.234D+00-0.635D+00 0.145D+01
 Gap=     0.381 Goal=   None    Shift=    0.000
 RMSDP=9.74D-07 MaxDP=8.66D-06 DE=-7.11D-09 OVMax= 1.29D-05

 Cycle  10  Pass 1  IDiag  3:
 E= 0.182496627729307E-01 Delta-E=       -0.000000000169 Rises=F Damp=F
 DIIS: error= 1.52D-07 at cycle  10 NSaved=  10.
 NSaved=10 IEnMin=10 EnMin= 0.182496627729307E-01 IErMin=10 ErrMin= 1.52D-07
 ErrMax= 1.52D-07  0.00D+00 EMaxC= 1.00D-01 BMatC= 1.01D-12 BMatP= 2.60D-11
 IDIUse=1 WtCom= 1.00D+00 WtEn= 0.00D+00
 Coeff-Com: -0.104D-04 0.840D-04-0.249D-03 0.971D-03-0.396D-02 0.203D-01
 Coeff-Com: -0.832D-01 0.231D+00-0.630D+00 0.146D+01
 Coeff:     -0.104D-04 0.840D-04-0.249D-03 0.971D-03-0.396D-02 0.203D-01
 Coeff:     -0.832D-01 0.231D+00-0.630D+00 0.146D+01
 Gap=     0.381 Goal=   None    Shift=    0.000
 RMSDP=1.71D-07 MaxDP=1.23D-06 DE=-1.69D-10 OVMax= 1.95D-06

 Cycle  11  Pass 1  IDiag  3:
 E= 0.182496627667774E-01 Delta-E=       -0.000000000006 Rises=F Damp=F
 DIIS: error= 3.37D-08 at cycle  11 NSaved=  11.
 NSaved=11 IEnMin=11 EnMin= 0.182496627667774E-01 IErMin=11 ErrMin= 3.37D-08
 ErrMax= 3.37D-08  0.00D+00 EMaxC= 1.00D-01 BMatC= 4.28D-14 BMatP= 1.01D-12
 IDIUse=1 WtCom= 1.00D+00 WtEn= 0.00D+00
 Coeff-Com:  0.367D-05-0.302D-04 0.880D-04-0.348D-03 0.139D-02-0.714D-02
 Coeff-Com:  0.292D-01-0.808D-01 0.225D+00-0.636D+00 0.147D+01
 Coeff:      0.367D-05-0.302D-04 0.880D-04-0.348D-03 0.139D-02-0.714D-02
 Coeff:      0.292D-01-0.808D-01 0.225D+00-0.636D+00 0.147D+01
 Gap=     0.381 Goal=   None    Shift=    0.000
 RMSDP=3.50D-08 MaxDP=1.99D-07 DE=-6.15D-12 OVMax= 2.90D-07

 Cycle  12  Pass 1  IDiag  3:
 E= 0.182496627664364E-01 Delta-E=        0.000000000000 Rises=F Damp=F
 DIIS: error= 5.93D-09 at cycle  12 NSaved=  12.
 NSaved=12 IEnMin=12 EnMin= 0.182496627664364E-01 IErMin=12 ErrMin= 5.93D-09
 ErrMax= 5.93D-09  0.00D+00 EMaxC= 1.00D-01 BMatC= 2.11D-15 BMatP= 4.28D-14
 IDIUse=1 WtCom= 1.00D+00 WtEn= 0.00D+00
 Coeff-Com: -0.875D-06 0.695D-05-0.184D-04 0.705D-04-0.275D-03 0.147D-02
 Coeff-Com: -0.607D-02 0.167D-01-0.472D-01 0.146D+00-0.502D+00 0.139D+01
 Coeff:     -0.875D-06 0.695D-05-0.184D-04 0.705D-04-0.275D-03 0.147D-02
 Coeff:     -0.607D-02 0.167D-01-0.472D-01 0.146D+00-0.502D+00 0.139D+01
 Gap=     0.381 Goal=   None    Shift=    0.000
 RMSDP=7.99D-09 MaxDP=3.95D-08 DE=-3.41D-13 OVMax= 6.77D-08

 Cycle  13  Pass 2  IDiag  1:
 SCF Done:  E(RAM1) =  0.182496627664E-01 A.U. after   13 cycles
            NFock= 12  Conv=0.80D-08     -V/T= 1.0011
 KE=-1.655846816318D+01 PE=-1.712038900646D+02 EE= 8.424642510735D+01
 Leave Link  502 at Tue Dec 15 16:18:50 2015, MaxMem=    33554432 cpu:         0.0
 (Enter /home/Applications/g09/g09/l801.exe)
 Range of M.O.s used for correlation:     1    24
 NBasis=    24 NAE=    13 NBE=    13 NFC=     0 NFV=     0
 NROrb=     24 NOA=    13 NOB=    13 NVA=    11 NVB=    11
 Leave Link  801 at Tue Dec 15 16:18:50 2015, MaxMem=    33554432 cpu:         0.0
 (Enter /home/Applications/g09/g09/l914.exe)
 RHF ground state
 MDV=    33554432 DFT=F DoStab=F Mixed=F DoRPA=F DoScal=F NonHer=F
 Making orbital integer symmetry assigments:
 Orbital symmetries:
       Occupied  (A) (A) (A) (A) (A) (A) (A) (A) (A) (A) (A) (A)
                 (A)
       Virtual   (A) (A) (A) (A) (A) (A) (A) (A) (A) (A) (A)
    60 initial guesses have been made.
 Convergence on wavefunction:    0.000001000000000
 Davidson Disk Diagonalization:  ConvIn= 1.00D-06 SkipCon=T Conv= 1.00D-06.
 Max sub-space:   240 roots to seek:    60 dimension of matrix:          286
 Iteration     1 Dimension    60 NMult     0 NNew     60
 CISAX will form    60 AO SS matrices at one time.
 NMat=    60 NSing=    60 JSym2X= 0.
 FoFJK:  IHMeth= 8 ICntrl=       0 DoSepK=F KAlg= 0 I1Cent=   0 FoldK=F
 IRaf=         1 NMat= 120 IRICut=       1 DoRegI=T DoRafI=F ISym2E= 0.
 FoFCou: FMM=F IPFlag=           0 FMFlag=      100000 FMFlg1=           0
         NFxFlg=           0 DoJE=F BraDBF=F KetDBF=F FulRan=T
         wScrn=  0.000000 ICntrl=       0 IOpCl=  0 I1Cent=           0 NGrid=           0
         NMat0=  120 NMatS0=     60 NMatT0=    0 NMatD0=  120 NMtDS0=    0 NMtDT0=    0
 Symmetry not used in FoFCou.
 New state      2 was old state      4
 New state      3 was old state      2
 New state      4 was old state      7
 New state      5 was old state      8
 New state      6 was old state      3
 New state      7 was old state      6
 New state      8 was old state      5
 New state     11 was old state     12
 New state     12 was old state     18
 New state     14 was old state     15
 New state     15 was old state     14
 Excitation Energies [eV] at current iteration:
 Root      1 :     4.620345432054121
 Root      2 :     5.033327576175399
 Root      3 :     5.186719446591323
 Root      4 :     5.851342222799699
 Root      5 :     6.042794168240662
 Root      6 :     6.355765369459296
 Root      7 :     6.439293907494221
 Root      8 :     6.507416189443681
 Root      9 :     6.640746275790589
 Root     10 :     6.924289551176046
 Root     11 :     7.181370637466777
 Root     12 :     7.517290467564995
 Root     13 :     7.631385941153243
 Root     14 :     7.718995352767486
 Root     15 :     7.855932121970324
 Root     16 :     7.976812507137764
 Root     17 :     8.015067589685998
 Root     18 :     8.111693121572811
 Root     19 :     8.313647456545672
 Root     20 :     8.319975386180724
 Root     21 :     8.580043982081371
 Root     22 :     8.840006605833704
 Root     23 :     8.885902110068402
 Root     24 :     9.123460190748309
 Root     25 :     9.458405143473055
 Root     26 :     9.507932348302266
 Root     27 :     9.663542838493111
 Root     28 :     9.753531740932647
 Root     29 :     9.759804817963028
 Root     30 :     9.875858232055210
 Root     31 :     9.998571279153017
 Root     32 :    10.026107565097110
 Root     33 :    10.048947052424970
 Root     34 :    10.096915716780030
 Root     35 :    10.325338498228700
 Root     36 :    10.426908336904370
 Root     37 :    10.500365065022600
 Root     38 :    10.613397167413600
 Root     39 :    10.769598243480560
 Root     40 :    10.952637059906840
 Root     41 :    11.019044967268960
 Root     42 :    11.204888114453100
 Root     43 :    11.260146043949230
 Root     44 :    11.345442068147900
 Root     45 :    11.536039080790730
 Root     46 :    11.588205471143550
 Root     47 :    11.653477489090410
 Root     48 :    11.814661839312440
 Root     49 :    12.029298167356540
 Root     50 :    12.124210776102930
 Root     51 :    12.188091575224420
 Root     52 :    12.395996737226490
 Root     53 :    12.776185648095790
 Root     54 :    12.854308420368290
 Root     55 :    13.088970340152370
 Root     56 :    13.100066765803080
 Root     57 :    13.240781181905840
 Root     58 :    13.415585132230070
 Root     59 :    13.608595855840790
 Root     60 :    13.710181680950190
 Iteration     2 Dimension   120 NMult    60 NNew     60
 CISAX will form    60 AO SS matrices at one time.
 NMat=    60 NSing=    60 JSym2X= 0.
 Root      1 not converged, maximum delta is    0.024128938045170
 Root      2 not converged, maximum delta is    0.038669644097612
 Root      3 not converged, maximum delta is    0.021073326322906
 Root      4 not converged, maximum delta is    0.044613809345214
 Root      5 not converged, maximum delta is    0.056000766392883
 Root      6 not converged, maximum delta is    0.099350103566688
 Root      7 not converged, maximum delta is    0.058761523773214
 Root      8 not converged, maximum delta is    0.083646073939504
 Root      9 not converged, maximum delta is    0.055703208325557
 Root     10 not converged, maximum delta is    0.031231048549503
 Root     11 not converged, maximum delta is    0.067983595498761
 Root     12 not converged, maximum delta is    0.057432392221220
 Root     13 not converged, maximum delta is    0.056181051009932
 Root     14 not converged, maximum delta is    0.075137842499310
 Root     15 not converged, maximum delta is    0.100140185431131
 Excitation Energies [eV] at current iteration:
 Root      1 :     4.564034877722015   Change is   -0.056310554332107
 Root      2 :     4.998186370669220   Change is   -0.035141205506178
 Root      3 :     5.166898708424108   Change is   -0.019820738167216
 Root      4 :     5.783852538049745   Change is   -0.067489684749953
 Root      5 :     5.922347330747728   Change is   -0.120446837492934
 Root      6 :     6.213001416913278   Change is   -0.142763952546018
 Root      7 :     6.306343533601583   Change is   -0.132950373892637
 Root      8 :     6.453048952674273   Change is   -0.054367236769409
 Root      9 :     6.580501099466435   Change is   -0.060245176324154
 Root     10 :     6.878713979563900   Change is   -0.045575571612146
 Root     11 :     7.069845073441942   Change is   -0.111525564024835
 Root     12 :     7.402946802693450   Change is   -0.114343664871544
 Root     13 :     7.514635120312236   Change is   -0.116750820841008
 Root     14 :     7.657890886006509   Change is   -0.061104466760976
 Root     15 :     7.754676015667391   Change is   -0.101256106302933
 Root     16 :     7.873568180217508   Change is   -0.103244326920256
 Root     17 :     7.925469237417677   Change is   -0.089598352268321
 Root     18 :     8.033551699242009   Change is   -0.280095757303663
 Root     19 :     8.040638818672543   Change is   -0.071054302900270
 Root     20 :     8.115102885582729   Change is   -0.204872500597994
 Root     21 :     8.422537949461219   Change is   -0.157506032620151
 Root     22 :     8.807199852839547   Change is   -0.032806752994157
 Root     23 :     8.855294257991520   Change is   -0.030607852076881
 Root     24 :     9.035048424722957   Change is   -0.088411766025352
 Root     25 :     9.117080793790487   Change is   -0.390851554511778
 Root     26 :     9.312580966001796   Change is   -0.145824177471258
 Root     27 :     9.398728385862926   Change is   -0.354803355069722
 Root     28 :     9.502205980804305   Change is   -0.496365298348713
 Root     29 :     9.580255217287057   Change is   -0.083287621206053
 Root     30 :     9.594604368240610   Change is   -0.165200449722418
 Root     31 :     9.694364585197178   Change is   -0.181493646858032
 Root     32 :     9.701366546231155   Change is   -0.347580506193818
 Root     33 :     9.713027510988452   Change is   -0.612310987240251
 Root     34 :     9.849135568876013   Change is   -0.577772768028359
 Root     35 :     9.857407537307690   Change is   -0.168700027789424
 Root     36 :     9.977184850699659   Change is   -0.119730866080372
 Root     37 :    10.164245688933410   Change is   -0.449151478480191
 Root     38 :    10.226504769639640   Change is   -0.273860295382955
 Root     39 :    10.380309514762710   Change is   -0.638735452506246
 Root     40 :    10.488298154131890   Change is   -0.281300089348668
 Root     41 :    10.668583146358010   Change is   -0.284053913548832
 Root     42 :    10.707952715342090   Change is   -0.637489352805815
 Root     43 :    10.852078736000290   Change is   -0.408067307948934
 Root     44 :    10.992742210428560   Change is   -0.595463260714991
 Root     45 :    11.105817757841940   Change is   -0.430221322948785
 Root     46 :    11.114523855459900   Change is   -0.090364258993201
 Root     47 :    11.452631298859110   Change is   -0.362030540453328
 Root     48 :    11.513032465018020   Change is   -0.140445024072397
 Root     49 :    11.751328241183130   Change is   -0.436763334041290
 Root     50 :    11.782158073908520   Change is   -0.247140093448020
 Root     51 :    11.866539716086360   Change is   -0.257671060016569
 Root     52 :    11.955701710397630   Change is   -0.440295026828854
 Root     53 :    12.256175107878340   Change is   -0.598133312489948
 Root     54 :    12.392761094429370   Change is   -0.383424553666420
 Root     55 :    12.612342997318420   Change is   -0.487723768484662
 Root     56 :    12.894335316378290   Change is   -0.346445865527554
 Root     57 :    13.003432717491280
 Root     58 :    13.045433402732350   Change is   -0.043536937420021
 Root     59 :    13.259161664198290   Change is   -0.156423468031785
 Root     60 :    13.345432737602730   Change is   -0.263163118238056
 Iteration     3 Dimension   135 NMult   120 NNew     15
 CISAX will form    15 AO SS matrices at one time.
 NMat=    15 NSing=    15 JSym2X= 0.
 Root      1 not converged, maximum delta is    0.001027709764818
 Root      2 not converged, maximum delta is    0.000065129357662
 Root      3 not converged, maximum delta is    0.000448813827330
 Root      4 not converged, maximum delta is    0.000093343791245
 Root      5 not converged, maximum delta is    0.000115298466955
 Root      6 not converged, maximum delta is    0.003012938060571
 Root      7 not converged, maximum delta is    0.000301693062372
 Root      8 not converged, maximum delta is    0.001454999424603
 Root      9 not converged, maximum delta is    0.000252145253567
 Root     10 not converged, maximum delta is    0.000160213317405
 Root     11 not converged, maximum delta is    0.000098037821297
 Root     12 not converged, maximum delta is    0.000183486131460
 Root     13 not converged, maximum delta is    0.000239462853215
 Root     14 not converged, maximum delta is    0.000085866122842
 Root     15 not converged, maximum delta is    0.000143900880770
 Excitation Energies [eV] at current iteration:
 Root      1 :     4.563864878213035   Change is   -0.000169999508979
 Root      2 :     4.998185587424159   Change is   -0.000000783245061
 Root      3 :     5.166845248444131   Change is   -0.000053459979977
 Root      4 :     5.783851107451881   Change is   -0.000001430597865
 Root      5 :     5.922344771854064   Change is   -0.000002558893664
 Root      6 :     6.211706986325588   Change is   -0.001294430587690
 Root      7 :     6.306339829947751   Change is   -0.000003703653832
 Root      8 :     6.452672492261657   Change is   -0.000376460412616
 Root      9 :     6.580491376165348   Change is   -0.000009723301086
 Root     10 :     6.878709980788701   Change is   -0.000003998775200
 Root     11 :     7.069843892164410   Change is   -0.000001181277533
 Root     12 :     7.402938035129330   Change is   -0.000008767564120
 Root     13 :     7.514624708698624   Change is   -0.000010411613612
 Root     14 :     7.657888258282782   Change is   -0.000002627723728
 Root     15 :     7.754670609349100   Change is   -0.000005406318290
 Iteration     4 Dimension   143 NMult   135 NNew      8
 CISAX will form     8 AO SS matrices at one time.
 NMat=     8 NSing=     8 JSym2X= 0.
 Root      1 not converged, maximum delta is    0.000019189799258
 Root      2 not converged, maximum delta is    0.000002072001897
 Root      3 not converged, maximum delta is    0.000020886231776
 Root      4 not converged, maximum delta is    0.000006845555473
 Root      5 not converged, maximum delta is    0.000008894830172
 Root      6 not converged, maximum delta is    0.000235046128001
 Root      7 not converged, maximum delta is    0.000013856910132
 Root      8 not converged, maximum delta is    0.000075875543660
 Root      9 not converged, maximum delta is    0.000016768353337
 Root     10 not converged, maximum delta is    0.000016828066080
 Root     11 not converged, maximum delta is    0.000003776303169
 Root     12 not converged, maximum delta is    0.000004020042346
 Root     13 not converged, maximum delta is    0.000012534889163
 Root     14 not converged, maximum delta is    0.000004577134332
 Root     15 not converged, maximum delta is    0.000019805354792
 Excitation Energies [eV] at current iteration:
 Root      1 :     4.563864772512728   Change is   -0.000000105700308
 Root      2 :     4.998185586882336   Change is   -0.000000000541823
 Root      3 :     5.166845158619010   Change is   -0.000000089825120
 Root      4 :     5.783851100439939   Change is   -0.000000007011941
 Root      5 :     5.922344763806016   Change is   -0.000000008048047
 Root      6 :     6.211699853318025   Change is   -0.000007133007564
 Root      7 :     6.306339807560386   Change is   -0.000000022387365
 Root      8 :     6.452671253595337   Change is   -0.000001238666320
 Root      9 :     6.580491341067670   Change is   -0.000000035097679
 Root     10 :     6.878709960768441   Change is   -0.000000020020260
 Root     11 :     7.069843887613384   Change is   -0.000000004551025
 Root     12 :     7.402938030184816   Change is   -0.000000004944514
 Root     13 :     7.514624686460941   Change is   -0.000000022237683
 Root     14 :     7.657888255158626   Change is   -0.000000003124155
 Root     15 :     7.754670587490791   Change is   -0.000000021858309
 Convergence achieved on expansion vectors.
 ***********************************************************************
 Excited states from <AA,BB:AA,BB> singles matrix:
 ***********************************************************************
 
 1PDM for each excited state written to RWF  633
 Ground to excited state transition densities written to RWF  633
 Ground to excited state transition electric dipole moments (Au):
       state          X           Y           Z        Dip. S.      Osc.
         1        -0.8642      0.2651     -0.0256      0.8177      0.0914
         2         0.0451     -0.0131      0.0207      0.0026      0.0003
         3         0.0362      0.1464      0.0021      0.0227      0.0029
         4         0.0232      0.0651      0.0948      0.0138      0.0020
         5        -0.0146     -0.0447     -0.0492      0.0046      0.0007
         6         0.4825      1.4473      0.0003      2.3274      0.3542
         7         0.0382      0.0351     -0.0235      0.0032      0.0005
         8         0.7707     -0.5499     -0.0207      0.8968      0.1418
         9         0.0777     -0.1127     -0.0928      0.0273      0.0044
        10        -0.0194      0.0756     -0.1072      0.0176      0.0030
        11         0.0095      0.0054      0.0128      0.0003      0.0000
        12         0.0120     -0.0032      0.0943      0.0090      0.0016
        13        -0.0300      0.0023      0.0573      0.0042      0.0008
        14        -0.0033     -0.0160      0.1198      0.0146      0.0027
        15        -0.0045     -0.0131     -0.1244      0.0157      0.0030
 Ground to excited state transition velocity dipole moments (Au):
       state          X           Y           Z        Dip. S.      Osc.
         1         0.0564     -0.0344      0.0072      0.0044      0.0175
         2        -0.0034      0.0027     -0.0022      0.0000      0.0001
         3        -0.0071     -0.0007      0.0035      0.0001      0.0002
         4        -0.0023     -0.0109     -0.0803      0.0066      0.0206
         5         0.0014      0.0120      0.0040      0.0002      0.0005
         6        -0.0788     -0.2955      0.0098      0.0936      0.2734
         7        -0.0068     -0.0082     -0.0333      0.0012      0.0035
         8        -0.1396      0.1159     -0.0111      0.0331      0.0929
         9        -0.0125      0.0247      0.1711      0.0301      0.0829
        10         0.0033     -0.0174      0.0153      0.0005      0.0014
        11        -0.0006     -0.0008      0.0450      0.0020      0.0052
        12        -0.0027     -0.0010      0.0355      0.0013      0.0031
        13         0.0041     -0.0020     -0.0311      0.0010      0.0024
        14        -0.0009      0.0049     -0.0627      0.0040      0.0094
        15         0.0021     -0.0013     -0.0320      0.0010      0.0024
 Ground to excited state transition magnetic dipole moments (Au):
       state          X           Y           Z
         1         0.0238      0.0425     -0.7011
         2         0.0257      0.6332      0.0233
         3        -0.0021      0.0181     -0.0006
         4         0.1186     -0.1598      0.0052
         5        -0.3051     -0.0749     -0.0137
         6         0.0408     -0.0123      0.1230
         7        -0.1575      0.0810      0.0106
         8        -0.0495      0.0086      0.0218
         9         0.1790     -0.1918      0.0097
        10        -1.6209     -0.1653     -0.0187
        11        -0.0150      0.6891     -0.0042
        12         0.2241     -0.1174      0.0069
        13         0.2641     -0.5526     -0.0382
        14        -0.6138     -0.3011      0.0149
        15        -0.4771      0.1229     -0.0179
 Ground to excited state transition velocity quadrupole moments (Au):
       state          XX          YY          ZZ          XY          XZ          YZ
         1         0.0148     -0.0019     -0.0053     -0.5047      0.0081      0.0000
         2         0.0004      0.0024      0.0005      0.0383      0.1728      0.0050
         3         0.0642     -0.1274      0.0765     -0.0576      0.0007     -0.0028
         4         0.0202     -0.0093      0.0016     -0.0088     -0.0048      0.1456
         5        -0.0178      0.0052      0.0033      0.0028      0.0838     -0.2267
         6         0.4567     -0.2248     -0.0379     -0.1377      0.0260     -0.0184
         7         0.0109      0.0017     -0.0110     -0.0167     -0.1070     -0.1828
         8        -0.2149      0.1161      0.0083     -0.4789     -0.0038      0.0327
         9        -0.0479      0.0138      0.0021     -0.0323      0.0621     -0.1319
        10         0.0234     -0.0131     -0.0052     -0.0073     -0.0161      0.0688
        11        -0.0053      0.0085      0.0056     -0.0091     -0.3264      0.0000
        12         0.0004     -0.0096      0.0152     -0.0018     -0.0022      0.1646
        13         0.0156      0.0079      0.0019     -0.0145     -0.1179      0.0887
        14        -0.0120      0.0096      0.0130      0.0174     -0.0715     -0.3876
        15         0.0166      0.0169     -0.0020     -0.0051     -0.1120      0.0216
 <0|del|b> * <b|rxdel|0> + <0|del|b> * <b|delr+rdel|0>
 Rotatory Strengths (R) in cgs (10**-40 erg-esu-cm/Gauss)
       state          XX          YY          ZZ    R(velocity)    E-M Angle
         1       -20.7698     -0.1498     -0.8432     -7.2543       96.35
         2         2.1096     -0.1406      4.0054      1.9915       59.74
         3        -0.4058      0.4410     -0.0329      0.0008       90.00
         4         3.2858     -2.8918      3.0794      1.1578       86.29
         5        -3.1567     -1.2749      0.0009     -1.4769      109.97
         6        17.2914      1.2379    -13.4954      1.6779       87.66
         7        -2.0565      2.1424      0.0647      0.0502       90.00
         8         9.7080     -4.7873     17.9447      7.6218       39.69
         9       -14.8184      9.6363    -10.3736     -5.1852       96.71
        10         3.0816     -7.3322     -3.2975     -2.5161       94.06
        11        -1.9189      0.3140     -0.3827     -0.6626       91.35
        12         0.3794     -0.9418     -0.0556     -0.2060       91.51
        13         3.2014      2.8063      2.6251      2.8776       79.93
        14        -3.9388      1.3234     -2.0183     -1.5446       92.46
        15         0.5251     -0.6815     -1.3172     -0.4912       92.15
 1/2[<0|r|b>*<b|rxdel|0> + (<0|rxdel|b>*<b|r|0>)*]
 Rotatory Strengths (R) in cgs (10**-40 erg-esu-cm/Gauss)
       state          XX          YY          ZZ     R(length)
         1        14.5477     -7.9708    -12.6998     -2.0409
         2        -0.8196      5.8846     -0.3403      1.5749
         3         0.0541     -1.8730      0.0008     -0.6060
         4        -1.9491      7.3612     -0.3476      1.6882
         5        -3.1410     -2.3674     -0.4750     -1.9945
         6       -13.9205     12.5752     -0.0281     -0.4578
         7         4.2571     -2.0123      0.1766      0.8071
         8        26.9976      3.3294      0.3196     10.2155
         9        -9.8346    -15.2786      0.6341     -8.1597
        10       -22.2776      8.8324     -1.4156     -4.9536
        11         0.1008     -2.6425      0.0378     -0.8346
        12        -1.8992     -0.2653     -0.4621     -0.8755
        13         5.5950      0.9022      1.5499      2.6824
        14        -1.4144     -3.4100     -1.2583     -2.0276
        15        -1.5302      1.1379     -1.5709     -0.6544
  1/2[<0|del|b>*<b|r|0> + (<0|r|b>*<b|del|0>)*] (Au)
       state          X           Y           Z        Dip. S.   Osc.(frdel)
         1        -0.0487     -0.0091     -0.0002      0.0580      0.0387
         2        -0.0002      0.0000      0.0000      0.0002      0.0002
         3        -0.0003     -0.0001      0.0000      0.0003      0.0002
         4        -0.0001     -0.0007     -0.0076      0.0084      0.0056
         5         0.0000     -0.0005     -0.0002      0.0008      0.0005
         6        -0.0380     -0.4276      0.0000      0.4656      0.3104
         7        -0.0003     -0.0003      0.0008     -0.0002     -0.0002
         8        -0.1076     -0.0637      0.0002      0.1711      0.1141
         9        -0.0010     -0.0028     -0.0159      0.0196      0.0131
        10        -0.0001     -0.0013     -0.0016      0.0030      0.0020
        11         0.0000      0.0000      0.0006     -0.0006     -0.0004
        12         0.0000      0.0000      0.0033     -0.0033     -0.0022
        13        -0.0001      0.0000     -0.0018      0.0019      0.0013
        14         0.0000     -0.0001     -0.0075      0.0076      0.0051
        15         0.0000      0.0000      0.0040     -0.0040     -0.0027

 Excitation energies and oscillator strengths:
 
 Excited State   1:      Singlet-A      4.5639 eV  271.66 nm  f=0.0914  <S**2>=0.000
      12 -> 15         0.21655
      13 -> 14         0.66424
 This state for optimization and/or second-order correction.
 Total Energy, E(CIS) =  0.185968614361    
 Copying the excited state density for this state as the 1-particle RhoCI density.
 
 Excited State   2:      Singlet-A      4.9982 eV  248.06 nm  f=0.0003  <S**2>=0.000
      13 -> 16         0.69067
 
 Excited State   3:      Singlet-A      5.1668 eV  239.96 nm  f=0.0029  <S**2>=0.000
      12 -> 14        -0.45120
      13 -> 15         0.53746
 
 Excited State   4:      Singlet-A      5.7839 eV  214.36 nm  f=0.0020  <S**2>=0.000
       7 -> 16        -0.18646
      12 -> 16         0.65675
      12 -> 22        -0.12821
 
 Excited State   5:      Singlet-A      5.9223 eV  209.35 nm  f=0.0007  <S**2>=0.000
      12 -> 18         0.18987
      12 -> 22         0.10246
      13 -> 17         0.10605
      13 -> 18         0.52391
      13 -> 21         0.12595
      13 -> 22         0.27340
      13 -> 23        -0.19021
 
 Excited State   6:      Singlet-A      6.2117 eV  199.60 nm  f=0.3542  <S**2>=0.000
      11 -> 16        -0.13495
      12 -> 14         0.49769
      13 -> 15         0.43090
 
 Excited State   7:      Singlet-A      6.3063 eV  196.60 nm  f=0.0005  <S**2>=0.000
      12 -> 17        -0.15296
      12 -> 19        -0.21053
      12 -> 20         0.10354
      12 -> 22         0.11359
      12 -> 23         0.16313
      13 -> 17         0.40281
      13 -> 19         0.25822
      13 -> 22        -0.20394
      13 -> 23        -0.24378
 
 Excited State   8:      Singlet-A      6.4527 eV  192.14 nm  f=0.1418  <S**2>=0.000
      12 -> 15         0.65326
      13 -> 14        -0.19846
 
 Excited State   9:      Singlet-A      6.5805 eV  188.41 nm  f=0.0044  <S**2>=0.000
      12 -> 22         0.10266
      13 -> 17        -0.44067
      13 -> 19         0.47323
      13 -> 20        -0.14545
 
 Excited State  10:      Singlet-A      6.8787 eV  180.24 nm  f=0.0030  <S**2>=0.000
       9 -> 15        -0.15015
      10 -> 14         0.15884
      10 -> 15         0.15618
      11 -> 14         0.61753
 
 Excited State  11:      Singlet-A      7.0698 eV  175.37 nm  f=0.0000  <S**2>=0.000
      12 -> 17         0.48054
      12 -> 18        -0.15014
      12 -> 19        -0.30078
      12 -> 20         0.23404
      12 -> 21        -0.11049
      12 -> 23        -0.10528
      13 -> 18         0.12960
      13 -> 22        -0.14919
 
 Excited State  12:      Singlet-A      7.4029 eV  167.48 nm  f=0.0016  <S**2>=0.000
       9 -> 14         0.15248
      10 -> 14        -0.16144
      11 -> 15        -0.15919
      12 -> 17         0.15650
      12 -> 19         0.32551
      12 -> 20         0.11248
      13 -> 17         0.14564
      13 -> 18        -0.12832
      13 -> 19         0.33766
      13 -> 20         0.26374
      13 -> 24        -0.10761
 
 Excited State  13:      Singlet-A      7.5146 eV  164.99 nm  f=0.0008  <S**2>=0.000
       9 -> 14        -0.27186
       9 -> 15         0.16832
      10 -> 14         0.44919
      10 -> 15         0.15230
      11 -> 14        -0.12551
      11 -> 15         0.23455
      12 -> 19         0.14030
      13 -> 17         0.10923
      13 -> 22         0.10967
 
 Excited State  14:      Singlet-A      7.6579 eV  161.90 nm  f=0.0027  <S**2>=0.000
      12 -> 18         0.16990
      12 -> 21        -0.18007
      12 -> 22         0.17291
      12 -> 23        -0.11471
      13 -> 17        -0.10980
      13 -> 18        -0.31719
      13 -> 21        -0.11037
      13 -> 22         0.38150
      13 -> 23        -0.21690
 
 Excited State  15:      Singlet-A      7.7547 eV  159.88 nm  f=0.0030  <S**2>=0.000
       9 -> 14         0.21265
      10 -> 14         0.20532
      10 -> 15         0.15066
      11 -> 14        -0.10088
      11 -> 15        -0.12544
      12 -> 18         0.34681
      13 -> 21         0.27943
      13 -> 22        -0.28209
      13 -> 24         0.14526
 SavETr:  write IOETrn=   770 NScale= 10 NData=  16 NLR=1 NState=   15 LETran=     280.
 The selected state is a singlet
 CISAX will form     1 AO SS matrices at one time.
 NMat=     1 NSing=     1 JSym2X= 0.
 Leave Link  914 at Tue Dec 15 16:18:50 2015, MaxMem=    33554432 cpu:         0.1
 (Enter /home/Applications/g09/g09/l1002.exe)
 Minotr:  Closed shell wavefunction.
          Computing CIS/TD-HF/TD-KS derivatives.
          Using Z-Vector for PSCF gradient.
          Skipping F1 and S1 gradient terms here.
          IDoAtm=111111111
          Direct CPHF calculation.
          Differentiating once with respect to electric field.
                with respect to dipole field.
          Differentiating once with respect to nuclear coordinates.
          Electric field/nuclear overlap derivatives assumed to be zero.
          Requested convergence is 1.0D-10 RMS, and 1.0D-09 maximum.
          NewPWx=T KeepS1=F KeepF1=F KeepIn=T MapXYZ=F SortEE=F KeepMc=T.
          MDV=      33495423 using IRadAn=       0.
 Keep J ints in memory in canonical form, NReq=871704.
 FoFCou: FMM=F IPFlag=           0 FMFlag=           0 FMFlg1=           0
         NFxFlg=           0 DoJE=F BraDBF=F KetDBF=F FulRan=T
         wScrn=  0.000000 ICntrl=     600 IOpCl=  2 I1Cent=           0 NGrid=           0
         NMat0=    1 NMatS0=     54 NMatT0=    0 NMatD0=    1 NMtDS0=    0 NMtDT0=    0
 Symmetry not used in FoFCou.
          Solving linear equations separately, MaxMat=       0.
          There are     1 degrees of freedom in the 1st order CPHF.  IDoFFX=0 NUNeed=     1.
 LinEq1:  Iter=  0 NonCon=     1 RMS=1.15D-02 Max=8.07D-02 NDo=     1
 AX will form     1 AO Fock derivatives at one time.
 LinEq1:  Iter=  1 NonCon=     1 RMS=2.13D-03 Max=1.23D-02 NDo=     1
 LinEq1:  Iter=  2 NonCon=     1 RMS=3.08D-04 Max=1.83D-03 NDo=     1
 LinEq1:  Iter=  3 NonCon=     1 RMS=3.88D-05 Max=2.17D-04 NDo=     1
 LinEq1:  Iter=  4 NonCon=     1 RMS=3.63D-06 Max=1.69D-05 NDo=     1
 LinEq1:  Iter=  5 NonCon=     1 RMS=5.11D-07 Max=2.62D-06 NDo=     1
 LinEq1:  Iter=  6 NonCon=     1 RMS=7.15D-08 Max=2.49D-07 NDo=     1
 LinEq1:  Iter=  7 NonCon=     1 RMS=1.10D-08 Max=7.18D-08 NDo=     1
 LinEq1:  Iter=  8 NonCon=     1 RMS=1.53D-09 Max=6.12D-09 NDo=     1
 LinEq1:  Iter=  9 NonCon=     1 RMS=1.97D-10 Max=7.41D-10 NDo=     1
 LinEq1:  Iter= 10 NonCon=     0 RMS=2.06D-11 Max=8.93D-11 NDo=     1
 Linear equations converged to 1.000D-10 1.000D-09 after    10 iterations.
 End of Minotr F.D. properties file   721 does not exist.
 End of Minotr F.D. properties file   722 does not exist.
 End of Minotr F.D. properties file   788 does not exist.
 Leave Link 1002 at Tue Dec 15 16:18:50 2015, MaxMem=    33554432 cpu:         0.0
 (Enter /home/Applications/g09/g09/l601.exe)
 Copying SCF densities to generalized density rwf, IOpCl= 0 IROHF=0.

 **********************************************************************

            Population analysis using the SCF density.

 **********************************************************************

 Orbital symmetries:
       Occupied  (A) (A) (A) (A) (A) (A) (A) (A) (A) (A) (A) (A)
                 (A)
       Virtual   (A) (A) (A) (A) (A) (A) (A) (A) (A) (A) (A)
 The electronic state is 1-A.
 Alpha  occ. eigenvalues --   -1.55818  -1.22720  -1.11235  -0.82179  -0.81399
 Alpha  occ. eigenvalues --   -0.68446  -0.59615  -0.56995  -0.51307  -0.50113
 Alpha  occ. eigenvalues --   -0.49211  -0.39489  -0.34947
 Alpha virt. eigenvalues --    0.03114   0.06559   0.09370   0.13729   0.14928
 Alpha virt. eigenvalues --    0.15775   0.17887   0.18496   0.19408   0.20744
 Alpha virt. eigenvalues --    0.22513
     Molecular Orbital Coefficients:
                           1         2         3         4         5
                           O         O         O         O         O
     Eigenvalues --    -1.55818  -1.22720  -1.11235  -0.82179  -0.81399
   1 1   C  1S          0.28546  -0.42741   0.34754  -0.42047  -0.09716
   2        1PX        -0.07142   0.09802   0.13510  -0.09829   0.25384
   3        1PY        -0.10992   0.01695  -0.12584  -0.11730  -0.23663
   4        1PZ         0.00177  -0.00277   0.00215  -0.00214  -0.00059
   5 2   C  1S          0.35498  -0.06398   0.52793   0.26457   0.33267
   6        1PX        -0.18088  -0.06716   0.00278  -0.02542   0.18239
   7        1PY         0.00072  -0.21698   0.05251  -0.33851   0.11377
   8        1PZ         0.00012  -0.00007   0.00124   0.00393   0.00323
   9 3   O  1S          0.63077   0.60692  -0.04449  -0.09985  -0.26416
  10        1PX         0.00597   0.02504   0.32308   0.46890  -0.18239
  11        1PY         0.19478  -0.02877  -0.00403   0.02888   0.15300
  12        1PZ         0.00023  -0.00023   0.00018   0.00294   0.00244
  13 4   C  1S          0.37359  -0.16416  -0.49568   0.02998   0.40862
  14        1PX         0.18118   0.04434  -0.00223  -0.12268  -0.10801
  15        1PY        -0.00343  -0.24154  -0.01497   0.33668  -0.14804
  16        1PZ         0.00127  -0.00120  -0.00265   0.00211   0.00390
  17 5   C  1S          0.30757  -0.49220  -0.24455   0.22238  -0.34383
  18        1PX         0.05945  -0.06330   0.17483  -0.26174  -0.12350
  19        1PY        -0.12166   0.03871   0.12393  -0.06158  -0.26881
  20        1PZ        -0.00193   0.00287   0.00100  -0.00017   0.00297
  21 6   H  1S          0.06905  -0.16489  -0.09527   0.14714  -0.23783
  22 7   H  1S          0.08190  -0.03641  -0.19142  -0.01523   0.27495
  23 8   H  1S          0.07850  -0.01007   0.20533   0.19970   0.21264
  24 9   H  1S          0.06130  -0.13522   0.13317  -0.26651  -0.05559
                           6         7         8         9        10
                           O         O         O         O         O
     Eigenvalues --    -0.68446  -0.59615  -0.56995  -0.51307  -0.50113
   1 1   C  1S         -0.09318  -0.00439   0.16760  -0.03418   0.05151
   2        1PX        -0.18506  -0.00840   0.10416  -0.33246  -0.44000
   3        1PY        -0.24276   0.00354   0.10673  -0.27564   0.26401
   4        1PZ        -0.00522   0.22736   0.00286  -0.00219   0.00156
   5 2   C  1S         -0.07420  -0.00436  -0.13142   0.10733  -0.03590
   6        1PX        -0.35002   0.00071  -0.43638  -0.15030   0.17069
   7        1PY         0.11312  -0.00256  -0.01718   0.09175  -0.38823
   8        1PZ        -0.01015   0.37826  -0.00372  -0.00120   0.00505
   9 3   O  1S         -0.19297  -0.00248  -0.00544  -0.07675  -0.06176
  10        1PX         0.03132  -0.00714   0.45779  -0.03047   0.05952
  11        1PY         0.47503   0.00927  -0.00549   0.08485  -0.08714
  12        1PZ        -0.01015   0.76788   0.01313   0.00555  -0.01467
  13 4   C  1S         -0.07694  -0.00766   0.14312  -0.04468   0.08314
  14        1PX         0.35277   0.01462  -0.42041  -0.24742  -0.03325
  15        1PY         0.09785  -0.00070   0.06288  -0.42772  -0.07041
  16        1PZ        -0.00677   0.39173   0.01195   0.00360  -0.00886
  17 5   C  1S         -0.08666   0.00405  -0.16369   0.03106  -0.00259
  18        1PX         0.18210   0.01147  -0.00036   0.19708   0.52078
  19        1PY        -0.26121  -0.00622  -0.11018   0.43603  -0.19263
  20        1PZ        -0.00443   0.24747   0.00599   0.00093  -0.00774
  21 6   H  1S         -0.24021  -0.00717  -0.16078   0.22464  -0.36577
  22 7   H  1S         -0.25580  -0.00736   0.32441   0.31350   0.11595
  23 8   H  1S         -0.25850   0.00731  -0.34591  -0.06510   0.26186
  24 9   H  1S         -0.23314  -0.00112   0.20201  -0.35588  -0.02151
                          11        12        13        14        15
                           O         O         O         V         V
     Eigenvalues --    -0.49211  -0.39489  -0.34947   0.03114   0.06559
   1 1   C  1S         -0.04845  -0.00769  -0.00425   0.01010   0.01193
   2        1PX         0.11505   0.00192   0.00077  -0.00221   0.00262
   3        1PY         0.40585  -0.00522  -0.00784   0.00318   0.00472
   4        1PZ         0.00428   0.50774   0.48460  -0.39996  -0.54303
   5 2   C  1S          0.02781   0.00039  -0.00448  -0.01314  -0.00818
   6        1PX        -0.07408  -0.00206  -0.01230  -0.00845  -0.00789
   7        1PY        -0.32188   0.00364   0.01300   0.01277   0.00402
   8        1PZ         0.00459   0.06989   0.61125   0.61448   0.31561
   9 3   O  1S         -0.18393   0.00023   0.00183   0.00467   0.00103
  10        1PX         0.02215   0.00043   0.00242   0.00058   0.00202
  11        1PY         0.62143  -0.00188  -0.00294   0.00852   0.00236
  12        1PZ        -0.00748  -0.52220  -0.07061  -0.36149   0.03674
  13 4   C  1S          0.05797  -0.00471   0.00531  -0.01222   0.00719
  14        1PX         0.14538   0.00067  -0.00845  -0.00070  -0.00898
  15        1PY        -0.22536  -0.00259   0.00370   0.00671  -0.00088
  16        1PZ        -0.00571   0.26444  -0.55126   0.51212  -0.45783
  17 5   C  1S         -0.04846   0.00894  -0.00509  -0.00527   0.00359
  18        1PX        -0.08029   0.00336  -0.00256  -0.00914  -0.00378
  19        1PY         0.26567  -0.00209   0.00227  -0.00386   0.00356
  20        1PZ        -0.00017   0.62805  -0.28647  -0.26107   0.62744
  21 6   H  1S          0.19508  -0.00232   0.00220   0.00195  -0.00688
  22 7   H  1S          0.02575   0.00210  -0.00189   0.01042  -0.00982
  23 8   H  1S          0.10531  -0.00132  -0.00120   0.01586   0.01042
  24 9   H  1S          0.29111   0.00116   0.00081  -0.00701  -0.01123
                          16        17        18        19        20
                           V         V         V         V         V
     Eigenvalues --     0.09370   0.13729   0.14928   0.15775   0.17887
   1 1   C  1S          0.04829  -0.30698  -0.21307  -0.12167  -0.39590
   2        1PX        -0.02612   0.24570  -0.18731  -0.34786   0.06130
   3        1PY         0.05620  -0.07650   0.37243  -0.14155  -0.31934
   4        1PZ         0.01257  -0.01687  -0.00598  -0.00282  -0.01459
   5 2   C  1S         -0.27029   0.13429   0.46591   0.03275  -0.11427
   6        1PX         0.25223   0.17707   0.11705  -0.36155   0.06064
   7        1PY         0.33137  -0.01299   0.19375  -0.00598   0.16969
   8        1PZ        -0.02001   0.01431   0.01049  -0.00866   0.00260
   9 3   O  1S          0.24239  -0.00634   0.04043  -0.03105   0.05012
  10        1PX         0.01402   0.04039  -0.16989  -0.28976   0.12018
  11        1PY         0.48696  -0.01538   0.05534  -0.03517   0.07014
  12        1PZ         0.00617  -0.00005  -0.00360   0.00254  -0.00219
  13 4   C  1S         -0.25584  -0.32244   0.05462  -0.32468   0.22755
  14        1PX        -0.26734   0.30860  -0.22494  -0.13986  -0.24762
  15        1PY         0.35104  -0.02071   0.11251  -0.14593  -0.00963
  16        1PZ        -0.00978  -0.01467   0.00674  -0.00725   0.00892
  17 5   C  1S          0.02869   0.30383   0.11349   0.15105   0.07536
  18        1PX        -0.01550   0.23963  -0.08649  -0.36414   0.42374
  19        1PY         0.05182  -0.11010   0.23775  -0.20315   0.12722
  20        1PZ         0.00203   0.00176  -0.00275   0.00085  -0.00272
  21 6   H  1S         -0.13423  -0.04430  -0.36866  -0.16052   0.05100
  22 7   H  1S          0.25859   0.54835  -0.18176   0.08089  -0.32942
  23 8   H  1S          0.29512  -0.28926  -0.40790   0.25795   0.10922
  24 9   H  1S         -0.12118   0.19888   0.01645   0.42920   0.48182
                          21        22        23        24
                           V         V         V         V
     Eigenvalues --     0.18496   0.19408   0.20744   0.22513
   1 1   C  1S         -0.04334  -0.22906   0.13233  -0.01266
   2        1PX        -0.38878  -0.06733  -0.27422  -0.28038
   3        1PY         0.07570   0.30115  -0.38817   0.06607
   4        1PZ        -0.00572  -0.00027  -0.00233   0.00096
   5 2   C  1S          0.16457   0.07620  -0.08250  -0.10901
   6        1PX         0.19413  -0.38545   0.17627   0.31307
   7        1PY         0.06860   0.41262  -0.23947   0.37117
   8        1PZ         0.00547  -0.01225   0.00664  -0.00074
   9 3   O  1S          0.05213  -0.06743  -0.00317   0.00508
  10        1PX        -0.06255   0.04129   0.00521   0.53992
  11        1PY         0.06560  -0.24247  -0.02012  -0.00792
  12        1PZ        -0.00023   0.00240  -0.00097   0.00136
  13 4   C  1S         -0.06112   0.13829   0.14576   0.08499
  14        1PX        -0.06541   0.35004   0.26298   0.24358
  15        1PY         0.17706   0.24611   0.33497  -0.43823
  16        1PZ        -0.00523  -0.00162   0.00090  -0.00151
  17 5   C  1S         -0.41240  -0.18902  -0.23469   0.04986
  18        1PX         0.06939   0.13003  -0.19123  -0.30435
  19        1PY        -0.35016   0.21339   0.45803  -0.08545
  20        1PZ         0.01347   0.00429   0.00714  -0.00031
  21 6   H  1S          0.58152   0.05120  -0.20390  -0.09034
  22 7   H  1S          0.06666   0.21120   0.17420  -0.03332
  23 8   H  1S         -0.21799   0.33857  -0.13383  -0.00350
  24 9   H  1S          0.18322   0.01395   0.25879   0.08540
     Density Matrix:
                           1         2         3         4         5
   1 1   C  1S          1.22845
   2        1PX         0.03836   0.93918
   3        1PY         0.06776   0.04428   0.95755
   4        1PZ        -0.00530   0.00238  -0.00288   1.08883
   5 2   C  1S          0.29330   0.16306  -0.48012  -0.00389   1.25177
   6        1PX        -0.10386   0.08231   0.14630  -0.01233   0.10911
   7        1PY         0.44289   0.25705  -0.57085   0.01223  -0.00240
   8        1PZ        -0.01172  -0.00358   0.00075   0.83553  -0.00097
   9 3   O  1S         -0.00347   0.03576  -0.00556   0.00085   0.10239
  10        1PX         0.00141  -0.03655   0.04316   0.00181   0.33441
  11        1PY        -0.08642   0.02357   0.05798  -0.00033   0.24472
  12        1PZ         0.00452  -0.00038   0.00091  -0.24952  -0.00302
  13 4   C  1S         -0.02712   0.01037   0.02005  -0.00106   0.01209
  14        1PX        -0.01919  -0.03969   0.01819  -0.00369  -0.00072
  15        1PY        -0.01358   0.07914  -0.03102  -0.00031  -0.03806
  16        1PZ        -0.00079   0.00311   0.00121  -0.08758   0.00265
  17 5   C  1S          0.26962  -0.45636   0.03712   0.00761  -0.02791
  18        1PX         0.46745  -0.66037   0.07340   0.00689  -0.01232
  19        1PY         0.02402  -0.05135   0.11533  -0.00042   0.01805
  20        1PZ        -0.01070   0.00950  -0.00271   0.47269   0.00193
  21 6   H  1S         -0.04436   0.05534   0.00485  -0.00195   0.05243
  22 7   H  1S          0.04869  -0.07016   0.00508   0.00010   0.04876
  23 8   H  1S         -0.05969  -0.02843   0.09464   0.00366   0.62328
  24 9   H  1S          0.58312   0.47583   0.61467   0.01178  -0.05373
                           6         7         8         9        10
   6        1PX         0.88291
   7        1PY        -0.08907   0.90679
   8        1PZ        -0.00208   0.00344   1.04358
   9 3   O  1S         -0.23222  -0.15078  -0.00032   1.85754
  10        1PX        -0.48945  -0.41049  -0.00224  -0.01596   1.14750
  11        1PY        -0.48726  -0.18170  -0.00057  -0.28963   0.00612
  12        1PZ        -0.00425   0.00360   0.42152   0.00130  -0.00081
  13 4   C  1S         -0.00627  -0.03986   0.00377   0.09773  -0.30345
  14        1PX         0.05700   0.02005  -0.00325   0.22109  -0.41821
  15        1PY        -0.02305  -0.01707   0.00111  -0.16639   0.41935
  16        1PZ         0.00507  -0.00543  -0.34066  -0.00083  -0.00024
  17 5   C  1S          0.01733  -0.01561  -0.00042  -0.00185  -0.00474
  18        1PX        -0.04043  -0.08038   0.00397  -0.03526  -0.03257
  19        1PY        -0.01265  -0.02011   0.00140  -0.00203  -0.03402
  20        1PZ         0.00119   0.00059  -0.07523  -0.00004  -0.00063
  21 6   H  1S         -0.01048   0.05881   0.00000   0.02514  -0.05498
  22 7   H  1S         -0.08724  -0.04940  -0.00294  -0.04276   0.03784
  23 8   H  1S          0.61776  -0.39051   0.01893  -0.04128  -0.05039
  24 9   H  1S          0.03338  -0.05512   0.00475   0.02193   0.05275
                          11        12        13        14        15
  11        1PY         1.37955
  12        1PZ         0.00204   1.73581
  13 4   C  1S          0.26091  -0.00384   1.23774
  14        1PX         0.51248  -0.00038  -0.11410   0.89289
  15        1PY        -0.26133   0.00283  -0.00582   0.09367   0.89216
  16        1PZ        -0.00009   0.40415  -0.00506   0.00246  -0.00416
  17 5   C  1S         -0.07724  -0.00389   0.32364   0.13603   0.45253
  18        1PX        -0.01140  -0.00316  -0.19342   0.07971  -0.28494
  19        1PY         0.05425  -0.00047  -0.48124  -0.18561  -0.51401
  20        1PZ         0.00090  -0.23492  -0.01271   0.00371  -0.00786
  21 6   H  1S          0.09062   0.00184  -0.05256  -0.03856  -0.04425
  22 7   H  1S         -0.06293   0.00141   0.61325  -0.63715  -0.37429
  23 8   H  1S         -0.06133   0.00129   0.04638   0.08583  -0.05307
  24 9   H  1S          0.07959  -0.00239   0.05246   0.01481   0.05395
                          16        17        18        19        20
  16        1PZ         1.05522
  17 5   C  1S          0.01311   1.20417
  18        1PX         0.00153  -0.03205   0.94336
  19        1PY        -0.00747   0.06747  -0.04406   0.97189
  20        1PZ         0.84224   0.00846   0.00120  -0.00295   1.07579
  21 6   H  1S         -0.00415   0.57146  -0.43382   0.65807  -0.00438
  22 7   H  1S          0.01194  -0.06150   0.03414   0.08849   0.00574
  23 8   H  1S         -0.00309   0.04285   0.06178   0.00158  -0.00218
  24 9   H  1S         -0.00047  -0.05056  -0.07030   0.00024   0.00350
                          21        22        23        24
  21 6   H  1S          0.85034
  22 7   H  1S          0.00925   0.80728
  23 8   H  1S         -0.01175  -0.02113   0.80790
  24 9   H  1S         -0.00781  -0.01632   0.01409   0.84184
    Full Mulliken population analysis:
                           1         2         3         4         5
   1 1   C  1S          1.22845
   2        1PX         0.00000   0.93918
   3        1PY         0.00000   0.00000   0.95755
   4        1PZ         0.00000   0.00000   0.00000   1.08883
   5 2   C  1S          0.00000   0.00000   0.00000   0.00000   1.25177
   6        1PX         0.00000   0.00000   0.00000   0.00000   0.00000
   7        1PY         0.00000   0.00000   0.00000   0.00000   0.00000
   8        1PZ         0.00000   0.00000   0.00000   0.00000   0.00000
   9 3   O  1S          0.00000   0.00000   0.00000   0.00000   0.00000
  10        1PX         0.00000   0.00000   0.00000   0.00000   0.00000
  11        1PY         0.00000   0.00000   0.00000   0.00000   0.00000
  12        1PZ         0.00000   0.00000   0.00000   0.00000   0.00000
  13 4   C  1S          0.00000   0.00000   0.00000   0.00000   0.00000
  14        1PX         0.00000   0.00000   0.00000   0.00000   0.00000
  15        1PY         0.00000   0.00000   0.00000   0.00000   0.00000
  16        1PZ         0.00000   0.00000   0.00000   0.00000   0.00000
  17 5   C  1S          0.00000   0.00000   0.00000   0.00000   0.00000
  18        1PX         0.00000   0.00000   0.00000   0.00000   0.00000
  19        1PY         0.00000   0.00000   0.00000   0.00000   0.00000
  20        1PZ         0.00000   0.00000   0.00000   0.00000   0.00000
  21 6   H  1S          0.00000   0.00000   0.00000   0.00000   0.00000
  22 7   H  1S          0.00000   0.00000   0.00000   0.00000   0.00000
  23 8   H  1S          0.00000   0.00000   0.00000   0.00000   0.00000
  24 9   H  1S          0.00000   0.00000   0.00000   0.00000   0.00000
                           6         7         8         9        10
   6        1PX         0.88291
   7        1PY         0.00000   0.90679
   8        1PZ         0.00000   0.00000   1.04358
   9 3   O  1S          0.00000   0.00000   0.00000   1.85754
  10        1PX         0.00000   0.00000   0.00000   0.00000   1.14750
  11        1PY         0.00000   0.00000   0.00000   0.00000   0.00000
  12        1PZ         0.00000   0.00000   0.00000   0.00000   0.00000
  13 4   C  1S          0.00000   0.00000   0.00000   0.00000   0.00000
  14        1PX         0.00000   0.00000   0.00000   0.00000   0.00000
  15        1PY         0.00000   0.00000   0.00000   0.00000   0.00000
  16        1PZ         0.00000   0.00000   0.00000   0.00000   0.00000
  17 5   C  1S          0.00000   0.00000   0.00000   0.00000   0.00000
  18        1PX         0.00000   0.00000   0.00000   0.00000   0.00000
  19        1PY         0.00000   0.00000   0.00000   0.00000   0.00000
  20        1PZ         0.00000   0.00000   0.00000   0.00000   0.00000
  21 6   H  1S          0.00000   0.00000   0.00000   0.00000   0.00000
  22 7   H  1S          0.00000   0.00000   0.00000   0.00000   0.00000
  23 8   H  1S          0.00000   0.00000   0.00000   0.00000   0.00000
  24 9   H  1S          0.00000   0.00000   0.00000   0.00000   0.00000
                          11        12        13        14        15
  11        1PY         1.37955
  12        1PZ         0.00000   1.73581
  13 4   C  1S          0.00000   0.00000   1.23774
  14        1PX         0.00000   0.00000   0.00000   0.89289
  15        1PY         0.00000   0.00000   0.00000   0.00000   0.89216
  16        1PZ         0.00000   0.00000   0.00000   0.00000   0.00000
  17 5   C  1S          0.00000   0.00000   0.00000   0.00000   0.00000
  18        1PX         0.00000   0.00000   0.00000   0.00000   0.00000
  19        1PY         0.00000   0.00000   0.00000   0.00000   0.00000
  20        1PZ         0.00000   0.00000   0.00000   0.00000   0.00000
  21 6   H  1S          0.00000   0.00000   0.00000   0.00000   0.00000
  22 7   H  1S          0.00000   0.00000   0.00000   0.00000   0.00000
  23 8   H  1S          0.00000   0.00000   0.00000   0.00000   0.00000
  24 9   H  1S          0.00000   0.00000   0.00000   0.00000   0.00000
                          16        17        18        19        20
  16        1PZ         1.05522
  17 5   C  1S          0.00000   1.20417
  18        1PX         0.00000   0.00000   0.94336
  19        1PY         0.00000   0.00000   0.00000   0.97189
  20        1PZ         0.00000   0.00000   0.00000   0.00000   1.07579
  21 6   H  1S          0.00000   0.00000   0.00000   0.00000   0.00000
  22 7   H  1S          0.00000   0.00000   0.00000   0.00000   0.00000
  23 8   H  1S          0.00000   0.00000   0.00000   0.00000   0.00000
  24 9   H  1S          0.00000   0.00000   0.00000   0.00000   0.00000
                          21        22        23        24
  21 6   H  1S          0.85034
  22 7   H  1S          0.00000   0.80728
  23 8   H  1S          0.00000   0.00000   0.80790
  24 9   H  1S          0.00000   0.00000   0.00000   0.84184
     Gross orbital populations:
                           1
   1 1   C  1S          1.22845
   2        1PX         0.93918
   3        1PY         0.95755
   4        1PZ         1.08883
   5 2   C  1S          1.25177
   6        1PX         0.88291
   7        1PY         0.90679
   8        1PZ         1.04358
   9 3   O  1S          1.85754
  10        1PX         1.14750
  11        1PY         1.37955
  12        1PZ         1.73581
  13 4   C  1S          1.23774
  14        1PX         0.89289
  15        1PY         0.89216
  16        1PZ         1.05522
  17 5   C  1S          1.20417
  18        1PX         0.94336
  19        1PY         0.97189
  20        1PZ         1.07579
  21 6   H  1S          0.85034
  22 7   H  1S          0.80728
  23 8   H  1S          0.80790
  24 9   H  1S          0.84184
          Condensed to atoms (all electrons):
               1          2          3          4          5          6
     1  C    4.214005   0.000000   0.000000   0.000000   0.000000   0.000000
     2  C    0.000000   4.085046   0.000000   0.000000   0.000000   0.000000
     3  O    0.000000   0.000000   6.120398   0.000000   0.000000   0.000000
     4  C    0.000000   0.000000   0.000000   4.078003   0.000000   0.000000
     5  C    0.000000   0.000000   0.000000   0.000000   4.195197   0.000000
     6  H    0.000000   0.000000   0.000000   0.000000   0.000000   0.850335
     7  H    0.000000   0.000000   0.000000   0.000000   0.000000   0.000000
     8  H    0.000000   0.000000   0.000000   0.000000   0.000000   0.000000
     9  H    0.000000   0.000000   0.000000   0.000000   0.000000   0.000000
               7          8          9
     1  C    0.000000   0.000000   0.000000
     2  C    0.000000   0.000000   0.000000
     3  O    0.000000   0.000000   0.000000
     4  C    0.000000   0.000000   0.000000
     5  C    0.000000   0.000000   0.000000
     6  H    0.000000   0.000000   0.000000
     7  H    0.807278   0.000000   0.000000
     8  H    0.000000   0.807900   0.000000
     9  H    0.000000   0.000000   0.841839
 Mulliken charges:
               1
     1  C   -0.214005
     2  C   -0.085046
     3  O   -0.120398
     4  C   -0.078003
     5  C   -0.195197
     6  H    0.149665
     7  H    0.192722
     8  H    0.192100
     9  H    0.158161
 Sum of Mulliken charges =   0.00000
 Mulliken charges with hydrogens summed into heavy atoms:
               1
     1  C   -0.055844
     2  C    0.107054
     3  O   -0.120398
     4  C    0.114719
     5  C   -0.045532
 Charge=              0.0000 electrons
 Dipole moment (field-independent basis, Debye):
    X=              0.0330    Y=              0.3338    Z=              0.0796  Tot=              0.3448
 N-N= 1.035341827832D+02 E-N=-1.712038900003D+02  KE=-1.655846816318D+01
 Orbital energies and kinetic energies (alpha):
                                 1                 2
   1         O                -1.558177         -1.313151
   2         O                -1.227202         -1.041056
   3         O                -1.112349         -0.971511
   4         O                -0.821794         -0.708521
   5         O                -0.813994         -0.724448
   6         O                -0.684464         -0.603837
   7         O                -0.596155         -0.485836
   8         O                -0.569945         -0.506753
   9         O                -0.513074         -0.439837
  10         O                -0.501129         -0.426264
  11         O                -0.492110         -0.401412
  12         O                -0.394892         -0.340661
  13         O                -0.349470         -0.315947
  14         V                 0.031143         -0.195402
  15         V                 0.065591         -0.189236
  16         V                 0.093696         -0.188214
  17         V                 0.137285         -0.233051
  18         V                 0.149276         -0.200209
  19         V                 0.157750         -0.170340
  20         V                 0.178873         -0.188101
  21         V                 0.184960         -0.196769
  22         V                 0.194080         -0.119803
  23         V                 0.207436         -0.119613
  24         V                 0.225127         -0.046808
 Total kinetic energy from orbitals=-1.655846816318D+01
 Leave Link  601 at Tue Dec 15 16:18:50 2015, MaxMem=    33554432 cpu:         0.0
 (Enter /home/Applications/g09/g09/l701.exe)
 Compute integral first derivatives.
 ... and contract with generalized density number  6.
 Leave Link  701 at Tue Dec 15 16:18:50 2015, MaxMem=    33554432 cpu:         0.0
 (Enter /home/Applications/g09/g09/l702.exe)
 L702 exits ... SP integral derivatives will be done elsewhere.
 Leave Link  702 at Tue Dec 15 16:18:50 2015, MaxMem=    33554432 cpu:         0.0
 (Enter /home/Applications/g09/g09/l703.exe)
 Compute integral first derivatives, UseDBF=F ICtDFT=           0.
 Integral derivatives from FoFJK, PRISM(SPDF).
 Calling FoFJK, ICntrl=  10005127 FMM=F ISym2X=0 I1Cent= 0 IOpClX= 0 NMat=1 NMatS=1 NMatT=0.
 FoFJK:  IHMeth= 8 ICntrl=10005127 DoSepK=F KAlg= 0 I1Cent=   0 FoldK=F
 IRaf=         0 NMat=   1 IRICut=       1 DoRegI=T DoRafI=F ISym2E= 0.
 FoFCou: FMM=F IPFlag=           0 FMFlag=      100000 FMFlg1=         800
         NFxFlg=           0 DoJE=F BraDBF=F KetDBF=F FulRan=T
         wScrn=  0.000000 ICntrl=10005127 IOpCl=  0 I1Cent=           0 NGrid=           0
         NMat0=    1 NMatS0=      1 NMatT0=    0 NMatD0=    1 NMtDS0=    0 NMtDT0=    0
 Symmetry not used in FoFCou.
 Leave Link  703 at Tue Dec 15 16:18:50 2015, MaxMem=    33554432 cpu:         0.0
 (Enter /home/Applications/g09/g09/l716.exe)
 Dipole        = 3.55983183D-02 2.25046027D-01 6.22843966D-02
 ***** Axes restored to original set *****
 -------------------------------------------------------------------
 Center     Atomic                   Forces (Hartrees/Bohr)
 Number     Number              X              Y              Z
 -------------------------------------------------------------------
      1        6           0.069872482    0.022098737    0.003714821
      2        6          -0.023204492   -0.005250211   -0.000641248
      3        8          -0.109258003   -0.015714366   -0.003082465
      4        6          -0.095714515    0.050655224    0.001450130
      5        6           0.146982644   -0.051429896   -0.002246358
      6        1           0.020379044    0.010251002    0.001192727
      7        1          -0.002477924    0.005870213   -0.000442743
      8        1          -0.014708898   -0.019539260    0.001006805
      9        1           0.008129663    0.003058557   -0.000951671
 -------------------------------------------------------------------
 Cartesian Forces:  Max     0.146982644 RMS     0.045283430
 Z-matrix is all fixed cartesians, so copy forces.
 Force constants in Cartesian coordinates: 
                1             2             3             4             5 
      1  0.862323D+00
      2 -0.387979D-01  0.781934D+00
      3  0.102315D-01 -0.651204D-02  0.193279D+00
      4 -0.461744D+00 -0.101142D+00 -0.130832D-02  0.874996D+00
      5 -0.784209D-01 -0.207815D+00  0.140381D-02  0.428324D-01  0.908232D+00
      6  0.128747D-02  0.209339D-02 -0.955082D-01 -0.342585D-02 -0.194475D-01
      7 -0.908930D-02  0.293639D-01 -0.331873D-03 -0.262030D+00  0.154018D+00
      8 -0.605954D-02  0.195888D-01 -0.190915D-03  0.196784D+00 -0.379154D+00
      9  0.208896D-03 -0.215357D-03  0.576031D-02 -0.206670D-02  0.480237D-02
     10  0.117023D-01  0.237166D-03  0.540144D-03  0.249132D-01  0.166200D-01
     11  0.352165D-01  0.711851D-03  0.153205D-02 -0.180118D-01 -0.120163D-01
     12  0.850297D-03 -0.312494D-04 -0.287746D-02  0.186397D-03  0.160062D-03
     13 -0.168053D+00  0.165297D-01 -0.153947D-02  0.104170D-01 -0.336646D-01
     14 -0.608715D-02 -0.397293D+00 -0.321983D-02  0.212878D-03 -0.686908D-03
     15 -0.121831D-02 -0.286562D-02 -0.795865D-01  0.140588D-03 -0.386998D-03
     16  0.169417D-01  0.346701D-03 -0.101834D-03  0.000000D+00  0.000000D+00
     17 -0.238600D-01 -0.489657D-03  0.436945D-03  0.000000D+00  0.000000D+00
     18 -0.844937D-03 -0.977445D-04  0.171307D-01  0.735255D-05 -0.176021D-04
     19  0.819145D-05  0.171010D-05 -0.328387D-03  0.000000D+00  0.000000D+00
     20  0.804817D-05  0.168019D-05 -0.322643D-03  0.000000D+00  0.000000D+00
     21 -0.237497D-03 -0.495816D-04  0.952101D-02 -0.383365D-04  0.440506D-04
     22  0.803852D-02 -0.259746D-01  0.134822D-02 -0.180986D+00 -0.119367D+00
     23 -0.428773D-02  0.138569D-01  0.577509D-03 -0.113762D+00 -0.330902D+00
     24 -0.109942D-03  0.400109D-03  0.275093D-01  0.662839D-02  0.130041D-01
     25 -0.260127D+00  0.119435D+00 -0.850999D-02 -0.556530D-02  0.179823D-01
     26  0.122289D+00 -0.210495D+00  0.629511D-02 -0.691408D-02  0.223427D-01
     27 -0.101675D-01  0.727810D-02 -0.752287D-01 -0.123525D-03  0.437633D-03
                6             7             8             9            10 
      6  0.185699D+00
      7 -0.242730D-02  0.505337D+00
      8  0.587626D-02 -0.243273D-02  0.711012D+00
      9 -0.434887D-01  0.283094D-02 -0.713029D-02  0.550049D-01
     10 -0.557716D-04 -0.268069D+00 -0.195432D+00  0.141822D-02  0.101558D+01
     11  0.107522D-03 -0.151388D+00 -0.355976D+00  0.268954D-02 -0.846908D-01
     12 -0.147915D-02 -0.213281D-04  0.121096D-02 -0.472798D-01  0.884696D-02
     13 -0.396921D-03 -0.991250D-02  0.716437D-02 -0.649933D-03 -0.599216D+00
     14 -0.777269D-04 -0.297624D-01  0.215144D-01 -0.115486D-02  0.148764D+00
     15 -0.854747D-03  0.273342D-03 -0.195981D-03  0.728323D-02 -0.120778D-01
     16  0.577896D-04  0.171424D-05 -0.160763D-05 -0.969077D-04 -0.588331D-02
     17 -0.165713D-04 -0.487742D-05  0.457408D-05  0.275726D-03  0.825805D-02
     18  0.377884D-02 -0.143797D-03  0.134854D-03  0.812901D-02 -0.132584D-02
     19  0.572288D-04  0.210036D-01 -0.151876D-01 -0.450796D-03 -0.179034D+00
     20 -0.250446D-04  0.123315D-01 -0.891707D-02 -0.324482D-03  0.106245D+00
     21  0.429858D-02 -0.167790D-03  0.137988D-03  0.438838D-02  0.280432D-02
     22  0.621582D-02  0.227578D-01  0.151661D-01 -0.112187D-02 -0.110159D-05
     23  0.117174D-01 -0.121239D-01 -0.807598D-02  0.816112D-03 -0.142782D-05
     24 -0.760437D-01  0.860128D-05  0.808539D-04  0.463726D-02 -0.427720D-04
     25 -0.131247D-02  0.000000D+00  0.000000D+00 -0.718473D-04  0.564149D-05
     26 -0.227808D-03  0.000000D+00  0.330628D-05  0.241247D-03  0.000000D+00
     27  0.235983D-01 -0.207962D-04  0.762730D-04  0.556535D-02 -0.107481D-03
               11            12            13            14            15 
     11  0.883346D+00
     12 -0.336091D-02  0.236477D+00
     13  0.123607D+00 -0.122473D-01  0.103067D+01
     14 -0.247142D+00  0.391592D-02 -0.144090D-01  0.812639D+00
     15  0.463987D-02 -0.132052D+00  0.102471D-01 -0.380465D-02  0.231074D+00
     16 -0.176583D-01  0.245022D-03 -0.290538D+00 -0.124972D+00  0.247854D-02
     17  0.248272D-01  0.248866D-03 -0.126701D+00 -0.204657D+00  0.149033D-02
     18 -0.156758D-02  0.346412D-01  0.414076D-02  0.295589D-02 -0.901162D-01
     19  0.112923D+00  0.224257D-02  0.861528D-02  0.258866D-01  0.498865D-04
     20 -0.293752D+00 -0.227888D-02  0.506335D-02  0.151753D-01 -0.524871D-03
     21 -0.406721D-02 -0.965350D-01 -0.450983D-03  0.147793D-02  0.406234D-01
     22  0.126578D-05  0.123519D-03  0.000000D+00  0.000000D+00 -0.107795D-03
     23  0.164064D-05  0.160098D-03  0.000000D+00 -0.167117D-05  0.358769D-03
     24  0.491472D-04  0.479593D-02  0.124476D-04 -0.297998D-04  0.639745D-02
     25  0.117776D-05 -0.226161D-03  0.180142D-01  0.367132D-03  0.214467D-03
     26  0.000000D+00 -0.248638D-04  0.224088D-01  0.451891D-03  0.128915D-02
     27 -0.224385D-04  0.430880D-02  0.884310D-03 -0.628758D-04  0.172308D-01
               16            17            18            19            20 
     16  0.279479D+00
     17  0.142291D+00  0.180298D+00
     18 -0.266931D-02 -0.195203D-02  0.475128D-01
     19 -0.617976D-05  0.175829D-04  0.518383D-03  0.149413D+00
     20 -0.607167D-05  0.172753D-04  0.509316D-03 -0.123642D+00  0.287475D+00
     21  0.179172D-03 -0.509786D-03 -0.150296D-01 -0.208889D-02  0.296661D-02
     22  0.000000D+00  0.000000D+00  0.000000D+00  0.000000D+00  0.000000D+00
     23  0.000000D+00  0.000000D+00  0.000000D+00  0.000000D+00  0.000000D+00
     24  0.000000D+00  0.000000D+00  0.000000D+00  0.000000D+00  0.000000D+00
     25  0.485373D-05 -0.139182D-05  0.317383D-03  0.000000D+00  0.000000D+00
     26  0.000000D+00  0.000000D+00  0.348926D-04  0.000000D+00  0.000000D+00
     27 -0.924726D-04  0.265168D-04 -0.604674D-02  0.000000D+00  0.000000D+00
               21            22            23            24            25 
     21  0.527333D-01
     22  0.000000D+00  0.150194D+00
     23  0.000000D+00  0.130167D+00  0.325145D+00
     24  0.000000D+00 -0.662396D-02 -0.130772D-01  0.425594D-01
     25  0.000000D+00 -0.214386D-05  0.713529D-05  0.127234D-03  0.247670D+00
     26  0.000000D+00  0.719857D-05 -0.239586D-04 -0.427223D-03 -0.137791D+00
     27  0.000000D+00  0.166065D-03 -0.552705D-03 -0.985567D-02  0.946138D-02
               26            27 
     26  0.187721D+00
     27 -0.718050D-02  0.404278D-01
 Leave Link  716 at Tue Dec 15 16:18:50 2015, MaxMem=    33554432 cpu:         0.0
 (Enter /home/Applications/g09/g09/l103.exe)

 GradGradGradGradGradGradGradGradGradGradGradGradGradGradGradGradGradGrad
 Berny optimization.
 Search for a local minimum.
 Step number   1 out of a maximum of    2
 All quantities printed in internal units (Hartrees-Bohrs-Radians)
 Second derivative matrix not updated -- first step.
 ITU=  0
     Eigenvalues ---    0.01877   0.03263   0.07162   0.07571   0.08006
     Eigenvalues ---    0.08711   0.13110   0.14944   0.16639   0.24625
     Eigenvalues ---    0.26399   0.31920   0.43136   0.45393   0.64104
     Eigenvalues ---    0.85015   1.05560   1.33327   1.42983   1.50059
     Eigenvalues ---    1.78191
 Quadratic step=5.167D-01 exceeds max=3.000D-01 adjusted using Lamda=-1.853D-01.
 Angle between NR and scaled steps=  16.67 degrees.
 Angle between quadratic step and forces=  33.04 degrees.
 Linear search not attempted -- first point.
 TrRot= -0.012967 -0.001787 -0.000450 -1.260146 -0.000190  1.260594
 MatCor failed.
 Variable       Old X    -DE/DX   Delta X   Delta X   Delta X     New X
                                 (Linear)    (Quad)   (Total)
    X1        1.79210   0.06987   0.00000   0.09661   0.08425   1.87635
    Y1       -1.38357   0.02210   0.00000   0.01457   0.01362  -1.36995
    Z1       -0.01824   0.00371   0.00000   0.00757   0.00748  -0.01076
    X2       -0.69992  -0.02320   0.00000  -0.02692  -0.03893  -0.73885
    Y2       -2.15472  -0.00525   0.00000   0.01955   0.01743  -2.13729
    Z2       -0.01698  -0.00064   0.00000   0.00084   0.00073  -0.01625
    X3       -2.13924  -0.10926   0.00000  -0.18726  -0.20022  -2.33945
    Y3        0.00249  -0.01571   0.00000  -0.01640  -0.01924  -0.01675
    Z3       -0.05192  -0.00308   0.00000  -0.00836  -0.00894  -0.06087
    X4       -0.61096  -0.09571   0.00000  -0.05398  -0.06789  -0.67885
    Y4        2.11625   0.05066   0.00000  -0.00373  -0.00583   2.11042
    Z4       -0.05996   0.00145   0.00000   0.00699   0.00612  -0.05384
    X5        1.73654   0.14698   0.00000   0.13914   0.12559   1.86213
    Y5        1.33487  -0.05143   0.00000  -0.02106  -0.02201   1.31286
    Z5       -0.00547  -0.00225   0.00000  -0.00706  -0.00764  -0.01311
    X6        3.37482   0.02038   0.00000   0.11608   0.10198   3.47680
    Y6        2.49884   0.01025   0.00000   0.02710   0.02687   2.52570
    Z6       -0.02542   0.00119   0.00000   0.00039  -0.00032  -0.02574
    X7       -1.64394  -0.00248   0.00000  -0.01217  -0.02688  -1.67082
    Y7        3.87599   0.00587   0.00000   0.02343   0.02090   3.89689
    Z7       -0.03595  -0.00044   0.00000   0.00334   0.00209  -0.03386
    X8       -1.63443  -0.01471   0.00000  -0.02412  -0.03532  -1.66976
    Y8       -3.90884  -0.01954   0.00000  -0.02915  -0.03167  -3.94051
    Z8        0.06564   0.00101   0.00000   0.00135   0.00151   0.06716
    X9        3.38115   0.00813   0.00000   0.06919   0.05741   3.43856
    Y9       -2.66399   0.00306   0.00000   0.00016  -0.00007  -2.66406
    Z9        0.05778  -0.00095   0.00000  -0.00126  -0.00102   0.05676
         Item               Value     Threshold  Converged?
 Maximum Force            0.146983     0.000450     NO 
 RMS     Force            0.045283     0.000300     NO 
 Maximum Displacement     0.200215     0.001800     NO 
 RMS     Displacement     0.057261     0.001200     NO 
 Predicted change in Energy=-3.795008D-02
 GradGradGradGradGradGradGradGradGradGradGradGradGradGradGradGradGradGrad

 Leave Link  103 at Tue Dec 15 16:18:50 2015, MaxMem=    33554432 cpu:         0.0
 (Enter /home/Applications/g09/g09/l9999.exe)
 1\1\GINC-DUSTIN-DESKTOP\Force\RAM1-FC\STO-3G\C4H4O1\DUSTIN\15-Dec-2015
 \0\\#P AM1(Input,print) CIS(Singlets,NStates=15) pop(full) force\\AM1-
 Reparam Input\\0,1\C,0.948337,-0.732153,-0.009651\C,-0.370382,-1.14023
 1,-0.008986\O,-1.132037,0.001318,-0.027477\C,-0.323307,1.11987,-0.0317
 27\C,0.918939,0.706384,-0.002893\H,1.78588,1.322327,-0.01345\H,-0.8699
 35,2.051088,-0.019024\H,-0.864904,-2.068469,0.034737\H,1.789228,-1.409
 724,0.030576\\Version=ES64L-G09RevD.01\State=1-A\HF=0.0182497\RMSD=7.9
 91e-09\RMSF=4.528e-02\Dipole=0.2252035,-0.0300329,0.0646041\PG=C01 [X(
 C4H4O1)]\\@


 IF IT'S NOT TRUE, IT'S WELL INVENTED -- DANTE
 Job cpu time:       0 days  0 hours  0 minutes  0.5 seconds.
 File lengths (MBytes):  RWF=      7 Int=      0 D2E=      0 Chk=      2 Scr=      1
 Normal termination of Gaussian 09 at Tue Dec 15 16:18:50 2015.
