 Entering Gaussian System, Link 0=g09
 Input=FuranAM1_45.com
 Output=FuranAM1_45.log
 Initial command:
 /home/Applications/g09/g09/l1.exe "/home/Applications/g09/scratch/Gau-5918.inp" -scrdir="/home/Applications/g09/scratch/"
 Entering Link 1 = /home/Applications/g09/g09/l1.exe PID=      5920.
  
 Copyright (c) 1988,1990,1992,1993,1995,1998,2003,2009,2013,
            Gaussian, Inc.  All Rights Reserved.
  
 This is part of the Gaussian(R) 09 program.  It is based on
 the Gaussian(R) 03 system (copyright 2003, Gaussian, Inc.),
 the Gaussian(R) 98 system (copyright 1998, Gaussian, Inc.),
 the Gaussian(R) 94 system (copyright 1995, Gaussian, Inc.),
 the Gaussian 92(TM) system (copyright 1992, Gaussian, Inc.),
 the Gaussian 90(TM) system (copyright 1990, Gaussian, Inc.),
 the Gaussian 88(TM) system (copyright 1988, Gaussian, Inc.),
 the Gaussian 86(TM) system (copyright 1986, Carnegie Mellon
 University), and the Gaussian 82(TM) system (copyright 1983,
 Carnegie Mellon University). Gaussian is a federally registered
 trademark of Gaussian, Inc.
  
 This software contains proprietary and confidential information,
 including trade secrets, belonging to Gaussian, Inc.
  
 This software is provided under written license and may be
 used, copied, transmitted, or stored only in accord with that
 written license.
  
 The following legend is applicable only to US Government
 contracts under FAR:
  
                    RESTRICTED RIGHTS LEGEND
  
 Use, reproduction and disclosure by the US Government is
 subject to restrictions as set forth in subparagraphs (a)
 and (c) of the Commercial Computer Software - Restricted
 Rights clause in FAR 52.227-19.
  
 Gaussian, Inc.
 340 Quinnipiac St., Bldg. 40, Wallingford CT 06492
  
  
 ---------------------------------------------------------------
 Warning -- This program may not be used in any manner that
 competes with the business of Gaussian, Inc. or will provide
 assistance to any competitor of Gaussian, Inc.  The licensee
 of this program is prohibited from giving any competitor of
 Gaussian, Inc. access to this program.  By using this program,
 the user acknowledges that Gaussian, Inc. is engaged in the
 business of creating and licensing software in the field of
 computational chemistry and represents and warrants to the
 licensee that it is not a competitor of Gaussian, Inc. and that
 it will not use this program in any manner prohibited above.
 ---------------------------------------------------------------
  

 Cite this work as:
 Gaussian 09, Revision D.01,
 M. J. Frisch, G. W. Trucks, H. B. Schlegel, G. E. Scuseria, 
 M. A. Robb, J. R. Cheeseman, G. Scalmani, V. Barone, B. Mennucci, 
 G. A. Petersson, H. Nakatsuji, M. Caricato, X. Li, H. P. Hratchian, 
 A. F. Izmaylov, J. Bloino, G. Zheng, J. L. Sonnenberg, M. Hada, 
 M. Ehara, K. Toyota, R. Fukuda, J. Hasegawa, M. Ishida, T. Nakajima, 
 Y. Honda, O. Kitao, H. Nakai, T. Vreven, J. A. Montgomery, Jr., 
 J. E. Peralta, F. Ogliaro, M. Bearpark, J. J. Heyd, E. Brothers, 
 K. N. Kudin, V. N. Staroverov, T. Keith, R. Kobayashi, J. Normand, 
 K. Raghavachari, A. Rendell, J. C. Burant, S. S. Iyengar, J. Tomasi, 
 M. Cossi, N. Rega, J. M. Millam, M. Klene, J. E. Knox, J. B. Cross, 
 V. Bakken, C. Adamo, J. Jaramillo, R. Gomperts, R. E. Stratmann, 
 O. Yazyev, A. J. Austin, R. Cammi, C. Pomelli, J. W. Ochterski, 
 R. L. Martin, K. Morokuma, V. G. Zakrzewski, G. A. Voth, 
 P. Salvador, J. J. Dannenberg, S. Dapprich, A. D. Daniels, 
 O. Farkas, J. B. Foresman, J. V. Ortiz, J. Cioslowski, 
 and D. J. Fox, Gaussian, Inc., Wallingford CT, 2013.
 
 ******************************************
 Gaussian 09:  ES64L-G09RevD.01 24-Apr-2013
                15-Dec-2015 
 ******************************************
 ------------------------------------------------------------
 #P AM1(Input,print) CIS(Singlets,NStates=15) pop(full) force
 ------------------------------------------------------------
 1/10=7,30=1,38=1/1,3;
 2/12=2,17=6,18=5,40=1/2;
 3/5=2,16=1,25=1,41=700000,71=1,135=100,136=1/1,2,8,3;
 4/35=1/1;
 5/5=2,35=1,38=5/2;
 8/6=1,10=1,108=15/1;
 9/15=2,41=15,42=1,48=1,49=10/14;
 10/5=4/2;
 6/7=3,18=1/1;
 7/12=6,13=5,29=1/1,2,3,16;
 1/10=7,30=1/3;
 99//99;
 Leave Link    1 at Tue Dec 15 16:19:41 2015, MaxMem=           0 cpu:         0.0
 (Enter /home/Applications/g09/g09/l101.exe)
 -----------------
 AM1-Reparam Input
 -----------------
 Symbolic Z-matrix:
 Charge =  0 Multiplicity = 1
 6                     0.97402  -0.71803   0.02259 
 6                    -0.31384  -1.13261  -0.0121 
 8                    -1.12666  -0.00105  -0.00997 
 6                    -0.34571   1.12129   0.02652 
 6                     0.99652   0.68496  -0.01752 
 1                     1.84193   1.40163   0.00172 
 1                    -0.84453   1.99865   0.04132 
 1                    -0.82162  -2.04675  -0.03856 
 1                     1.82958  -1.33887  -0.00572 
 
 NAtoms=      9 NQM=        9 NQMF=       0 NMMI=      0 NMMIF=      0
                NMic=       0 NMicF=      0.
                    Isotopes and Nuclear Properties:
 (Nuclear quadrupole moments (NQMom) in fm**2, nuclear magnetic moments (NMagM)
  in nuclear magnetons)

  Atom         1           2           3           4           5           6           7           8           9
 IAtWgt=          12          12          16          12          12           1           1           1           1
 AtmWgt=  12.0000000  12.0000000  15.9949146  12.0000000  12.0000000   1.0078250   1.0078250   1.0078250   1.0078250
 NucSpn=           0           0           0           0           0           1           1           1           1
 AtZEff=   0.0000000   0.0000000   0.0000000   0.0000000   0.0000000   0.0000000   0.0000000   0.0000000   0.0000000
 NQMom=    0.0000000   0.0000000   0.0000000   0.0000000   0.0000000   0.0000000   0.0000000   0.0000000   0.0000000
 NMagM=    0.0000000   0.0000000   0.0000000   0.0000000   0.0000000   2.7928460   2.7928460   2.7928460   2.7928460
 AtZNuc=   6.0000000   6.0000000   8.0000000   6.0000000   6.0000000   1.0000000   1.0000000   1.0000000   1.0000000
 Leave Link  101 at Tue Dec 15 16:19:41 2015, MaxMem=    33554432 cpu:         0.0
 (Enter /home/Applications/g09/g09/l103.exe)

 GradGradGradGradGradGradGradGradGradGradGradGradGradGradGradGradGradGrad
 Berny optimization.
 Initialization pass.
 Trust Radius=3.00D-01 FncErr=1.00D-07 GrdErr=1.00D-07
 Number of steps in this run=      2 maximum allowed number of steps=      2.
 GradGradGradGradGradGradGradGradGradGradGradGradGradGradGradGradGradGrad

 Leave Link  103 at Tue Dec 15 16:19:41 2015, MaxMem=    33554432 cpu:         0.0
 (Enter /home/Applications/g09/g09/l202.exe)
                          Input orientation:                          
 ---------------------------------------------------------------------
 Center     Atomic      Atomic             Coordinates (Angstroms)
 Number     Number       Type             X           Y           Z
 ---------------------------------------------------------------------
      1          6           0        0.974015   -0.718031    0.022592
      2          6           0       -0.313842   -1.132614   -0.012096
      3          8           0       -1.126664   -0.001047   -0.009970
      4          6           0       -0.345711    1.121285    0.026515
      5          6           0        0.996517    0.684964   -0.017518
      6          1           0        1.841925    1.401627    0.001719
      7          1           0       -0.844530    1.998649    0.041317
      8          1           0       -0.821615   -2.046746   -0.038563
      9          1           0        1.829575   -1.338869   -0.005718
 ---------------------------------------------------------------------
                    Distance matrix (angstroms):
                    1          2          3          4          5
     1  C    0.000000
     2  C    1.353388   0.000000
     3  O    2.219905   1.393244   0.000000
     4  C    2.263797   2.254455   1.367789   0.000000
     5  C    1.403749   2.240683   2.231270   1.412052   0.000000
     6  H    2.290557   3.327146   3.283314   2.205665   1.108463
     7  H    3.269221   3.176364   2.020152   1.009360   2.262451
     8  H    2.234616   1.046026   2.068516   3.204238   3.281507
     9  H    1.057461   2.153327   3.244863   3.284093   2.188613
                    6          7          8          9
     6  H    0.000000
     7  H    2.752280   0.000000
     8  H    4.357447   4.046248   0.000000
     9  H    2.740534   4.276924   2.744263   0.000000
 Stoichiometry    C4H4O
 Framework group  C1[X(C4H4O)]
 Deg. of freedom    21
 Full point group                 C1      NOp   1
 Largest Abelian subgroup         C1      NOp   1
 Largest concise Abelian subgroup C1      NOp   1
                         Standard orientation:                         
 ---------------------------------------------------------------------
 Center     Atomic      Atomic             Coordinates (Angstroms)
 Number     Number       Type             X           Y           Z
 ---------------------------------------------------------------------
      1          6           0        0.784739    0.890012    0.024979
      2          6           0        1.094651   -0.427110   -0.003319
      3          8           0       -0.098608   -1.146301   -0.008261
      4          6           0       -1.154740   -0.277523    0.017410
      5          6           0       -0.611548    1.025134   -0.026362
      6          1           0       -1.258019    1.925486   -0.014861
      7          1           0       -2.069470   -0.704131    0.026416
      8          1           0        1.965159   -1.006822   -0.021285
      9          1           0        1.472580    1.692791   -0.000433
 ---------------------------------------------------------------------
 Rotational constants (GHZ):      9.3678346      9.2158335      4.6474812
 Leave Link  202 at Tue Dec 15 16:19:41 2015, MaxMem=    33554432 cpu:         0.0
 (Enter /home/Applications/g09/g09/l301.exe)

 Semi-emprical parameters in input format:
 Method=8 CoreType=1 PeptideFC=0.0114510000 RIJScale=0.5291770000
 ****
 H       
 PQN=1 NValence=1 F0ss=0.4721550000 ZetaOverlap=1.1880780000 U=-0.4188110000
 Beta=-0.2268830000 CoreKO=1.0589200000 KON=0,0,0,1.0589200000 KON=1,0,1,1.0589200000
 KON=0,1,1,1.0589200000 KON=2,1,1,1.0589200000 EISol=-0.4188110042 EHeat=0.0830298228
 Alpha=1.5252600000
 GCore=0.0085280000,1.4001430000,2.2676710000
 GCore=0.0003530000,1.4001430000,3.4015070000
 GCore=-0.0012730000,0.5600570000,3.9684250000
 ****
 C       
 PQN=2,2 NValence=4 F0ss=0.4494440000 F0sp=0.4215150000 F0pp=0.3768030000 F2pp=0.1898720000
 G1sp=0.2679030000
 ZetaOverlap=1.8086650000,1.6851160000
 U=-1.9120180000,-1.4557970000
 Beta=-0.5775440000,-0.2836780000 DDN=0,1,0.8236740000 DDN=1,1,0.7268010000
 CoreKO=1.1124280000 KON=0,0,0,1.1124280000 KON=1,0,1,0.8219700000 KON=0,1,1,1.1124280000
 KON=2,1,1,0.7783930000 EISol=-4.4398989268 EHeat=0.2723305520 Alpha=1.4014060000
 DipHyp=1.6472532266
 GCore=0.0007890000,1.4001430000,3.0235620000
 GCore=0.0031890000,1.4001430000,3.4959930000
 GCore=-0.0013930000,1.4001430000,3.8739390000
 GCore=-0.0000880000,1.4001430000,5.0077740000
 ****
 O       
 PQN=2,2 NValence=6 F0ss=0.5666750000 F0sp=0.5321300000 F0pp=0.4958710000 F2pp=0.2358080000
 G1sp=0.4343770000
 ZetaOverlap=3.1080320000,2.5240390000
 U=-3.5951870000,-2.8760900000
 Beta=-1.0757550000,-1.0757550000 DDN=0,1,0.4988900000 DDN=1,1,0.4852320000
 CoreKO=0.8822960000 KON=0,0,0,0.8822960000 KON=1,0,1,0.5019540000 KON=0,1,1,0.8822960000
 KON=2,1,1,0.5515580000 EISol=-11.6164441184 EHeat=0.0949133088 Alpha=2.3576810000
 DipHyp=0.9977225968
 GCore=0.0195120000,1.4001430000,1.6023330000
 GCore=0.0056550000,1.9602000000,2.7307880000
 ****
 
 Standard basis: VSTO-6G (5D, 7F)
 Ernie: Thresh=  0.10000D-02 Tol=  0.10000D-05 Strict=F.
  NNHCO=     0 NNPyr=     0 NCTC=     0               EPep=         0.000000000
    EC=        68.580212633  ECS=         1.821991649   EG=         0.345361624
   EHC=         0.000000000  EAt=       -31.051283842  AtH=         1.516354808
 EPDDG=         0.000000000  ECC=        70.747565907 EAtT=        32.567638650
 There are    24 symmetry adapted cartesian basis functions of A   symmetry.
 There are    24 symmetry adapted basis functions of A   symmetry.
    24 basis functions,   144 primitive gaussians,    24 cartesian basis functions
    13 alpha electrons       13 beta electrons
       nuclear repulsion energy       103.3152045570 Hartrees.
 IExCor=    0 DFT=F Ex=HF Corr=None ExCW=0 ScaHFX=  1.000000
 ScaDFX=  1.000000  1.000000  1.000000  1.000000 ScalE2=  1.000000  1.000000
 IRadAn=      0 IRanWt=     -1 IRanGd=            0 ICorTp=0 IEmpDi=  4
 Integral buffers will be    131072 words long.
 Regular integral format.
 Two-electron integral symmetry is turned off.
 Leave Link  301 at Tue Dec 15 16:19:41 2015, MaxMem=    33554432 cpu:         0.0
 (Enter /home/Applications/g09/g09/l302.exe)
 Do NDO integrals.
 NPDir=0 NMtPBC=     1 NCelOv=     1 NCel=       1 NClECP=     1 NCelD=      1
         NCelK=      1 NCelE2=     1 NClLst=     1 CellRange=     0.0.
 One-electron integrals computed using PRISM.
 NBasis=    24 RedAO= F EigKep=  0.00D+00  NBF=    24
 NBsUse=    24 1.00D-04 EigRej=  0.00D+00 NBFU=    24
 Leave Link  302 at Tue Dec 15 16:19:41 2015, MaxMem=    33554432 cpu:         0.0
 (Enter /home/Applications/g09/g09/l308.exe)
 Leave Link  308 at Tue Dec 15 16:19:41 2015, MaxMem=    33554432 cpu:         0.0
 (Enter /home/Applications/g09/g09/l303.exe)
 DipDrv:  MaxL=1.
 Leave Link  303 at Tue Dec 15 16:19:41 2015, MaxMem=    33554432 cpu:         0.0
 (Enter /home/Applications/g09/g09/l401.exe)
 Simple Huckel Guess.
 JPrj=0 DoOrth=F DoCkMO=F.
 Leave Link  401 at Tue Dec 15 16:19:41 2015, MaxMem=    33554432 cpu:         0.0
 (Enter /home/Applications/g09/g09/l502.exe)
 Closed shell SCF:
 Using DIIS extrapolation, IDIIS=  1040.
 Overlap will be assumed to be unity.
 Two-electron integral symmetry not used.
 Keep J ints in memory in canonical form, NReq=888082.
 IVT=       79475 IEndB=       79475 NGot=    33554432 MDV=    33473473
 LenX=    33473473 LenY=    33472456
 Requested convergence on RMS density matrix=1.00D-08 within 128 cycles.
 Requested convergence on MAX density matrix=1.00D-06.
 Requested convergence on             energy=1.00D-06.
 No special actions if energy rises.
 FoFCou: FMM=F IPFlag=           0 FMFlag=           0 FMFlg1=           0
         NFxFlg=           0 DoJE=F BraDBF=F KetDBF=F FulRan=T
         wScrn=  0.000000 ICntrl=     600 IOpCl=  2 I1Cent=           0 NGrid=           0
         NMat0=    1 NMatS0=     54 NMatT0=    0 NMatD0=    1 NMtDS0=    0 NMtDT0=    0
 Symmetry not used in FoFCou.

 Cycle   1  Pass 1  IDiag  1:
 E= 0.326544948202795    
 DIIS: error= 5.81D-02 at cycle   1 NSaved=   1.
 NSaved= 1 IEnMin= 1 EnMin= 0.326544948202795     IErMin= 1 ErrMin= 5.81D-02
 ErrMax= 5.81D-02  0.00D+00 EMaxC= 1.00D-01 BMatC= 1.11D-01 BMatP= 1.11D-01
 IDIUse=3 WtCom= 4.19D-01 WtEn= 5.81D-01
 Coeff-Com:  0.100D+01
 Coeff-En:   0.100D+01
 Coeff:      0.100D+01
 GapD=    2.000 DampG=2.000 DampE=0.500 DampFc=1.0000 IDamp=-1.
 RMSDP=1.92D-02 MaxDP=1.61D-01              OVMax= 0.00D+00

 Cycle   2  Pass 1  IDiag  1:
 E= 0.507653023826435E-01 Delta-E=       -0.275779645820 Rises=F Damp=F
 DIIS: error= 1.99D-02 at cycle   2 NSaved=   2.
 NSaved= 2 IEnMin= 2 EnMin= 0.507653023826435E-01 IErMin= 2 ErrMin= 1.99D-02
 ErrMax= 1.99D-02  0.00D+00 EMaxC= 1.00D-01 BMatC= 9.52D-03 BMatP= 1.11D-01
 IDIUse=3 WtCom= 8.01D-01 WtEn= 1.99D-01
 Coeff-Com: -0.359D+00 0.136D+01
 Coeff-En:   0.000D+00 0.100D+01
 Coeff:     -0.288D+00 0.129D+01
 RMSDP=8.15D-03 MaxDP=7.51D-02 DE=-2.76D-01 OVMax= 0.00D+00

 Cycle   3  Pass 1  IDiag  3:
 E= 0.204034362738099E-01 Delta-E=       -0.030361866109 Rises=F Damp=F
 DIIS: error= 3.66D-03 at cycle   3 NSaved=   3.
 NSaved= 3 IEnMin= 3 EnMin= 0.204034362738099E-01 IErMin= 3 ErrMin= 3.66D-03
 ErrMax= 3.66D-03  0.00D+00 EMaxC= 1.00D-01 BMatC= 3.78D-04 BMatP= 9.52D-03
 IDIUse=3 WtCom= 9.63D-01 WtEn= 3.66D-02
 Coeff-Com:  0.135D+00-0.607D+00 0.147D+01
 Coeff-En:   0.000D+00 0.000D+00 0.100D+01
 Coeff:      0.130D+00-0.585D+00 0.145D+01
 Gap=     0.364 Goal=   None    Shift=    0.000
 RMSDP=2.61D-03 MaxDP=3.16D-02 DE=-3.04D-02 OVMax= 3.26D-02

 Cycle   4  Pass 1  IDiag  3:
 E= 0.182965857018473E-01 Delta-E=       -0.002106850572 Rises=F Damp=F
 DIIS: error= 1.16D-03 at cycle   4 NSaved=   4.
 NSaved= 4 IEnMin= 4 EnMin= 0.182965857018473E-01 IErMin= 4 ErrMin= 1.16D-03
 ErrMax= 1.16D-03  0.00D+00 EMaxC= 1.00D-01 BMatC= 2.84D-05 BMatP= 3.78D-04
 IDIUse=3 WtCom= 9.88D-01 WtEn= 1.16D-02
 Coeff-Com:  0.159D-01-0.528D-01-0.199D+00 0.124D+01
 Coeff-En:   0.000D+00 0.000D+00 0.000D+00 0.100D+01
 Coeff:      0.157D-01-0.522D-01-0.197D+00 0.123D+01
 Gap=     0.365 Goal=   None    Shift=    0.000
 RMSDP=8.48D-04 MaxDP=1.08D-02 DE=-2.11D-03 OVMax= 1.09D-02

 Cycle   5  Pass 1  IDiag  3:
 E= 0.181180070623697E-01 Delta-E=       -0.000178578639 Rises=F Damp=F
 DIIS: error= 2.13D-04 at cycle   5 NSaved=   5.
 NSaved= 5 IEnMin= 5 EnMin= 0.181180070623697E-01 IErMin= 5 ErrMin= 2.13D-04
 ErrMax= 2.13D-04  0.00D+00 EMaxC= 1.00D-01 BMatC= 1.81D-06 BMatP= 2.84D-05
 IDIUse=3 WtCom= 9.98D-01 WtEn= 2.13D-03
 Coeff-Com: -0.793D-02 0.314D-01 0.246D-01-0.478D+00 0.143D+01
 Coeff-En:   0.000D+00 0.000D+00 0.000D+00 0.000D+00 0.100D+01
 Coeff:     -0.791D-02 0.313D-01 0.246D-01-0.476D+00 0.143D+01
 Gap=     0.365 Goal=   None    Shift=    0.000
 RMSDP=2.44D-04 MaxDP=2.08D-03 DE=-1.79D-04 OVMax= 2.47D-03

 Cycle   6  Pass 1  IDiag  3:
 E= 0.181047887687100E-01 Delta-E=       -0.000013218294 Rises=F Damp=F
 DIIS: error= 9.28D-05 at cycle   6 NSaved=   6.
 NSaved= 6 IEnMin= 6 EnMin= 0.181047887687100E-01 IErMin= 6 ErrMin= 9.28D-05
 ErrMax= 9.28D-05  0.00D+00 EMaxC= 1.00D-01 BMatC= 1.75D-07 BMatP= 1.81D-06
 IDIUse=1 WtCom= 1.00D+00 WtEn= 0.00D+00
 Coeff-Com:  0.313D-02-0.125D-01 0.397D-02 0.143D+00-0.672D+00 0.153D+01
 Coeff:      0.313D-02-0.125D-01 0.397D-02 0.143D+00-0.672D+00 0.153D+01
 Gap=     0.365 Goal=   None    Shift=    0.000
 RMSDP=9.16D-05 MaxDP=7.40D-04 DE=-1.32D-05 OVMax= 1.19D-03

 Cycle   7  Pass 1  IDiag  3:
 E= 0.181031912153173E-01 Delta-E=       -0.000001597553 Rises=F Damp=F
 DIIS: error= 3.70D-05 at cycle   7 NSaved=   7.
 NSaved= 7 IEnMin= 7 EnMin= 0.181031912153173E-01 IErMin= 7 ErrMin= 3.70D-05
 ErrMax= 3.70D-05  0.00D+00 EMaxC= 1.00D-01 BMatC= 1.74D-08 BMatP= 1.75D-07
 IDIUse=1 WtCom= 1.00D+00 WtEn= 0.00D+00
 Coeff-Com: -0.486D-03 0.151D-02 0.628D-03-0.334D-01 0.183D+00-0.713D+00
 Coeff-Com:  0.156D+01
 Coeff:     -0.486D-03 0.151D-02 0.628D-03-0.334D-01 0.183D+00-0.713D+00
 Coeff:      0.156D+01
 Gap=     0.365 Goal=   None    Shift=    0.000
 RMSDP=3.58D-05 MaxDP=3.28D-04 DE=-1.60D-06 OVMax= 4.38D-04

 Cycle   8  Pass 1  IDiag  3:
 E= 0.181030123308545E-01 Delta-E=       -0.000000178884 Rises=F Damp=F
 DIIS: error= 8.50D-06 at cycle   8 NSaved=   8.
 NSaved= 8 IEnMin= 8 EnMin= 0.181030123308545E-01 IErMin= 8 ErrMin= 8.50D-06
 ErrMax= 8.50D-06  0.00D+00 EMaxC= 1.00D-01 BMatC= 9.01D-10 BMatP= 1.74D-08
 IDIUse=1 WtCom= 1.00D+00 WtEn= 0.00D+00
 Coeff-Com:  0.548D-04 0.677D-04-0.126D-02 0.117D-01-0.606D-01 0.276D+00
 Coeff-Com: -0.795D+00 0.157D+01
 Coeff:      0.548D-04 0.677D-04-0.126D-02 0.117D-01-0.606D-01 0.276D+00
 Coeff:     -0.795D+00 0.157D+01
 Gap=     0.365 Goal=   None    Shift=    0.000
 RMSDP=7.94D-06 MaxDP=7.65D-05 DE=-1.79D-07 OVMax= 9.68D-05

 Cycle   9  Pass 1  IDiag  3:
 E= 0.181030039798031E-01 Delta-E=       -0.000000008351 Rises=F Damp=F
 DIIS: error= 1.23D-06 at cycle   9 NSaved=   9.
 NSaved= 9 IEnMin= 9 EnMin= 0.181030039798031E-01 IErMin= 9 ErrMin= 1.23D-06
 ErrMax= 1.23D-06  0.00D+00 EMaxC= 1.00D-01 BMatC= 3.53D-11 BMatP= 9.01D-10
 IDIUse=1 WtCom= 1.00D+00 WtEn= 0.00D+00
 Coeff-Com:  0.223D-04-0.198D-03 0.498D-03-0.243D-02 0.140D-01-0.788D-01
 Coeff-Com:  0.260D+00-0.658D+00 0.146D+01
 Coeff:      0.223D-04-0.198D-03 0.498D-03-0.243D-02 0.140D-01-0.788D-01
 Coeff:      0.260D+00-0.658D+00 0.146D+01
 Gap=     0.365 Goal=   None    Shift=    0.000
 RMSDP=1.20D-06 MaxDP=1.04D-05 DE=-8.35D-09 OVMax= 1.59D-05

 Cycle  10  Pass 1  IDiag  3:
 E= 0.181030037400660E-01 Delta-E=       -0.000000000240 Rises=F Damp=F
 DIIS: error= 1.64D-07 at cycle  10 NSaved=  10.
 NSaved=10 IEnMin=10 EnMin= 0.181030037400660E-01 IErMin=10 ErrMin= 1.64D-07
 ErrMax= 1.64D-07  0.00D+00 EMaxC= 1.00D-01 BMatC= 1.41D-12 BMatP= 3.53D-11
 IDIUse=1 WtCom= 1.00D+00 WtEn= 0.00D+00
 Coeff-Com: -0.122D-04 0.932D-04-0.223D-03 0.932D-03-0.501D-02 0.287D-01
 Coeff-Com: -0.963D-01 0.252D+00-0.676D+00 0.150D+01
 Coeff:     -0.122D-04 0.932D-04-0.223D-03 0.932D-03-0.501D-02 0.287D-01
 Coeff:     -0.963D-01 0.252D+00-0.676D+00 0.150D+01
 Gap=     0.365 Goal=   None    Shift=    0.000
 RMSDP=2.01D-07 MaxDP=1.23D-06 DE=-2.40D-10 OVMax= 2.15D-06

 Cycle  11  Pass 1  IDiag  3:
 E= 0.181030037319374E-01 Delta-E=       -0.000000000008 Rises=F Damp=F
 DIIS: error= 3.08D-08 at cycle  11 NSaved=  11.
 NSaved=11 IEnMin=11 EnMin= 0.181030037319374E-01 IErMin=11 ErrMin= 3.08D-08
 ErrMax= 3.08D-08  0.00D+00 EMaxC= 1.00D-01 BMatC= 4.70D-14 BMatP= 1.41D-12
 IDIUse=1 WtCom= 1.00D+00 WtEn= 0.00D+00
 Coeff-Com:  0.390D-05-0.316D-04 0.780D-04-0.343D-03 0.178D-02-0.101D-01
 Coeff-Com:  0.335D-01-0.871D-01 0.235D+00-0.607D+00 0.143D+01
 Coeff:      0.390D-05-0.316D-04 0.780D-04-0.343D-03 0.178D-02-0.101D-01
 Coeff:      0.335D-01-0.871D-01 0.235D+00-0.607D+00 0.143D+01
 Gap=     0.365 Goal=   None    Shift=    0.000
 RMSDP=3.57D-08 MaxDP=2.87D-07 DE=-8.13D-12 OVMax= 2.61D-07

 Cycle  12  Pass 1  IDiag  3:
 E= 0.181030037317242E-01 Delta-E=        0.000000000000 Rises=F Damp=F
 DIIS: error= 6.03D-09 at cycle  12 NSaved=  12.
 NSaved=12 IEnMin=12 EnMin= 0.181030037317242E-01 IErMin=12 ErrMin= 6.03D-09
 ErrMax= 6.03D-09  0.00D+00 EMaxC= 1.00D-01 BMatC= 2.75D-15 BMatP= 4.70D-14
 IDIUse=1 WtCom= 1.00D+00 WtEn= 0.00D+00
 Coeff-Com: -0.864D-06 0.712D-05-0.168D-04 0.749D-04-0.377D-03 0.217D-02
 Coeff-Com: -0.718D-02 0.185D-01-0.502D-01 0.141D+00-0.522D+00 0.142D+01
 Coeff:     -0.864D-06 0.712D-05-0.168D-04 0.749D-04-0.377D-03 0.217D-02
 Coeff:     -0.718D-02 0.185D-01-0.502D-01 0.141D+00-0.522D+00 0.142D+01
 Gap=     0.365 Goal=   None    Shift=    0.000
 RMSDP=9.00D-09 MaxDP=6.00D-08 DE=-2.13D-13 OVMax= 5.44D-08

 Cycle  13  Pass 2  IDiag  1:
 SCF Done:  E(RAM1) =  0.181030037317E-01 A.U. after   13 cycles
            NFock= 12  Conv=0.90D-08     -V/T= 1.0011
 KE=-1.654433832329D+01 PE=-1.707929788875D+02 EE= 8.404021565755D+01
 Leave Link  502 at Tue Dec 15 16:19:41 2015, MaxMem=    33554432 cpu:         0.0
 (Enter /home/Applications/g09/g09/l801.exe)
 Range of M.O.s used for correlation:     1    24
 NBasis=    24 NAE=    13 NBE=    13 NFC=     0 NFV=     0
 NROrb=     24 NOA=    13 NOB=    13 NVA=    11 NVB=    11
 Leave Link  801 at Tue Dec 15 16:19:41 2015, MaxMem=    33554432 cpu:         0.0
 (Enter /home/Applications/g09/g09/l914.exe)
 RHF ground state
 MDV=    33554432 DFT=F DoStab=F Mixed=F DoRPA=F DoScal=F NonHer=F
 Making orbital integer symmetry assigments:
 Orbital symmetries:
       Occupied  (A) (A) (A) (A) (A) (A) (A) (A) (A) (A) (A) (A)
                 (A)
       Virtual   (A) (A) (A) (A) (A) (A) (A) (A) (A) (A) (A)
    60 initial guesses have been made.
 Convergence on wavefunction:    0.000001000000000
 Davidson Disk Diagonalization:  ConvIn= 1.00D-06 SkipCon=T Conv= 1.00D-06.
 Max sub-space:   240 roots to seek:    60 dimension of matrix:          286
 Iteration     1 Dimension    60 NMult     0 NNew     60
 CISAX will form    60 AO SS matrices at one time.
 NMat=    60 NSing=    60 JSym2X= 0.
 FoFJK:  IHMeth= 8 ICntrl=       0 DoSepK=F KAlg= 0 I1Cent=   0 FoldK=F
 IRaf=         1 NMat= 120 IRICut=       1 DoRegI=T DoRafI=F ISym2E= 0.
 FoFCou: FMM=F IPFlag=           0 FMFlag=      100000 FMFlg1=           0
         NFxFlg=           0 DoJE=F BraDBF=F KetDBF=F FulRan=T
         wScrn=  0.000000 ICntrl=       0 IOpCl=  0 I1Cent=           0 NGrid=           0
         NMat0=  120 NMatS0=     60 NMatT0=    0 NMatD0=  120 NMtDS0=    0 NMtDT0=    0
 Symmetry not used in FoFCou.
 New state      2 was old state      4
 New state      3 was old state      2
 New state      4 was old state      7
 New state      5 was old state      8
 New state      7 was old state      3
 New state      8 was old state      5
 New state     10 was old state     11
 New state     11 was old state     16
 New state     12 was old state     19
 New state     14 was old state     17
 Excitation Energies [eV] at current iteration:
 Root      1 :     4.357773962285772
 Root      2 :     4.777670362054018
 Root      3 :     4.952301400260943
 Root      4 :     5.802560859733090
 Root      5 :     6.033325203019718
 Root      6 :     6.176145156336077
 Root      7 :     6.269248039047769
 Root      8 :     6.521912449289452
 Root      9 :     6.624700987560334
 Root     10 :     6.839089306155476
 Root     11 :     7.297665589691587
 Root     12 :     7.371019210463503
 Root     13 :     7.542944114527803
 Root     14 :     7.682560742400243
 Root     15 :     7.790218454739602
 Root     16 :     7.883846340877195
 Root     17 :     7.954373061658294
 Root     18 :     8.093925620285209
 Root     19 :     8.222786104998070
 Root     20 :     8.379359848916000
 Root     21 :     8.458878949015624
 Root     22 :     8.555946030699914
 Root     23 :     8.672611078418942
 Root     24 :     9.052577066023289
 Root     25 :     9.421986586001156
 Root     26 :     9.505479289303127
 Root     27 :     9.591149215914783
 Root     28 :     9.688766949596712
 Root     29 :     9.726894199211637
 Root     30 :     9.870571832672589
 Root     31 :    10.004867379641570
 Root     32 :    10.044601158126210
 Root     33 :    10.169525983718870
 Root     34 :    10.302965933967200
 Root     35 :    10.354430820056080
 Root     36 :    10.397973205515410
 Root     37 :    10.505959935436620
 Root     38 :    10.747313482998090
 Root     39 :    10.829273064185760
 Root     40 :    10.906968957771030
 Root     41 :    11.012628323135840
 Root     42 :    11.242617948517060
 Root     43 :    11.274868068215690
 Root     44 :    11.474444358249660
 Root     45 :    11.558190883335660
 Root     46 :    11.586627581137100
 Root     47 :    11.701657499962020
 Root     48 :    11.836416983159950
 Root     49 :    11.918991222400400
 Root     50 :    12.198404156823890
 Root     51 :    12.375148647426590
 Root     52 :    12.661660229967660
 Root     53 :    12.837423229540240
 Root     54 :    12.896261834335730
 Root     55 :    13.074978858256110
 Root     56 :    13.306467523180360
 Root     57 :    13.397765019933940
 Root     58 :    13.414382032047940
 Root     59 :    13.678440710454780
 Root     60 :    13.901240208826820
 Iteration     2 Dimension   120 NMult    60 NNew     60
 CISAX will form    60 AO SS matrices at one time.
 NMat=    60 NSing=    60 JSym2X= 0.
 Root      1 not converged, maximum delta is    0.026351068005286
 Root      2 not converged, maximum delta is    0.039168794970873
 Root      3 not converged, maximum delta is    0.017377889948986
 Root      4 not converged, maximum delta is    0.053415374321630
 Root      5 not converged, maximum delta is    0.049781183416565
 Root      6 not converged, maximum delta is    0.044471862094646
 Root      7 not converged, maximum delta is    0.047696166484767
 Root      8 not converged, maximum delta is    0.022845469948878
 Root      9 not converged, maximum delta is    0.043051786751043
 Root     10 not converged, maximum delta is    0.036684131381892
 Root     11 not converged, maximum delta is    0.194058015219235
 Root     12 not converged, maximum delta is    0.188883048532922
 Root     13 not converged, maximum delta is    0.062323526600012
 Root     14 not converged, maximum delta is    0.087834631840339
 Root     15 not converged, maximum delta is    0.133284152007750
 Excitation Energies [eV] at current iteration:
 Root      1 :     4.285664534968331   Change is   -0.072109427317442
 Root      2 :     4.742675584299305   Change is   -0.034994777754712
 Root      3 :     4.936253988041099   Change is   -0.016047412219844
 Root      4 :     5.693436151671824   Change is   -0.109124708061266
 Root      5 :     5.967336654673035   Change is   -0.065988548346683
 Root      6 :     6.049448311876699   Change is   -0.126696844459378
 Root      7 :     6.105564207672296   Change is   -0.163683831375473
 Root      8 :     6.470688573359095   Change is   -0.051223875930356
 Root      9 :     6.569701689026840   Change is   -0.054999298533494
 Root     10 :     6.788677348443156   Change is   -0.050411957712320
 Root     11 :     7.210703920083954   Change is   -0.086961669607633
 Root     12 :     7.242462669277208   Change is   -0.128556541186294
 Root     13 :     7.408335288546536   Change is   -0.134608825981267
 Root     14 :     7.612488986330145   Change is   -0.070071756070097
 Root     15 :     7.686647222848484   Change is   -0.103571231891118
 Root     16 :     7.798563361263503   Change is   -0.085282979613692
 Root     17 :     7.883278130960366   Change is   -0.071094930697928
 Root     18 :     7.945033472507948   Change is   -0.148892147777261
 Root     19 :     8.144492898268501   Change is   -0.078293206729569
 Root     20 :     8.190669985825377   Change is   -0.268208963190248
 Root     21 :     8.228427575487562   Change is   -0.150932273428438
 Root     22 :     8.529060687424717   Change is   -0.026885343275197
 Root     23 :     8.647177647893882   Change is   -0.025433430525061
 Root     24 :     8.960150206008423   Change is   -0.092426860014866
 Root     25 :     9.118447724289268   Change is   -0.387031565013858
 Root     26 :     9.254940250383479   Change is   -0.167046335617677
 Root     27 :     9.350907247893767   Change is   -0.337859701702945
 Root     28 :     9.441029952855901   Change is   -0.603571205270309
 Root     29 :     9.488224211419370   Change is   -0.102925004495413
 Root     30 :     9.565533491514342   Change is   -0.161360707697296
 Root     31 :     9.673778270045107   Change is   -0.196793562627481
 Root     32 :     9.737239088635476   Change is   -0.660734116879934
 Root     33 :     9.802087097404158   Change is   -0.703872838032460
 Root     34 :     9.851327497493672   Change is   -0.153539882147899
 Root     35 :     9.873167965375051   Change is   -0.296358018343819
 Root     36 :    10.151949446499700   Change is   -0.151016487467507
 Root     37 :    10.179841636677970   Change is   -0.174589183378111
 Root     38 :    10.341504818377410   Change is   -0.405808664620683
 Root     39 :    10.364283481295460   Change is   -0.542685476475574
 Root     40 :    10.575484867663240   Change is   -0.253788196522517
 Root     41 :    10.577683299345860   Change is   -0.434945023789983
 Root     42 :    10.711198543806420   Change is   -0.563669524409272
 Root     43 :    10.911841076372110   Change is   -0.646349806963555
 Root     44 :    11.043583552058990   Change is   -0.430860806190672
 Root     45 :    11.168386339231280   Change is   -0.074231609285779
 Root     46 :    11.227962218491290   Change is   -0.358665362645812
 Root     47 :    11.454845637139030   Change is   -0.246811862822986
 Root     48 :    11.520879897650460   Change is   -0.315537085509486
 Root     49 :    11.715914848407310   Change is   -0.203076373993094
 Root     50 :    11.814320171576910   Change is   -0.384083985246979
 Root     51 :    11.913098673359110   Change is   -0.462049974067483
 Root     52 :    12.086264820803080   Change is   -0.575395409164581
 Root     53 :    12.339910685068460   Change is   -0.735068173187660
 Root     54 :    12.488275568888900   Change is   -1.190165141565883
 Root     55 :    12.616441497857800   Change is   -0.220981731682444
 Root     56 :    12.715312205754560
 Root     57 :    12.849497587124610   Change is   -0.046764247211115
 Root     58 :    13.019908144085390   Change is   -0.286559379094964
 Root     59 :    13.263656237851270   Change is   -0.134108782082670
 Root     60 :    13.300131367690000   Change is   -0.114250664357934
 Iteration     3 Dimension   135 NMult   120 NNew     15
 CISAX will form    15 AO SS matrices at one time.
 NMat=    15 NSing=    15 JSym2X= 0.
 Root      1 not converged, maximum delta is    0.000758993802480
 Root      2 not converged, maximum delta is    0.000058196248733
 Root      3 not converged, maximum delta is    0.000257002325269
 Root      4 not converged, maximum delta is    0.000168314100957
 Root      5 not converged, maximum delta is    0.000083177546460
 Root      6 not converged, maximum delta is    0.001436473659307
 Root      7 not converged, maximum delta is    0.002588785393844
 Root      8 not converged, maximum delta is    0.002006959529635
 Root      9 not converged, maximum delta is    0.000649895138034
 Root     10 not converged, maximum delta is    0.000416508816052
 Root     11 not converged, maximum delta is    0.000297985541568
 Root     12 not converged, maximum delta is    0.000227797676465
 Root     13 not converged, maximum delta is    0.000939531685606
 Root     14 not converged, maximum delta is    0.000289589494692
 Root     15 not converged, maximum delta is    0.000224822065470
 Excitation Energies [eV] at current iteration:
 Root      1 :     4.285527176832766   Change is   -0.000137358135564
 Root      2 :     4.742674831168402   Change is   -0.000000753130904
 Root      3 :     4.936223642153983   Change is   -0.000030345887116
 Root      4 :     5.693433024150955   Change is   -0.000003127520869
 Root      5 :     5.967335502867385   Change is   -0.000001151805649
 Root      6 :     6.049421070919376   Change is   -0.000027240957323
 Root      7 :     6.104578108001048   Change is   -0.000986099671248
 Root      8 :     6.470347279364645   Change is   -0.000341293994451
 Root      9 :     6.569670825481647   Change is   -0.000030863545194
 Root     10 :     6.788660036256975   Change is   -0.000017312186181
 Root     11 :     7.210693860100658   Change is   -0.000010059983296
 Root     12 :     7.242450573744458   Change is   -0.000012095532750
 Root     13 :     7.408247795508215   Change is   -0.000087493038321
 Root     14 :     7.612479508730287   Change is   -0.000009477599859
 Root     15 :     7.686643119385090   Change is   -0.000004103463395
 Iteration     4 Dimension   143 NMult   135 NNew      8
 CISAX will form     8 AO SS matrices at one time.
 NMat=     8 NSing=     8 JSym2X= 0.
 Root      1 not converged, maximum delta is    0.000024088482059
 Root      2 not converged, maximum delta is    0.000002177968188
 Root      3 not converged, maximum delta is    0.000011065777657
 Root      4 not converged, maximum delta is    0.000005568761909
 Root      5 not converged, maximum delta is    0.000003032150724
 Root      6 not converged, maximum delta is    0.000020407047268
 Root      7 not converged, maximum delta is    0.000126385077734
 Root      8 not converged, maximum delta is    0.000034776368386
 Root      9 not converged, maximum delta is    0.000009226243008
 Root     10 not converged, maximum delta is    0.000022772742845
 Root     11 not converged, maximum delta is    0.000017708338817
 Root     12 not converged, maximum delta is    0.000011776594971
 Root     13 not converged, maximum delta is    0.000038632048603
 Root     14 not converged, maximum delta is    0.000014784178476
 Root     15 not converged, maximum delta is    0.000013554962693
 Excitation Energies [eV] at current iteration:
 Root      1 :     4.285526998227296   Change is   -0.000000178605470
 Root      2 :     4.742674829072999   Change is   -0.000000002095402
 Root      3 :     4.936223601449850   Change is   -0.000000040704133
 Root      4 :     5.693433012949376   Change is   -0.000000011201580
 Root      5 :     5.967335499419946   Change is   -0.000000003447440
 Root      6 :     6.049420926333758   Change is   -0.000000144585618
 Root      7 :     6.104572345021653   Change is   -0.000005762979395
 Root      8 :     6.470346895695750   Change is   -0.000000383668895
 Root      9 :     6.569670793227647   Change is   -0.000000032254000
 Root     10 :     6.788659927635195   Change is   -0.000000108621780
 Root     11 :     7.210693798963177   Change is   -0.000000061137482
 Root     12 :     7.242450523385914   Change is   -0.000000050358544
 Root     13 :     7.408247269180414   Change is   -0.000000526327801
 Root     14 :     7.612479442913795   Change is   -0.000000065816492
 Root     15 :     7.686643083379779   Change is   -0.000000036005311
 Convergence achieved on expansion vectors.
 ***********************************************************************
 Excited states from <AA,BB:AA,BB> singles matrix:
 ***********************************************************************
 
 1PDM for each excited state written to RWF  633
 Ground to excited state transition densities written to RWF  633
 Ground to excited state transition electric dipole moments (Au):
       state          X           Y           Z        Dip. S.      Osc.
         1         1.0081      0.1083     -0.0780      1.0341      0.1086
         2        -0.0258     -0.0403     -0.0049      0.0023      0.0003
         3        -0.0126      0.2706     -0.0217      0.0739      0.0089
         4         0.0053     -0.0273     -0.0632      0.0048      0.0007
         5         0.0191      0.0127      0.0866      0.0080      0.0012
         6        -0.0044      0.2433     -0.0668      0.0637      0.0094
         7        -0.1995      1.5234     -0.0084      2.3607      0.3531
         8        -0.8678     -0.2130     -0.0303      0.7993      0.1267
         9        -0.2599     -0.0832     -0.1004      0.0845      0.0136
        10         0.0786     -0.0725     -0.0866      0.0189      0.0031
        11         0.0008      0.0332      0.0657      0.0054      0.0010
        12         0.0437     -0.0469      0.0432      0.0060      0.0011
        13        -0.0093     -0.0200     -0.0502      0.0030      0.0005
        14        -0.0174     -0.0230      0.1374      0.0197      0.0037
        15        -0.0179      0.0061      0.0093      0.0004      0.0001
 Ground to excited state transition velocity dipole moments (Au):
       state          X           Y           Z        Dip. S.      Osc.
         1        -0.0505     -0.0190      0.0184      0.0032      0.0138
         2        -0.0011      0.0045      0.0014      0.0000      0.0001
         3         0.0055     -0.0171      0.0061      0.0004      0.0013
         4         0.0012      0.0066      0.0082      0.0001      0.0004
         5        -0.0054     -0.0020     -0.0821      0.0068      0.0206
         6        -0.0001     -0.0545      0.0164      0.0032      0.0097
         7         0.0210     -0.3077      0.0022      0.0951      0.2827
         8         0.1570      0.0489     -0.0321      0.0281      0.0787
         9         0.0433      0.0201      0.1874      0.0374      0.1032
        10        -0.0138      0.0179      0.0027      0.0005      0.0014
        11        -0.0014     -0.0119      0.0341      0.0013      0.0033
        12        -0.0073      0.0068      0.0111      0.0002      0.0006
        13         0.0022      0.0044      0.0018      0.0000      0.0001
        14         0.0020     -0.0046     -0.0567      0.0032      0.0077
        15         0.0054      0.0042      0.0346      0.0012      0.0029
 Ground to excited state transition magnetic dipole moments (Au):
       state          X           Y           Z
         1         0.0319     -0.0062      0.6281
         2        -0.0329     -0.6540     -0.0028
         3         0.0197     -0.0685     -0.0019
         4        -0.3007      0.1411     -0.0083
         5         0.1222      0.1121      0.0099
         6        -0.1650     -0.0389     -0.0162
         7        -0.0701      0.0410     -0.1091
         8        -0.1290      0.0076     -0.0729
         9         0.2061      0.1027     -0.0525
        10        -1.5971      0.2671      0.0135
        11         0.1301     -0.6618      0.0096
        12         0.2058      0.4384      0.0107
        13        -0.7748     -0.4552      0.0051
        14        -0.4931      0.3403     -0.0083
        15         0.1892      0.2029      0.0111
 Ground to excited state transition velocity quadrupole moments (Au):
       state          XX          YY          ZZ          XY          XZ          YZ
         1         0.1076     -0.0908     -0.0088      0.4458     -0.0096      0.0023
         2        -0.0116      0.0101     -0.0009     -0.0140     -0.1733      0.0196
         3         0.1008     -0.1480      0.0704      0.0443     -0.0111      0.0032
         4        -0.0161     -0.0117      0.0214     -0.0156     -0.1058     -0.1972
         5         0.0033     -0.0160      0.0061     -0.0020      0.0165      0.1640
         6         0.0753     -0.0255     -0.0198     -0.0229      0.0796     -0.1849
         7         0.4647     -0.2526     -0.0463     -0.0083     -0.0604      0.0445
         8        -0.0103     -0.0318      0.0040      0.5551      0.0279      0.0460
         9        -0.0199      0.0097     -0.0038      0.1104     -0.0568     -0.0405
        10        -0.0243      0.0218     -0.0046     -0.0296      0.0671      0.0753
        11         0.0050      0.0104      0.0129      0.0010      0.3033      0.1147
        12         0.0017      0.0058      0.0075     -0.0155     -0.1134      0.2378
        13        -0.0123     -0.0069      0.0059      0.0165     -0.1203     -0.0614
        14        -0.0035     -0.0137      0.0247     -0.0017      0.1215     -0.3304
        15        -0.0242     -0.0117      0.0102      0.0056     -0.0946     -0.0210
 <0|del|b> * <b|rxdel|0> + <0|del|b> * <b|delr+rdel|0>
 Rotatory Strengths (R) in cgs (10**-40 erg-esu-cm/Gauss)
       state          XX          YY          ZZ    R(velocity)    E-M Angle
         1        44.1277      3.6337     -2.6774     15.0280       73.74
         2        -4.4835      0.0623     -7.5157     -3.9790      156.67
         3         2.4104     -0.2984      2.8233      1.6451       20.23
         4         2.4215     -0.9009      0.1847      0.5684       81.74
         5        -1.3534     -4.0449     -0.0478     -1.8154       97.09
         6         9.2542      0.2060     -3.5353      1.9750       78.93
         7       -49.6039     -1.1985      5.6114    -15.0637      109.99
         8       -24.4877     10.6056    -38.2806    -17.3876      134.87
         9        20.5708    -34.2091     16.9722      1.1113       88.57
        10         5.0135     29.9885     41.2529     25.4183       43.18
        11        15.8447     -0.0718      5.6760      7.1496       70.78
        12         4.9187     -3.9419      3.2511      1.4093       77.32
        13        -1.8841     -2.4482     -5.3879     -3.2401      142.15
        14        -0.5391     -1.6463     -3.0746     -1.7534       93.50
        15         2.2999      1.3765      1.9958      1.8907       76.61
 1/2[<0|r|b>*<b|rxdel|0> + (<0|rxdel|b>*<b|r|0>)*]
 Rotatory Strengths (R) in cgs (10**-40 erg-esu-cm/Gauss)
       state          XX          YY          ZZ     R(length)
         1       -22.7411      0.4714     34.6554      4.1285
         2        -0.6013    -18.6192     -0.0096     -6.4101
         3         0.1752     13.1042     -0.0284      4.4170
         4         1.1370      2.7230     -0.3699      1.1634
         5        -1.6529     -1.0081     -0.6062     -1.0891
         6        -0.5190      6.6872     -0.7671      1.8004
         7        -9.8836    -44.1917     -0.6494    -18.2416
         8       -79.1409      1.1433     -1.5634    -26.5203
         9        37.8833      6.0375     -3.7285     13.3974
        10        88.7313     13.6834      0.8277     34.4141
        11        -0.0744     15.5220     -0.4471      5.0002
        12        -6.3626     14.5560     -0.3262      2.6224
        13        -5.0904     -6.4315      0.1811     -3.7802
        14        -6.0627      5.5465      0.8073      0.0970
        15         2.3967     -0.8804     -0.0735      0.4810
  1/2[<0|del|b>*<b|r|0> + (<0|r|b>*<b|del|0>)*] (Au)
       state          X           Y           Z        Dip. S.   Osc.(frdel)
         1        -0.0509     -0.0021     -0.0014      0.0544      0.0363
         2         0.0000     -0.0002      0.0000      0.0002      0.0001
         3        -0.0001     -0.0046     -0.0001      0.0048      0.0032
         4         0.0000     -0.0002     -0.0005      0.0007      0.0005
         5        -0.0001      0.0000     -0.0071      0.0072      0.0048
         6         0.0000     -0.0133     -0.0011      0.0144      0.0096
         7        -0.0042     -0.4687      0.0000      0.4730      0.3153
         8        -0.1363     -0.0104      0.0010      0.1457      0.0971
         9        -0.0112     -0.0017     -0.0188      0.0317      0.0211
        10        -0.0011     -0.0013     -0.0002      0.0026      0.0017
        11         0.0000     -0.0004      0.0022     -0.0018     -0.0012
        12        -0.0003     -0.0003      0.0005      0.0002      0.0001
        13         0.0000     -0.0001     -0.0001      0.0002      0.0001
        14         0.0000      0.0001     -0.0078      0.0077      0.0051
        15        -0.0001      0.0000      0.0003     -0.0003     -0.0002

 Excitation energies and oscillator strengths:
 
 Excited State   1:      Singlet-A      4.2855 eV  289.31 nm  f=0.1086  <S**2>=0.000
      12 -> 15         0.18677
      13 -> 14         0.67257
 This state for optimization and/or second-order correction.
 Total Energy, E(CIS) =  0.175593229889    
 Copying the excited state density for this state as the 1-particle RhoCI density.
 
 Excited State   2:      Singlet-A      4.7427 eV  261.42 nm  f=0.0003  <S**2>=0.000
      13 -> 16         0.68998
 
 Excited State   3:      Singlet-A      4.9362 eV  251.17 nm  f=0.0089  <S**2>=0.000
      12 -> 14        -0.41041
      13 -> 15         0.56546
 
 Excited State   4:      Singlet-A      5.6934 eV  217.77 nm  f=0.0007  <S**2>=0.000
      12 -> 18         0.16881
      13 -> 17         0.26649
      13 -> 18         0.51479
      13 -> 21         0.14826
      13 -> 22         0.19906
      13 -> 23        -0.17660
 
 Excited State   5:      Singlet-A      5.9673 eV  207.77 nm  f=0.0012  <S**2>=0.000
       7 -> 16        -0.19519
      12 -> 16         0.65641
      12 -> 22        -0.13010
 
 Excited State   6:      Singlet-A      6.0494 eV  204.95 nm  f=0.0094  <S**2>=0.000
      12 -> 17        -0.15406
      12 -> 19        -0.11409
      12 -> 20         0.13918
      12 -> 23         0.11944
      13 -> 17         0.39813
      13 -> 18        -0.20041
      13 -> 19         0.26084
      13 -> 20        -0.17126
      13 -> 22        -0.18115
      13 -> 23        -0.21482
 
 Excited State   7:      Singlet-A      6.1046 eV  203.10 nm  f=0.3531  <S**2>=0.000
      12 -> 14         0.52773
      13 -> 15         0.39005
 
 Excited State   8:      Singlet-A      6.4703 eV  191.62 nm  f=0.1267  <S**2>=0.000
      12 -> 15         0.64830
      13 -> 14        -0.16337
      13 -> 19        -0.13911
 
 Excited State   9:      Singlet-A      6.5697 eV  188.72 nm  f=0.0136  <S**2>=0.000
      12 -> 15         0.16851
      13 -> 17        -0.26872
      13 -> 18         0.14069
      13 -> 19         0.57559
 
 Excited State  10:      Singlet-A      6.7887 eV  182.63 nm  f=0.0031  <S**2>=0.000
      10 -> 14         0.11296
      10 -> 15        -0.14062
      11 -> 14         0.62077
      11 -> 15         0.20649
 
 Excited State  11:      Singlet-A      7.2107 eV  171.94 nm  f=0.0010  <S**2>=0.000
      12 -> 17         0.35900
      12 -> 18        -0.26953
      12 -> 19        -0.27888
      12 -> 20         0.16237
      12 -> 21        -0.16580
      12 -> 23        -0.16188
      13 -> 17         0.10011
      13 -> 19         0.10183
      13 -> 20         0.17849
      13 -> 21        -0.11532
      13 -> 22        -0.17151
      13 -> 24         0.10422
 
 Excited State  12:      Singlet-A      7.2425 eV  171.19 nm  f=0.0011  <S**2>=0.000
      10 -> 14         0.14113
      12 -> 17         0.15240
      12 -> 19         0.42390
      12 -> 22        -0.10456
      13 -> 17         0.26730
      13 -> 18        -0.20901
      13 -> 19         0.16040
      13 -> 20         0.24812
      13 -> 22         0.14058
 
 Excited State  13:      Singlet-A      7.4082 eV  167.36 nm  f=0.0005  <S**2>=0.000
       9 -> 14         0.17616
       9 -> 15        -0.22182
      10 -> 14         0.52270
      10 -> 15        -0.16919
      11 -> 14        -0.13642
      11 -> 15        -0.16855
      12 -> 18         0.10348
 
 Excited State  14:      Singlet-A      7.6125 eV  162.87 nm  f=0.0037  <S**2>=0.000
       9 -> 15         0.14075
      12 -> 17         0.22056
      12 -> 18         0.25033
      12 -> 21        -0.17522
      12 -> 22         0.16389
      12 -> 23        -0.16497
      12 -> 24         0.10837
      13 -> 17        -0.15879
      13 -> 18        -0.25030
      13 -> 22         0.28028
      13 -> 23        -0.18635
      13 -> 24        -0.14475
 
 Excited State  15:      Singlet-A      7.6866 eV  161.30 nm  f=0.0001  <S**2>=0.000
      10 -> 14         0.14525
      12 -> 17        -0.18270
      12 -> 18        -0.25051
      13 -> 20        -0.17493
      13 -> 21        -0.20368
      13 -> 22         0.45154
      13 -> 23        -0.11106
      13 -> 24         0.18959
 SavETr:  write IOETrn=   770 NScale= 10 NData=  16 NLR=1 NState=   15 LETran=     280.
 The selected state is a singlet
 CISAX will form     1 AO SS matrices at one time.
 NMat=     1 NSing=     1 JSym2X= 0.
 Leave Link  914 at Tue Dec 15 16:19:42 2015, MaxMem=    33554432 cpu:         0.1
 (Enter /home/Applications/g09/g09/l1002.exe)
 Minotr:  Closed shell wavefunction.
          Computing CIS/TD-HF/TD-KS derivatives.
          Using Z-Vector for PSCF gradient.
          Skipping F1 and S1 gradient terms here.
          IDoAtm=111111111
          Direct CPHF calculation.
          Differentiating once with respect to electric field.
                with respect to dipole field.
          Differentiating once with respect to nuclear coordinates.
          Electric field/nuclear overlap derivatives assumed to be zero.
          Requested convergence is 1.0D-10 RMS, and 1.0D-09 maximum.
          NewPWx=T KeepS1=F KeepF1=F KeepIn=T MapXYZ=F SortEE=F KeepMc=T.
          MDV=      33495423 using IRadAn=       0.
 Keep J ints in memory in canonical form, NReq=871704.
 FoFCou: FMM=F IPFlag=           0 FMFlag=           0 FMFlg1=           0
         NFxFlg=           0 DoJE=F BraDBF=F KetDBF=F FulRan=T
         wScrn=  0.000000 ICntrl=     600 IOpCl=  2 I1Cent=           0 NGrid=           0
         NMat0=    1 NMatS0=     54 NMatT0=    0 NMatD0=    1 NMtDS0=    0 NMtDT0=    0
 Symmetry not used in FoFCou.
          Solving linear equations separately, MaxMat=       0.
          There are     1 degrees of freedom in the 1st order CPHF.  IDoFFX=0 NUNeed=     1.
 LinEq1:  Iter=  0 NonCon=     1 RMS=1.26D-02 Max=9.29D-02 NDo=     1
 AX will form     1 AO Fock derivatives at one time.
 LinEq1:  Iter=  1 NonCon=     1 RMS=2.58D-03 Max=1.89D-02 NDo=     1
 LinEq1:  Iter=  2 NonCon=     1 RMS=4.17D-04 Max=2.72D-03 NDo=     1
 LinEq1:  Iter=  3 NonCon=     1 RMS=5.16D-05 Max=2.96D-04 NDo=     1
 LinEq1:  Iter=  4 NonCon=     1 RMS=5.22D-06 Max=2.38D-05 NDo=     1
 LinEq1:  Iter=  5 NonCon=     1 RMS=9.63D-07 Max=7.94D-06 NDo=     1
 LinEq1:  Iter=  6 NonCon=     1 RMS=1.52D-07 Max=6.08D-07 NDo=     1
 LinEq1:  Iter=  7 NonCon=     1 RMS=2.41D-08 Max=1.36D-07 NDo=     1
 LinEq1:  Iter=  8 NonCon=     1 RMS=2.87D-09 Max=9.88D-09 NDo=     1
 LinEq1:  Iter=  9 NonCon=     1 RMS=3.24D-10 Max=1.39D-09 NDo=     1
 LinEq1:  Iter= 10 NonCon=     0 RMS=3.28D-11 Max=1.29D-10 NDo=     1
 Linear equations converged to 1.000D-10 1.000D-09 after    10 iterations.
 End of Minotr F.D. properties file   721 does not exist.
 End of Minotr F.D. properties file   722 does not exist.
 End of Minotr F.D. properties file   788 does not exist.
 Leave Link 1002 at Tue Dec 15 16:19:42 2015, MaxMem=    33554432 cpu:         0.0
 (Enter /home/Applications/g09/g09/l601.exe)
 Copying SCF densities to generalized density rwf, IOpCl= 0 IROHF=0.

 **********************************************************************

            Population analysis using the SCF density.

 **********************************************************************

 Orbital symmetries:
       Occupied  (A) (A) (A) (A) (A) (A) (A) (A) (A) (A) (A) (A)
                 (A)
       Virtual   (A) (A) (A) (A) (A) (A) (A) (A) (A) (A) (A)
 The electronic state is 1-A.
 Alpha  occ. eigenvalues --   -1.54997  -1.23136  -1.10049  -0.82740  -0.81683
 Alpha  occ. eigenvalues --   -0.68504  -0.59419  -0.57301  -0.50992  -0.50755
 Alpha  occ. eigenvalues --   -0.49479  -0.39731  -0.34057
 Alpha virt. eigenvalues --    0.02420   0.06342   0.09535   0.14247   0.14757
 Alpha virt. eigenvalues --    0.15596   0.17732   0.18603   0.19413   0.20772
 Alpha virt. eigenvalues --    0.22091
     Molecular Orbital Coefficients:
                           1         2         3         4         5
                           O         O         O         O         O
     Eigenvalues --    -1.54997  -1.23136  -1.10049  -0.82740  -0.81683
   1 1   C  1S          0.29689  -0.50453  -0.22659  -0.14187  -0.39306
   2        1PX        -0.07380   0.08043  -0.15474   0.22546  -0.16764
   3        1PY        -0.10636   0.02982   0.13369  -0.27413  -0.08869
   4        1PZ        -0.00451   0.00714   0.00240   0.00503   0.00143
   5 2   C  1S          0.36218  -0.16604  -0.50095   0.37066   0.19861
   6        1PX        -0.17688  -0.06368   0.00142   0.16863  -0.08042
   7        1PY         0.01067  -0.22593   0.00283   0.05998  -0.34215
   8        1PZ         0.00072  -0.00210  -0.00069   0.00348  -0.00662
   9 3   O  1S          0.64192   0.58946  -0.06366  -0.28809  -0.07309
  10        1PX         0.00842  -0.03377  -0.33460  -0.10354   0.47487
  11        1PY         0.19341  -0.02346   0.03370   0.15775   0.02323
  12        1PZ         0.00298   0.00121   0.00184   0.00626  -0.00724
  13 4   C  1S          0.36087  -0.05457   0.53116   0.41652  -0.00544
  14        1PX         0.18008   0.03802  -0.00727  -0.14304  -0.06774
  15        1PY        -0.02864  -0.22079   0.03689  -0.08826   0.35792
  16        1PZ        -0.00463  -0.00016  -0.00510   0.00212  -0.00271
  17 5   C  1S          0.28322  -0.43901   0.32703  -0.31923   0.29743
  18        1PX         0.05954  -0.11017  -0.14593  -0.16913  -0.23880
  19        1PY        -0.11423   0.02641  -0.10392  -0.22727  -0.03036
  20        1PZ         0.00476  -0.00707   0.00456  -0.00207   0.00094
  21 6   H  1S          0.05905  -0.13198   0.12622  -0.18369   0.18736
  22 7   H  1S          0.08747  -0.00339   0.22301   0.29199  -0.04866
  23 8   H  1S          0.08317  -0.04115  -0.20523   0.23094   0.15904
  24 9   H  1S          0.06760  -0.16821  -0.09111  -0.09767  -0.27048
                           6         7         8         9        10
                           O         O         O         O         O
     Eigenvalues --    -0.68504  -0.59419  -0.57301  -0.50992  -0.50755
   1 1   C  1S         -0.07829   0.01282   0.15741   0.00848   0.00013
   2        1PX        -0.18286  -0.00906   0.02818  -0.48279   0.30232
   3        1PY        -0.24681   0.00186   0.09473   0.23402   0.48765
   4        1PZ         0.00071   0.23344  -0.01136  -0.01435   0.00810
   5 2   C  1S         -0.07372  -0.00740  -0.13066   0.01092  -0.06147
   6        1PX        -0.33468  -0.02726  -0.43136   0.15490   0.03159
   7        1PY         0.15432  -0.00989  -0.02018  -0.37829  -0.32935
   8        1PZ         0.00571   0.37817  -0.02130  -0.01940  -0.00302
   9 3   O  1S         -0.18704  -0.00234  -0.00016  -0.09306  -0.09343
  10        1PX         0.00288   0.03573   0.46912  -0.01047   0.08555
  11        1PY         0.47938  -0.01153  -0.03380   0.00860   0.38371
  12        1PZ         0.00659   0.77575  -0.05372   0.00040   0.01266
  13 4   C  1S         -0.06775   0.01016   0.13000   0.04981   0.10872
  14        1PX         0.37171  -0.02076  -0.42468  -0.03004   0.25398
  15        1PY         0.06632  -0.00131   0.07058  -0.18513   0.13140
  16        1PZ        -0.00373   0.38321  -0.01056   0.01023  -0.00101
  17 5   C  1S         -0.10180  -0.01081  -0.17176   0.00434  -0.07175
  18        1PX         0.14785   0.00476   0.08922   0.53952  -0.15101
  19        1PY        -0.26360   0.01042  -0.11434  -0.09132  -0.12577
  20        1PZ         0.00336   0.22272  -0.00574   0.01027   0.00388
  21 6   H  1S         -0.23188  -0.00102  -0.19726  -0.29783  -0.06141
  22 7   H  1S         -0.26350   0.02222   0.33812   0.12644  -0.15779
  23 8   H  1S         -0.26201  -0.02020  -0.32667   0.28863   0.12735
  24 9   H  1S         -0.22943   0.00152   0.15607  -0.10062   0.46018
                          11        12        13        14        15
                           O         O         O         V         V
     Eigenvalues --    -0.49479  -0.39731  -0.34057   0.02420   0.06342
   1 1   C  1S         -0.05143   0.01549  -0.00772  -0.01272   0.01682
   2        1PX        -0.05108  -0.01602   0.00709   0.01376   0.00217
   3        1PY         0.04652   0.00071  -0.00322  -0.00572  -0.00129
   4        1PZ        -0.01462   0.62846  -0.28915  -0.27363   0.62451
   5 2   C  1S          0.09903   0.00025   0.00103  -0.00340  -0.00503
   6        1PX        -0.20258   0.00454   0.00104   0.00877  -0.00665
   7        1PY        -0.07175  -0.00943   0.02217  -0.00818  -0.00084
   8        1PZ        -0.01242   0.23925  -0.57915   0.53937  -0.41465
   9 3   O  1S         -0.16040  -0.00042   0.00440   0.00156  -0.00364
  10        1PX         0.01004  -0.00859  -0.00222   0.00106   0.00425
  11        1PY         0.49243   0.01456  -0.00167   0.00329  -0.00851
  12        1PZ        -0.00174  -0.49916  -0.06089  -0.37629   0.01771
  13 4   C  1S         -0.03962   0.00059   0.00901   0.01023   0.00345
  14        1PX        -0.08332   0.00211   0.01342   0.01259   0.01124
  15        1PY        -0.44065  -0.00175   0.01556   0.00748  -0.01030
  16        1PZ         0.00209   0.07819   0.61177   0.60419   0.32646
  17 5   C  1S         -0.00679  -0.01496  -0.01272   0.01165   0.01300
  18        1PX         0.01136  -0.00634  -0.00957   0.01714  -0.00271
  19        1PY         0.54436   0.01783   0.01007   0.00360  -0.00768
  20        1PZ        -0.01832   0.53928   0.44875  -0.35521  -0.57447
  21 6   H  1S          0.35920   0.01015   0.00855  -0.00559  -0.00697
  22 7   H  1S          0.19321   0.00028  -0.00770  -0.00242  -0.00183
  23 8   H  1S         -0.03488   0.00656  -0.00275  -0.00169   0.00406
  24 9   H  1S         -0.02815  -0.00873   0.00082   0.00633  -0.01167
                          16        17        18        19        20
                           V         V         V         V         V
     Eigenvalues --     0.09535   0.14247   0.14757   0.15596   0.17732
   1 1   C  1S          0.03944   0.36039   0.00043   0.02829  -0.11854
   2        1PX         0.02336  -0.09099   0.12252   0.39417  -0.38873
   3        1PY         0.04732  -0.11682   0.27015  -0.19925   0.16057
   4        1PZ         0.00557  -0.01902   0.00662   0.00455   0.00829
   5 2   C  1S         -0.26734  -0.36899   0.19235  -0.16795   0.26345
   6        1PX         0.32403  -0.13525   0.23288   0.29696   0.20919
   7        1PY         0.32764  -0.06044   0.11019  -0.16717   0.09399
   8        1PZ         0.00076   0.00406  -0.00181  -0.00869   0.00028
   9 3   O  1S          0.24423  -0.00699   0.01902  -0.01636   0.06124
  10        1PX         0.06721   0.10683   0.13394   0.29043  -0.11091
  11        1PY         0.49570  -0.02453  -0.02057  -0.02946   0.08397
  12        1PZ         0.01180  -0.00098   0.00295  -0.00064   0.00244
  13 4   C  1S         -0.23176   0.26365   0.43283  -0.03542  -0.07811
  14        1PX        -0.23847  -0.05011  -0.00349   0.37197  -0.09672
  15        1PY         0.35334   0.05271   0.22648  -0.06889   0.20694
  16        1PZ         0.00452  -0.00440  -0.01712  -0.01215   0.00840
  17 5   C  1S          0.03955  -0.40922  -0.12981   0.02501  -0.35834
  18        1PX         0.03223  -0.01880   0.24022   0.38208   0.07628
  19        1PY         0.07471  -0.03312   0.42511  -0.15972  -0.29522
  20        1PZ        -0.00788  -0.01585  -0.00962   0.01374  -0.02208
  21 6   H  1S         -0.12612   0.39117  -0.10022   0.31416   0.50254
  22 7   H  1S          0.24214  -0.27327  -0.31155   0.33212   0.05921
  23 8   H  1S          0.24960   0.41443  -0.30587  -0.17747  -0.29197
  24 9   H  1S         -0.14579  -0.18500  -0.30804  -0.13000   0.20579
                          21        22        23        24
                           V         V         V         V
     Eigenvalues --     0.18603   0.19413   0.20772   0.22091
   1 1   C  1S         -0.42597  -0.13010  -0.22772  -0.01679
   2        1PX        -0.02007  -0.04637   0.30099  -0.31595
   3        1PY        -0.37009   0.25598   0.38795   0.12205
   4        1PZ         0.02551   0.00311   0.01017  -0.00598
   5 2   C  1S         -0.12430   0.07860   0.08283  -0.08018
   6        1PX        -0.01624  -0.35624  -0.20806   0.29125
   7        1PY         0.18772   0.28062   0.34983   0.38755
   8        1PZ        -0.00672   0.00847   0.00975   0.00930
   9 3   O  1S          0.02033  -0.07321  -0.00206  -0.00914
  10        1PX         0.11222  -0.04572   0.03835   0.52435
  11        1PY        -0.00872  -0.23786  -0.01128  -0.05343
  12        1PZ         0.00349  -0.00275  -0.00213  -0.00772
  13 4   C  1S          0.20517  -0.01205  -0.03406   0.11026
  14        1PX        -0.06782   0.47099  -0.22606   0.25418
  15        1PY         0.06722   0.29296  -0.26475  -0.41323
  16        1PZ        -0.01078  -0.01124   0.00782  -0.00267
  17 5   C  1S          0.04250  -0.17657   0.18951  -0.00661
  18        1PX         0.38957   0.06058   0.25596  -0.31819
  19        1PY         0.18036   0.20258  -0.37866  -0.04711
  20        1PZ         0.00221  -0.00912   0.01573  -0.00092
  21 6   H  1S          0.02685   0.02287   0.20347  -0.08385
  22 7   H  1S         -0.17719   0.42041  -0.19985  -0.01361
  23 8   H  1S          0.18015   0.27754   0.19988   0.01669
  24 9   H  1S          0.56075  -0.03549  -0.20961   0.08336
     Density Matrix:
                           1         2         3         4         5
   1 1   C  1S          1.20551
   2        1PX         0.04676   0.95303
   3        1PY         0.06157   0.04488   0.95545
   4        1PZ         0.01397  -0.00626  -0.00005   1.06757
   5 2   C  1S          0.30851   0.13732  -0.49337  -0.00882   1.24561
   6        1PX        -0.08654   0.10711   0.12386   0.00584   0.10652
   7        1PY         0.45446   0.21965  -0.57231  -0.02468  -0.01081
   8        1PZ         0.02648  -0.00430  -0.01575   0.81353  -0.00260
   9 3   O  1S         -0.00161   0.03263  -0.00484   0.00065   0.09576
  10        1PX        -0.00648  -0.02324   0.04633  -0.00394   0.33211
  11        1PY        -0.07571   0.01649   0.05689   0.00663   0.22917
  12        1PZ        -0.00876   0.00751  -0.00071  -0.22849   0.00099
  13 4   C  1S         -0.02865   0.01694   0.01831   0.00141   0.00974
  14        1PX        -0.01876  -0.02829   0.01425   0.00004   0.00027
  15        1PY        -0.01353   0.08075  -0.03128   0.00443  -0.04329
  16        1PZ         0.00126  -0.00661   0.00036  -0.07670   0.00200
  17 5   C  1S          0.28180  -0.47613   0.07242  -0.02344  -0.02763
  18        1PX         0.46133  -0.64004   0.12712  -0.02549  -0.00692
  19        1PY        -0.01066   0.00684   0.12178   0.00687   0.02198
  20        1PZ         0.02296  -0.02669   0.00359   0.52260  -0.00491
  21 6   H  1S         -0.05178   0.07260  -0.00804   0.00541   0.05636
  22 7   H  1S          0.04033  -0.05683   0.00688  -0.00168   0.04876
  23 8   H  1S         -0.06021  -0.02517   0.09360   0.00271   0.62194
  24 9   H  1S          0.57763   0.50905   0.59466  -0.00865  -0.05507
                           6         7         8         9        10
   6        1PX         0.87024
   7        1PY        -0.09406   0.90690
   8        1PZ        -0.00403  -0.01070   1.07350
   9 3   O  1S         -0.23203  -0.14006  -0.00354   1.86010
  10        1PX        -0.52151  -0.39239  -0.00122  -0.01483   1.15672
  11        1PY        -0.47943  -0.16278  -0.00667  -0.28851   0.01703
  12        1PZ        -0.00132  -0.00759   0.42087  -0.00560   0.00661
  13 4   C  1S         -0.00682  -0.04053  -0.00740   0.10060  -0.29809
  14        1PX         0.05333   0.01603  -0.00619   0.21541  -0.38487
  15        1PY        -0.02469  -0.02104  -0.00929  -0.17664   0.43193
  16        1PZ        -0.00225   0.01203  -0.38134  -0.00377   0.01338
  17 5   C  1S          0.01746  -0.01516   0.00163  -0.00226  -0.01055
  18        1PX        -0.04935  -0.07536  -0.00803  -0.03379  -0.03752
  19        1PY        -0.01711  -0.02447  -0.00392  -0.00235  -0.03301
  20        1PZ         0.00562   0.00133  -0.09298   0.00269  -0.00180
  21 6   H  1S         -0.01194   0.06220  -0.00035   0.02115  -0.04232
  22 7   H  1S         -0.08919  -0.04222   0.00220  -0.03895   0.03735
  23 8   H  1S          0.59749  -0.42670  -0.00906  -0.04006  -0.04975
  24 9   H  1S          0.03589  -0.04958  -0.00760   0.02344   0.06245
                          11        12        13        14        15
  11        1PY         1.37123
  12        1PZ        -0.01141   1.71571
  13 4   C  1S          0.28039   0.01140   1.25281
  14        1PX         0.51703   0.02159  -0.10245   0.90093
  15        1PY        -0.28703  -0.01103   0.01986   0.09023   0.88432
  16        1PZ        -0.01159   0.44307   0.01035   0.00371   0.00753
  17 5   C  1S         -0.08251   0.00855   0.28461   0.14957   0.41847
  18        1PX        -0.00606   0.00469  -0.21523   0.01856  -0.32415
  19        1PY         0.06774  -0.00260  -0.45789  -0.21654  -0.52427
  20        1PZ        -0.00033  -0.24665   0.02194   0.01843   0.02872
  21 6   H  1S          0.08112  -0.00217  -0.05516  -0.04113  -0.05005
  22 7   H  1S         -0.06573  -0.00355   0.63109  -0.65309  -0.31951
  23 8   H  1S         -0.05959  -0.00212   0.04647   0.07883  -0.05224
  24 9   H  1S          0.07740   0.00519   0.05591   0.01875   0.06196
                          16        17        18        19        20
  16        1PZ         1.05503
  17 5   C  1S         -0.03039   1.23168
  18        1PX         0.00090  -0.03328   0.93322
  19        1PY         0.02945   0.07297  -0.04458   0.96139
  20        1PZ         0.80421  -0.01753  -0.00279   0.00812   1.08480
  21 6   H  1S          0.00911   0.57644  -0.42681   0.65421   0.00381
  22 7   H  1S          0.00461  -0.05866   0.04180   0.09258  -0.00646
  23 8   H  1S         -0.00201   0.04675   0.06100  -0.00327   0.00464
  24 9   H  1S         -0.00249  -0.04537  -0.05416   0.01241  -0.00672
                          21        22        23        24
  21 6   H  1S          0.84008
  22 7   H  1S          0.01352   0.81510
  23 8   H  1S         -0.01848  -0.02168   0.81183
  24 9   H  1S         -0.00824  -0.01343   0.01050   0.84725
    Full Mulliken population analysis:
                           1         2         3         4         5
   1 1   C  1S          1.20551
   2        1PX         0.00000   0.95303
   3        1PY         0.00000   0.00000   0.95545
   4        1PZ         0.00000   0.00000   0.00000   1.06757
   5 2   C  1S          0.00000   0.00000   0.00000   0.00000   1.24561
   6        1PX         0.00000   0.00000   0.00000   0.00000   0.00000
   7        1PY         0.00000   0.00000   0.00000   0.00000   0.00000
   8        1PZ         0.00000   0.00000   0.00000   0.00000   0.00000
   9 3   O  1S          0.00000   0.00000   0.00000   0.00000   0.00000
  10        1PX         0.00000   0.00000   0.00000   0.00000   0.00000
  11        1PY         0.00000   0.00000   0.00000   0.00000   0.00000
  12        1PZ         0.00000   0.00000   0.00000   0.00000   0.00000
  13 4   C  1S          0.00000   0.00000   0.00000   0.00000   0.00000
  14        1PX         0.00000   0.00000   0.00000   0.00000   0.00000
  15        1PY         0.00000   0.00000   0.00000   0.00000   0.00000
  16        1PZ         0.00000   0.00000   0.00000   0.00000   0.00000
  17 5   C  1S          0.00000   0.00000   0.00000   0.00000   0.00000
  18        1PX         0.00000   0.00000   0.00000   0.00000   0.00000
  19        1PY         0.00000   0.00000   0.00000   0.00000   0.00000
  20        1PZ         0.00000   0.00000   0.00000   0.00000   0.00000
  21 6   H  1S          0.00000   0.00000   0.00000   0.00000   0.00000
  22 7   H  1S          0.00000   0.00000   0.00000   0.00000   0.00000
  23 8   H  1S          0.00000   0.00000   0.00000   0.00000   0.00000
  24 9   H  1S          0.00000   0.00000   0.00000   0.00000   0.00000
                           6         7         8         9        10
   6        1PX         0.87024
   7        1PY         0.00000   0.90690
   8        1PZ         0.00000   0.00000   1.07350
   9 3   O  1S          0.00000   0.00000   0.00000   1.86010
  10        1PX         0.00000   0.00000   0.00000   0.00000   1.15672
  11        1PY         0.00000   0.00000   0.00000   0.00000   0.00000
  12        1PZ         0.00000   0.00000   0.00000   0.00000   0.00000
  13 4   C  1S          0.00000   0.00000   0.00000   0.00000   0.00000
  14        1PX         0.00000   0.00000   0.00000   0.00000   0.00000
  15        1PY         0.00000   0.00000   0.00000   0.00000   0.00000
  16        1PZ         0.00000   0.00000   0.00000   0.00000   0.00000
  17 5   C  1S          0.00000   0.00000   0.00000   0.00000   0.00000
  18        1PX         0.00000   0.00000   0.00000   0.00000   0.00000
  19        1PY         0.00000   0.00000   0.00000   0.00000   0.00000
  20        1PZ         0.00000   0.00000   0.00000   0.00000   0.00000
  21 6   H  1S          0.00000   0.00000   0.00000   0.00000   0.00000
  22 7   H  1S          0.00000   0.00000   0.00000   0.00000   0.00000
  23 8   H  1S          0.00000   0.00000   0.00000   0.00000   0.00000
  24 9   H  1S          0.00000   0.00000   0.00000   0.00000   0.00000
                          11        12        13        14        15
  11        1PY         1.37123
  12        1PZ         0.00000   1.71571
  13 4   C  1S          0.00000   0.00000   1.25281
  14        1PX         0.00000   0.00000   0.00000   0.90093
  15        1PY         0.00000   0.00000   0.00000   0.00000   0.88432
  16        1PZ         0.00000   0.00000   0.00000   0.00000   0.00000
  17 5   C  1S          0.00000   0.00000   0.00000   0.00000   0.00000
  18        1PX         0.00000   0.00000   0.00000   0.00000   0.00000
  19        1PY         0.00000   0.00000   0.00000   0.00000   0.00000
  20        1PZ         0.00000   0.00000   0.00000   0.00000   0.00000
  21 6   H  1S          0.00000   0.00000   0.00000   0.00000   0.00000
  22 7   H  1S          0.00000   0.00000   0.00000   0.00000   0.00000
  23 8   H  1S          0.00000   0.00000   0.00000   0.00000   0.00000
  24 9   H  1S          0.00000   0.00000   0.00000   0.00000   0.00000
                          16        17        18        19        20
  16        1PZ         1.05503
  17 5   C  1S          0.00000   1.23168
  18        1PX         0.00000   0.00000   0.93322
  19        1PY         0.00000   0.00000   0.00000   0.96139
  20        1PZ         0.00000   0.00000   0.00000   0.00000   1.08480
  21 6   H  1S          0.00000   0.00000   0.00000   0.00000   0.00000
  22 7   H  1S          0.00000   0.00000   0.00000   0.00000   0.00000
  23 8   H  1S          0.00000   0.00000   0.00000   0.00000   0.00000
  24 9   H  1S          0.00000   0.00000   0.00000   0.00000   0.00000
                          21        22        23        24
  21 6   H  1S          0.84008
  22 7   H  1S          0.00000   0.81510
  23 8   H  1S          0.00000   0.00000   0.81183
  24 9   H  1S          0.00000   0.00000   0.00000   0.84725
     Gross orbital populations:
                           1
   1 1   C  1S          1.20551
   2        1PX         0.95303
   3        1PY         0.95545
   4        1PZ         1.06757
   5 2   C  1S          1.24561
   6        1PX         0.87024
   7        1PY         0.90690
   8        1PZ         1.07350
   9 3   O  1S          1.86010
  10        1PX         1.15672
  11        1PY         1.37123
  12        1PZ         1.71571
  13 4   C  1S          1.25281
  14        1PX         0.90093
  15        1PY         0.88432
  16        1PZ         1.05503
  17 5   C  1S          1.23168
  18        1PX         0.93322
  19        1PY         0.96139
  20        1PZ         1.08480
  21 6   H  1S          0.84008
  22 7   H  1S          0.81510
  23 8   H  1S          0.81183
  24 9   H  1S          0.84725
          Condensed to atoms (all electrons):
               1          2          3          4          5          6
     1  C    4.181554   0.000000   0.000000   0.000000   0.000000   0.000000
     2  C    0.000000   4.096258   0.000000   0.000000   0.000000   0.000000
     3  O    0.000000   0.000000   6.103760   0.000000   0.000000   0.000000
     4  C    0.000000   0.000000   0.000000   4.093084   0.000000   0.000000
     5  C    0.000000   0.000000   0.000000   0.000000   4.211088   0.000000
     6  H    0.000000   0.000000   0.000000   0.000000   0.000000   0.840078
     7  H    0.000000   0.000000   0.000000   0.000000   0.000000   0.000000
     8  H    0.000000   0.000000   0.000000   0.000000   0.000000   0.000000
     9  H    0.000000   0.000000   0.000000   0.000000   0.000000   0.000000
               7          8          9
     1  C    0.000000   0.000000   0.000000
     2  C    0.000000   0.000000   0.000000
     3  O    0.000000   0.000000   0.000000
     4  C    0.000000   0.000000   0.000000
     5  C    0.000000   0.000000   0.000000
     6  H    0.000000   0.000000   0.000000
     7  H    0.815096   0.000000   0.000000
     8  H    0.000000   0.811833   0.000000
     9  H    0.000000   0.000000   0.847249
 Mulliken charges:
               1
     1  C   -0.181554
     2  C   -0.096258
     3  O   -0.103760
     4  C   -0.093084
     5  C   -0.211088
     6  H    0.159922
     7  H    0.184904
     8  H    0.188167
     9  H    0.152751
 Sum of Mulliken charges =   0.00000
 Mulliken charges with hydrogens summed into heavy atoms:
               1
     1  C   -0.028802
     2  C    0.091909
     3  O   -0.103760
     4  C    0.091820
     5  C   -0.051166
 Charge=              0.0000 electrons
 Dipole moment (field-independent basis, Debye):
    X=              0.0114    Y=              0.3935    Z=             -0.0081  Tot=              0.3937
 N-N= 1.033152045570D+02 E-N=-1.707929788017D+02  KE=-1.654433832329D+01
 Orbital energies and kinetic energies (alpha):
                                 1                 2
   1         O                -1.549974         -1.303565
   2         O                -1.231362         -1.046885
   3         O                -1.100488         -0.963955
   4         O                -0.827398         -0.735094
   5         O                -0.816826         -0.704963
   6         O                -0.685044         -0.602544
   7         O                -0.594191         -0.482145
   8         O                -0.573009         -0.505463
   9         O                -0.509925         -0.427557
  10         O                -0.507554         -0.433612
  11         O                -0.494786         -0.410991
  12         O                -0.397314         -0.344898
  13         O                -0.340573         -0.310499
  14         V                 0.024205         -0.198038
  15         V                 0.063416         -0.190877
  16         V                 0.095351         -0.178746
  17         V                 0.142470         -0.249844
  18         V                 0.147567         -0.190925
  19         V                 0.155959         -0.155665
  20         V                 0.177322         -0.192134
  21         V                 0.186035         -0.189234
  22         V                 0.194126         -0.133569
  23         V                 0.207718         -0.122226
  24         V                 0.220907         -0.050033
 Total kinetic energy from orbitals=-1.654433832329D+01
 Leave Link  601 at Tue Dec 15 16:19:42 2015, MaxMem=    33554432 cpu:         0.0
 (Enter /home/Applications/g09/g09/l701.exe)
 Compute integral first derivatives.
 ... and contract with generalized density number  6.
 Leave Link  701 at Tue Dec 15 16:19:42 2015, MaxMem=    33554432 cpu:         0.0
 (Enter /home/Applications/g09/g09/l702.exe)
 L702 exits ... SP integral derivatives will be done elsewhere.
 Leave Link  702 at Tue Dec 15 16:19:42 2015, MaxMem=    33554432 cpu:         0.0
 (Enter /home/Applications/g09/g09/l703.exe)
 Compute integral first derivatives, UseDBF=F ICtDFT=           0.
 Integral derivatives from FoFJK, PRISM(SPDF).
 Calling FoFJK, ICntrl=  10005127 FMM=F ISym2X=0 I1Cent= 0 IOpClX= 0 NMat=1 NMatS=1 NMatT=0.
 FoFJK:  IHMeth= 8 ICntrl=10005127 DoSepK=F KAlg= 0 I1Cent=   0 FoldK=F
 IRaf=         0 NMat=   1 IRICut=       1 DoRegI=T DoRafI=F ISym2E= 0.
 FoFCou: FMM=F IPFlag=           0 FMFlag=      100000 FMFlg1=         800
         NFxFlg=           0 DoJE=F BraDBF=F KetDBF=F FulRan=T
         wScrn=  0.000000 ICntrl=10005127 IOpCl=  0 I1Cent=           0 NGrid=           0
         NMat0=    1 NMatS0=      1 NMatT0=    0 NMatD0=    1 NMtDS0=    0 NMtDT0=    0
 Symmetry not used in FoFCou.
 Leave Link  703 at Tue Dec 15 16:19:42 2015, MaxMem=    33554432 cpu:         0.0
 (Enter /home/Applications/g09/g09/l716.exe)
 Dipole        =-3.32045476D-02 2.64792714D-01-4.47012985D-05
 ***** Axes restored to original set *****
 -------------------------------------------------------------------
 Center     Atomic                   Forces (Hartrees/Bohr)
 Number     Number              X              Y              Z
 -------------------------------------------------------------------
      1        6           0.077554202    0.021221461   -0.007628431
      2        6          -0.036922126   -0.007139775    0.003289184
      3        8          -0.084748268   -0.003426551   -0.000685077
      4        6           0.022946615   -0.036777995   -0.006410258
      5        6           0.049730220    0.024878853    0.009877357
      6        1          -0.006105532   -0.014779136   -0.002131399
      7        1          -0.028582593    0.057432999    0.002618463
      8        1          -0.015593061   -0.026544357   -0.000708162
      9        1           0.021720543   -0.014865500    0.001778323
 -------------------------------------------------------------------
 Cartesian Forces:  Max     0.084748268 RMS     0.031197922
 Z-matrix is all fixed cartesians, so copy forces.
 Force constants in Cartesian coordinates: 
                1             2             3             4             5 
      1  0.948403D+00
      2 -0.208542D-01  0.848795D+00
      3  0.414094D-02 -0.298174D-02  0.221443D+00
      4 -0.508375D+00 -0.116231D+00 -0.106408D-01  0.925470D+00
      5 -0.928781D-01 -0.224309D+00 -0.345773D-02  0.766576D-01  0.886508D+00
      6 -0.138407D-01 -0.400416D-02 -0.112173D+00  0.169358D-01  0.125169D-01
      7 -0.923686D-02  0.286780D-01  0.216516D-04 -0.258981D+00  0.142320D+00
      8 -0.662612D-02  0.206021D-01  0.174587D-03  0.184470D+00 -0.340486D+00
      9 -0.870703D-03  0.136280D-02  0.718291D-02 -0.135655D-02 -0.226421D-02
     10  0.108333D-01 -0.187483D-03 -0.375423D-03  0.244809D-01  0.175756D-01
     11  0.335220D-01 -0.583425D-03 -0.151689D-02 -0.170349D-01 -0.122402D-01
     12 -0.184922D-02  0.143151D-03 -0.875133D-03  0.338771D-03  0.603289D-04
     13 -0.174667D+00  0.578911D-02  0.640739D-03  0.112219D-01 -0.350258D-01
     14 -0.164898D-01 -0.449482D+00  0.133017D-01 -0.173267D-03  0.526075D-03
     15  0.300868D-03  0.133639D-01 -0.872862D-01  0.420394D-03 -0.109899D-02
     16  0.185273D-01 -0.291688D-03  0.191099D-03  0.920962D-05 -0.739586D-05
     17 -0.219110D-01  0.329002D-03 -0.784212D-03 -0.567471D-05  0.455712D-05
     18  0.206290D-02  0.562052D-03  0.208171D-01 -0.193327D-03  0.155253D-03
     19  0.829065D-05  0.552640D-05  0.197957D-03  0.132723D-05  0.106850D-05
     20  0.000000D+00  0.000000D+00  0.129010D-04  0.256510D-05  0.206505D-05
     21  0.247364D-03  0.164889D-03  0.590636D-02 -0.107315D-03 -0.863950D-04
     22  0.848921D-02 -0.262892D-01 -0.975673D-03 -0.188171D+00 -0.126130D+00
     23 -0.470925D-02  0.146636D-01 -0.416492D-03 -0.119938D+00 -0.334069D+00
     24 -0.215867D-03 -0.209919D-02  0.331034D-01 -0.437041D-02 -0.660122D-02
     25 -0.293982D+00  0.129381D+00  0.679949D-02 -0.565577D-02  0.174869D-01
     26  0.129946D+00 -0.210016D+00 -0.433209D-02 -0.774725D-02  0.240628D-01
     27  0.100244D-01 -0.651171D-02 -0.881178D-01 -0.102662D-02  0.776065D-03
                6             7             8             9            10 
      6  0.207140D+00
      7 -0.218036D-02  0.505008D+00
      8 -0.114304D-02  0.186228D-01  0.694645D+00
      9 -0.441864D-01  0.893778D-02  0.124793D-01  0.506598D-01
     10  0.797652D-03 -0.272541D+00 -0.202412D+00 -0.830350D-02  0.863581D+00
     11 -0.762192D-03 -0.162402D+00 -0.376542D+00 -0.115676D-01 -0.541610D-01
     12 -0.269589D-02 -0.657218D-02 -0.111125D-01 -0.416580D-01 -0.720906D-02
     13  0.198588D-02 -0.922613D-02  0.638904D-02  0.948920D-03 -0.410044D+00
     14  0.143452D-03 -0.282521D-01  0.196212D-01  0.115107D-02  0.902190D-01
     15 -0.243117D-02 -0.106500D-02  0.504048D-03  0.723958D-02  0.119778D-01
     16 -0.253531D-03  0.137656D-05 -0.342528D-05  0.759016D-04 -0.573446D-02
     17  0.156219D-03 -0.374674D-05  0.932297D-05 -0.206590D-03  0.673533D-02
     18  0.532209D-02  0.790869D-04 -0.196791D-03  0.436075D-02  0.109156D-02
     19 -0.612774D-04  0.231563D-01 -0.161128D-01  0.000000D+00 -0.210589D+00
     20 -0.118429D-03  0.131523D-01 -0.914920D-02 -0.799797D-04  0.142223D+00
     21  0.495469D-02  0.770697D-03 -0.689672D-03  0.471874D-02  0.190570D-02
     22 -0.436563D-02  0.218184D-01  0.156713D-01  0.625451D-03  0.188071D-05
     23 -0.682706D-02 -0.121238D-01 -0.870781D-02 -0.492475D-03  0.151719D-05
     24 -0.847697D-01  0.151024D-03  0.990702D-04  0.501000D-02 -0.884833D-04
     25  0.982082D-03  0.121137D-05  0.000000D+00 -0.566460D-04  0.108432D-04
     26  0.382966D-04  0.817612D-05  0.659136D-05 -0.382332D-03  0.565134D-05
     27  0.288398D-01 -0.142693D-03 -0.115035D-03  0.667264D-02  0.203760D-03
               11            12            13            14            15 
     11  0.944218D+00
     12  0.200604D-01  0.181266D+00
     13  0.673241D-01  0.129655D-01  0.790508D+00
     14 -0.200279D+00 -0.446594D-02  0.368135D-01  0.815623D+00
     15 -0.431776D-02 -0.897052D-01 -0.821525D-02 -0.417548D-02  0.191505D+00
     16 -0.175789D-01 -0.610876D-03 -0.233855D+00 -0.107773D+00 -0.341737D-02
     17  0.207015D-01  0.178108D-03 -0.110460D+00 -0.200368D+00 -0.279695D-02
     18  0.131823D-02  0.202109D-01 -0.612623D-02 -0.488854D-02 -0.732512D-01
     19  0.150322D+00  0.276501D-02  0.844269D-02  0.259457D-01  0.258235D-03
     20 -0.375279D+00 -0.492847D-02  0.479653D-02  0.147837D-01 -0.281104D-03
     21 -0.327878D-02 -0.754931D-01  0.207481D-03 -0.192148D-02  0.253644D-01
     22  0.151409D-05 -0.868317D-04  0.620357D-05 -0.498182D-05 -0.170777D-03
     23  0.122143D-05 -0.700480D-04  0.492778D-05 -0.395729D-05 -0.135656D-03
     24 -0.712343D-04  0.408523D-02 -0.289215D-03  0.232256D-03  0.796177D-02
     25  0.722789D-05  0.258905D-03  0.176131D-01 -0.285030D-03 -0.888988D-04
     26  0.376709D-05  0.134938D-03  0.243687D-01 -0.421201D-03 -0.106200D-02
     27  0.135823D-03  0.486521D-02 -0.211781D-02  0.622985D-03  0.206031D-01
               16            17            18            19            20 
     16  0.221036D+00
     17  0.125644D+00  0.179329D+00
     18  0.378624D-02  0.328633D-02  0.388086D-01
     19 -0.490100D-05  0.133396D-04 -0.281576D-03  0.178985D+00
     20  0.000000D+00  0.000000D+00 -0.183505D-04 -0.160175D+00  0.369641D+00
     21 -0.146229D-03  0.398009D-03 -0.840125D-02 -0.287770D-02  0.541343D-02
     22  0.000000D+00  0.000000D+00  0.000000D+00  0.000000D+00  0.000000D+00
     23  0.000000D+00  0.000000D+00  0.000000D+00  0.000000D+00  0.000000D+00
     24  0.000000D+00  0.000000D+00  0.000000D+00  0.000000D+00  0.000000D+00
     25  0.199432D-04 -0.122884D-04 -0.418644D-03  0.000000D+00  0.000000D+00
     26  0.103941D-04 -0.640458D-05 -0.218192D-03  0.000000D+00  0.000000D+00
     27  0.374762D-03 -0.230918D-03 -0.786695D-02  0.000000D+00  0.000000D+00
               21            22            23            24            25 
     21  0.429502D-01
     22  0.000000D+00  0.157858D+00
     23  0.000000D+00  0.136767D+00  0.328128D+00
     24  0.000000D+00  0.470782D-02  0.773072D-02  0.469935D-01
     25  0.000000D+00 -0.225509D-05 -0.179133D-05  0.105134D-03  0.281995D+00
     26  0.000000D+00 -0.152208D-04 -0.120906D-04  0.709602D-03 -0.146576D+00
     27  0.000000D+00  0.265639D-03  0.211010D-03 -0.123843D-01 -0.758142D-02
               26            27 
     26  0.186383D+00
     27  0.511178D-02  0.473884D-01
 Leave Link  716 at Tue Dec 15 16:19:42 2015, MaxMem=    33554432 cpu:         0.0
 (Enter /home/Applications/g09/g09/l103.exe)

 GradGradGradGradGradGradGradGradGradGradGradGradGradGradGradGradGradGrad
 Berny optimization.
 Search for a local minimum.
 Step number   1 out of a maximum of    2
 All quantities printed in internal units (Hartrees-Bohrs-Radians)
 Second derivative matrix not updated -- first step.
 ITU=  0
     Eigenvalues ---    0.01867   0.03127   0.07109   0.07872   0.07962
     Eigenvalues ---    0.08233   0.13079   0.15141   0.17149   0.24327
     Eigenvalues ---    0.25747   0.30028   0.40313   0.46931   0.65688
     Eigenvalues ---    0.85401   1.09357   1.33730   1.45398   1.48802
     Eigenvalues ---    1.62124
 Quadratic step=4.253D-01 exceeds max=3.000D-01 adjusted using Lamda=-8.735D-02.
 Angle between NR and scaled steps=  17.79 degrees.
 Angle between quadratic step and forces=  28.45 degrees.
 Linear search not attempted -- first point.
 TrRot= -0.010303  0.000571 -0.000853  0.888208 -0.000218 -0.887408
 Variable       Old X    -DE/DX   Delta X   Delta X   Delta X     New X
                                 (Linear)    (Quad)   (Total)
    X1        1.84062   0.07755   0.00000   0.11325   0.10402   1.94464
    Y1       -1.35688   0.02122   0.00000   0.01080   0.01293  -1.34395
    Z1        0.04269  -0.00763   0.00000  -0.02420  -0.02501   0.01768
    X2       -0.59308  -0.03692   0.00000  -0.03602  -0.04462  -0.63769
    Y2       -2.14033  -0.00714   0.00000   0.00832   0.00839  -2.13194
    Z2       -0.02286   0.00329   0.00000   0.00898   0.00768  -0.01517
    X3       -2.12909  -0.08475   0.00000  -0.16867  -0.17896  -2.30805
    Y3       -0.00198  -0.00343   0.00000  -0.00453  -0.00580  -0.00777
    Z3       -0.01884  -0.00069   0.00000   0.00051  -0.00066  -0.01950
    X4       -0.65330   0.02295   0.00000  -0.01205  -0.02403  -0.67733
    Y4        2.11892  -0.03678   0.00000  -0.02756  -0.02753   2.09139
    Z4        0.05011  -0.00641   0.00000  -0.01870  -0.01929   0.03081
    X5        1.88314   0.04973   0.00000   0.08662   0.07527   1.95841
    Y5        1.29439   0.02488   0.00000   0.02352   0.02566   1.32006
    Z5       -0.03310   0.00988   0.00000   0.02607   0.02572  -0.00739
    X6        3.48073  -0.00611   0.00000   0.05483   0.04242   3.52315
    Y6        2.64869  -0.01478   0.00000  -0.01673  -0.01333   2.63536
    Z6        0.00325  -0.00213   0.00000   0.00722   0.00730   0.01055
    X7       -1.59593  -0.02858   0.00000  -0.02886  -0.04228  -1.63821
    Y7        3.77690   0.05743   0.00000   0.09969   0.09895   3.87585
    Z7        0.07808   0.00262   0.00000   0.00107   0.00065   0.07873
    X8       -1.55263  -0.01559   0.00000  -0.04065  -0.04781  -1.60043
    Y8       -3.86779  -0.02654   0.00000  -0.05828  -0.05897  -3.92676
    Z8       -0.07287  -0.00071   0.00000   0.01062   0.00888  -0.06399
    X9        3.45740   0.02172   0.00000   0.12423   0.11598   3.57338
    Y9       -2.53010  -0.01487   0.00000  -0.04375  -0.04032  -2.57041
    Z9       -0.01081   0.00178   0.00000  -0.00447  -0.00527  -0.01607
         Item               Value     Threshold  Converged?
 Maximum Force            0.084748     0.000450     NO 
 RMS     Force            0.031198     0.000300     NO 
 Maximum Displacement     0.178961     0.001800     NO 
 RMS     Displacement     0.057428     0.001200     NO 
 Predicted change in Energy=-2.532357D-02
 GradGradGradGradGradGradGradGradGradGradGradGradGradGradGradGradGradGrad

 Leave Link  103 at Tue Dec 15 16:19:42 2015, MaxMem=    33554432 cpu:         0.0
 (Enter /home/Applications/g09/g09/l9999.exe)
 1\1\GINC-DUSTIN-DESKTOP\Force\RAM1-FC\STO-3G\C4H4O1\DUSTIN\15-Dec-2015
 \0\\#P AM1(Input,print) CIS(Singlets,NStates=15) pop(full) force\\AM1-
 Reparam Input\\0,1\C,0.974015,-0.718031,0.022592\C,-0.313842,-1.132614
 ,-0.012096\O,-1.126664,-0.001047,-0.00997\C,-0.345711,1.121285,0.02651
 5\C,0.996517,0.684964,-0.017518\H,1.841925,1.401627,0.001719\H,-0.8445
 3,1.998649,0.041317\H,-0.821615,-2.046746,-0.038563\H,1.829575,-1.3388
 69,-0.005718\\Version=ES64L-G09RevD.01\State=1-A\HF=0.018103\RMSD=8.99
 6e-09\RMSF=3.120e-02\Dipole=0.2612635,0.0543882,0.0010147\PG=C01 [X(C4
 H4O1)]\\@


 WE LEARN WISDOM FROM FAILURE MUCH MORE THAN FROM SUCCESS.
 WE DISCOVER WHAT WILL DO BY FINDING OUT WHAT WILL NOT DO...
 AND HE WHO NEVER MADE A MISTAKE NEVER MADE A DISCOVERY
 Job cpu time:       0 days  0 hours  0 minutes  0.4 seconds.
 File lengths (MBytes):  RWF=      7 Int=      0 D2E=      0 Chk=      2 Scr=      1
 Normal termination of Gaussian 09 at Tue Dec 15 16:19:42 2015.
