 Entering Gaussian System, Link 0=g09
 Input=FuranAM1_2P11.com
 Output=FuranAM1_2P11.log
 Initial command:
 /home/Applications/g09/g09/l1.exe "/home/Applications/g09/scratch/Gau-9209.inp" -scrdir="/home/Applications/g09/scratch/"
 Entering Link 1 = /home/Applications/g09/g09/l1.exe PID=      9214.
  
 Copyright (c) 1988,1990,1992,1993,1995,1998,2003,2009,2013,
            Gaussian, Inc.  All Rights Reserved.
  
 This is part of the Gaussian(R) 09 program.  It is based on
 the Gaussian(R) 03 system (copyright 2003, Gaussian, Inc.),
 the Gaussian(R) 98 system (copyright 1998, Gaussian, Inc.),
 the Gaussian(R) 94 system (copyright 1995, Gaussian, Inc.),
 the Gaussian 92(TM) system (copyright 1992, Gaussian, Inc.),
 the Gaussian 90(TM) system (copyright 1990, Gaussian, Inc.),
 the Gaussian 88(TM) system (copyright 1988, Gaussian, Inc.),
 the Gaussian 86(TM) system (copyright 1986, Carnegie Mellon
 University), and the Gaussian 82(TM) system (copyright 1983,
 Carnegie Mellon University). Gaussian is a federally registered
 trademark of Gaussian, Inc.
  
 This software contains proprietary and confidential information,
 including trade secrets, belonging to Gaussian, Inc.
  
 This software is provided under written license and may be
 used, copied, transmitted, or stored only in accord with that
 written license.
  
 The following legend is applicable only to US Government
 contracts under FAR:
  
                    RESTRICTED RIGHTS LEGEND
  
 Use, reproduction and disclosure by the US Government is
 subject to restrictions as set forth in subparagraphs (a)
 and (c) of the Commercial Computer Software - Restricted
 Rights clause in FAR 52.227-19.
  
 Gaussian, Inc.
 340 Quinnipiac St., Bldg. 40, Wallingford CT 06492
  
  
 ---------------------------------------------------------------
 Warning -- This program may not be used in any manner that
 competes with the business of Gaussian, Inc. or will provide
 assistance to any competitor of Gaussian, Inc.  The licensee
 of this program is prohibited from giving any competitor of
 Gaussian, Inc. access to this program.  By using this program,
 the user acknowledges that Gaussian, Inc. is engaged in the
 business of creating and licensing software in the field of
 computational chemistry and represents and warrants to the
 licensee that it is not a competitor of Gaussian, Inc. and that
 it will not use this program in any manner prohibited above.
 ---------------------------------------------------------------
  

 Cite this work as:
 Gaussian 09, Revision D.01,
 M. J. Frisch, G. W. Trucks, H. B. Schlegel, G. E. Scuseria, 
 M. A. Robb, J. R. Cheeseman, G. Scalmani, V. Barone, B. Mennucci, 
 G. A. Petersson, H. Nakatsuji, M. Caricato, X. Li, H. P. Hratchian, 
 A. F. Izmaylov, J. Bloino, G. Zheng, J. L. Sonnenberg, M. Hada, 
 M. Ehara, K. Toyota, R. Fukuda, J. Hasegawa, M. Ishida, T. Nakajima, 
 Y. Honda, O. Kitao, H. Nakai, T. Vreven, J. A. Montgomery, Jr., 
 J. E. Peralta, F. Ogliaro, M. Bearpark, J. J. Heyd, E. Brothers, 
 K. N. Kudin, V. N. Staroverov, T. Keith, R. Kobayashi, J. Normand, 
 K. Raghavachari, A. Rendell, J. C. Burant, S. S. Iyengar, J. Tomasi, 
 M. Cossi, N. Rega, J. M. Millam, M. Klene, J. E. Knox, J. B. Cross, 
 V. Bakken, C. Adamo, J. Jaramillo, R. Gomperts, R. E. Stratmann, 
 O. Yazyev, A. J. Austin, R. Cammi, C. Pomelli, J. W. Ochterski, 
 R. L. Martin, K. Morokuma, V. G. Zakrzewski, G. A. Voth, 
 P. Salvador, J. J. Dannenberg, S. Dapprich, A. D. Daniels, 
 O. Farkas, J. B. Foresman, J. V. Ortiz, J. Cioslowski, 
 and D. J. Fox, Gaussian, Inc., Wallingford CT, 2013.
 
 ******************************************
 Gaussian 09:  ES64L-G09RevD.01 24-Apr-2013
                11-Dec-2015 
 ******************************************
 ------------------------------------------------------------
 #P AM1(Input,print) CIS(Singlets,NStates=15) pop(full) force
 ------------------------------------------------------------
 1/10=7,30=1,38=1/1,3;
 2/12=2,17=6,18=5,40=1/2;
 3/5=2,16=1,25=1,41=700000,71=1,135=100,136=1/1,2,8,3;
 4/35=1/1;
 5/5=2,35=1,38=5/2;
 8/6=1,10=1,108=15/1;
 9/15=2,41=15,42=1,48=1,49=10/14;
 10/5=4/2;
 6/7=3,18=1/1;
 7/12=6,13=5,29=1/1,2,3,16;
 1/10=7,30=1/3;
 99//99;
 Leave Link    1 at Fri Dec 11 13:41:24 2015, MaxMem=           0 cpu:         0.0
 (Enter /home/Applications/g09/g09/l101.exe)
 -----------------
 AM1-Reparam Input
 -----------------
 Symbolic Z-matrix:
 Charge =  0 Multiplicity = 1
 6                     0.97056  -0.68158  -0.03136 
 6                    -0.30804  -1.13675   0.01632 
 8                    -1.1553    0.03059   0.00233 
 6                    -0.3883    1.0936   -0.00541 
 6                     0.91069   0.71178  -0.0322 
 1                     1.8414    1.41149   0.04528 
 1                    -0.85617   2.083     0.01641 
 1                    -0.79252  -2.08485  -0.02781 
 1                     1.76928  -1.32437  -0.00763 
 
 NAtoms=      9 NQM=        9 NQMF=       0 NMMI=      0 NMMIF=      0
                NMic=       0 NMicF=      0.
                    Isotopes and Nuclear Properties:
 (Nuclear quadrupole moments (NQMom) in fm**2, nuclear magnetic moments (NMagM)
  in nuclear magnetons)

  Atom         1           2           3           4           5           6           7           8           9
 IAtWgt=          12          12          16          12          12           1           1           1           1
 AtmWgt=  12.0000000  12.0000000  15.9949146  12.0000000  12.0000000   1.0078250   1.0078250   1.0078250   1.0078250
 NucSpn=           0           0           0           0           0           1           1           1           1
 AtZEff=   0.0000000   0.0000000   0.0000000   0.0000000   0.0000000   0.0000000   0.0000000   0.0000000   0.0000000
 NQMom=    0.0000000   0.0000000   0.0000000   0.0000000   0.0000000   0.0000000   0.0000000   0.0000000   0.0000000
 NMagM=    0.0000000   0.0000000   0.0000000   0.0000000   0.0000000   2.7928460   2.7928460   2.7928460   2.7928460
 AtZNuc=   6.0000000   6.0000000   8.0000000   6.0000000   6.0000000   1.0000000   1.0000000   1.0000000   1.0000000
 Leave Link  101 at Fri Dec 11 13:41:24 2015, MaxMem=    33554432 cpu:         0.0
 (Enter /home/Applications/g09/g09/l103.exe)

 GradGradGradGradGradGradGradGradGradGradGradGradGradGradGradGradGradGrad
 Berny optimization.
 Initialization pass.
 Trust Radius=3.00D-01 FncErr=1.00D-07 GrdErr=1.00D-07
 Number of steps in this run=      2 maximum allowed number of steps=      2.
 GradGradGradGradGradGradGradGradGradGradGradGradGradGradGradGradGradGrad

 Leave Link  103 at Fri Dec 11 13:41:24 2015, MaxMem=    33554432 cpu:         0.0
 (Enter /home/Applications/g09/g09/l202.exe)
                          Input orientation:                          
 ---------------------------------------------------------------------
 Center     Atomic      Atomic             Coordinates (Angstroms)
 Number     Number       Type             X           Y           Z
 ---------------------------------------------------------------------
      1          6           0        0.970555   -0.681579   -0.031361
      2          6           0       -0.308035   -1.136746    0.016317
      3          8           0       -1.155297    0.030588    0.002333
      4          6           0       -0.388303    1.093600   -0.005405
      5          6           0        0.910694    0.711780   -0.032200
      6          1           0        1.841396    1.411490    0.045277
      7          1           0       -0.856168    2.082999    0.016413
      8          1           0       -0.792516   -2.084852   -0.027806
      9          1           0        1.769276   -1.324372   -0.007634
 ---------------------------------------------------------------------
                    Distance matrix (angstroms):
                    1          2          3          4          5
     1  C    0.000000
     2  C    1.358029   0.000000
     3  O    2.242223   1.442469   0.000000
     4  C    2.235717   2.231896   1.310852   0.000000
     5  C    1.394645   2.214656   2.175669   1.354215   0.000000
     6  H    2.268298   3.333826   3.299834   2.252816   1.166963
     7  H    3.313924   3.266069   2.074143   1.094662   2.237053
     8  H    2.253355   1.065633   2.146533   3.204130   3.274461
     9  H    1.025525   2.085905   3.223219   3.240639   2.209905
                    6          7          8          9
     6  H    0.000000
     7  H    2.780038   0.000000
     8  H    4.378041   4.168572   0.000000
     9  H    2.737324   4.301594   2.672361   0.000000
 Stoichiometry    C4H4O
 Framework group  C1[X(C4H4O)]
 Deg. of freedom    21
 Full point group                 C1      NOp   1
 Largest Abelian subgroup         C1      NOp   1
 Largest concise Abelian subgroup C1      NOp   1
                         Standard orientation:                         
 ---------------------------------------------------------------------
 Center     Atomic      Atomic             Coordinates (Angstroms)
 Number     Number       Type             X           Y           Z
 ---------------------------------------------------------------------
      1          6           0        0.906798    0.776835   -0.013504
      2          6           0        1.034385   -0.574751    0.020855
      3          8           0       -0.305036   -1.109669   -0.002194
      4          6           0       -1.147473   -0.105361   -0.002074
      5          6           0       -0.458687    1.060529   -0.015200
      6          1           0       -0.909003    2.133576    0.071905
      7          1           0       -2.221451   -0.316488    0.014679
      8          1           0        1.834847   -1.276483   -0.028184
      9          1           0        1.725766    1.393239    0.018693
 ---------------------------------------------------------------------
 Rotational constants (GHZ):      9.6726280      9.1443233      4.7019020
 Leave Link  202 at Fri Dec 11 13:41:24 2015, MaxMem=    33554432 cpu:         0.0
 (Enter /home/Applications/g09/g09/l301.exe)

 Semi-emprical parameters in input format:
 Method=8 CoreType=1 PeptideFC=0.0150750000 RIJScale=0.4598400000
 ****
 H       
 PQN=1 NValence=1 F0ss=0.5123740000 ZetaOverlap=1.3741540000 U=-0.4421200000
 Beta=-0.2089270000 CoreKO=1.0240410000 KON=0,0,0,1.2344440000 KON=1,0,1,1.0304950000
 KON=0,1,1,0.7841060000 KON=2,1,1,1.1809960000 EISol=-0.4188110042 EHeat=0.0830298228
 Alpha=1.8321310000
 GCore=0.0069070000,1.5820910000,2.3247690000
 GCore=0.0003590000,1.4136550000,2.7099350000
 GCore=-0.0015950000,0.3493410000,2.6488580000
 ****
 C       
 PQN=2,2 NValence=4 F0ss=0.3140440000 F0sp=0.4560680000 F0pp=0.3731470000 F2pp=0.1290010000
 G1sp=0.2402000000
 ZetaOverlap=2.2684590000,1.1739010000
 U=-1.7655190000,-1.6890820000
 Beta=-0.5455470000,-0.4132350000 DDN=0,1,0.7810600000 DDN=1,1,0.7550540000
 CoreKO=1.1007330000 KON=0,0,0,1.2752080000 KON=1,0,1,0.9323800000 KON=0,1,1,0.9619240000
 KON=2,1,1,0.7818300000 EISol=-4.4398989268 EHeat=0.2723305520 Alpha=1.1426320000
 DipHyp=1.5620301299
 GCore=0.0010570000,1.9787320000,2.5735090000
 GCore=0.0035280000,0.8571140000,3.3684050000
 GCore=-0.0013740000,1.3487400000,2.7250080000
 GCore=-0.0000840000,1.7927510000,5.6799940000
 ****
 O       
 PQN=2,2 NValence=6 F0ss=0.6928830000 F0sp=0.5795520000 F0pp=0.3961440000 F2pp=0.1652110000
 G1sp=0.4090990000
 ZetaOverlap=2.9790270000,2.3768370000
 U=-6.1745100000,-2.2381140000
 Beta=-0.9299480000,-1.1813420000 DDN=0,1,0.5130190000 DDN=1,1,0.4350790000
 CoreKO=1.0158470000 KON=0,0,0,0.8754010000 KON=1,0,1,0.4299070000 KON=0,1,1,0.8548080000
 KON=2,1,1,0.3526900000 EISol=-11.6164441184 EHeat=0.0949133088 Alpha=2.0548310000
 DipHyp=1.0259789711
 GCore=0.0185890000,1.3850600000,1.5544560000
 GCore=0.0052240000,2.5104840000,2.3088570000
 ****
 
 Standard basis: VSTO-6G (5D, 7F)
 Ernie: Thresh=  0.10000D-02 Tol=  0.10000D-05 Strict=F.
  NNHCO=     0 NNPyr=     0 NCTC=     0               EPep=         0.000000000
    EC=        68.434627354  ECS=         3.240640587   EG=         0.370019958
   EHC=         0.000000000  EAt=       -31.051283842  AtH=         1.516354808
 EPDDG=         0.000000000  ECC=        72.045287899 EAtT=        32.567638650
 There are    24 symmetry adapted cartesian basis functions of A   symmetry.
 There are    24 symmetry adapted basis functions of A   symmetry.
    24 basis functions,   144 primitive gaussians,    24 cartesian basis functions
    13 alpha electrons       13 beta electrons
       nuclear repulsion energy       104.6129265495 Hartrees.
 IExCor=    0 DFT=F Ex=HF Corr=None ExCW=0 ScaHFX=  1.000000
 ScaDFX=  1.000000  1.000000  1.000000  1.000000 ScalE2=  1.000000  1.000000
 IRadAn=      0 IRanWt=     -1 IRanGd=            0 ICorTp=0 IEmpDi=  4
 Integral buffers will be    131072 words long.
 Regular integral format.
 Two-electron integral symmetry is turned off.
 Leave Link  301 at Fri Dec 11 13:41:24 2015, MaxMem=    33554432 cpu:         0.0
 (Enter /home/Applications/g09/g09/l302.exe)
 Do NDO integrals.
 NPDir=0 NMtPBC=     1 NCelOv=     1 NCel=       1 NClECP=     1 NCelD=      1
         NCelK=      1 NCelE2=     1 NClLst=     1 CellRange=     0.0.
 One-electron integrals computed using PRISM.
 NBasis=    24 RedAO= F EigKep=  0.00D+00  NBF=    24
 NBsUse=    24 1.00D-04 EigRej=  0.00D+00 NBFU=    24
 Leave Link  302 at Fri Dec 11 13:41:24 2015, MaxMem=    33554432 cpu:         0.0
 (Enter /home/Applications/g09/g09/l308.exe)
 Leave Link  308 at Fri Dec 11 13:41:24 2015, MaxMem=    33554432 cpu:         0.0
 (Enter /home/Applications/g09/g09/l303.exe)
 DipDrv:  MaxL=1.
 Leave Link  303 at Fri Dec 11 13:41:24 2015, MaxMem=    33554432 cpu:         0.0
 (Enter /home/Applications/g09/g09/l401.exe)
 Simple Huckel Guess.
 JPrj=0 DoOrth=F DoCkMO=F.
 Leave Link  401 at Fri Dec 11 13:41:24 2015, MaxMem=    33554432 cpu:         0.0
 (Enter /home/Applications/g09/g09/l502.exe)
 Closed shell SCF:
 Using DIIS extrapolation, IDIIS=  1040.
 Overlap will be assumed to be unity.
 Two-electron integral symmetry not used.
 Keep J ints in memory in canonical form, NReq=888082.
 IVT=       79475 IEndB=       79475 NGot=    33554432 MDV=    33473473
 LenX=    33473473 LenY=    33472456
 Requested convergence on RMS density matrix=1.00D-08 within 128 cycles.
 Requested convergence on MAX density matrix=1.00D-06.
 Requested convergence on             energy=1.00D-06.
 No special actions if energy rises.
 FoFCou: FMM=F IPFlag=           0 FMFlag=           0 FMFlg1=           0
         NFxFlg=           0 DoJE=F BraDBF=F KetDBF=F FulRan=T
         wScrn=  0.000000 ICntrl=     600 IOpCl=  2 I1Cent=           0 NGrid=           0
         NMat0=    1 NMatS0=     54 NMatT0=    0 NMatD0=    1 NMtDS0=    0 NMtDT0=    0
 Symmetry not used in FoFCou.

 Cycle   1  Pass 1  IDiag  1:
 E= -2.16873290326222    
 DIIS: error= 2.76D-01 at cycle   1 NSaved=   1.
 NSaved= 1 IEnMin= 1 EnMin= -2.16873290326222     IErMin= 1 ErrMin= 2.76D-01
 ErrMax= 2.76D-01  0.00D+00 EMaxC= 1.00D-01 BMatC= 1.69D+00 BMatP= 1.69D+00
 IDIUse=3 WtCom= 0.00D+00 WtEn= 1.00D+00
 Coeff-Com:  0.100D+01
 Coeff-En:   0.100D+01
 Coeff:      0.100D+01
 GapD=    2.000 DampG=2.000 DampE=0.250 DampFc=0.5000 IDamp=-1.
 Damping current iteration by 5.00D-01
 RMSDP=5.18D-02 MaxDP=5.23D-01              OVMax= 0.00D+00

 Cycle   2  Pass 1  IDiag  1:
 E= -3.25968975412248     Delta-E=       -1.090956850860 Rises=F Damp=T
 DIIS: error= 1.54D-01 at cycle   2 NSaved=   2.
 NSaved= 2 IEnMin= 2 EnMin= -3.25968975412248     IErMin= 2 ErrMin= 1.54D-01
 ErrMax= 1.54D-01  0.00D+00 EMaxC= 1.00D-01 BMatC= 5.68D-01 BMatP= 1.69D+00
 IDIUse=3 WtCom= 0.00D+00 WtEn= 1.00D+00
 Coeff-Com: -0.126D+01 0.226D+01
 Coeff-En:   0.000D+00 0.100D+01
 Coeff:      0.000D+00 0.100D+01
 RMSDP=3.35D-02 MaxDP=3.58D-01 DE=-1.09D+00 OVMax= 0.00D+00

 Cycle   3  Pass 1  IDiag  1:
 E= -4.77937877340688     Delta-E=       -1.519689019284 Rises=F Damp=F
 DIIS: error= 3.25D-02 at cycle   3 NSaved=   3.
 NSaved= 3 IEnMin= 3 EnMin= -4.77937877340688     IErMin= 3 ErrMin= 3.25D-02
 ErrMax= 3.25D-02  0.00D+00 EMaxC= 1.00D-01 BMatC= 3.07D-02 BMatP= 5.68D-01
 IDIUse=3 WtCom= 6.75D-01 WtEn= 3.25D-01
 Coeff-Com:  0.156D+01-0.291D+01 0.235D+01
 Coeff-En:   0.000D+00 0.000D+00 0.100D+01
 Coeff:      0.105D+01-0.196D+01 0.191D+01
 RMSDP=1.53D-02 MaxDP=1.17D-01 DE=-1.52D+00 OVMax= 0.00D+00

 Cycle   4  Pass 1  IDiag  1:
 E= -4.89379670696400     Delta-E=       -0.114417933557 Rises=F Damp=F
 DIIS: error= 9.35D-03 at cycle   4 NSaved=   4.
 NSaved= 4 IEnMin= 4 EnMin= -4.89379670696400     IErMin= 4 ErrMin= 9.35D-03
 ErrMax= 9.35D-03  0.00D+00 EMaxC= 1.00D-01 BMatC= 2.95D-03 BMatP= 3.07D-02
 IDIUse=3 WtCom= 9.07D-01 WtEn= 9.35D-02
 Coeff-Com: -0.222D+00 0.429D+00-0.731D+00 0.152D+01
 Coeff-En:   0.000D+00 0.000D+00 0.000D+00 0.100D+01
 Coeff:     -0.201D+00 0.388D+00-0.663D+00 0.148D+01
 RMSDP=6.50D-03 MaxDP=4.51D-02 DE=-1.14D-01 OVMax= 0.00D+00

 Cycle   5  Pass 1  IDiag  3:
 E= -4.90659727210412     Delta-E=       -0.012800565140 Rises=F Damp=F
 DIIS: error= 1.13D-03 at cycle   5 NSaved=   5.
 NSaved= 5 IEnMin= 5 EnMin= -4.90659727210412     IErMin= 5 ErrMin= 1.13D-03
 ErrMax= 1.13D-03  0.00D+00 EMaxC= 1.00D-01 BMatC= 6.15D-05 BMatP= 2.95D-03
 IDIUse=3 WtCom= 9.89D-01 WtEn= 1.13D-02
 Coeff-Com:  0.618D-01-0.120D+00 0.235D+00-0.622D+00 0.145D+01
 Coeff-En:   0.000D+00 0.000D+00 0.000D+00 0.000D+00 0.100D+01
 Coeff:      0.611D-01-0.118D+00 0.232D+00-0.615D+00 0.144D+01
 Gap=     0.475 Goal=   None    Shift=    0.000
 RMSDP=1.05D-03 MaxDP=6.53D-03 DE=-1.28D-02 OVMax= 1.02D-02

 Cycle   6  Pass 1  IDiag  3:
 E= -4.90691410945163     Delta-E=       -0.000316837348 Rises=F Damp=F
 DIIS: error= 2.62D-04 at cycle   6 NSaved=   6.
 NSaved= 6 IEnMin= 6 EnMin= -4.90691410945163     IErMin= 6 ErrMin= 2.62D-04
 ErrMax= 2.62D-04  0.00D+00 EMaxC= 1.00D-01 BMatC= 2.78D-06 BMatP= 6.15D-05
 IDIUse=3 WtCom= 9.97D-01 WtEn= 2.62D-03
 Coeff-Com: -0.951D-02 0.186D-01-0.429D-01 0.129D+00-0.501D+00 0.141D+01
 Coeff-En:   0.000D+00 0.000D+00 0.000D+00 0.000D+00 0.000D+00 0.100D+01
 Coeff:     -0.948D-02 0.185D-01-0.428D-01 0.129D+00-0.500D+00 0.140D+01
 Gap=     0.476 Goal=   None    Shift=    0.000
 RMSDP=2.45D-04 MaxDP=1.59D-03 DE=-3.17D-04 OVMax= 2.65D-03

 Cycle   7  Pass 1  IDiag  3:
 E= -4.90692863617461     Delta-E=       -0.000014526723 Rises=F Damp=F
 DIIS: error= 3.98D-05 at cycle   7 NSaved=   7.
 NSaved= 7 IEnMin= 7 EnMin= -4.90692863617461     IErMin= 7 ErrMin= 3.98D-05
 ErrMax= 3.98D-05  0.00D+00 EMaxC= 1.00D-01 BMatC= 8.73D-08 BMatP= 2.78D-06
 IDIUse=1 WtCom= 1.00D+00 WtEn= 0.00D+00
 Coeff-Com:  0.120D-02-0.232D-02 0.507D-02-0.134D-01 0.738D-01-0.343D+00
 Coeff-Com:  0.128D+01
 Coeff:      0.120D-02-0.232D-02 0.507D-02-0.134D-01 0.738D-01-0.343D+00
 Coeff:      0.128D+01
 Gap=     0.476 Goal=   None    Shift=    0.000
 RMSDP=3.40D-05 MaxDP=1.43D-04 DE=-1.45D-05 OVMax= 1.82D-04

 Cycle   8  Pass 1  IDiag  3:
 E= -4.90692901019348     Delta-E=       -0.000000374019 Rises=F Damp=F
 DIIS: error= 7.55D-06 at cycle   8 NSaved=   8.
 NSaved= 8 IEnMin= 8 EnMin= -4.90692901019348     IErMin= 8 ErrMin= 7.55D-06
 ErrMax= 7.55D-06  0.00D+00 EMaxC= 1.00D-01 BMatC= 3.49D-09 BMatP= 8.73D-08
 IDIUse=1 WtCom= 1.00D+00 WtEn= 0.00D+00
 Coeff-Com:  0.802D-04-0.150D-03 0.126D-03-0.721D-03-0.339D-03 0.246D-01
 Coeff-Com: -0.280D+00 0.126D+01
 Coeff:      0.802D-04-0.150D-03 0.126D-03-0.721D-03-0.339D-03 0.246D-01
 Coeff:     -0.280D+00 0.126D+01
 Gap=     0.476 Goal=   None    Shift=    0.000
 RMSDP=7.12D-06 MaxDP=3.97D-05 DE=-3.74D-07 OVMax= 5.40D-05

 Cycle   9  Pass 1  IDiag  3:
 E= -4.90692902626144     Delta-E=       -0.000000016068 Rises=F Damp=F
 DIIS: error= 2.54D-06 at cycle   9 NSaved=   9.
 NSaved= 9 IEnMin= 9 EnMin= -4.90692902626144     IErMin= 9 ErrMin= 2.54D-06
 ErrMax= 2.54D-06  0.00D+00 EMaxC= 1.00D-01 BMatC= 2.05D-10 BMatP= 3.49D-09
 IDIUse=1 WtCom= 1.00D+00 WtEn= 0.00D+00
 Coeff-Com:  0.996D-06-0.166D-05-0.957D-05 0.252D-03-0.921D-03-0.145D-02
 Coeff-Com:  0.748D-01-0.520D+00 0.145D+01
 Coeff:      0.996D-06-0.166D-05-0.957D-05 0.252D-03-0.921D-03-0.145D-02
 Coeff:      0.748D-01-0.520D+00 0.145D+01
 Gap=     0.476 Goal=   None    Shift=    0.000
 RMSDP=1.96D-06 MaxDP=1.71D-05 DE=-1.61D-08 OVMax= 2.02D-05

 Cycle  10  Pass 1  IDiag  3:
 E= -4.90692902731963     Delta-E=       -0.000000001058 Rises=F Damp=F
 DIIS: error= 7.28D-07 at cycle  10 NSaved=  10.
 NSaved=10 IEnMin=10 EnMin= -4.90692902731963     IErMin=10 ErrMin= 7.28D-07
 ErrMax= 7.28D-07  0.00D+00 EMaxC= 1.00D-01 BMatC= 1.21D-11 BMatP= 2.05D-10
 IDIUse=1 WtCom= 1.00D+00 WtEn= 0.00D+00
 Coeff-Com: -0.500D-05 0.932D-05 0.384D-05-0.145D-03 0.627D-03-0.130D-03
 Coeff-Com: -0.350D-01 0.269D+00-0.881D+00 0.165D+01
 Coeff:     -0.500D-05 0.932D-05 0.384D-05-0.145D-03 0.627D-03-0.130D-03
 Coeff:     -0.350D-01 0.269D+00-0.881D+00 0.165D+01
 Gap=     0.476 Goal=   None    Shift=    0.000
 RMSDP=5.65D-07 MaxDP=5.40D-06 DE=-1.06D-09 OVMax= 6.80D-06

 Cycle  11  Pass 1  IDiag  3:
 E= -4.90692902739217     Delta-E=       -0.000000000073 Rises=F Damp=F
 DIIS: error= 1.31D-07 at cycle  11 NSaved=  11.
 NSaved=11 IEnMin=11 EnMin= -4.90692902739217     IErMin=11 ErrMin= 1.31D-07
 ErrMax= 1.31D-07  0.00D+00 EMaxC= 1.00D-01 BMatC= 5.54D-13 BMatP= 1.21D-11
 IDIUse=1 WtCom= 1.00D+00 WtEn= 0.00D+00
 Coeff-Com: -0.363D-06 0.752D-06-0.102D-04 0.765D-04-0.314D-03 0.345D-03
 Coeff-Com:  0.115D-01-0.944D-01 0.328D+00-0.765D+00 0.152D+01
 Coeff:     -0.363D-06 0.752D-06-0.102D-04 0.765D-04-0.314D-03 0.345D-03
 Coeff:      0.115D-01-0.944D-01 0.328D+00-0.765D+00 0.152D+01
 Gap=     0.476 Goal=   None    Shift=    0.000
 RMSDP=1.23D-07 MaxDP=1.17D-06 DE=-7.25D-11 OVMax= 1.41D-06

 Cycle  12  Pass 1  IDiag  3:
 E= -4.90692902739548     Delta-E=       -0.000000000003 Rises=F Damp=F
 DIIS: error= 2.14D-08 at cycle  12 NSaved=  12.
 NSaved=12 IEnMin=12 EnMin= -4.90692902739548     IErMin=12 ErrMin= 2.14D-08
 ErrMax= 2.14D-08  0.00D+00 EMaxC= 1.00D-01 BMatC= 1.79D-14 BMatP= 5.54D-13
 IDIUse=1 WtCom= 1.00D+00 WtEn= 0.00D+00
 Coeff-Com: -0.323D-07 0.571D-07 0.162D-05-0.145D-04 0.594D-04-0.514D-04
 Coeff-Com: -0.244D-02 0.196D-01-0.696D-01 0.180D+00-0.512D+00 0.139D+01
 Coeff:     -0.323D-07 0.571D-07 0.162D-05-0.145D-04 0.594D-04-0.514D-04
 Coeff:     -0.244D-02 0.196D-01-0.696D-01 0.180D+00-0.512D+00 0.139D+01
 Gap=     0.476 Goal=   None    Shift=    0.000
 RMSDP=1.96D-08 MaxDP=1.34D-07 DE=-3.31D-12 OVMax= 1.65D-07

 Cycle  13  Pass 1  IDiag  3:
 E= -4.90692902739565     Delta-E=        0.000000000000 Rises=F Damp=F
 DIIS: error= 2.39D-09 at cycle  13 NSaved=  13.
 NSaved=13 IEnMin=13 EnMin= -4.90692902739565     IErMin=13 ErrMin= 2.39D-09
 ErrMax= 2.39D-09  0.00D+00 EMaxC= 1.00D-01 BMatC= 4.49D-16 BMatP= 1.79D-14
 IDIUse=1 WtCom= 1.00D+00 WtEn= 0.00D+00
 Coeff-Com:  0.499D-07-0.943D-07 0.332D-07 0.911D-06-0.325D-05-0.632D-05
 Coeff-Com:  0.299D-03-0.215D-02 0.772D-02-0.218D-01 0.859D-01-0.357D+00
 Coeff-Com:  0.129D+01
 Coeff:      0.499D-07-0.943D-07 0.332D-07 0.911D-06-0.325D-05-0.632D-05
 Coeff:      0.299D-03-0.215D-02 0.772D-02-0.218D-01 0.859D-01-0.357D+00
 Coeff:      0.129D+01
 Gap=     0.476 Goal=   None    Shift=    0.000
 RMSDP=2.44D-09 MaxDP=8.60D-09 DE=-1.71D-13 OVMax= 1.55D-08

 Cycle  14  Pass 2  IDiag  1:
 SCF Done:  E(RAM1) =  -4.90692902740     A.U. after   14 cycles
            NFock= 13  Conv=0.24D-08     -V/T= 0.7876
 KE=-2.310346693045D+01 PE=-1.716219091651D+02 EE= 8.520552051867D+01
 Leave Link  502 at Fri Dec 11 13:41:24 2015, MaxMem=    33554432 cpu:         0.0
 (Enter /home/Applications/g09/g09/l801.exe)
 Range of M.O.s used for correlation:     1    24
 NBasis=    24 NAE=    13 NBE=    13 NFC=     0 NFV=     0
 NROrb=     24 NOA=    13 NOB=    13 NVA=    11 NVB=    11
 Leave Link  801 at Fri Dec 11 13:41:24 2015, MaxMem=    33554432 cpu:         0.0
 (Enter /home/Applications/g09/g09/l914.exe)
 RHF ground state
 MDV=    33554432 DFT=F DoStab=F Mixed=F DoRPA=F DoScal=F NonHer=F
 Making orbital integer symmetry assigments:
 Orbital symmetries:
       Occupied  (A) (A) (A) (A) (A) (A) (A) (A) (A) (A) (A) (A)
                 (A)
       Virtual   (A) (A) (A) (A) (A) (A) (A) (A) (A) (A) (A)
    60 initial guesses have been made.
 Convergence on wavefunction:    0.000001000000000
 Davidson Disk Diagonalization:  ConvIn= 1.00D-06 SkipCon=T Conv= 1.00D-06.
 Max sub-space:   240 roots to seek:    60 dimension of matrix:          286
 Iteration     1 Dimension    60 NMult     0 NNew     60
 CISAX will form    60 AO SS matrices at one time.
 NMat=    60 NSing=    60 JSym2X= 0.
 FoFJK:  IHMeth= 8 ICntrl=       0 DoSepK=F KAlg= 0 I1Cent=   0 FoldK=F
 IRaf=         1 NMat= 120 IRICut=       1 DoRegI=T DoRafI=F ISym2E= 0.
 FoFCou: FMM=F IPFlag=           0 FMFlag=      100000 FMFlg1=           0
         NFxFlg=           0 DoJE=F BraDBF=F KetDBF=F FulRan=T
         wScrn=  0.000000 ICntrl=       0 IOpCl=  0 I1Cent=           0 NGrid=           0
         NMat0=  120 NMatS0=     60 NMatT0=    0 NMatD0=  120 NMtDS0=    0 NMtDT0=    0
 Symmetry not used in FoFCou.
 New state      3 was old state      4
 New state      4 was old state      3
 New state      5 was old state      7
 New state      6 was old state      5
 New state      7 was old state      9
 New state      9 was old state      6
 New state     10 was old state     11
 New state     11 was old state     12
 New state     12 was old state     16
 New state     13 was old state     19
 New state     14 was old state     13
 New state     15 was old state     17
 Excitation Energies [eV] at current iteration:
 Root      1 :     7.011181128110135
 Root      2 :     7.278698371797768
 Root      3 :     7.417481888610171
 Root      4 :     8.017664798032030
 Root      5 :     8.097484518830468
 Root      6 :     9.168620762160669
 Root      7 :     9.381313850224425
 Root      8 :     9.475092024016815
 Root      9 :     9.531850784854996
 Root     10 :    10.091884401222640
 Root     11 :    10.261533871024080
 Root     12 :    10.362156971435860
 Root     13 :    10.443652089667470
 Root     14 :    10.474934361129610
 Root     15 :    10.708528013296520
 Root     16 :    10.856128080837110
 Root     17 :    11.052561361622570
 Root     18 :    11.226886169847950
 Root     19 :    11.327886250486420
 Root     20 :    11.424155622462340
 Root     21 :    11.572976687283260
 Root     22 :    11.663130880610040
 Root     23 :    11.797814052031290
 Root     24 :    11.857238137624790
 Root     25 :    11.989087211146830
 Root     26 :    12.156723254408460
 Root     27 :    12.217556007938510
 Root     28 :    12.308014501255310
 Root     29 :    12.493730352026650
 Root     30 :    12.686730255937820
 Root     31 :    12.746660450586400
 Root     32 :    12.798069681424760
 Root     33 :    12.913885946274110
 Root     34 :    13.155256879414320
 Root     35 :    13.265089543043740
 Root     36 :    13.333754571213490
 Root     37 :    13.458529602166450
 Root     38 :    13.480525417261130
 Root     39 :    13.570494055450190
 Root     40 :    13.833310103542640
 Root     41 :    13.971459782003830
 Root     42 :    14.091802635770470
 Root     43 :    14.528829943692020
 Root     44 :    14.643646342260650
 Root     45 :    14.696897182980460
 Root     46 :    14.774307841341050
 Root     47 :    15.016043151665870
 Root     48 :    15.055225093254590
 Root     49 :    15.101418144052610
 Root     50 :    15.456645382578480
 Root     51 :    15.587039720523770
 Root     52 :    15.861665796799600
 Root     53 :    15.934640267793650
 Root     54 :    16.067733128405410
 Root     55 :    16.155331903260930
 Root     56 :    16.190771019719630
 Root     57 :    16.514417824822860
 Root     58 :    16.935981839467060
 Root     59 :    17.051124904675890
 Root     60 :    17.254602523916100
 Iteration     2 Dimension   120 NMult    60 NNew     60
 CISAX will form    60 AO SS matrices at one time.
 NMat=    60 NSing=    60 JSym2X= 0.
 Root      1 not converged, maximum delta is    0.046248140977928
 Root      2 not converged, maximum delta is    0.021925593244849
 Root      3 not converged, maximum delta is    0.044467063184615
 Root      4 not converged, maximum delta is    0.101665983151040
 Root      5 not converged, maximum delta is    0.094622004992158
 Root      6 not converged, maximum delta is    0.021430364618431
 Root      7 not converged, maximum delta is    0.028208743032900
 Root      8 not converged, maximum delta is    0.190106345079247
 Root      9 not converged, maximum delta is    0.186070671074481
 Root     10 not converged, maximum delta is    0.056280108622768
 Root     11 not converged, maximum delta is    0.140767909271588
 Root     12 not converged, maximum delta is    0.179593086969950
 Root     13 not converged, maximum delta is    0.175060644218060
 Root     14 not converged, maximum delta is    0.155717563000131
 Root     15 not converged, maximum delta is    0.031255701151658
 Excitation Energies [eV] at current iteration:
 Root      1 :     6.893873801903865   Change is   -0.117307326206270
 Root      2 :     7.229068331660462   Change is   -0.049630040137306
 Root      3 :     7.375551112740244   Change is   -0.041930775869927
 Root      4 :     7.963924817249513   Change is   -0.053739980782517
 Root      5 :     8.065801224940907   Change is   -0.031683293889560
 Root      6 :     9.101615788776893   Change is   -0.067004973383775
 Root      7 :     9.294832678188929   Change is   -0.086481172035497
 Root      8 :     9.390865818037941   Change is   -0.084226205978874
 Root      9 :     9.440414894040236   Change is   -0.091435890814759
 Root     10 :     9.886636460326073   Change is   -0.205247940896571
 Root     11 :    10.164471016014980   Change is   -0.097062855009099
 Root     12 :    10.231427576120510   Change is   -0.130729395315350
 Root     13 :    10.332092416833450   Change is   -0.111559672834023
 Root     14 :    10.365688205168820   Change is   -0.109246155960787
 Root     15 :    10.581124810930210   Change is   -0.127403202366310
 Root     16 :    10.776474234746240   Change is   -0.079653846090870
 Root     17 :    10.879132437667120   Change is   -0.173428923955456
 Root     18 :    11.157883523053620   Change is   -0.069002646794332
 Root     19 :    11.221205125715560   Change is   -0.106681124770855
 Root     20 :    11.282111101060280   Change is   -0.142044521402064
 Root     21 :    11.408520538465260   Change is   -0.164456148818003
 Root     22 :    11.503885858560660   Change is   -0.159245022049377
 Root     23 :    11.653317114611390   Change is   -0.203921023013396
 Root     24 :    11.718866970157450   Change is   -0.078947081873844
 Root     25 :    11.846458350218670   Change is   -0.142628860928161
 Root     26 :    11.930277462836100   Change is   -0.226445791572359
 Root     27 :    12.052044244710150   Change is   -0.165511763228351
 Root     28 :    12.262429122041360   Change is   -0.045585379213952
 Root     29 :    12.332488089798780   Change is   -0.161242262227865
 Root     30 :    12.495990189377920   Change is   -0.190740066559896
 Root     31 :    12.616513650908080   Change is   -0.181556030516674
 Root     32 :    12.643782122187720   Change is   -0.102878328398681
 Root     33 :    12.738219196956840   Change is   -0.175666749317266
 Root     34 :    12.928523759755980   Change is   -0.226733119658339
 Root     35 :    13.088829692602170   Change is   -0.176259850441570
 Root     36 :    13.138887655750130   Change is   -0.194866915463358
 Root     37 :    13.174672084927800   Change is   -0.305853332333327
 Root     38 :    13.338434385624550   Change is   -0.232059669825642
 Root     39 :    13.368487069811870   Change is   -0.090042532354574
 Root     40 :    13.581375425680210   Change is   -0.251934677862432
 Root     41 :    13.832128400742630   Change is   -0.259674235027847
 Root     42 :    13.904623492864200   Change is   -0.066836289139628
 Root     43 :    14.287256534986760   Change is   -0.241573408705253
 Root     44 :    14.481849298382910   Change is   -0.161797043877745
 Root     45 :    14.532525506003210   Change is   -0.241782335337837
 Root     46 :    14.583199493533660   Change is   -0.113697689446801
 Root     47 :    14.751461635781190   Change is   -0.264581515884679
 Root     48 :    14.843869997602490   Change is   -0.211355095652099
 Root     49 :    14.883819834419200   Change is   -0.217598309633408
 Root     50 :    15.237092307871760   Change is   -0.349947412652001
 Root     51 :    15.409916993099960   Change is   -0.046728389478514
 Root     52 :    15.575864233669390   Change is   -0.285801563130210
 Root     53 :    15.797743167143830   Change is   -0.136897100649827
 Root     54 :    15.904467951864530   Change is   -0.250863951396403
 Root     55 :    15.977631106284850   Change is   -0.213139913434777
 Root     56 :    16.018472717648590   Change is   -0.049260410756824
 Root     57 :    16.211554931794970   Change is   -0.302862893027890
 Root     58 :    16.409851745438510   Change is   -0.526130094028553
 Root     59 :    16.789588733377740   Change is   -0.261536171298154
 Root     60 :    16.920465745691730   Change is   -0.334136778224370
 Iteration     3 Dimension   135 NMult   120 NNew     15
 CISAX will form    15 AO SS matrices at one time.
 NMat=    15 NSing=    15 JSym2X= 0.
 Root      1 not converged, maximum delta is    0.002505194308268
 Root      2 not converged, maximum delta is    0.000246259681331
 Root      3 not converged, maximum delta is    0.000800545533780
 Root      4 not converged, maximum delta is    0.000123401283865
 Root      5 not converged, maximum delta is    0.000412260641041
 Root      6 not converged, maximum delta is    0.000318972452012
 Root      7 not converged, maximum delta is    0.002750554699814
 Root      8 not converged, maximum delta is    0.008874027095242
 Root      9 not converged, maximum delta is    0.006631071342345
 Root     10 not converged, maximum delta is    0.003103272382702
 Root     11 not converged, maximum delta is    0.004715684619223
 Root     12 not converged, maximum delta is    0.005830187301033
 Root     13 not converged, maximum delta is    0.009867154691891
 Root     14 not converged, maximum delta is    0.007007649538270
 Root     15 not converged, maximum delta is    0.002451729805711
 Excitation Energies [eV] at current iteration:
 Root      1 :     6.893376817607453   Change is   -0.000496984296412
 Root      2 :     7.229058006834206   Change is   -0.000010324826256
 Root      3 :     7.375494146204395   Change is   -0.000056966535849
 Root      4 :     7.963921342135763   Change is   -0.000003475113750
 Root      5 :     8.065786928622584   Change is   -0.000014296318324
 Root      6 :     9.101604915363671   Change is   -0.000010873413223
 Root      7 :     9.294149690855063   Change is   -0.000682987333864
 Root      8 :     9.389968027309997   Change is   -0.000897790727944
 Root      9 :     9.439761098667701   Change is   -0.000653795372535
 Root     10 :     9.885160486227695   Change is   -0.001475974098378
 Root     11 :    10.164097432881970   Change is   -0.000373583133009
 Root     12 :    10.230118099305530   Change is   -0.001309476814975
 Root     13 :    10.331015966506610   Change is   -0.001076450326839
 Root     14 :    10.365122074560810   Change is   -0.000566130608012
 Root     15 :    10.580168619781820   Change is   -0.000956191148384
 Iteration     4 Dimension   143 NMult   135 NNew      8
 CISAX will form     8 AO SS matrices at one time.
 NMat=     8 NSing=     8 JSym2X= 0.
 Root      1 not converged, maximum delta is    0.000039264869444
 Root      2 not converged, maximum delta is    0.000007963520684
 Root      3 not converged, maximum delta is    0.000013592683200
 Root      4 not converged, maximum delta is    0.000005051935703
 Root      5 not converged, maximum delta is    0.000012210908567
 Root      6 not converged, maximum delta is    0.000008765278356
 Root      7 not converged, maximum delta is    0.000060654549348
 Root      8 not converged, maximum delta is    0.000101451245715
 Root      9 not converged, maximum delta is    0.000099140021160
 Root     10 not converged, maximum delta is    0.000098172505092
 Root     11 not converged, maximum delta is    0.000037914365831
 Root     12 not converged, maximum delta is    0.000106491605482
 Root     13 not converged, maximum delta is    0.000077070351607
 Root     14 not converged, maximum delta is    0.000059563907706
 Root     15 not converged, maximum delta is    0.000149795186418
 Excitation Energies [eV] at current iteration:
 Root      1 :     6.893376010716227   Change is   -0.000000806891226
 Root      2 :     7.229057983365704   Change is   -0.000000023468502
 Root      3 :     7.375494052159658   Change is   -0.000000094044737
 Root      4 :     7.963921331916735   Change is   -0.000000010219028
 Root      5 :     8.065786873698412   Change is   -0.000000054924172
 Root      6 :     9.101604883127489   Change is   -0.000000032236182
 Root      7 :     9.294148413522290   Change is   -0.000001277332773
 Root      8 :     9.389966118729140   Change is   -0.000001908580858
 Root      9 :     9.439759362892246   Change is   -0.000001735775454
 Root     10 :     9.885158352894132   Change is   -0.000002133333563
 Root     11 :    10.164096557707050   Change is   -0.000000875174921
 Root     12 :    10.230113436139110   Change is   -0.000004663166422
 Root     13 :    10.331014674484560   Change is   -0.000001292022050
 Root     14 :    10.365121022413200   Change is   -0.000001052147608
 Root     15 :    10.580164057275530   Change is   -0.000004562506287
 Convergence achieved on expansion vectors.
 ***********************************************************************
 Excited states from <AA,BB:AA,BB> singles matrix:
 ***********************************************************************
 
 1PDM for each excited state written to RWF  633
 Ground to excited state transition densities written to RWF  633
 Ground to excited state transition electric dipole moments (Au):
       state          X           Y           Z        Dip. S.      Osc.
         1        -1.1673      0.3462     -0.0150      1.4827      0.2504
         2        -0.0304      0.0106      0.1608      0.0269      0.0048
         3        -0.3590      0.1339     -0.0213      0.1473      0.0266
         4         0.0384     -0.0448      0.1747      0.0340      0.0066
         5         0.1236     -0.0645     -0.0731      0.0248      0.0049
         6        -0.0918      0.1146     -0.1997      0.0615      0.0137
         7        -0.1156     -0.3215     -0.0761      0.1226      0.0279
         8        -0.0531     -0.2088      0.1877      0.0816      0.0188
         9        -0.0621      0.1896      0.2669      0.1110      0.0257
        10         0.0456     -0.3089     -0.0148      0.0977      0.0237
        11         0.2695     -0.1783     -0.1784      0.1362      0.0339
        12         0.7566     -0.4035      0.0490      0.7377      0.1849
        13        -0.0817     -0.2297     -0.0402      0.0610      0.0155
        14        -0.2329      0.2935      0.0656      0.1447      0.0367
        15         0.2059     -0.7738     -0.0191      0.6415      0.1663
 Ground to excited state transition velocity dipole moments (Au):
       state          X           Y           Z        Dip. S.      Osc.
         1         0.1234     -0.0491      0.0175      0.0180      0.0473
         2        -0.0071     -0.0079      0.0296      0.0010      0.0025
         3         0.0426     -0.0179     -0.0202      0.0025      0.0062
         4         0.0065     -0.0042     -0.0057      0.0001      0.0002
         5        -0.0096      0.0096      0.0591      0.0037      0.0083
         6         0.0172     -0.0064     -0.0460      0.0024      0.0049
         7         0.0329      0.0111     -0.0082      0.0013      0.0025
         8        -0.0578     -0.0130      0.0481      0.0058      0.0113
         9         0.0631     -0.0114      0.0559      0.0072      0.0139
        10         0.1000     -0.0176     -0.0084      0.0104      0.0191
        11        -0.0966      0.0469     -0.0485      0.0139      0.0248
        12        -0.2200      0.0796      0.0294      0.0556      0.0986
        13         0.0023     -0.0915      0.0222      0.0089      0.0156
        14         0.0588      0.0886      0.0020      0.0113      0.0198
        15         0.0512      0.2212      0.0024      0.0516      0.0884
 Ground to excited state transition magnetic dipole moments (Au):
       state          X           Y           Z
         1         0.2239      0.2586     -0.3464
         2         0.1412     -0.3911      0.0086
         3        -0.4724     -0.9080     -0.1426
         4        -0.3366      0.4031     -0.0005
         5         1.0909     -0.3300      0.0439
         6         0.3420      0.1021     -0.0568
         7        -0.0440     -0.0669     -0.2500
         8         0.0707      0.1493      0.2000
         9         0.1368      0.1304     -0.2082
        10        -0.0346     -0.0164      0.3748
        11        -0.0895      0.3746      0.1923
        12         0.1029     -0.0678      0.3812
        13         0.1499     -0.0170     -0.1296
        14         0.1124      0.0844      0.0604
        15         0.0433      0.0088     -0.3002
 Ground to excited state transition velocity quadrupole moments (Au):
       state          XX          YY          ZZ          XY          XZ          YZ
         1         0.1892     -0.1762      0.0043      0.2777      0.0480     -0.0284
         2        -0.0105     -0.0061     -0.0140      0.0154      0.0573      0.1933
         3         0.0584     -0.0804      0.0038      0.0897     -0.2138      0.0440
         4        -0.0051     -0.0223     -0.0010      0.0083     -0.1812      0.2103
         5         0.0064      0.0331      0.0011     -0.0045     -0.1830     -0.0552
         6        -0.0238     -0.0629     -0.0104      0.0383     -0.1434      0.2998
         7         0.2966     -0.2822      0.1097     -0.2252      0.0526     -0.0144
         8         0.1355     -0.2473      0.0296     -0.1708     -0.1686      0.1127
         9        -0.0643      0.0499     -0.0065      0.1638     -0.1585      0.1479
        10         0.2884     -0.2251      0.0155      0.6106     -0.0140      0.0112
        11        -0.0561      0.2044      0.0340     -0.1182     -0.3040     -0.0479
        12        -0.1456      0.3382      0.0684     -0.2562      0.1013      0.0865
        13         0.0260      0.2507      0.0395     -0.2159      0.0229      0.0776
        14        -0.0100     -0.2576     -0.0518      0.2095      0.0874      0.0580
        15         0.1597      0.4967      0.1041     -0.2354      0.0288      0.0366
 <0|del|b> * <b|rxdel|0> + <0|del|b> * <b|delr+rdel|0>
 Rotatory Strengths (R) in cgs (10**-40 erg-esu-cm/Gauss)
       state          XX          YY          ZZ    R(velocity)    E-M Angle
         1       -16.1216     18.4181     22.4255      8.2407       82.20
         2         5.6293     -3.4307      3.9801      2.0595       79.78
         3        17.5720    -17.6566     -2.5395     -0.8747       91.11
         4        -3.0379     -0.9321     -5.4283     -3.1328      140.47
         5         1.1013     -8.4946    -19.0137     -8.8023       99.22
         6        -0.7647     16.3001      1.0471      5.5275       63.99
         7         2.6718     -1.7792     -1.1726     -0.0934       90.83
         8        -2.7865      7.4365      2.7405      2.4635       79.50
         9        -5.8982     -2.8944     -0.3888     -3.0605      100.85
        10        -8.0511     -0.3360     -3.9398     -4.1090       99.49
        11        26.7382     -1.6759      6.9400     10.6674       70.53
        12        -9.1974    -21.5568     -0.8819    -10.5453      100.26
        13        -3.7388      2.2757     -0.3506     -0.6046       92.98
        14         0.2569      9.0294     17.1037      8.7967       29.15
        15        -5.1905      3.5775      7.8906      2.0925       87.13
 1/2[<0|r|b>*<b|rxdel|0> + (<0|rxdel|b>*<b|r|0>)*]
 Rotatory Strengths (R) in cgs (10**-40 erg-esu-cm/Gauss)
       state          XX          YY          ZZ     R(length)
         1       184.7898    -63.3165     -3.6681     39.2684
         2         3.0375      2.9251     -0.9767      1.6620
         3      -119.9449     85.9750     -2.1453    -12.0384
         4         9.1356     12.7681      0.0600      7.3213
         5       -95.3333    -15.0433      2.2674    -36.0364
         6        22.2099     -8.2727     -8.0276      1.9699
         7        -3.5958    -15.2219    -13.4610    -10.7596
         8         2.6533     22.0476    -26.5390     -0.6127
         9         6.0032    -17.4876     39.2912      9.2689
        10         1.1156     -3.5817      3.9136      0.4825
        11        17.0646     47.2274     24.2641     29.5187
        12       -55.0364    -19.3431    -13.2018    -29.1938
        13         8.6618     -2.7588     -3.6811      0.7406
        14        18.5138    -17.5234     -2.7993     -0.6030
        15        -6.2988      4.8295     -4.0615     -1.8436
  1/2[<0|del|b>*<b|r|0> + (<0|r|b>*<b|del|0>)*] (Au)
       state          X           Y           Z        Dip. S.   Osc.(frdel)
         1        -0.1441     -0.0170     -0.0003      0.1614      0.1076
         2         0.0002     -0.0001      0.0048     -0.0049     -0.0033
         3        -0.0153     -0.0024      0.0004      0.0172      0.0115
         4         0.0002      0.0002     -0.0010      0.0006      0.0004
         5        -0.0012     -0.0006     -0.0043      0.0061      0.0041
         6        -0.0016     -0.0007      0.0092     -0.0069     -0.0046
         7        -0.0038     -0.0036      0.0006      0.0067      0.0045
         8         0.0031      0.0027      0.0090     -0.0148     -0.0099
         9        -0.0039     -0.0022      0.0149     -0.0088     -0.0059
        10         0.0046      0.0054      0.0001     -0.0101     -0.0067
        11        -0.0260     -0.0084      0.0086      0.0257      0.0172
        12        -0.1665     -0.0321      0.0014      0.1971      0.1314
        13        -0.0002      0.0210     -0.0009     -0.0199     -0.0133
        14        -0.0137      0.0260      0.0001     -0.0124     -0.0083
        15         0.0105     -0.1712      0.0000      0.1607      0.1071

 Excitation energies and oscillator strengths:
 
 Excited State   1:      Singlet-A      6.8934 eV  179.86 nm  f=0.2504  <S**2>=0.000
      12 -> 14        -0.16759
      13 -> 14         0.66409
 This state for optimization and/or second-order correction.
 Total Energy, E(CIS) =  -4.65360210929    
 Copying the excited state density for this state as the 1-particle RhoCI density.
 
 Excited State   2:      Singlet-A      7.2291 eV  171.51 nm  f=0.0048  <S**2>=0.000
      12 -> 14         0.15774
      13 -> 15         0.63795
      13 -> 16         0.14921
      13 -> 17        -0.10679
      13 -> 18         0.12556
 
 Excited State   3:      Singlet-A      7.3755 eV  168.10 nm  f=0.0266  <S**2>=0.000
      12 -> 14         0.65696
      13 -> 14         0.16007
      13 -> 15        -0.14769
 
 Excited State   4:      Singlet-A      7.9639 eV  155.68 nm  f=0.0066  <S**2>=0.000
      11 -> 14        -0.30418
      13 -> 15        -0.15377
      13 -> 16         0.58257
      13 -> 17        -0.10114
      13 -> 21        -0.11938
 
 Excited State   5:      Singlet-A      8.0658 eV  153.72 nm  f=0.0049  <S**2>=0.000
      11 -> 14         0.62712
      13 -> 16         0.29549
 
 Excited State   6:      Singlet-A      9.1016 eV  136.22 nm  f=0.0137  <S**2>=0.000
      10 -> 16         0.10256
      13 -> 16         0.11132
      13 -> 17         0.66958
 
 Excited State   7:      Singlet-A      9.2941 eV  133.40 nm  f=0.0279  <S**2>=0.000
      10 -> 14         0.24952
      12 -> 15         0.37393
      12 -> 18         0.10988
      13 -> 18        -0.22688
      13 -> 19         0.44827
 
 Excited State   8:      Singlet-A      9.3900 eV  132.04 nm  f=0.0188  <S**2>=0.000
      10 -> 14         0.17237
      11 -> 15         0.10306
      12 -> 15        -0.35225
      12 -> 18        -0.11318
      13 -> 17         0.10515
      13 -> 18         0.30881
      13 -> 19         0.42168
 
 Excited State   9:      Singlet-A      9.4398 eV  131.34 nm  f=0.0257  <S**2>=0.000
      12 -> 15         0.37694
      12 -> 18         0.10662
      13 -> 18         0.53173
 
 Excited State  10:      Singlet-A      9.8852 eV  125.42 nm  f=0.0237  <S**2>=0.000
       8 -> 15         0.14104
       9 -> 15        -0.16521
      11 -> 15         0.37880
      11 -> 16         0.13740
      11 -> 17        -0.20394
      11 -> 18         0.13170
      12 -> 15         0.10764
      12 -> 16        -0.33361
      12 -> 17         0.17615
      12 -> 21         0.11761
      12 -> 22        -0.10655
 
 Excited State  11:      Singlet-A     10.1641 eV  121.98 nm  f=0.0339  <S**2>=0.000
      10 -> 15         0.10051
      10 -> 16         0.13520
      11 -> 16         0.10620
      12 -> 16         0.14902
      13 -> 20        -0.34689
      13 -> 21         0.41918
      13 -> 22        -0.29932
 
 Excited State  12:      Singlet-A     10.2301 eV  121.20 nm  f=0.1849  <S**2>=0.000
      11 -> 15         0.15482
      11 -> 16         0.24981
      11 -> 17        -0.14548
      12 -> 16         0.41361
      12 -> 17         0.19020
      12 -> 18         0.20920
      12 -> 21        -0.11867
      13 -> 20         0.26939
 
 Excited State  13:      Singlet-A     10.3310 eV  120.01 nm  f=0.0155  <S**2>=0.000
      10 -> 14         0.23504
      10 -> 15         0.14731
      11 -> 15        -0.11320
      11 -> 16        -0.20902
      12 -> 16        -0.12113
      12 -> 17         0.29380
      13 -> 19        -0.16879
      13 -> 20         0.35252
      13 -> 21         0.19843
      13 -> 22        -0.13245
 
 Excited State  14:      Singlet-A     10.3651 eV  119.62 nm  f=0.0367  <S**2>=0.000
       8 -> 16         0.10658
      10 -> 14        -0.23664
      10 -> 15         0.12099
      12 -> 17        -0.33933
      13 -> 18        -0.15221
      13 -> 19         0.10600
      13 -> 20         0.37343
      13 -> 21         0.23913
      13 -> 22        -0.13504
 
 Excited State  15:      Singlet-A     10.5802 eV  117.19 nm  f=0.1663  <S**2>=0.000
      10 -> 14        -0.30831
      11 -> 15        -0.10430
      11 -> 16        -0.30408
      11 -> 17        -0.13128
      11 -> 20        -0.15524
      12 -> 15        -0.10415
      12 -> 17         0.13371
      12 -> 18         0.35177
      13 -> 19         0.18364
 SavETr:  write IOETrn=   770 NScale= 10 NData=  16 NLR=1 NState=   15 LETran=     280.
 The selected state is a singlet
 CISAX will form     1 AO SS matrices at one time.
 NMat=     1 NSing=     1 JSym2X= 0.
 Leave Link  914 at Fri Dec 11 13:41:24 2015, MaxMem=    33554432 cpu:         0.1
 (Enter /home/Applications/g09/g09/l1002.exe)
 Minotr:  Closed shell wavefunction.
          Computing CIS/TD-HF/TD-KS derivatives.
          Using Z-Vector for PSCF gradient.
          Skipping F1 and S1 gradient terms here.
          IDoAtm=111111111
          Direct CPHF calculation.
          Differentiating once with respect to electric field.
                with respect to dipole field.
          Differentiating once with respect to nuclear coordinates.
          Electric field/nuclear overlap derivatives assumed to be zero.
          Requested convergence is 1.0D-10 RMS, and 1.0D-09 maximum.
          NewPWx=T KeepS1=F KeepF1=F KeepIn=T MapXYZ=F SortEE=F KeepMc=T.
          MDV=      33495423 using IRadAn=       0.
 Keep J ints in memory in canonical form, NReq=871704.
 FoFCou: FMM=F IPFlag=           0 FMFlag=           0 FMFlg1=           0
         NFxFlg=           0 DoJE=F BraDBF=F KetDBF=F FulRan=T
         wScrn=  0.000000 ICntrl=     600 IOpCl=  2 I1Cent=           0 NGrid=           0
         NMat0=    1 NMatS0=     54 NMatT0=    0 NMatD0=    1 NMtDS0=    0 NMtDT0=    0
 Symmetry not used in FoFCou.
          Solving linear equations separately, MaxMat=       0.
          There are     1 degrees of freedom in the 1st order CPHF.  IDoFFX=0 NUNeed=     1.
 LinEq1:  Iter=  0 NonCon=     1 RMS=1.13D-02 Max=6.16D-02 NDo=     1
 AX will form     1 AO Fock derivatives at one time.
 LinEq1:  Iter=  1 NonCon=     1 RMS=1.34D-03 Max=6.05D-03 NDo=     1
 LinEq1:  Iter=  2 NonCon=     1 RMS=2.09D-04 Max=1.07D-03 NDo=     1
 LinEq1:  Iter=  3 NonCon=     1 RMS=3.70D-05 Max=2.00D-04 NDo=     1
 LinEq1:  Iter=  4 NonCon=     1 RMS=5.60D-06 Max=1.73D-05 NDo=     1
 LinEq1:  Iter=  5 NonCon=     1 RMS=6.08D-07 Max=2.77D-06 NDo=     1
 LinEq1:  Iter=  6 NonCon=     1 RMS=6.58D-08 Max=2.90D-07 NDo=     1
 LinEq1:  Iter=  7 NonCon=     1 RMS=9.07D-09 Max=4.25D-08 NDo=     1
 LinEq1:  Iter=  8 NonCon=     1 RMS=1.23D-09 Max=4.52D-09 NDo=     1
 LinEq1:  Iter=  9 NonCon=     1 RMS=1.94D-10 Max=7.72D-10 NDo=     1
 LinEq1:  Iter= 10 NonCon=     0 RMS=2.30D-11 Max=6.07D-11 NDo=     1
 Linear equations converged to 1.000D-10 1.000D-09 after    10 iterations.
 End of Minotr F.D. properties file   721 does not exist.
 End of Minotr F.D. properties file   722 does not exist.
 End of Minotr F.D. properties file   788 does not exist.
 Leave Link 1002 at Fri Dec 11 13:41:24 2015, MaxMem=    33554432 cpu:         0.0
 (Enter /home/Applications/g09/g09/l601.exe)
 Copying SCF densities to generalized density rwf, IOpCl= 0 IROHF=0.

 **********************************************************************

            Population analysis using the SCF density.

 **********************************************************************

 Orbital symmetries:
       Occupied  (A) (A) (A) (A) (A) (A) (A) (A) (A) (A) (A) (A)
                 (A)
       Virtual   (A) (A) (A) (A) (A) (A) (A) (A) (A) (A) (A)
 The electronic state is 1-A.
 Alpha  occ. eigenvalues --   -3.96888  -1.22728  -0.92516  -0.91475  -0.90485
 Alpha  occ. eigenvalues --   -0.80906  -0.70581  -0.53333  -0.51843  -0.47864
 Alpha  occ. eigenvalues --   -0.43179  -0.40644  -0.33275
 Alpha virt. eigenvalues --    0.14359   0.16773   0.20372   0.24020   0.25529
 Alpha virt. eigenvalues --    0.25780   0.28697   0.33092   0.35540   0.37907
 Alpha virt. eigenvalues --    0.42222
     Molecular Orbital Coefficients:
                           1         2         3         4         5
                           O         O         O         O         O
     Eigenvalues --    -3.96888  -1.22728  -0.92516  -0.91475  -0.90485
   1 1   C  1S          0.00338   0.28619   0.43577  -0.11155   0.00900
   2        1PX        -0.01933  -0.30727   0.14876  -0.30246   0.16612
   3        1PY        -0.02634  -0.21051   0.23734   0.24984  -0.17005
   4        1PZ         0.00006   0.00351   0.05604   0.22900   0.38770
   5 2   C  1S          0.03332   0.21728  -0.05384  -0.22106   0.13053
   6        1PX        -0.07930  -0.33621   0.19219  -0.14642   0.05331
   7        1PY        -0.02914   0.24846   0.37745  -0.09639   0.03120
   8        1PZ        -0.00139  -0.00789   0.05132   0.24860   0.40126
   9 3   O  1S          0.98882  -0.08136   0.05931   0.03736  -0.03035
  10        1PX        -0.00418   0.06537  -0.00830   0.07565  -0.06254
  11        1PY        -0.01278   0.25714  -0.11231  -0.07109   0.06388
  12        1PZ        -0.00023   0.00045   0.02419   0.12650   0.21151
  13 4   C  1S          0.04484   0.22767  -0.36045  -0.00654   0.07237
  14        1PX         0.06408   0.43375   0.09410  -0.05282   0.01186
  15        1PY        -0.07258   0.08853   0.07595   0.45207  -0.29745
  16        1PZ         0.00000  -0.00085   0.05759   0.26944   0.45529
  17 5   C  1S          0.00393   0.29330   0.06112   0.35912  -0.22711
  18        1PX         0.00536   0.19136   0.41454  -0.18068   0.04961
  19        1PY        -0.03530  -0.32478   0.26386   0.17719  -0.13902
  20        1PZ         0.00017   0.00356   0.05349   0.24529   0.39883
  21 6   H  1S         -0.00258  -0.01173   0.05626   0.23637  -0.13486
  22 7   H  1S          0.00434  -0.05007  -0.19288   0.00381   0.03941
  23 8   H  1S          0.00364  -0.04123  -0.05106  -0.12635   0.06199
  24 9   H  1S         -0.00236  -0.00113   0.29644  -0.08257   0.02063
                           6         7         8         9        10
                           O         O         O         O         O
     Eigenvalues --    -0.80906  -0.70581  -0.53333  -0.51843  -0.47864
   1 1   C  1S         -0.07027   0.17005  -0.07838   0.27106  -0.03292
   2        1PX         0.01101   0.24172  -0.03109  -0.17167   0.01842
   3        1PY        -0.23050  -0.29481   0.14898   0.17690  -0.03230
   4        1PZ         0.01769   0.01002   0.00592  -0.03630  -0.35323
   5 2   C  1S          0.43023   0.21751  -0.05648   0.32563  -0.05360
   6        1PX        -0.02161   0.37365   0.54490  -0.04750   0.00287
   7        1PY        -0.37804   0.28943  -0.20647  -0.30050   0.05027
   8        1PZ         0.00675  -0.01329  -0.00027  -0.08585  -0.61996
   9 3   O  1S         -0.00396   0.06600  -0.00505  -0.02421   0.00219
  10        1PX         0.38411   0.01675  -0.27682   0.06463  -0.01498
  11        1PY        -0.08797  -0.05144   0.09467  -0.02867   0.00702
  12        1PZ         0.01369  -0.00572  -0.00502   0.00723   0.06903
  13 4   C  1S         -0.42765   0.15147   0.22642   0.20138  -0.02350
  14        1PX         0.17990  -0.25568   0.47598  -0.34345   0.04149
  15        1PY         0.24234   0.48579  -0.10793  -0.21704   0.01330
  16        1PZ         0.02916   0.00124  -0.00192   0.07411   0.66082
  17 5   C  1S         -0.07134   0.13816   0.23307   0.20610  -0.02494
  18        1PX         0.05511  -0.30841  -0.07565   0.26230  -0.03311
  19        1PY         0.08837  -0.17404   0.03646   0.17934  -0.00005
  20        1PZ         0.02267   0.01077   0.01370   0.02850   0.18092
  21 6   H  1S         -0.00360   0.04729   0.14813   0.15781   0.00236
  22 7   H  1S         -0.27644   0.18631  -0.20474   0.40051  -0.04399
  23 8   H  1S          0.28529   0.17700   0.35662   0.30441  -0.03851
  24 9   H  1S         -0.09160   0.10128   0.01452   0.13966  -0.03073
                          11        12        13        14        15
                           O         O         O         V         V
     Eigenvalues --    -0.43179  -0.40644  -0.33275   0.14359   0.16773
   1 1   C  1S          0.07641   0.00353  -0.01197  -0.01999  -0.18706
   2        1PX         0.34468   0.38801  -0.02467  -0.01666   0.10467
   3        1PY         0.44973  -0.05372   0.01768   0.00982   0.04958
   4        1PZ        -0.01711   0.02973   0.45571   0.67120  -0.00747
   5 2   C  1S         -0.05917   0.20087  -0.03336   0.00185  -0.08302
   6        1PX        -0.18108  -0.31345   0.00677  -0.00858   0.09917
   7        1PY        -0.32885   0.07765  -0.01193   0.02297   0.06204
   8        1PZ        -0.01023  -0.03359  -0.46559  -0.30262   0.00945
   9 3   O  1S         -0.01126  -0.03194   0.00086   0.00057   0.01574
  10        1PX         0.13958   0.05716   0.00411  -0.00033   0.13682
  11        1PY         0.04106   0.17585  -0.01292   0.01461   0.26104
  12        1PZ         0.01425  -0.02761  -0.36655   0.01821  -0.01652
  13 4   C  1S          0.14617   0.11304  -0.01299  -0.00104  -0.18333
  14        1PX         0.11218   0.17858  -0.01482   0.00452   0.40871
  15        1PY         0.23470  -0.17890   0.01209  -0.00255   0.16770
  16        1PZ         0.03137  -0.04869  -0.31334   0.24381  -0.00258
  17 5   C  1S         -0.06785   0.01125  -0.01932   0.01170  -0.13322
  18        1PX        -0.06569  -0.38864   0.02990  -0.02226   0.14585
  19        1PY        -0.36431   0.40550  -0.04808   0.03802   0.13630
  20        1PZ        -0.01101   0.03758   0.57900  -0.62608   0.00415
  21 6   H  1S         -0.26540   0.44565  -0.03218  -0.04268  -0.01474
  22 7   H  1S         -0.02149  -0.05408  -0.00240   0.00326   0.74172
  23 8   H  1S          0.00990  -0.11370   0.00280   0.02372   0.01634
  24 9   H  1S          0.45166   0.23113  -0.00782   0.00871  -0.08036
                          16        17        18        19        20
                           V         V         V         V         V
     Eigenvalues --     0.20372   0.24020   0.25529   0.25780   0.28697
   1 1   C  1S         -0.06140   0.02080   0.00043   0.00913  -0.38241
   2        1PX        -0.07816  -0.03640   0.11431   0.05468  -0.37968
   3        1PY         0.21814  -0.14704   0.18922   0.06318  -0.18648
   4        1PZ        -0.02720   0.02649   0.00058   0.07951  -0.01498
   5 2   C  1S         -0.14043  -0.32238   0.12225   0.04209   0.03746
   6        1PX        -0.26904  -0.10842   0.17492   0.05808   0.18381
   7        1PY         0.35921  -0.03858  -0.05216  -0.01984   0.02392
   8        1PZ         0.01447  -0.01269   0.06519  -0.26099  -0.00759
   9 3   O  1S          0.01972  -0.01691   0.03124   0.00916   0.02678
  10        1PX         0.02609  -0.02035   0.13555   0.03021   0.06324
  11        1PY         0.30568  -0.17876   0.34693   0.09059   0.35559
  12        1PZ         0.01949   0.04143  -0.24703   0.85626   0.03583
  13 4   C  1S          0.02636  -0.22756   0.27923   0.08621  -0.01360
  14        1PX        -0.14141   0.01396  -0.15985  -0.03249  -0.15842
  15        1PY         0.08290  -0.06598   0.19983   0.06375   0.04294
  16        1PZ        -0.01788  -0.00315   0.10075  -0.31952  -0.01390
  17 5   C  1S         -0.21959  -0.16397  -0.31696  -0.07853  -0.09541
  18        1PX        -0.08259   0.06266   0.32261   0.09634   0.09596
  19        1PY         0.12387  -0.46434  -0.09249  -0.01118   0.07122
  20        1PZ         0.02492  -0.03788  -0.05977   0.09484   0.01182
  21 6   H  1S         -0.10480   0.65211   0.38244   0.08334  -0.00340
  22 7   H  1S         -0.14955   0.09161  -0.20008  -0.04347  -0.09055
  23 8   H  1S          0.69628   0.23651  -0.21368  -0.08212  -0.11393
  24 9   H  1S         -0.09225   0.17448  -0.30928  -0.12565   0.65902
                          21        22        23        24
                           V         V         V         V
     Eigenvalues --     0.33092   0.35540   0.37907   0.42222
   1 1   C  1S         -0.24684   0.48938   0.32850  -0.02955
   2        1PX         0.39924  -0.20655   0.09045  -0.12488
   3        1PY        -0.38201  -0.30681  -0.11806   0.08340
   4        1PZ         0.00569   0.00799   0.00675  -0.00413
   5 2   C  1S         -0.35293  -0.30630  -0.32677  -0.13992
   6        1PX        -0.15023  -0.00434   0.14201   0.21106
   7        1PY        -0.07744  -0.27453  -0.19658   0.22280
   8        1PZ         0.00640   0.00315   0.00418   0.00295
   9 3   O  1S         -0.00369  -0.00340   0.02855  -0.00991
  10        1PX         0.08352  -0.05640   0.27464   0.77827
  11        1PY        -0.06062  -0.04235   0.56169  -0.29874
  12        1PZ        -0.00460  -0.00064   0.00313   0.00820
  13 4   C  1S          0.27849   0.25240  -0.28971   0.28561
  14        1PX        -0.06754   0.12800  -0.18728   0.11101
  15        1PY         0.09438   0.21239  -0.21739  -0.24683
  16        1PZ         0.00003  -0.00215   0.00128  -0.00140
  17 5   C  1S          0.31437  -0.45345   0.29601  -0.04669
  18        1PX         0.46886  -0.08414  -0.18562  -0.09967
  19        1PY         0.16985   0.31800  -0.08462   0.00072
  20        1PZ        -0.00174  -0.00126   0.00196   0.00156
  21 6   H  1S         -0.05732  -0.07175  -0.05949  -0.00130
  22 7   H  1S         -0.08404   0.01456  -0.03575  -0.01810
  23 8   H  1S          0.14285  -0.00133  -0.03642   0.01004
  24 9   H  1S          0.02389   0.07115  -0.10447   0.01744
     Density Matrix:
                           1         2         3         4         5
   1 1   C  1S          0.80977
   2        1PX         0.07137   1.19057
   3        1PY         0.10210   0.04204   1.18542
   4        1PZ        -0.00301  -0.00209   0.00289   1.08259
   5 2   C  1S          0.32493   0.14736  -0.57437   0.01217   1.01320
   6        1PX        -0.00314   0.16743  -0.04827   0.00178  -0.14723
   7        1PY         0.46133   0.11302  -0.45470   0.00537  -0.19011
   8        1PZ        -0.00985  -0.00667   0.00776   0.44888   0.01518
   9 3   O  1S          0.01149   0.00467  -0.01465   0.00038  -0.00197
  10        1PX         0.06492   0.04237  -0.09822   0.00459   0.39819
  11        1PY         0.03807   0.01610  -0.11207  -0.00244   0.10956
  12        1PZ         0.00398   0.00507  -0.00093  -0.16053   0.01571
  13 4   C  1S          0.02952  -0.05205   0.06974  -0.00323  -0.00248
  14        1PX        -0.01430  -0.01829  -0.00511  -0.00562   0.03022
  15        1PY         0.07401  -0.05702   0.05246   0.00127  -0.06326
  16        1PZ         0.00302   0.00550  -0.00136  -0.27786  -0.00593
  17 5   C  1S          0.26099  -0.51294   0.19449  -0.01167   0.02620
  18        1PX         0.54216  -0.45149   0.22134   0.00912   0.07753
  19        1PY        -0.02996   0.04597   0.16292  -0.01951   0.03571
  20        1PZ        -0.01230  -0.00742   0.00302   0.82923  -0.00895
  21 6   H  1S          0.02926  -0.03981  -0.01839   0.00561   0.16481
  22 7   H  1S          0.15385  -0.11508   0.00532  -0.00080   0.12073
  23 8   H  1S          0.09362  -0.01077  -0.08950   0.00261   0.49740
  24 9   H  1S          0.47011   0.63384   0.51241   0.01308   0.10710
                           6         7         8         9        10
   6        1PX         1.50179
   7        1PY         0.12090   1.38354
   8        1PZ         0.00779   0.00122   1.67093
   9 3   O  1S         -0.02307  -0.00190   0.00005   1.99272
  10        1PX        -0.47362  -0.28181  -0.01261  -0.01846   0.53122
  11        1PY        -0.24042   0.07762  -0.00391  -0.10744  -0.07732
  12        1PZ        -0.00890  -0.00659   0.49150  -0.00108   0.00212
  13 4   C  1S         -0.05392  -0.03995   0.00027   0.00471  -0.34312
  14        1PX        -0.04897  -0.02192   0.00190   0.02551  -0.08277
  15        1PY         0.10003   0.09174  -0.00018  -0.01708   0.39544
  16        1PZ         0.00159   0.00017  -0.03206   0.00059  -0.00335
  17 5   C  1S          0.05415   0.06639   0.00732   0.01506  -0.04959
  18        1PX         0.01545   0.07784  -0.00590  -0.01475   0.03081
  19        1PY         0.02459   0.01034   0.00889  -0.01450   0.00697
  20        1PZ        -0.00257   0.00350  -0.32321  -0.00042   0.00123
  21 6   H  1S         -0.05542   0.10167  -0.01069   0.00392  -0.03609
  22 7   H  1S         -0.10666  -0.00695  -0.00199   0.00495  -0.05963
  23 8   H  1S          0.59831  -0.50258  -0.01841   0.00428   0.02650
  24 9   H  1S         -0.08509   0.01445  -0.00136   0.00535   0.07627
                          11        12        13        14        15
  11        1PY         0.28206
  12        1PZ         0.00256   0.40342
  13 4   C  1S          0.34983   0.00311   1.04313
  14        1PX         0.38677   0.00460   0.05531   1.38538
  15        1PY        -0.21633   0.00089  -0.23909  -0.09839   1.50521
  16        1PZ        -0.00056   0.58995   0.00014   0.00332   0.00710
  17 5   C  1S          0.08611   0.00327   0.32807   0.19440   0.44333
  18        1PX        -0.11346  -0.00180  -0.37715   0.03315  -0.35920
  19        1PY        -0.15543   0.00761  -0.41685  -0.16181  -0.29863
  20        1PZ         0.00164  -0.16774   0.00088   0.00164  -0.00044
  21 6   H  1S          0.08113  -0.00264   0.10319   0.07982  -0.04024
  22 7   H  1S         -0.03164   0.00447   0.46740  -0.77112  -0.13338
  23 8   H  1S         -0.04207  -0.00245   0.10163   0.07077  -0.02121
  24 9   H  1S          0.06586   0.00199   0.14742   0.07843   0.07681
                          16        17        18        19        20
  16        1PZ         1.65555
  17 5   C  1S         -0.00710   0.79404
  18        1PX         0.00808  -0.00890   1.14724
  19        1PY        -0.00128   0.12251  -0.04828   1.19627
  20        1PZ         0.37894  -0.00752   0.00026  -0.00377   1.18648
  21 6   H  1S         -0.00296   0.42585  -0.33947   0.76696   0.03116
  22 7   H  1S          0.00758   0.09649  -0.03318  -0.09213  -0.00127
  23 8   H  1S          0.00242   0.14853   0.11153  -0.03811   0.00612
  24 9   H  1S         -0.00589   0.01802   0.03828  -0.01883   0.00129
                          21        22        23        24
  21 6   H  1S          0.79309
  22 7   H  1S          0.01914   0.72017
  23 8   H  1S          0.02821   0.04906   0.74240
  24 9   H  1S          0.01404   0.03937   0.03090   0.78382
    Full Mulliken population analysis:
                           1         2         3         4         5
   1 1   C  1S          0.80977
   2        1PX         0.00000   1.19057
   3        1PY         0.00000   0.00000   1.18542
   4        1PZ         0.00000   0.00000   0.00000   1.08259
   5 2   C  1S          0.00000   0.00000   0.00000   0.00000   1.01320
   6        1PX         0.00000   0.00000   0.00000   0.00000   0.00000
   7        1PY         0.00000   0.00000   0.00000   0.00000   0.00000
   8        1PZ         0.00000   0.00000   0.00000   0.00000   0.00000
   9 3   O  1S          0.00000   0.00000   0.00000   0.00000   0.00000
  10        1PX         0.00000   0.00000   0.00000   0.00000   0.00000
  11        1PY         0.00000   0.00000   0.00000   0.00000   0.00000
  12        1PZ         0.00000   0.00000   0.00000   0.00000   0.00000
  13 4   C  1S          0.00000   0.00000   0.00000   0.00000   0.00000
  14        1PX         0.00000   0.00000   0.00000   0.00000   0.00000
  15        1PY         0.00000   0.00000   0.00000   0.00000   0.00000
  16        1PZ         0.00000   0.00000   0.00000   0.00000   0.00000
  17 5   C  1S          0.00000   0.00000   0.00000   0.00000   0.00000
  18        1PX         0.00000   0.00000   0.00000   0.00000   0.00000
  19        1PY         0.00000   0.00000   0.00000   0.00000   0.00000
  20        1PZ         0.00000   0.00000   0.00000   0.00000   0.00000
  21 6   H  1S          0.00000   0.00000   0.00000   0.00000   0.00000
  22 7   H  1S          0.00000   0.00000   0.00000   0.00000   0.00000
  23 8   H  1S          0.00000   0.00000   0.00000   0.00000   0.00000
  24 9   H  1S          0.00000   0.00000   0.00000   0.00000   0.00000
                           6         7         8         9        10
   6        1PX         1.50179
   7        1PY         0.00000   1.38354
   8        1PZ         0.00000   0.00000   1.67093
   9 3   O  1S          0.00000   0.00000   0.00000   1.99272
  10        1PX         0.00000   0.00000   0.00000   0.00000   0.53122
  11        1PY         0.00000   0.00000   0.00000   0.00000   0.00000
  12        1PZ         0.00000   0.00000   0.00000   0.00000   0.00000
  13 4   C  1S          0.00000   0.00000   0.00000   0.00000   0.00000
  14        1PX         0.00000   0.00000   0.00000   0.00000   0.00000
  15        1PY         0.00000   0.00000   0.00000   0.00000   0.00000
  16        1PZ         0.00000   0.00000   0.00000   0.00000   0.00000
  17 5   C  1S          0.00000   0.00000   0.00000   0.00000   0.00000
  18        1PX         0.00000   0.00000   0.00000   0.00000   0.00000
  19        1PY         0.00000   0.00000   0.00000   0.00000   0.00000
  20        1PZ         0.00000   0.00000   0.00000   0.00000   0.00000
  21 6   H  1S          0.00000   0.00000   0.00000   0.00000   0.00000
  22 7   H  1S          0.00000   0.00000   0.00000   0.00000   0.00000
  23 8   H  1S          0.00000   0.00000   0.00000   0.00000   0.00000
  24 9   H  1S          0.00000   0.00000   0.00000   0.00000   0.00000
                          11        12        13        14        15
  11        1PY         0.28206
  12        1PZ         0.00000   0.40342
  13 4   C  1S          0.00000   0.00000   1.04313
  14        1PX         0.00000   0.00000   0.00000   1.38538
  15        1PY         0.00000   0.00000   0.00000   0.00000   1.50521
  16        1PZ         0.00000   0.00000   0.00000   0.00000   0.00000
  17 5   C  1S          0.00000   0.00000   0.00000   0.00000   0.00000
  18        1PX         0.00000   0.00000   0.00000   0.00000   0.00000
  19        1PY         0.00000   0.00000   0.00000   0.00000   0.00000
  20        1PZ         0.00000   0.00000   0.00000   0.00000   0.00000
  21 6   H  1S          0.00000   0.00000   0.00000   0.00000   0.00000
  22 7   H  1S          0.00000   0.00000   0.00000   0.00000   0.00000
  23 8   H  1S          0.00000   0.00000   0.00000   0.00000   0.00000
  24 9   H  1S          0.00000   0.00000   0.00000   0.00000   0.00000
                          16        17        18        19        20
  16        1PZ         1.65555
  17 5   C  1S          0.00000   0.79404
  18        1PX         0.00000   0.00000   1.14724
  19        1PY         0.00000   0.00000   0.00000   1.19627
  20        1PZ         0.00000   0.00000   0.00000   0.00000   1.18648
  21 6   H  1S          0.00000   0.00000   0.00000   0.00000   0.00000
  22 7   H  1S          0.00000   0.00000   0.00000   0.00000   0.00000
  23 8   H  1S          0.00000   0.00000   0.00000   0.00000   0.00000
  24 9   H  1S          0.00000   0.00000   0.00000   0.00000   0.00000
                          21        22        23        24
  21 6   H  1S          0.79309
  22 7   H  1S          0.00000   0.72017
  23 8   H  1S          0.00000   0.00000   0.74240
  24 9   H  1S          0.00000   0.00000   0.00000   0.78382
     Gross orbital populations:
                           1
   1 1   C  1S          0.80977
   2        1PX         1.19057
   3        1PY         1.18542
   4        1PZ         1.08259
   5 2   C  1S          1.01320
   6        1PX         1.50179
   7        1PY         1.38354
   8        1PZ         1.67093
   9 3   O  1S          1.99272
  10        1PX         0.53122
  11        1PY         0.28206
  12        1PZ         0.40342
  13 4   C  1S          1.04313
  14        1PX         1.38538
  15        1PY         1.50521
  16        1PZ         1.65555
  17 5   C  1S          0.79404
  18        1PX         1.14724
  19        1PY         1.19627
  20        1PZ         1.18648
  21 6   H  1S          0.79309
  22 7   H  1S          0.72017
  23 8   H  1S          0.74240
  24 9   H  1S          0.78382
          Condensed to atoms (all electrons):
               1          2          3          4          5          6
     1  C    4.268343   0.000000   0.000000   0.000000   0.000000   0.000000
     2  C    0.000000   5.569451   0.000000   0.000000   0.000000   0.000000
     3  O    0.000000   0.000000   3.209427   0.000000   0.000000   0.000000
     4  C    0.000000   0.000000   0.000000   5.589269   0.000000   0.000000
     5  C    0.000000   0.000000   0.000000   0.000000   4.324025   0.000000
     6  H    0.000000   0.000000   0.000000   0.000000   0.000000   0.793090
     7  H    0.000000   0.000000   0.000000   0.000000   0.000000   0.000000
     8  H    0.000000   0.000000   0.000000   0.000000   0.000000   0.000000
     9  H    0.000000   0.000000   0.000000   0.000000   0.000000   0.000000
               7          8          9
     1  C    0.000000   0.000000   0.000000
     2  C    0.000000   0.000000   0.000000
     3  O    0.000000   0.000000   0.000000
     4  C    0.000000   0.000000   0.000000
     5  C    0.000000   0.000000   0.000000
     6  H    0.000000   0.000000   0.000000
     7  H    0.720171   0.000000   0.000000
     8  H    0.000000   0.742402   0.000000
     9  H    0.000000   0.000000   0.783821
 Mulliken charges:
               1
     1  C   -0.268343
     2  C   -1.569451
     3  O    2.790573
     4  C   -1.589269
     5  C   -0.324025
     6  H    0.206910
     7  H    0.279829
     8  H    0.257598
     9  H    0.216179
 Sum of Mulliken charges =   0.00000
 Mulliken charges with hydrogens summed into heavy atoms:
               1
     1  C   -0.052164
     2  C   -1.311853
     3  O    2.790573
     4  C   -1.309440
     5  C   -0.117115
 Charge=              0.0000 electrons
 Dipole moment (field-independent basis, Debye):
    X=             -3.2437    Y=             -9.7338    Z=             -0.0702  Tot=             10.2603
 N-N= 1.046129265495D+02 E-N=-1.716219091732D+02  KE=-2.310346693045D+01
 Orbital energies and kinetic energies (alpha):
                                 1                 2
   1         O                -3.968881         -3.280689
   2         O                -1.227278         -1.201331
   3         O                -0.925157         -0.971897
   4         O                -0.914750         -0.922492
   5         O                -0.904845         -0.882927
   6         O                -0.809063         -0.799659
   7         O                -0.705807         -0.686772
   8         O                -0.533334         -0.495248
   9         O                -0.518434         -0.573687
  10         O                -0.478640         -0.460523
  11         O                -0.431789         -0.478486
  12         O                -0.406443         -0.445317
  13         O                -0.332745         -0.352705
  14         V                 0.143586         -0.202531
  15         V                 0.167730         -0.244475
  16         V                 0.203718         -0.225478
  17         V                 0.240200         -0.256742
  18         V                 0.255291         -0.173298
  19         V                 0.257803          0.094893
  20         V                 0.286972         -0.183250
  21         V                 0.330919         -0.153243
  22         V                 0.355401         -0.197445
  23         V                 0.379069         -0.002434
  24         V                 0.422222          0.218348
 Total kinetic energy from orbitals=-2.310346693045D+01
 Leave Link  601 at Fri Dec 11 13:41:24 2015, MaxMem=    33554432 cpu:         0.0
 (Enter /home/Applications/g09/g09/l701.exe)
 Compute integral first derivatives.
 ... and contract with generalized density number  6.
 Leave Link  701 at Fri Dec 11 13:41:24 2015, MaxMem=    33554432 cpu:         0.0
 (Enter /home/Applications/g09/g09/l702.exe)
 L702 exits ... SP integral derivatives will be done elsewhere.
 Leave Link  702 at Fri Dec 11 13:41:24 2015, MaxMem=    33554432 cpu:         0.0
 (Enter /home/Applications/g09/g09/l703.exe)
 Compute integral first derivatives, UseDBF=F ICtDFT=           0.
 Integral derivatives from FoFJK, PRISM(SPDF).
 Calling FoFJK, ICntrl=  10005127 FMM=F ISym2X=0 I1Cent= 0 IOpClX= 0 NMat=1 NMatS=1 NMatT=0.
 FoFJK:  IHMeth= 8 ICntrl=10005127 DoSepK=F KAlg= 0 I1Cent=   0 FoldK=F
 IRaf=         0 NMat=   1 IRICut=       1 DoRegI=T DoRafI=F ISym2E= 0.
 FoFCou: FMM=F IPFlag=           0 FMFlag=      100000 FMFlg1=         800
         NFxFlg=           0 DoJE=F BraDBF=F KetDBF=F FulRan=T
         wScrn=  0.000000 ICntrl=10005127 IOpCl=  0 I1Cent=           0 NGrid=           0
         NMat0=    1 NMatS0=      1 NMatT0=    0 NMatD0=    1 NMtDS0=    0 NMtDT0=    0
 Symmetry not used in FoFCou.
 Leave Link  703 at Fri Dec 11 13:41:24 2015, MaxMem=    33554432 cpu:         0.0
 (Enter /home/Applications/g09/g09/l716.exe)
 Dipole        =-1.43231370D+00-4.25728149D+00 1.04171878D-02
 ***** Axes restored to original set *****
 -------------------------------------------------------------------
 Center     Atomic                   Forces (Hartrees/Bohr)
 Number     Number              X              Y              Z
 -------------------------------------------------------------------
      1        6           0.305241182   -0.189898247   -0.030962373
      2        6          -0.271777707   -0.356243401    0.022056769
      3        8          -0.257637499   -0.128885401    0.007544162
      4        6          -0.231764543    0.504303900   -0.006395592
      5        6           0.369305662    0.240920075   -0.012401527
      6        1           0.002000526   -0.000300741    0.014178977
      7        1           0.002647859    0.032107927    0.000333497
      8        1          -0.005231209   -0.045580329    0.002761898
      9        1           0.087215730   -0.056423782    0.002884189
 -------------------------------------------------------------------
 Cartesian Forces:  Max     0.504303900 RMS     0.185723010
 Z-matrix is all fixed cartesians, so copy forces.
 Force constants in Cartesian coordinates: 
                1             2             3             4             5 
      1  0.953012D+00
      2 -0.548367D-01  0.903348D+00
      3 -0.897151D-02 -0.110864D-01  0.228172D+00
      4 -0.491941D+00 -0.122623D+00  0.173071D-01  0.861796D+00
      5 -0.101583D+00 -0.225063D+00  0.677627D-02  0.997582D-01  0.823538D+00
      6  0.160772D-01  0.540154D-02 -0.103560D+00 -0.675601D-02  0.270307D-02
      7 -0.971227D-02  0.272106D-01 -0.721402D-03 -0.229059D+00  0.110265D+00
      8 -0.703652D-02  0.197299D-01 -0.331964D-03  0.153732D+00 -0.286872D+00
      9  0.803556D-03 -0.166666D-02  0.369411D-02 -0.467661D-02  0.493913D-02
     10  0.104450D-01  0.448803D-03 -0.196766D-03  0.242959D-01  0.176337D-01
     11  0.355303D-01  0.152535D-02 -0.894986D-03 -0.175290D-01 -0.127208D-01
     12  0.366405D-05 -0.565114D-04  0.691881D-03  0.342736D-03  0.344264D-03
     13 -0.177437D+00  0.241100D-01 -0.344138D-03  0.123741D-01 -0.347262D-01
     14 -0.809484D-04 -0.464696D+00  0.335361D-02  0.531011D-03 -0.149006D-02
     15 -0.393526D-03 -0.260358D-02 -0.922510D-01 -0.804659D-03  0.249430D-02
     16  0.164840D-01  0.708188D-03  0.133163D-04 -0.142695D-04  0.000000D+00
     17 -0.219289D-01 -0.943421D-03 -0.218887D-02  0.000000D+00  0.000000D+00
     18  0.284243D-04  0.130281D-04  0.196082D-01  0.175994D-03  0.104631D-04
     19  0.241990D-05  0.000000D+00  0.114848D-03  0.000000D+00  0.144574D-05
     20 -0.210373D-05  0.000000D+00 -0.998424D-04  0.000000D+00  0.000000D+00
     21  0.147292D-03  0.105371D-04  0.699043D-02 -0.198686D-04  0.588726D-04
     22  0.915078D-02 -0.258395D-01 -0.128330D-02 -0.170680D+00 -0.110296D+00
     23 -0.468929D-02  0.130930D-01 -0.758899D-03 -0.105526D+00 -0.320834D+00
     24  0.284751D-03  0.238425D-02  0.303980D-01 -0.752965D-02 -0.146135D-01
     25 -0.310004D+00  0.150822D+00 -0.591812D-02 -0.677204D-02  0.189472D-01
     26  0.154627D+00 -0.246994D+00  0.523110D-02 -0.834241D-02  0.234433D-01
     27 -0.797985D-02  0.760381D-02 -0.937438D-01  0.196100D-02 -0.271287D-02
                6             7             8             9            10 
      6  0.190758D+00
      7 -0.208792D-02  0.532855D+00
      8  0.250283D-02  0.109634D+00  0.721660D+00
      9 -0.420053D-01 -0.476143D-03 -0.503395D-02  0.524005D-01
     10 -0.271962D-03 -0.328900D+00 -0.261542D+00  0.295326D-02  0.965691D+00
     11  0.139855D-03 -0.216535D+00 -0.461050D+00  0.188862D-02  0.378126D-01
     12 -0.303834D-02  0.245146D-02  0.212966D-02 -0.470389D-01 -0.139826D-01
     13  0.231000D-03 -0.901269D-02  0.650113D-02  0.612217D-03 -0.512376D+00
     14  0.438069D-04 -0.306586D-01  0.221320D-01  0.155356D-02  0.110230D+00
     15 -0.233806D-02  0.254535D-04 -0.112945D-03  0.105049D-01  0.770824D-02
     16 -0.390768D-03 -0.104173D-05  0.000000D+00 -0.554599D-04 -0.483505D-02
     17 -0.138860D-04 -0.120755D-04  0.403311D-05 -0.642881D-03  0.635620D-02
     18  0.481956D-02  0.121570D-03 -0.406033D-04  0.647221D-02  0.677578D-03
     19  0.150246D-03  0.228797D-01 -0.165132D-01 -0.664779D-03 -0.154317D+00
     20 -0.638704D-04  0.108226D-01 -0.781175D-02 -0.404577D-03  0.890608D-01
     21  0.611827D-02 -0.149402D-03  0.137579D-03  0.409116D-02  0.299198D-02
     22 -0.622789D-02  0.209479D-01  0.152209D-01  0.140182D-02  0.000000D+00
     23 -0.107990D-01 -0.107358D-01 -0.780395D-02 -0.985350D-03  0.000000D+00
     24 -0.774446D-01  0.676275D-03  0.560096D-03  0.578069D-02 -0.867242D-05
     25 -0.723902D-03  0.268065D-05  0.316926D-05  0.102143D-03 -0.390160D-05
     26  0.856756D-04  0.924084D-05  0.109252D-04  0.352113D-03  0.000000D+00
     27  0.266897D-01  0.160107D-03  0.189290D-03  0.610071D-02  0.128901D-03
               11            12            13            14            15 
     11  0.964747D+00
     12  0.632051D-02  0.197335D+00
     13  0.831783D-01  0.107932D-01  0.867817D+00
     14 -0.215784D+00 -0.442479D-02 -0.238255D-01  0.806974D+00
     15 -0.376878D-02 -0.104371D+00  0.253474D-02  0.116604D-01  0.208785D+00
     16 -0.162986D-01 -0.214941D-02 -0.208735D+00 -0.832203D-01 -0.104208D-01
     17  0.216038D-01  0.296021D-03 -0.832428D-01 -0.160607D+00 -0.783363D-02
     18  0.680839D-03  0.231466D-01 -0.133495D-01 -0.101968D-01 -0.765014D-01
     19  0.938429D-01  0.285240D-02  0.770992D-02  0.261798D-01  0.716075D-03
     20 -0.298321D+00 -0.454518D-02  0.364686D-02  0.124237D-01 -0.237440D-03
     21 -0.440098D-02 -0.755137D-01 -0.459004D-04 -0.198939D-02  0.261229D-01
     22 -0.121582D-05 -0.126353D-03  0.180800D-04  0.107488D-05  0.495117D-03
     23  0.000000D+00 -0.597163D-04 -0.220200D-04 -0.130911D-05 -0.603012D-03
     24  0.256972D-04  0.267056D-02  0.274638D-03  0.163275D-04  0.752089D-02
     25  0.000000D+00 -0.185169D-03  0.196417D-01  0.843924D-03  0.139316D-03
     26  0.000000D+00 -0.427149D-05  0.243803D-01  0.104802D-02  0.100466D-02
     27  0.922148D-05  0.611761D-02 -0.706268D-03 -0.167776D-04  0.225276D-01
               16            17            18            19            20 
     16  0.197120D+00
     17  0.988129D-01  0.139956D+00
     18  0.122611D-01  0.938759D-02  0.403603D-01
     19  0.137802D-05  0.159737D-04 -0.160816D-03  0.123724D+00
     20 -0.119798D-05 -0.138867D-04  0.139805D-03 -0.103527D+00  0.293724D+00
     21  0.838758D-04  0.972274D-03 -0.978836D-02 -0.300797D-02  0.521110D-02
     22  0.000000D+00  0.000000D+00  0.000000D+00  0.000000D+00  0.000000D+00
     23  0.000000D+00  0.000000D+00  0.000000D+00  0.000000D+00  0.000000D+00
     24  0.000000D+00  0.000000D+00  0.000000D+00  0.000000D+00  0.000000D+00
     25 -0.199204D-04  0.000000D+00  0.245689D-03  0.000000D+00  0.000000D+00
     26  0.000000D+00  0.000000D+00  0.566756D-05  0.000000D+00  0.000000D+00
     27  0.658129D-03  0.233867D-04 -0.811707D-02  0.000000D+00  0.000000D+00
               21            22            23            24            25 
     21  0.419793D-01
     22  0.000000D+00  0.140575D+00
     23  0.000000D+00  0.120958D+00  0.315494D+00
     24  0.000000D+00  0.649436D-02  0.122880D-01  0.425243D-01
     25  0.000000D+00 -0.126202D-04  0.153704D-04 -0.191703D-03  0.297168D+00
     26  0.000000D+00 -0.435049D-04  0.529854D-04 -0.660845D-03 -0.170630D+00
     27  0.000000D+00 -0.753767D-03  0.918026D-03 -0.114498D-01  0.653175D-02
               26            27 
     26  0.222438D+00
     27 -0.601409D-02  0.518750D-01
 Leave Link  716 at Fri Dec 11 13:41:24 2015, MaxMem=    33554432 cpu:         0.0
 (Enter /home/Applications/g09/g09/l103.exe)

 GradGradGradGradGradGradGradGradGradGradGradGradGradGradGradGradGradGrad
 Berny optimization.
 Search for a local minimum.
 Step number   1 out of a maximum of    2
 All quantities printed in internal units (Hartrees-Bohrs-Radians)
 Second derivative matrix not updated -- first step.
 ITU=  0
     Eigenvalues ---    0.02023   0.03062   0.06626   0.07501   0.07945
     Eigenvalues ---    0.08508   0.13056   0.15127   0.16224   0.24256
     Eigenvalues ---    0.25074   0.31143   0.40672   0.44150   0.62443
     Eigenvalues ---    0.80671   1.02813   1.34426   1.52962   1.56698
     Eigenvalues ---    1.67913
 Quadratic step=2.367D+00 exceeds max=3.000D-01 adjusted using Lamda=-2.296D+00.
 Angle between NR and scaled steps=  39.97 degrees.
 Angle between quadratic step and forces=   9.32 degrees.
 Linear search not attempted -- first point.
 TrRot= -0.004812  0.000731 -0.000424  0.312011  0.000425 -0.311772
 Variable       Old X    -DE/DX   Delta X   Delta X   Delta X     New X
                                 (Linear)    (Quad)   (Total)
    X1        1.83408   0.30524   0.00000   0.09282   0.08831   1.92239
    Y1       -1.28800  -0.18990   0.00000  -0.06296  -0.06178  -1.34978
    Z1       -0.05926  -0.03096   0.00000  -0.00977  -0.01080  -0.07006
    X2       -0.58210  -0.27178   0.00000  -0.07165  -0.07591  -0.65801
    Y2       -2.14814  -0.35624   0.00000  -0.11554  -0.11496  -2.26310
    Z2        0.03083   0.02206   0.00000   0.00751   0.00764   0.03848
    X3       -2.18319  -0.25764   0.00000  -0.07919  -0.08400  -2.26720
    Y3        0.05780  -0.12889   0.00000  -0.03016  -0.02997   0.02784
    Z3        0.00441   0.00754   0.00000   0.00222   0.00270   0.00711
    X4       -0.73379  -0.23176   0.00000  -0.06344  -0.06879  -0.80257
    Y4        2.06660   0.50430   0.00000   0.14905   0.14959   2.21620
    Z4       -0.01021  -0.00640   0.00000  -0.00302  -0.00342  -0.01363
    X5        1.72096   0.36931   0.00000   0.11368   0.10850   1.82946
    Y5        1.34507   0.24092   0.00000   0.08064   0.08180   1.42687
    Z5       -0.06085  -0.01240   0.00000  -0.00331  -0.00466  -0.06551
    X6        3.47973   0.00200   0.00000   0.01617   0.01076   3.49049
    Y6        2.66733  -0.00030   0.00000   0.00690   0.00848   2.67580
    Z6        0.08556   0.01418   0.00000   0.00860   0.00641   0.09197
    X7       -1.61792   0.00265   0.00000  -0.00449  -0.01024  -1.62816
    Y7        3.93630   0.03211   0.00000   0.03112   0.03147   3.96777
    Z7        0.03102   0.00033   0.00000   0.00070   0.00042   0.03144
    X8       -1.49764  -0.00523   0.00000  -0.00875  -0.01264  -1.51028
    Y8       -3.93980  -0.04558   0.00000  -0.03420  -0.03383  -3.97363
    Z8       -0.05255   0.00276   0.00000   0.00030   0.00100  -0.05154
    X9        3.34345   0.08722   0.00000   0.04822   0.04401   3.38745
    Y9       -2.50270  -0.05642   0.00000  -0.03234  -0.03080  -2.53350
    Z9       -0.01443   0.00288   0.00000   0.00216   0.00069  -0.01374
         Item               Value     Threshold  Converged?
 Maximum Force            0.504304     0.000450     NO 
 RMS     Force            0.185723     0.000300     NO 
 Maximum Displacement     0.149591     0.001800     NO 
 RMS     Displacement     0.057687     0.001200     NO 
 Predicted change in Energy=-2.463070D-01
 GradGradGradGradGradGradGradGradGradGradGradGradGradGradGradGradGradGrad

 Leave Link  103 at Fri Dec 11 13:41:25 2015, MaxMem=    33554432 cpu:         0.0
 (Enter /home/Applications/g09/g09/l9999.exe)
 1\1\GINC-DUSTIN-DESKTOP\Force\RAM1-FC\STO-3G\C4H4O1\DUSTIN\11-Dec-2015
 \0\\#P AM1(Input,print) CIS(Singlets,NStates=15) pop(full) force\\AM1-
 Reparam Input\\0,1\C,0.970555,-0.681579,-0.031361\C,-0.308035,-1.13674
 6,0.016317\O,-1.155297,0.030588,0.002333\C,-0.388303,1.0936,-0.005405\
 C,0.910694,0.71178,-0.0322\H,1.841396,1.41149,0.045277\H,-0.856168,2.0
 82999,0.016413\H,-0.792516,-2.084852,-0.027806\H,1.769276,-1.324372,-0
 .007634\\Version=ES64L-G09RevD.01\State=1-A\HF=-4.906929\RMSD=2.442e-0
 9\RMSF=1.857e-01\Dipole=-4.4781816,0.3444909,0.057379\PG=C01 [X(C4H4O1
 )]\\@


 IF THE FACTS DO NOT CONFORM TO THE THEORY, THEY MUST BE DISPOSED OF.
 Job cpu time:       0 days  0 hours  0 minutes  0.7 seconds.
 File lengths (MBytes):  RWF=      7 Int=      0 D2E=      0 Chk=      2 Scr=      1
 Normal termination of Gaussian 09 at Fri Dec 11 13:41:25 2015.
