 Entering Gaussian System, Link 0=g09
 Input=FuranAM1_63.com
 Output=FuranAM1_63.log
 Initial command:
 /home/Applications/g09/g09/l1.exe "/home/Applications/g09/scratch/Gau-6084.inp" -scrdir="/home/Applications/g09/scratch/"
 Entering Link 1 = /home/Applications/g09/g09/l1.exe PID=      6086.
  
 Copyright (c) 1988,1990,1992,1993,1995,1998,2003,2009,2013,
            Gaussian, Inc.  All Rights Reserved.
  
 This is part of the Gaussian(R) 09 program.  It is based on
 the Gaussian(R) 03 system (copyright 2003, Gaussian, Inc.),
 the Gaussian(R) 98 system (copyright 1998, Gaussian, Inc.),
 the Gaussian(R) 94 system (copyright 1995, Gaussian, Inc.),
 the Gaussian 92(TM) system (copyright 1992, Gaussian, Inc.),
 the Gaussian 90(TM) system (copyright 1990, Gaussian, Inc.),
 the Gaussian 88(TM) system (copyright 1988, Gaussian, Inc.),
 the Gaussian 86(TM) system (copyright 1986, Carnegie Mellon
 University), and the Gaussian 82(TM) system (copyright 1983,
 Carnegie Mellon University). Gaussian is a federally registered
 trademark of Gaussian, Inc.
  
 This software contains proprietary and confidential information,
 including trade secrets, belonging to Gaussian, Inc.
  
 This software is provided under written license and may be
 used, copied, transmitted, or stored only in accord with that
 written license.
  
 The following legend is applicable only to US Government
 contracts under FAR:
  
                    RESTRICTED RIGHTS LEGEND
  
 Use, reproduction and disclosure by the US Government is
 subject to restrictions as set forth in subparagraphs (a)
 and (c) of the Commercial Computer Software - Restricted
 Rights clause in FAR 52.227-19.
  
 Gaussian, Inc.
 340 Quinnipiac St., Bldg. 40, Wallingford CT 06492
  
  
 ---------------------------------------------------------------
 Warning -- This program may not be used in any manner that
 competes with the business of Gaussian, Inc. or will provide
 assistance to any competitor of Gaussian, Inc.  The licensee
 of this program is prohibited from giving any competitor of
 Gaussian, Inc. access to this program.  By using this program,
 the user acknowledges that Gaussian, Inc. is engaged in the
 business of creating and licensing software in the field of
 computational chemistry and represents and warrants to the
 licensee that it is not a competitor of Gaussian, Inc. and that
 it will not use this program in any manner prohibited above.
 ---------------------------------------------------------------
  

 Cite this work as:
 Gaussian 09, Revision D.01,
 M. J. Frisch, G. W. Trucks, H. B. Schlegel, G. E. Scuseria, 
 M. A. Robb, J. R. Cheeseman, G. Scalmani, V. Barone, B. Mennucci, 
 G. A. Petersson, H. Nakatsuji, M. Caricato, X. Li, H. P. Hratchian, 
 A. F. Izmaylov, J. Bloino, G. Zheng, J. L. Sonnenberg, M. Hada, 
 M. Ehara, K. Toyota, R. Fukuda, J. Hasegawa, M. Ishida, T. Nakajima, 
 Y. Honda, O. Kitao, H. Nakai, T. Vreven, J. A. Montgomery, Jr., 
 J. E. Peralta, F. Ogliaro, M. Bearpark, J. J. Heyd, E. Brothers, 
 K. N. Kudin, V. N. Staroverov, T. Keith, R. Kobayashi, J. Normand, 
 K. Raghavachari, A. Rendell, J. C. Burant, S. S. Iyengar, J. Tomasi, 
 M. Cossi, N. Rega, J. M. Millam, M. Klene, J. E. Knox, J. B. Cross, 
 V. Bakken, C. Adamo, J. Jaramillo, R. Gomperts, R. E. Stratmann, 
 O. Yazyev, A. J. Austin, R. Cammi, C. Pomelli, J. W. Ochterski, 
 R. L. Martin, K. Morokuma, V. G. Zakrzewski, G. A. Voth, 
 P. Salvador, J. J. Dannenberg, S. Dapprich, A. D. Daniels, 
 O. Farkas, J. B. Foresman, J. V. Ortiz, J. Cioslowski, 
 and D. J. Fox, Gaussian, Inc., Wallingford CT, 2013.
 
 ******************************************
 Gaussian 09:  ES64L-G09RevD.01 24-Apr-2013
                15-Dec-2015 
 ******************************************
 ------------------------------------------------------------
 #P AM1(Input,print) CIS(Singlets,NStates=15) pop(full) force
 ------------------------------------------------------------
 1/10=7,30=1,38=1/1,3;
 2/12=2,17=6,18=5,40=1/2;
 3/5=2,16=1,25=1,41=700000,71=1,135=100,136=1/1,2,8,3;
 4/35=1/1;
 5/5=2,35=1,38=5/2;
 8/6=1,10=1,108=15/1;
 9/15=2,41=15,42=1,48=1,49=10/14;
 10/5=4/2;
 6/7=3,18=1/1;
 7/12=6,13=5,29=1/1,2,3,16;
 1/10=7,30=1/3;
 99//99;
 Leave Link    1 at Tue Dec 15 16:23:07 2015, MaxMem=           0 cpu:         0.0
 (Enter /home/Applications/g09/g09/l101.exe)
 -----------------
 AM1-Reparam Input
 -----------------
 Symbolic Z-matrix:
 Charge =  0 Multiplicity = 1
 6                     0.92573  -0.74458   0.03902 
 6                    -0.38036  -1.1145    0.03167 
 8                    -1.17076  -0.01374   0.00789 
 6                    -0.30153   1.09185   0.0267 
 6                     0.9591    0.70893  -0.00943 
 1                     1.84197   1.39787  -0.04031 
 1                    -0.85559   2.04177  -0.00316 
 1                    -0.85438  -2.08337  -0.04464 
 1                     1.76133  -1.33423  -0.02368 
 
 NAtoms=      9 NQM=        9 NQMF=       0 NMMI=      0 NMMIF=      0
                NMic=       0 NMicF=      0.
                    Isotopes and Nuclear Properties:
 (Nuclear quadrupole moments (NQMom) in fm**2, nuclear magnetic moments (NMagM)
  in nuclear magnetons)

  Atom         1           2           3           4           5           6           7           8           9
 IAtWgt=          12          12          16          12          12           1           1           1           1
 AtmWgt=  12.0000000  12.0000000  15.9949146  12.0000000  12.0000000   1.0078250   1.0078250   1.0078250   1.0078250
 NucSpn=           0           0           0           0           0           1           1           1           1
 AtZEff=   0.0000000   0.0000000   0.0000000   0.0000000   0.0000000   0.0000000   0.0000000   0.0000000   0.0000000
 NQMom=    0.0000000   0.0000000   0.0000000   0.0000000   0.0000000   0.0000000   0.0000000   0.0000000   0.0000000
 NMagM=    0.0000000   0.0000000   0.0000000   0.0000000   0.0000000   2.7928460   2.7928460   2.7928460   2.7928460
 AtZNuc=   6.0000000   6.0000000   8.0000000   6.0000000   6.0000000   1.0000000   1.0000000   1.0000000   1.0000000
 Leave Link  101 at Tue Dec 15 16:23:07 2015, MaxMem=    33554432 cpu:         0.0
 (Enter /home/Applications/g09/g09/l103.exe)

 GradGradGradGradGradGradGradGradGradGradGradGradGradGradGradGradGradGrad
 Berny optimization.
 Initialization pass.
 Trust Radius=3.00D-01 FncErr=1.00D-07 GrdErr=1.00D-07
 Number of steps in this run=      2 maximum allowed number of steps=      2.
 GradGradGradGradGradGradGradGradGradGradGradGradGradGradGradGradGradGrad

 Leave Link  103 at Tue Dec 15 16:23:07 2015, MaxMem=    33554432 cpu:         0.0
 (Enter /home/Applications/g09/g09/l202.exe)
                          Input orientation:                          
 ---------------------------------------------------------------------
 Center     Atomic      Atomic             Coordinates (Angstroms)
 Number     Number       Type             X           Y           Z
 ---------------------------------------------------------------------
      1          6           0        0.925731   -0.744579    0.039015
      2          6           0       -0.380357   -1.114501    0.031671
      3          8           0       -1.170762   -0.013737    0.007892
      4          6           0       -0.301526    1.091852    0.026696
      5          6           0        0.959101    0.708926   -0.009426
      6          1           0        1.841970    1.397872   -0.040313
      7          1           0       -0.855593    2.041767   -0.003163
      8          1           0       -0.854377   -2.083368   -0.044637
      9          1           0        1.761327   -1.334228   -0.023680
 ---------------------------------------------------------------------
                    Distance matrix (angstroms):
                    1          2          3          4          5
     1  C    0.000000
     2  C    1.357484   0.000000
     3  O    2.220446   1.355355   0.000000
     4  C    2.208798   2.207766   1.406503   0.000000
     5  C    1.454695   2.262901   2.249191   1.317998   0.000000
     6  H    2.331498   3.354987   3.327389   2.166267   1.120294
     7  H    3.307358   3.192035   2.079555   1.100100   2.251581
     8  H    2.228932   1.081305   2.094333   3.223780   3.329692
     9  H    1.024616   2.153637   3.215873   3.184928   2.195051
                    6          7          8          9
     6  H    0.000000
     7  H    2.773595   0.000000
     8  H    4.403333   4.125344   0.000000
     9  H    2.733341   4.271538   2.720948   0.000000
 Stoichiometry    C4H4O
 Framework group  C1[X(C4H4O)]
 Deg. of freedom    21
 Full point group                 C1      NOp   1
 Largest Abelian subgroup         C1      NOp   1
 Largest concise Abelian subgroup C1      NOp   1
                         Standard orientation:                         
 ---------------------------------------------------------------------
 Center     Atomic      Atomic             Coordinates (Angstroms)
 Number     Number       Type             X           Y           Z
 ---------------------------------------------------------------------
      1          6           0       -0.376584    1.124644   -0.024671
      2          6           0       -1.163767    0.018786   -0.011134
      3          8           0       -0.392425   -1.095488    0.009137
      4          6           0        0.940801   -0.648277   -0.018496
      5          6           0        1.003911    0.667765    0.015701
      6          1           0        1.949612    1.267863    0.039996
      7          1           0        1.649509   -1.489261    0.007927
      8          1           0       -2.235078   -0.102056    0.071992
      9          1           0       -0.650812    2.109852    0.038586
 ---------------------------------------------------------------------
 Rotational constants (GHZ):      9.6026267      9.0800344      4.6691501
 Leave Link  202 at Tue Dec 15 16:23:07 2015, MaxMem=    33554432 cpu:         0.0
 (Enter /home/Applications/g09/g09/l301.exe)

 Semi-emprical parameters in input format:
 Method=8 CoreType=1 PeptideFC=0.0114510000 RIJScale=0.5291770000
 ****
 H       
 PQN=1 NValence=1 F0ss=0.4721550000 ZetaOverlap=1.1880780000 U=-0.4188110000
 Beta=-0.2268830000 CoreKO=1.0589200000 KON=0,0,0,1.0589200000 KON=1,0,1,1.0589200000
 KON=0,1,1,1.0589200000 KON=2,1,1,1.0589200000 EISol=-0.4188110042 EHeat=0.0830298228
 Alpha=1.5252600000
 GCore=0.0085280000,1.4001430000,2.2676710000
 GCore=0.0003530000,1.4001430000,3.4015070000
 GCore=-0.0012730000,0.5600570000,3.9684250000
 ****
 C       
 PQN=2,2 NValence=4 F0ss=0.4494440000 F0sp=0.4215150000 F0pp=0.3768030000 F2pp=0.1898720000
 G1sp=0.2679030000
 ZetaOverlap=1.8086650000,1.6851160000
 U=-1.9120180000,-1.4557970000
 Beta=-0.5775440000,-0.2836780000 DDN=0,1,0.8236740000 DDN=1,1,0.7268010000
 CoreKO=1.1124280000 KON=0,0,0,1.1124280000 KON=1,0,1,0.8219700000 KON=0,1,1,1.1124280000
 KON=2,1,1,0.7783930000 EISol=-4.4398989268 EHeat=0.2723305520 Alpha=1.4014060000
 DipHyp=1.6472532266
 GCore=0.0007890000,1.4001430000,3.0235620000
 GCore=0.0031890000,1.4001430000,3.4959930000
 GCore=-0.0013930000,1.4001430000,3.8739390000
 GCore=-0.0000880000,1.4001430000,5.0077740000
 ****
 O       
 PQN=2,2 NValence=6 F0ss=0.5666750000 F0sp=0.5321300000 F0pp=0.4958710000 F2pp=0.2358080000
 G1sp=0.4343770000
 ZetaOverlap=3.1080320000,2.5240390000
 U=-3.5951870000,-2.8760900000
 Beta=-1.0757550000,-1.0757550000 DDN=0,1,0.4988900000 DDN=1,1,0.4852320000
 CoreKO=0.8822960000 KON=0,0,0,0.8822960000 KON=1,0,1,0.5019540000 KON=0,1,1,0.8822960000
 KON=2,1,1,0.5515580000 EISol=-11.6164441184 EHeat=0.0949133088 Alpha=2.3576810000
 DipHyp=0.9977225968
 GCore=0.0195120000,1.4001430000,1.6023330000
 GCore=0.0056550000,1.9602000000,2.7307880000
 ****
 
 Standard basis: VSTO-6G (5D, 7F)
 Ernie: Thresh=  0.10000D-02 Tol=  0.10000D-05 Strict=F.
  NNHCO=     0 NNPyr=     0 NCTC=     0               EPep=         0.000000000
    EC=        68.599878175  ECS=         1.815207076   EG=         0.345891047
   EHC=         0.000000000  EAt=       -31.051283842  AtH=         1.516354808
 EPDDG=         0.000000000  ECC=        70.760976298 EAtT=        32.567638650
 There are    24 symmetry adapted cartesian basis functions of A   symmetry.
 There are    24 symmetry adapted basis functions of A   symmetry.
    24 basis functions,   144 primitive gaussians,    24 cartesian basis functions
    13 alpha electrons       13 beta electrons
       nuclear repulsion energy       103.3286149487 Hartrees.
 IExCor=    0 DFT=F Ex=HF Corr=None ExCW=0 ScaHFX=  1.000000
 ScaDFX=  1.000000  1.000000  1.000000  1.000000 ScalE2=  1.000000  1.000000
 IRadAn=      0 IRanWt=     -1 IRanGd=            0 ICorTp=0 IEmpDi=  4
 Integral buffers will be    131072 words long.
 Regular integral format.
 Two-electron integral symmetry is turned off.
 Leave Link  301 at Tue Dec 15 16:23:07 2015, MaxMem=    33554432 cpu:         0.0
 (Enter /home/Applications/g09/g09/l302.exe)
 Do NDO integrals.
 NPDir=0 NMtPBC=     1 NCelOv=     1 NCel=       1 NClECP=     1 NCelD=      1
         NCelK=      1 NCelE2=     1 NClLst=     1 CellRange=     0.0.
 One-electron integrals computed using PRISM.
 NBasis=    24 RedAO= F EigKep=  0.00D+00  NBF=    24
 NBsUse=    24 1.00D-04 EigRej=  0.00D+00 NBFU=    24
 Leave Link  302 at Tue Dec 15 16:23:07 2015, MaxMem=    33554432 cpu:         0.0
 (Enter /home/Applications/g09/g09/l308.exe)
 Leave Link  308 at Tue Dec 15 16:23:07 2015, MaxMem=    33554432 cpu:         0.0
 (Enter /home/Applications/g09/g09/l303.exe)
 DipDrv:  MaxL=1.
 Leave Link  303 at Tue Dec 15 16:23:07 2015, MaxMem=    33554432 cpu:         0.0
 (Enter /home/Applications/g09/g09/l401.exe)
 Simple Huckel Guess.
 JPrj=0 DoOrth=F DoCkMO=F.
 Leave Link  401 at Tue Dec 15 16:23:07 2015, MaxMem=    33554432 cpu:         0.0
 (Enter /home/Applications/g09/g09/l502.exe)
 Closed shell SCF:
 Using DIIS extrapolation, IDIIS=  1040.
 Overlap will be assumed to be unity.
 Two-electron integral symmetry not used.
 Keep J ints in memory in canonical form, NReq=888082.
 IVT=       79475 IEndB=       79475 NGot=    33554432 MDV=    33473473
 LenX=    33473473 LenY=    33472456
 Requested convergence on RMS density matrix=1.00D-08 within 128 cycles.
 Requested convergence on MAX density matrix=1.00D-06.
 Requested convergence on             energy=1.00D-06.
 No special actions if energy rises.
 FoFCou: FMM=F IPFlag=           0 FMFlag=           0 FMFlg1=           0
         NFxFlg=           0 DoJE=F BraDBF=F KetDBF=F FulRan=T
         wScrn=  0.000000 ICntrl=     600 IOpCl=  2 I1Cent=           0 NGrid=           0
         NMat0=    1 NMatS0=     54 NMatT0=    0 NMatD0=    1 NMtDS0=    0 NMtDT0=    0
 Symmetry not used in FoFCou.

 Cycle   1  Pass 1  IDiag  1:
 E= 0.332189507532149    
 DIIS: error= 6.40D-02 at cycle   1 NSaved=   1.
 NSaved= 1 IEnMin= 1 EnMin= 0.332189507532149     IErMin= 1 ErrMin= 6.40D-02
 ErrMax= 6.40D-02  0.00D+00 EMaxC= 1.00D-01 BMatC= 1.11D-01 BMatP= 1.11D-01
 IDIUse=3 WtCom= 3.60D-01 WtEn= 6.40D-01
 Coeff-Com:  0.100D+01
 Coeff-En:   0.100D+01
 Coeff:      0.100D+01
 GapD=    2.000 DampG=2.000 DampE=0.500 DampFc=1.0000 IDamp=-1.
 RMSDP=1.96D-02 MaxDP=1.62D-01              OVMax= 0.00D+00

 Cycle   2  Pass 1  IDiag  1:
 E= 0.509181984672864E-01 Delta-E=       -0.281271309065 Rises=F Damp=F
 DIIS: error= 1.98D-02 at cycle   2 NSaved=   2.
 NSaved= 2 IEnMin= 2 EnMin= 0.509181984672864E-01 IErMin= 2 ErrMin= 1.98D-02
 ErrMax= 1.98D-02  0.00D+00 EMaxC= 1.00D-01 BMatC= 9.63D-03 BMatP= 1.11D-01
 IDIUse=3 WtCom= 8.02D-01 WtEn= 1.98D-01
 Coeff-Com: -0.360D+00 0.136D+01
 Coeff-En:   0.000D+00 0.100D+01
 Coeff:     -0.289D+00 0.129D+01
 RMSDP=8.26D-03 MaxDP=7.35D-02 DE=-2.81D-01 OVMax= 0.00D+00

 Cycle   3  Pass 1  IDiag  3:
 E= 0.200542175568046E-01 Delta-E=       -0.030863980910 Rises=F Damp=F
 DIIS: error= 4.06D-03 at cycle   3 NSaved=   3.
 NSaved= 3 IEnMin= 3 EnMin= 0.200542175568046E-01 IErMin= 3 ErrMin= 4.06D-03
 ErrMax= 4.06D-03  0.00D+00 EMaxC= 1.00D-01 BMatC= 3.72D-04 BMatP= 9.63D-03
 IDIUse=3 WtCom= 9.59D-01 WtEn= 4.06D-02
 Coeff-Com:  0.140D+00-0.616D+00 0.148D+01
 Coeff-En:   0.000D+00 0.000D+00 0.100D+01
 Coeff:      0.134D+00-0.591D+00 0.146D+01
 Gap=     0.382 Goal=   None    Shift=    0.000
 RMSDP=2.55D-03 MaxDP=2.81D-02 DE=-3.09D-02 OVMax= 3.18D-02

 Cycle   4  Pass 1  IDiag  3:
 E= 0.180147982777328E-01 Delta-E=       -0.002039419279 Rises=F Damp=F
 DIIS: error= 1.15D-03 at cycle   4 NSaved=   4.
 NSaved= 4 IEnMin= 4 EnMin= 0.180147982777328E-01 IErMin= 4 ErrMin= 1.15D-03
 ErrMax= 1.15D-03  0.00D+00 EMaxC= 1.00D-01 BMatC= 2.71D-05 BMatP= 3.72D-04
 IDIUse=3 WtCom= 9.89D-01 WtEn= 1.15D-02
 Coeff-Com:  0.164D-01-0.591D-01-0.170D+00 0.121D+01
 Coeff-En:   0.000D+00 0.000D+00 0.000D+00 0.100D+01
 Coeff:      0.162D-01-0.584D-01-0.168D+00 0.121D+01
 Gap=     0.383 Goal=   None    Shift=    0.000
 RMSDP=8.04D-04 MaxDP=9.44D-03 DE=-2.04D-03 OVMax= 9.67D-03

 Cycle   5  Pass 1  IDiag  3:
 E= 0.178491307341062E-01 Delta-E=       -0.000165667544 Rises=F Damp=F
 DIIS: error= 1.97D-04 at cycle   5 NSaved=   5.
 NSaved= 5 IEnMin= 5 EnMin= 0.178491307341062E-01 IErMin= 5 ErrMin= 1.97D-04
 ErrMax= 1.97D-04  0.00D+00 EMaxC= 1.00D-01 BMatC= 1.79D-06 BMatP= 2.71D-05
 IDIUse=3 WtCom= 9.98D-01 WtEn= 1.97D-03
 Coeff-Com: -0.817D-02 0.336D-01 0.162D-01-0.479D+00 0.144D+01
 Coeff-En:   0.000D+00 0.000D+00 0.000D+00 0.000D+00 0.100D+01
 Coeff:     -0.815D-02 0.336D-01 0.161D-01-0.478D+00 0.144D+01
 Gap=     0.383 Goal=   None    Shift=    0.000
 RMSDP=2.44D-04 MaxDP=1.83D-03 DE=-1.66D-04 OVMax= 2.61D-03

 Cycle   6  Pass 1  IDiag  3:
 E= 0.178358946764945E-01 Delta-E=       -0.000013236058 Rises=F Damp=F
 DIIS: error= 9.27D-05 at cycle   6 NSaved=   6.
 NSaved= 6 IEnMin= 6 EnMin= 0.178358946764945E-01 IErMin= 6 ErrMin= 9.27D-05
 ErrMax= 9.27D-05  0.00D+00 EMaxC= 1.00D-01 BMatC= 1.69D-07 BMatP= 1.79D-06
 IDIUse=1 WtCom= 1.00D+00 WtEn= 0.00D+00
 Coeff-Com:  0.295D-02-0.120D-01 0.670D-02 0.130D+00-0.646D+00 0.152D+01
 Coeff:      0.295D-02-0.120D-01 0.670D-02 0.130D+00-0.646D+00 0.152D+01
 Gap=     0.383 Goal=   None    Shift=    0.000
 RMSDP=9.01D-05 MaxDP=7.66D-04 DE=-1.32D-05 OVMax= 1.15D-03

 Cycle   7  Pass 1  IDiag  3:
 E= 0.178343804525696E-01 Delta-E=       -0.000001514224 Rises=F Damp=F
 DIIS: error= 3.33D-05 at cycle   7 NSaved=   7.
 NSaved= 7 IEnMin= 7 EnMin= 0.178343804525696E-01 IErMin= 7 ErrMin= 3.33D-05
 ErrMax= 3.33D-05  0.00D+00 EMaxC= 1.00D-01 BMatC= 1.49D-08 BMatP= 1.69D-07
 IDIUse=1 WtCom= 1.00D+00 WtEn= 0.00D+00
 Coeff-Com: -0.506D-03 0.156D-02-0.385D-05-0.316D-01 0.182D+00-0.694D+00
 Coeff-Com:  0.154D+01
 Coeff:     -0.506D-03 0.156D-02-0.385D-05-0.316D-01 0.182D+00-0.694D+00
 Coeff:      0.154D+01
 Gap=     0.383 Goal=   None    Shift=    0.000
 RMSDP=3.14D-05 MaxDP=2.99D-04 DE=-1.51D-06 OVMax= 3.67D-04

 Cycle   8  Pass 1  IDiag  3:
 E= 0.178342392829620E-01 Delta-E=       -0.000000141170 Rises=F Damp=F
 DIIS: error= 6.57D-06 at cycle   8 NSaved=   8.
 NSaved= 8 IEnMin= 8 EnMin= 0.178342392829620E-01 IErMin= 8 ErrMin= 6.57D-06
 ErrMax= 6.57D-06  0.00D+00 EMaxC= 1.00D-01 BMatC= 6.29D-10 BMatP= 1.49D-08
 IDIUse=1 WtCom= 1.00D+00 WtEn= 0.00D+00
 Coeff-Com:  0.506D-04 0.783D-04-0.104D-02 0.101D-01-0.538D-01 0.237D+00
 Coeff-Com: -0.695D+00 0.150D+01
 Coeff:      0.506D-04 0.783D-04-0.104D-02 0.101D-01-0.538D-01 0.237D+00
 Coeff:     -0.695D+00 0.150D+01
 Gap=     0.383 Goal=   None    Shift=    0.000
 RMSDP=6.03D-06 MaxDP=5.86D-05 DE=-1.41D-07 OVMax= 6.96D-05

 Cycle   9  Pass 1  IDiag  3:
 E= 0.178342340525290E-01 Delta-E=       -0.000000005230 Rises=F Damp=F
 DIIS: error= 9.11D-07 at cycle   9 NSaved=   9.
 NSaved= 9 IEnMin= 9 EnMin= 0.178342340525290E-01 IErMin= 9 ErrMin= 9.11D-07
 ErrMax= 9.11D-07  0.00D+00 EMaxC= 1.00D-01 BMatC= 2.32D-11 BMatP= 6.29D-10
 IDIUse=1 WtCom= 1.00D+00 WtEn= 0.00D+00
 Coeff-Com:  0.261D-04-0.219D-03 0.505D-03-0.217D-02 0.125D-01-0.693D-01
 Coeff-Com:  0.235D+00-0.642D+00 0.147D+01
 Coeff:      0.261D-04-0.219D-03 0.505D-03-0.217D-02 0.125D-01-0.693D-01
 Coeff:      0.235D+00-0.642D+00 0.147D+01
 Gap=     0.383 Goal=   None    Shift=    0.000
 RMSDP=9.01D-07 MaxDP=7.44D-06 DE=-5.23D-09 OVMax= 1.09D-05

 Cycle  10  Pass 1  IDiag  3:
 E= 0.178342339056030E-01 Delta-E=       -0.000000000147 Rises=F Damp=F
 DIIS: error= 1.35D-07 at cycle  10 NSaved=  10.
 NSaved=10 IEnMin=10 EnMin= 0.178342339056030E-01 IErMin=10 ErrMin= 1.35D-07
 ErrMax= 1.35D-07  0.00D+00 EMaxC= 1.00D-01 BMatC= 8.44D-13 BMatP= 2.32D-11
 IDIUse=1 WtCom= 1.00D+00 WtEn= 0.00D+00
 Coeff-Com: -0.117D-04 0.877D-04-0.195D-03 0.723D-03-0.388D-02 0.221D-01
 Coeff-Com: -0.768D-01 0.218D+00-0.610D+00 0.145D+01
 Coeff:     -0.117D-04 0.877D-04-0.195D-03 0.723D-03-0.388D-02 0.221D-01
 Coeff:     -0.768D-01 0.218D+00-0.610D+00 0.145D+01
 Gap=     0.383 Goal=   None    Shift=    0.000
 RMSDP=1.50D-07 MaxDP=1.11D-06 DE=-1.47D-10 OVMax= 1.25D-06

 Cycle  11  Pass 1  IDiag  3:
 E= 0.178342339008850E-01 Delta-E=       -0.000000000005 Rises=F Damp=F
 DIIS: error= 2.74D-08 at cycle  11 NSaved=  11.
 NSaved=11 IEnMin=11 EnMin= 0.178342339008850E-01 IErMin=11 ErrMin= 2.74D-08
 ErrMax= 2.74D-08  0.00D+00 EMaxC= 1.00D-01 BMatC= 3.39D-14 BMatP= 8.44D-13
 IDIUse=1 WtCom= 1.00D+00 WtEn= 0.00D+00
 Coeff-Com:  0.355D-05-0.285D-04 0.649D-04-0.260D-03 0.135D-02-0.760D-02
 Coeff-Com:  0.261D-01-0.734D-01 0.211D+00-0.605D+00 0.145D+01
 Coeff:      0.355D-05-0.285D-04 0.649D-04-0.260D-03 0.135D-02-0.760D-02
 Coeff:      0.261D-01-0.734D-01 0.211D+00-0.605D+00 0.145D+01
 Gap=     0.383 Goal=   None    Shift=    0.000
 RMSDP=3.11D-08 MaxDP=2.58D-07 DE=-4.72D-12 OVMax= 2.35D-07

 Cycle  12  Pass 1  IDiag  3:
 E= 0.178342339004871E-01 Delta-E=        0.000000000000 Rises=F Damp=F
 DIIS: error= 6.80D-09 at cycle  12 NSaved=  12.
 NSaved=12 IEnMin=12 EnMin= 0.178342339004871E-01 IErMin=12 ErrMin= 6.80D-09
 ErrMax= 6.80D-09  0.00D+00 EMaxC= 1.00D-01 BMatC= 2.13D-15 BMatP= 3.39D-14
 IDIUse=1 WtCom= 1.00D+00 WtEn= 0.00D+00
 Coeff-Com: -0.807D-06 0.685D-05-0.153D-04 0.644D-04-0.324D-03 0.185D-02
 Coeff-Com: -0.630D-02 0.175D-01-0.510D-01 0.161D+00-0.568D+00 0.145D+01
 Coeff:     -0.807D-06 0.685D-05-0.153D-04 0.644D-04-0.324D-03 0.185D-02
 Coeff:     -0.630D-02 0.175D-01-0.510D-01 0.161D+00-0.568D+00 0.145D+01
 Gap=     0.383 Goal=   None    Shift=    0.000
 RMSDP=8.80D-09 MaxDP=6.26D-08 DE=-3.98D-13 OVMax= 7.05D-08

 Cycle  13  Pass 2  IDiag  1:
 SCF Done:  E(RAM1) =  0.178342339005E-01 A.U. after   13 cycles
            NFock= 12  Conv=0.88D-08     -V/T= 1.0011
 KE=-1.653337327376D+01 PE=-1.708530149496D+02 EE= 8.407560750862D+01
 Leave Link  502 at Tue Dec 15 16:23:07 2015, MaxMem=    33554432 cpu:         0.0
 (Enter /home/Applications/g09/g09/l801.exe)
 Range of M.O.s used for correlation:     1    24
 NBasis=    24 NAE=    13 NBE=    13 NFC=     0 NFV=     0
 NROrb=     24 NOA=    13 NOB=    13 NVA=    11 NVB=    11
 Leave Link  801 at Tue Dec 15 16:23:07 2015, MaxMem=    33554432 cpu:         0.0
 (Enter /home/Applications/g09/g09/l914.exe)
 RHF ground state
 MDV=    33554432 DFT=F DoStab=F Mixed=F DoRPA=F DoScal=F NonHer=F
 Making orbital integer symmetry assigments:
 Orbital symmetries:
       Occupied  (A) (A) (A) (A) (A) (A) (A) (A) (A) (A) (A) (A)
                 (A)
       Virtual   (A) (A) (A) (A) (A) (A) (A) (A) (A) (A) (A)
    60 initial guesses have been made.
 Convergence on wavefunction:    0.000001000000000
 Davidson Disk Diagonalization:  ConvIn= 1.00D-06 SkipCon=T Conv= 1.00D-06.
 Max sub-space:   240 roots to seek:    60 dimension of matrix:          286
 Iteration     1 Dimension    60 NMult     0 NNew     60
 CISAX will form    60 AO SS matrices at one time.
 NMat=    60 NSing=    60 JSym2X= 0.
 FoFJK:  IHMeth= 8 ICntrl=       0 DoSepK=F KAlg= 0 I1Cent=   0 FoldK=F
 IRaf=         1 NMat= 120 IRICut=       1 DoRegI=T DoRafI=F ISym2E= 0.
 FoFCou: FMM=F IPFlag=           0 FMFlag=      100000 FMFlg1=           0
         NFxFlg=           0 DoJE=F BraDBF=F KetDBF=F FulRan=T
         wScrn=  0.000000 ICntrl=       0 IOpCl=  0 I1Cent=           0 NGrid=           0
         NMat0=  120 NMatS0=     60 NMatT0=    0 NMatD0=  120 NMtDS0=    0 NMtDT0=    0
 Symmetry not used in FoFCou.
 New state      2 was old state      4
 New state      3 was old state      2
 New state      4 was old state      7
 New state      5 was old state      8
 New state      6 was old state      3
 New state      7 was old state      6
 New state      8 was old state      9
 New state      9 was old state      5
 New state     10 was old state     12
 New state     11 was old state     13
 New state     12 was old state     19
 New state     13 was old state     11
 New state     14 was old state     26
 New state     15 was old state     17
 Excitation Energies [eV] at current iteration:
 Root      1 :     4.634664322824479
 Root      2 :     5.176517460124443
 Root      3 :     5.212959333674095
 Root      4 :     5.990060966329723
 Root      5 :     6.084579694745029
 Root      6 :     6.418529633804745
 Root      7 :     6.455460874919284
 Root      8 :     6.483857053220830
 Root      9 :     6.531357689133782
 Root     10 :     7.134462971319737
 Root     11 :     7.262478944869456
 Root     12 :     7.558134604164498
 Root     13 :     7.576970197460835
 Root     14 :     7.714169453311125
 Root     15 :     7.733641995362696
 Root     16 :     7.747912328451507
 Root     17 :     7.933770994409157
 Root     18 :     8.073941600678371
 Root     19 :     8.344416224767857
 Root     20 :     8.441189058860893
 Root     21 :     8.825062187533591
 Root     22 :     8.897641989022445
 Root     23 :     8.931405118750186
 Root     24 :     9.210488428384123
 Root     25 :     9.398880216412852
 Root     26 :     9.501108561551625
 Root     27 :     9.575089593802497
 Root     28 :     9.579639763266590
 Root     29 :     9.774464297240623
 Root     30 :     9.840982114662735
 Root     31 :     9.876346317032722
 Root     32 :     9.957269692294339
 Root     33 :    10.167423882117020
 Root     34 :    10.250761779649120
 Root     35 :    10.277941198864640
 Root     36 :    10.449321846933400
 Root     37 :    10.595520483131150
 Root     38 :    10.673608030350640
 Root     39 :    10.854170043077460
 Root     40 :    10.898764956048060
 Root     41 :    11.100302755244160
 Root     42 :    11.125282201953170
 Root     43 :    11.234164141238010
 Root     44 :    11.373104657499070
 Root     45 :    11.478329174084710
 Root     46 :    11.597783257910530
 Root     47 :    11.685613010724550
 Root     48 :    11.734105728045150
 Root     49 :    11.871866360811200
 Root     50 :    12.045020080709210
 Root     51 :    12.394182790167410
 Root     52 :    12.469175851905510
 Root     53 :    12.638588083547060
 Root     54 :    12.992051556353430
 Root     55 :    13.024623929291730
 Root     56 :    13.144501464396380
 Root     57 :    13.312432818630400
 Root     58 :    13.377556480737290
 Root     59 :    13.634667164681210
 Root     60 :    13.729917794317590
 Iteration     2 Dimension   120 NMult    60 NNew     60
 CISAX will form    60 AO SS matrices at one time.
 NMat=    60 NSing=    60 JSym2X= 0.
 Root      1 not converged, maximum delta is    0.043404811911831
 Root      2 not converged, maximum delta is    0.033609302897733
 Root      3 not converged, maximum delta is    0.017708667178136
 Root      4 not converged, maximum delta is    0.047208485601736
 Root      5 not converged, maximum delta is    0.046871449854070
 Root      6 not converged, maximum delta is    0.150373923785207
 New state      7 was old state      8
 Root      7 not converged, maximum delta is    0.286387144176540
 New state      8 was old state      7
 Root      8 not converged, maximum delta is    0.247710373501324
 Root      9 not converged, maximum delta is    0.087661451869183
 Root     10 not converged, maximum delta is    0.070575410671973
 Root     11 not converged, maximum delta is    0.045682247206337
 Root     12 not converged, maximum delta is    0.065028157523643
 Root     13 not converged, maximum delta is    0.113278858547586
 New state     14 was old state     16
 Root     14 not converged, maximum delta is    0.253731308613033
 Root     15 not converged, maximum delta is    0.236864836317080
 Excitation Energies [eV] at current iteration:
 Root      1 :     4.549894842005307   Change is   -0.084769480819172
 Root      2 :     5.141479153832296   Change is   -0.035038306292148
 Root      3 :     5.196127595138481   Change is   -0.016831738535614
 Root      4 :     5.908214209936328   Change is   -0.081846756393395
 Root      5 :     5.962906877681569   Change is   -0.121672817063460
 Root      6 :     6.280844775221589   Change is   -0.137684858583156
 Root      7 :     6.334979500628754   Change is   -0.148877552592076
 Root      8 :     6.409471359299831   Change is   -0.045989515619453
 Root      9 :     6.465957696421560   Change is   -0.065399992712222
 Root     10 :     7.008555506316174   Change is   -0.125907465003562
 Root     11 :     7.208504168052798   Change is   -0.053974776816658
 Root     12 :     7.462891091322032   Change is   -0.095243512842466
 Root     13 :     7.486863817715702   Change is   -0.090106379745132
 Root     14 :     7.587480828564117   Change is   -0.160431499887390
 Root     15 :     7.646695552076870   Change is   -0.086946443285826
 Root     16 :     7.650150361922393   Change is   -0.064019091388731
 Root     17 :     7.840383751292873   Change is   -0.093387243116284
 Root     18 :     7.965279622932508   Change is   -0.108661977745863
 Root     19 :     8.139487565665334   Change is   -0.204928659102522
 Root     20 :     8.306920645595417   Change is   -0.134268413265476
 Root     21 :     8.523812422960782   Change is   -0.301249764572809
 Root     22 :     8.865534245203939   Change is   -0.032107743818505
 Root     23 :     8.893808519365244   Change is   -0.037596599384943
 Root     24 :     9.045606276478010   Change is   -0.164882151906115
 Root     25 :     9.066472714683510   Change is   -0.434635846868115
 Root     26 :     9.225373381401225   Change is   -0.349716212401272
 Root     27 :     9.368791990190976   Change is   -0.030088226221876
 Root     28 :     9.410775132049881   Change is   -0.465571184982840
 Root     29 :     9.434495297363403   Change is   -0.145144465903186
 Root     30 :     9.529072446226946   Change is   -0.721689333422177
 Root     31 :     9.543495031575253   Change is   -0.230969265665371
 Root     32 :     9.729274476736533   Change is   -0.111707637926200
 Root     33 :     9.790607979466200   Change is   -0.166661712828138
 Root     34 :     9.797998350044782   Change is   -0.369425532072242
 Root     35 :     9.898763989738939   Change is   -0.550557857194465
 Root     36 :    10.178486963688600   Change is   -0.675683079388860
 Root     37 :    10.181902095858230   Change is   -0.096039103006408
 Root     38 :    10.210858538407850   Change is   -0.384661944723296
 Root     39 :    10.332267237847410   Change is   -0.341340792503232
 Root     40 :    10.545359718572900   Change is   -0.827744938926170
 Root     41 :    10.689746583054140   Change is   -0.544417558183867
 Root     42 :    10.746677169659490   Change is   -0.353625585584674
 Root     43 :    10.841894659325670   Change is   -0.056870296722383
 Root     44 :    10.859939877055030   Change is   -0.265342324898138
 Root     45 :    10.896497844628320   Change is   -0.701285413282209
 Root     46 :    11.268776885008370   Change is   -0.209552289076341
 Root     47 :    11.314518762646240   Change is   -0.419586965398918
 Root     48 :    11.511263961217320   Change is   -0.174349049507232
 Root     49 :    11.553456820163210   Change is   -0.318409540647996
 Root     50 :    11.773710483273870   Change is   -0.271309597435347
 Root     51 :    11.912674074485530   Change is   -0.481508715681873
 Root     52 :    12.083429559153970   Change is   -0.555158524393085
 Root     53 :    12.213732774985030   Change is   -0.255443076920477
 Root     54 :    12.439160378205440   Change is   -0.552891178147991
 Root     55 :    12.646624083801240
 Root     56 :    12.836663682086260   Change is   -0.307837782310119
 Root     57 :    12.944149856682160   Change is   -0.433406624055129
 Root     58 :    12.978429942509570   Change is   -0.046193986782164
 Root     59 :    13.154472197119670   Change is   -0.157960621510732
 Root     60 :    13.207209529959720   Change is   -0.522708264357864
 Iteration     3 Dimension   135 NMult   120 NNew     15
 CISAX will form    15 AO SS matrices at one time.
 NMat=    15 NSing=    15 JSym2X= 0.
 Root      1 not converged, maximum delta is    0.001282517794072
 Root      2 not converged, maximum delta is    0.000201333767290
 Root      3 not converged, maximum delta is    0.000229323872994
 Root      4 not converged, maximum delta is    0.000256447074825
 Root      5 not converged, maximum delta is    0.000235127213775
 Root      6 not converged, maximum delta is    0.001797878012087
 Root      7 not converged, maximum delta is    0.000196796215594
 Root      8 not converged, maximum delta is    0.002361560897676
 Root      9 not converged, maximum delta is    0.002925382987672
 Root     10 not converged, maximum delta is    0.000247680684876
 Root     11 not converged, maximum delta is    0.000365366641332
 Root     12 not converged, maximum delta is    0.000236244687035
 Root     13 not converged, maximum delta is    0.000611253856405
 Root     14 not converged, maximum delta is    0.000404551124622
 Root     15 not converged, maximum delta is    0.000657885505959
 Excitation Energies [eV] at current iteration:
 Root      1 :     4.549544130625778   Change is   -0.000350711379529
 Root      2 :     5.141470811200458   Change is   -0.000008342631838
 Root      3 :     5.196112133092175   Change is   -0.000015462046306
 Root      4 :     5.908196377522020   Change is   -0.000017832414308
 Root      5 :     5.962896583241694   Change is   -0.000010294439876
 Root      6 :     6.280045566132510   Change is   -0.000799209089079
 Root      7 :     6.334968921903191   Change is   -0.000010578725564
 Root      8 :     6.409264796416430   Change is   -0.000206562883400
 Root      9 :     6.465580339544342   Change is   -0.000377356877218
 Root     10 :     7.008541987419755   Change is   -0.000013518896420
 Root     11 :     7.208460441951944   Change is   -0.000043726100854
 Root     12 :     7.462877838948698   Change is   -0.000013252373334
 Root     13 :     7.486772512460976   Change is   -0.000091305254726
 Root     14 :     7.587454281583893   Change is   -0.000026546980224
 Root     15 :     7.646653496627386   Change is   -0.000042055449483
 Iteration     4 Dimension   143 NMult   135 NNew      8
 CISAX will form     8 AO SS matrices at one time.
 NMat=     8 NSing=     8 JSym2X= 0.
 Root      1 not converged, maximum delta is    0.000037175875512
 Root      2 not converged, maximum delta is    0.000004493679971
 Root      3 not converged, maximum delta is    0.000012710063804
 Root      4 not converged, maximum delta is    0.000011275193281
 Root      5 not converged, maximum delta is    0.000009294449530
 Root      6 not converged, maximum delta is    0.000078860802078
 Root      7 not converged, maximum delta is    0.000009468866911
 Root      8 not converged, maximum delta is    0.000068862939924
 Root      9 not converged, maximum delta is    0.000099669313302
 Root     10 not converged, maximum delta is    0.000014347972049
 Root     11 not converged, maximum delta is    0.000018094414871
 Root     12 not converged, maximum delta is    0.000015224187830
 Root     13 not converged, maximum delta is    0.000023231350948
 Root     14 not converged, maximum delta is    0.000017342301867
 Root     15 not converged, maximum delta is    0.000024304475091
 Excitation Energies [eV] at current iteration:
 Root      1 :     4.549543490854980   Change is   -0.000000639770798
 Root      2 :     5.141470805773322   Change is   -0.000000005427136
 Root      3 :     5.196112081529674   Change is   -0.000000051562501
 Root      4 :     5.908196320831922   Change is   -0.000000056690098
 Root      5 :     5.962896547912183   Change is   -0.000000035329510
 Root      6 :     6.280043746881667   Change is   -0.000001819250843
 Root      7 :     6.334968885466779   Change is   -0.000000036436412
 Root      8 :     6.409263223904915   Change is   -0.000001572511515
 Root      9 :     6.465577054214606   Change is   -0.000003285329736
 Root     10 :     7.008541913232692   Change is   -0.000000074187062
 Root     11 :     7.208460363044791   Change is   -0.000000078907153
 Root     12 :     7.462877771716152   Change is   -0.000000067232546
 Root     13 :     7.486772289589174   Change is   -0.000000222871802
 Root     14 :     7.587454173829403   Change is   -0.000000107754491
 Root     15 :     7.646653295900859   Change is   -0.000000200726527
 Convergence achieved on expansion vectors.
 ***********************************************************************
 Excited states from <AA,BB:AA,BB> singles matrix:
 ***********************************************************************
 
 1PDM for each excited state written to RWF  633
 Ground to excited state transition densities written to RWF  633
 Ground to excited state transition electric dipole moments (Au):
       state          X           Y           Z        Dip. S.      Osc.
         1         0.8413     -0.0862     -0.0467      0.7174      0.0800
         2        -0.0526     -0.0376      0.0079      0.0042      0.0005
         3         0.0495      0.1976      0.0120      0.0416      0.0053
         4         0.0187      0.2453      0.1094      0.0725      0.0105
         5        -0.0107      0.0104      0.0048      0.0002      0.0000
         6         0.0583      1.5172     -0.0046      2.3054      0.3547
         7         0.0119      0.0359      0.0547      0.0044      0.0007
         8        -0.4984     -0.1936      0.0505      0.2885      0.0453
         9        -0.7152     -0.2697     -0.0961      0.5934      0.0940
        10         0.0183      0.0645      0.0137      0.0047      0.0008
        11         0.0943      0.1768     -0.0907      0.0484      0.0085
        12         0.0111      0.0151     -0.0813      0.0070      0.0013
        13         0.0297      0.0249      0.0497      0.0040      0.0007
        14         0.0130     -0.0424      0.1024      0.0124      0.0023
        15        -0.0598      0.0332      0.1408      0.0245      0.0046
 Ground to excited state transition velocity dipole moments (Au):
       state          X           Y           Z        Dip. S.      Osc.
         1        -0.0574     -0.0056      0.0150      0.0036      0.0142
         2         0.0052      0.0045      0.0030      0.0001      0.0002
         3         0.0039     -0.0089      0.0013      0.0001      0.0003
         4        -0.0097     -0.0460     -0.0853      0.0095      0.0292
         5        -0.0018     -0.0103      0.0117      0.0002      0.0007
         6        -0.0298     -0.3016      0.0109      0.0920      0.2657
         7        -0.0040     -0.0076      0.0175      0.0004      0.0011
         8         0.0991      0.0415     -0.1329      0.0292      0.0827
         9         0.1360      0.0615      0.1137      0.0352      0.0988
        10        -0.0082     -0.0125      0.0315      0.0012      0.0031
        11        -0.0210     -0.0446      0.0048      0.0025      0.0062
        12        -0.0010     -0.0026     -0.0321      0.0010      0.0025
        13        -0.0047     -0.0024      0.0304      0.0010      0.0023
        14         0.0028      0.0188     -0.0715      0.0055      0.0131
        15         0.0110     -0.0034      0.0317      0.0011      0.0027
 Ground to excited state transition magnetic dipole moments (Au):
       state          X           Y           Z
         1         0.0242     -0.0739      0.7304
         2        -0.1418     -0.5867     -0.0543
         3        -0.0492     -0.1296      0.0348
         4         0.3165      0.0512     -0.0062
         5         0.1457     -0.2218     -0.0209
         6         0.0677     -0.0349     -0.0767
         7         0.1716     -0.0113      0.0157
         8        -0.1787     -0.1246      0.0228
         9         0.0758      0.1280     -0.0121
        10        -0.2307     -0.7129     -0.0316
        11        -1.4125      0.8189      0.0439
        12        -0.8764     -0.4047     -0.0021
        13         0.5753     -0.0154      0.0136
        14        -0.1048      0.4707     -0.0298
        15        -0.2797     -0.2974     -0.1070
 Ground to excited state transition velocity quadrupole moments (Au):
       state          XX          YY          ZZ          XY          XZ          YZ
         1         0.3300     -0.2836     -0.0128      0.3679     -0.0094      0.0012
         2        -0.0646      0.0716     -0.0102     -0.0473     -0.1430      0.0598
         3         0.1238     -0.1768      0.0744      0.0196     -0.0188      0.0119
         4         0.0793     -0.0171     -0.0141     -0.0102      0.0942      0.2134
         5         0.0041     -0.0038     -0.0029      0.0007      0.1173      0.1225
         6         0.4323     -0.2453     -0.0378     -0.1123     -0.0638     -0.0525
         7        -0.0033     -0.0190      0.0190     -0.0141     -0.0834      0.1888
         8         0.1032     -0.1181     -0.0002      0.3166      0.0662      0.0600
         9         0.0978     -0.1637      0.0041      0.3830     -0.0150     -0.0116
        10        -0.0045      0.0203      0.0019     -0.0252      0.2559     -0.1319
        11         0.0724     -0.0400     -0.0070     -0.0127      0.0739      0.0320
        12         0.0030      0.0020     -0.0177     -0.0108     -0.1517      0.1557
        13         0.0051     -0.0211     -0.0175     -0.0002     -0.0298      0.1820
        14        -0.0408      0.0466      0.0038     -0.0071     -0.1512     -0.2496
        15        -0.0639     -0.0043      0.0108     -0.0206     -0.1355     -0.0944
 <0|del|b> * <b|rxdel|0> + <0|del|b> * <b|delr+rdel|0>
 Rotatory Strengths (R) in cgs (10**-40 erg-esu-cm/Gauss)
       state          XX          YY          ZZ    R(velocity)    E-M Angle
         1        35.6729      8.4327     -1.8057     14.1000       76.80
         2        -4.2914     -0.8364     -8.0766     -4.4015      141.02
         3         1.9553     -0.2364      2.0006      1.2398       44.31
         4         5.4937     -8.8892    -12.5235     -5.3063       99.00
         5         5.2499     -1.1968      1.6678      1.9070       64.90
         6       -16.5098     -0.1002     40.1186      7.8362       76.46
         7        -0.7866     -1.4210      1.1954     -0.3374       95.67
         8       -79.5773     40.9307    -39.1652    -25.9373      133.81
         9        75.8249    -53.8446     28.0242     16.6682       53.14
        10        14.1520      3.7852      8.9429      8.9600       68.02
        11       -44.1343     39.0653    -12.6345     -5.9012       94.70
        12         1.3986      0.5331      3.1818      1.7045       86.35
        13         0.4773     -4.0377     -2.2388     -1.9331       97.30
        14        18.1648      0.7942      8.1298      9.0296       72.62
        15        -4.3895     -8.6219     -0.7046     -4.5720      112.53
 1/2[<0|r|b>*<b|rxdel|0> + (<0|rxdel|b>*<b|r|0>)*]
 Rotatory Strengths (R) in cgs (10**-40 erg-esu-cm/Gauss)
       state          XX          YY          ZZ     R(length)
         1       -14.4086     -4.5034     24.1275      1.7385
         2        -5.2789    -15.5897      0.3022     -6.8555
         3         1.7200     18.1096     -0.2958      6.5113
         4        -4.1773     -8.8902      0.4766     -4.1970
         5         1.1019      1.6304      0.0705      0.9343
         6        -2.7904     37.4347     -0.2521     11.4641
         7        -1.4497      0.2873     -0.6058     -0.5894
         8       -63.0044    -17.0563     -0.8132    -26.9580
         9        38.3393     24.4126     -0.8255     20.6422
        10         2.9836     32.5185      0.3069     11.9363
        11        94.2098   -102.3756      2.8150     -1.7836
        12         6.8510      4.3293     -0.1194      3.6870
        13       -12.0783      0.2709     -0.4771     -4.0948
        14         0.9620     14.1169      2.1584      5.7458
        15       -11.8241      6.9881     10.6490      1.9376
  1/2[<0|del|b>*<b|r|0> + (<0|r|b>*<b|del|0>)*] (Au)
       state          X           Y           Z        Dip. S.   Osc.(frdel)
         1        -0.0483      0.0005     -0.0007      0.0485      0.0324
         2        -0.0003     -0.0002      0.0000      0.0004      0.0003
         3         0.0002     -0.0018      0.0000      0.0015      0.0010
         4        -0.0002     -0.0113     -0.0093      0.0208      0.0139
         5         0.0000     -0.0001      0.0001      0.0000      0.0000
         6        -0.0017     -0.4576     -0.0001      0.4594      0.3063
         7         0.0000     -0.0003      0.0010     -0.0006     -0.0004
         8        -0.0494     -0.0080     -0.0067      0.0642      0.0428
         9        -0.0973     -0.0166     -0.0109      0.1248      0.0832
        10        -0.0001     -0.0008      0.0004      0.0005      0.0003
        11        -0.0020     -0.0079     -0.0004      0.0103      0.0069
        12         0.0000      0.0000      0.0026     -0.0026     -0.0017
        13        -0.0001     -0.0001      0.0015     -0.0013     -0.0009
        14         0.0000     -0.0008     -0.0073      0.0081      0.0054
        15        -0.0007     -0.0001      0.0045     -0.0037     -0.0025

 Excitation energies and oscillator strengths:
 
 Excited State   1:      Singlet-A      4.5495 eV  272.52 nm  f=0.0800  <S**2>=0.000
      12 -> 15         0.20323
      13 -> 14         0.66825
 This state for optimization and/or second-order correction.
 Total Energy, E(CIS) =  0.185026888055    
 Copying the excited state density for this state as the 1-particle RhoCI density.
 
 Excited State   2:      Singlet-A      5.1415 eV  241.15 nm  f=0.0005  <S**2>=0.000
      13 -> 15        -0.10156
      13 -> 16         0.67232
 
 Excited State   3:      Singlet-A      5.1961 eV  238.61 nm  f=0.0053  <S**2>=0.000
      12 -> 14        -0.42264
      13 -> 15         0.54578
      13 -> 16         0.12560
 
 Excited State   4:      Singlet-A      5.9082 eV  209.85 nm  f=0.0105  <S**2>=0.000
       7 -> 16        -0.15828
      12 -> 16         0.58438
      12 -> 22        -0.15181
      13 -> 18         0.20794
 
 Excited State   5:      Singlet-A      5.9629 eV  207.93 nm  f=0.0000  <S**2>=0.000
      12 -> 16        -0.26168
      12 -> 18         0.16344
      12 -> 20        -0.12325
      13 -> 17        -0.14529
      13 -> 18         0.40905
      13 -> 20        -0.18169
      13 -> 21         0.25135
      13 -> 22        -0.17357
      13 -> 23        -0.17547
 
 Excited State   6:      Singlet-A      6.2800 eV  197.43 nm  f=0.3547  <S**2>=0.000
      12 -> 14         0.50760
      12 -> 15         0.13571
      12 -> 16        -0.10359
      13 -> 15         0.39156
 
 Excited State   7:      Singlet-A      6.3350 eV  195.71 nm  f=0.0007  <S**2>=0.000
      12 -> 19        -0.29143
      12 -> 23         0.14358
      13 -> 17        -0.26605
      13 -> 19         0.36541
      13 -> 21        -0.14608
      13 -> 22         0.22683
      13 -> 23        -0.20275
 
 Excited State   8:      Singlet-A      6.4093 eV  193.45 nm  f=0.0453  <S**2>=0.000
      12 -> 15         0.39192
      13 -> 14        -0.10875
      13 -> 17         0.42464
      13 -> 18         0.15414
      13 -> 19         0.29410
 
 Excited State   9:      Singlet-A      6.4656 eV  191.76 nm  f=0.0940  <S**2>=0.000
      12 -> 15         0.51997
      13 -> 14        -0.15019
      13 -> 17        -0.32484
      13 -> 18        -0.12743
      13 -> 19        -0.20232
 
 Excited State  10:      Singlet-A      7.0085 eV  176.90 nm  f=0.0008  <S**2>=0.000
      12 -> 17         0.45644
      12 -> 18         0.30663
      12 -> 19         0.22404
      12 -> 20        -0.12024
      12 -> 21        -0.13061
      13 -> 18        -0.19448
      13 -> 19         0.14609
      13 -> 22        -0.12204
 
 Excited State  11:      Singlet-A      7.2085 eV  172.00 nm  f=0.0085  <S**2>=0.000
       9 -> 15        -0.19430
      10 -> 14         0.61503
      10 -> 15         0.19182
 
 Excited State  12:      Singlet-A      7.4629 eV  166.13 nm  f=0.0013  <S**2>=0.000
       8 -> 14        -0.11033
       9 -> 14         0.27159
       9 -> 15        -0.14081
      10 -> 15        -0.10721
      11 -> 14        -0.28328
      11 -> 15         0.37104
      12 -> 17        -0.15671
      12 -> 19         0.10206
      12 -> 20         0.11147
      12 -> 23        -0.11955
      13 -> 20         0.11700
      13 -> 21         0.15940
 
 Excited State  13:      Singlet-A      7.4868 eV  165.60 nm  f=0.0007  <S**2>=0.000
       9 -> 14        -0.19385
       9 -> 15         0.12210
      11 -> 14         0.26702
      12 -> 17        -0.23007
      12 -> 18         0.29623
      12 -> 20         0.18438
      12 -> 21         0.15278
      12 -> 23        -0.10038
      13 -> 18        -0.27909
      13 -> 19         0.16447
      13 -> 21         0.11561
 
 Excited State  14:      Singlet-A      7.5875 eV  163.41 nm  f=0.0023  <S**2>=0.000
       9 -> 14        -0.12774
      12 -> 17        -0.11764
      12 -> 18         0.12230
      12 -> 19         0.30482
      12 -> 22         0.14752
      12 -> 24         0.10690
      13 -> 17        -0.12687
      13 -> 18         0.17088
      13 -> 19         0.10410
      13 -> 21        -0.11455
      13 -> 22         0.39123
      13 -> 24         0.20741
 
 Excited State  15:      Singlet-A      7.6467 eV  162.14 nm  f=0.0046  <S**2>=0.000
       9 -> 14         0.33998
      10 -> 15        -0.16915
      11 -> 14         0.44948
      11 -> 15         0.19930
      13 -> 17        -0.10012
      13 -> 20        -0.16174
      13 -> 21        -0.13857
      13 -> 23         0.14143
 SavETr:  write IOETrn=   770 NScale= 10 NData=  16 NLR=1 NState=   15 LETran=     280.
 The selected state is a singlet
 CISAX will form     1 AO SS matrices at one time.
 NMat=     1 NSing=     1 JSym2X= 0.
 Leave Link  914 at Tue Dec 15 16:23:07 2015, MaxMem=    33554432 cpu:         0.1
 (Enter /home/Applications/g09/g09/l1002.exe)
 Minotr:  Closed shell wavefunction.
          Computing CIS/TD-HF/TD-KS derivatives.
          Using Z-Vector for PSCF gradient.
          Skipping F1 and S1 gradient terms here.
          IDoAtm=111111111
          Direct CPHF calculation.
          Differentiating once with respect to electric field.
                with respect to dipole field.
          Differentiating once with respect to nuclear coordinates.
          Electric field/nuclear overlap derivatives assumed to be zero.
          Requested convergence is 1.0D-10 RMS, and 1.0D-09 maximum.
          NewPWx=T KeepS1=F KeepF1=F KeepIn=T MapXYZ=F SortEE=F KeepMc=T.
          MDV=      33495423 using IRadAn=       0.
 Keep J ints in memory in canonical form, NReq=871704.
 FoFCou: FMM=F IPFlag=           0 FMFlag=           0 FMFlg1=           0
         NFxFlg=           0 DoJE=F BraDBF=F KetDBF=F FulRan=T
         wScrn=  0.000000 ICntrl=     600 IOpCl=  2 I1Cent=           0 NGrid=           0
         NMat0=    1 NMatS0=     54 NMatT0=    0 NMatD0=    1 NMtDS0=    0 NMtDT0=    0
 Symmetry not used in FoFCou.
          Solving linear equations separately, MaxMat=       0.
          There are     1 degrees of freedom in the 1st order CPHF.  IDoFFX=0 NUNeed=     1.
 LinEq1:  Iter=  0 NonCon=     1 RMS=1.16D-02 Max=8.80D-02 NDo=     1
 AX will form     1 AO Fock derivatives at one time.
 LinEq1:  Iter=  1 NonCon=     1 RMS=2.45D-03 Max=1.60D-02 NDo=     1
 LinEq1:  Iter=  2 NonCon=     1 RMS=3.66D-04 Max=2.01D-03 NDo=     1
 LinEq1:  Iter=  3 NonCon=     1 RMS=4.73D-05 Max=1.97D-04 NDo=     1
 LinEq1:  Iter=  4 NonCon=     1 RMS=5.68D-06 Max=2.25D-05 NDo=     1
 LinEq1:  Iter=  5 NonCon=     1 RMS=9.24D-07 Max=5.68D-06 NDo=     1
 LinEq1:  Iter=  6 NonCon=     1 RMS=1.25D-07 Max=4.10D-07 NDo=     1
 LinEq1:  Iter=  7 NonCon=     1 RMS=1.56D-08 Max=6.66D-08 NDo=     1
 LinEq1:  Iter=  8 NonCon=     1 RMS=1.74D-09 Max=4.83D-09 NDo=     1
 LinEq1:  Iter=  9 NonCon=     1 RMS=1.98D-10 Max=6.34D-10 NDo=     1
 LinEq1:  Iter= 10 NonCon=     0 RMS=2.00D-11 Max=5.55D-11 NDo=     1
 Linear equations converged to 1.000D-10 1.000D-09 after    10 iterations.
 End of Minotr F.D. properties file   721 does not exist.
 End of Minotr F.D. properties file   722 does not exist.
 End of Minotr F.D. properties file   788 does not exist.
 Leave Link 1002 at Tue Dec 15 16:23:07 2015, MaxMem=    33554432 cpu:         0.0
 (Enter /home/Applications/g09/g09/l601.exe)
 Copying SCF densities to generalized density rwf, IOpCl= 0 IROHF=0.

 **********************************************************************

            Population analysis using the SCF density.

 **********************************************************************

 Orbital symmetries:
       Occupied  (A) (A) (A) (A) (A) (A) (A) (A) (A) (A) (A) (A)
                 (A)
       Virtual   (A) (A) (A) (A) (A) (A) (A) (A) (A) (A) (A)
 The electronic state is 1-A.
 Alpha  occ. eigenvalues --   -1.55450  -1.23413  -1.10279  -0.82270  -0.80831
 Alpha  occ. eigenvalues --   -0.68182  -0.59515  -0.56098  -0.51192  -0.50431
 Alpha  occ. eigenvalues --   -0.49442  -0.39571  -0.35086
 Alpha virt. eigenvalues --    0.03229   0.06447   0.09716   0.13520   0.14391
 Alpha virt. eigenvalues --    0.15611   0.17404   0.18724   0.19116   0.20841
 Alpha virt. eigenvalues --    0.22210
     Molecular Orbital Coefficients:
                           1         2         3         4         5
                           O         O         O         O         O
     Eigenvalues --    -1.55450  -1.23413  -1.10279  -0.82270  -0.80831
   1 1   C  1S          0.29492  -0.43887   0.34225   0.40887  -0.08287
   2        1PX         0.02498  -0.07911  -0.18225  -0.02342  -0.31793
   3        1PY        -0.12916   0.04678  -0.06387   0.17422  -0.15363
   4        1PZ         0.00397  -0.00582   0.00428   0.00525  -0.00541
   5 2   C  1S          0.37735  -0.07050   0.51310  -0.29923   0.29453
   6        1PX         0.17232  -0.01699   0.00071   0.09989  -0.09609
   7        1PY        -0.06934  -0.24226   0.06343   0.30377   0.19816
   8        1PZ         0.00297   0.00200   0.00453  -0.01032  -0.00089
   9 3   O  1S          0.62812   0.60542  -0.05956   0.14521  -0.25618
  10        1PX         0.05026  -0.03685  -0.28628   0.41404   0.27216
  11        1PY         0.19168  -0.00852   0.10254  -0.21491   0.08508
  12        1PZ        -0.00419  -0.00179   0.00078  -0.00315  -0.00528
  13 4   C  1S          0.36169  -0.17032  -0.50558  -0.04797   0.40332
  14        1PX        -0.16493  -0.11777  -0.01390  -0.22332   0.01224
  15        1PY         0.05609  -0.20898  -0.02352  -0.26430  -0.20450
  16        1PZ         0.00479  -0.00116  -0.00707  -0.00044   0.00187
  17 5   C  1S          0.29160  -0.47716  -0.27402  -0.19895  -0.37469
  18        1PX        -0.09968   0.08410  -0.11059  -0.20748   0.00553
  19        1PY        -0.08805   0.02519   0.17916   0.16919  -0.27569
  20        1PZ        -0.00332   0.00494   0.00189   0.00007  -0.00094
  21 6   H  1S          0.05950  -0.14380  -0.10235  -0.12525  -0.23873
  22 7   H  1S          0.07795  -0.03578  -0.19244   0.00811   0.26801
  23 8   H  1S          0.08139  -0.01336   0.19972  -0.20610   0.17529
  24 9   H  1S          0.06942  -0.15129   0.13780   0.28245  -0.07479
                           6         7         8         9        10
                           O         O         O         O         O
     Eigenvalues --    -0.68182  -0.59515  -0.56098  -0.51192  -0.50431
   1 1   C  1S         -0.07490  -0.01504  -0.15984  -0.02747  -0.05455
   2        1PX         0.12293   0.00364   0.02190  -0.07398   0.24678
   3        1PY        -0.28874  -0.00770  -0.22504  -0.21303   0.39471
   4        1PZ        -0.01372   0.23491  -0.01569   0.00247   0.02126
   5 2   C  1S         -0.08741  -0.00630   0.12794   0.09056   0.03630
   6        1PX         0.38967  -0.00678  -0.33354   0.31567  -0.23414
   7        1PY        -0.03035   0.01410   0.24680   0.07116  -0.38852
   8        1PZ        -0.02203   0.39730  -0.01446  -0.00463   0.02069
   9 3   O  1S         -0.18617  -0.00241   0.03972  -0.07402  -0.19813
  10        1PX         0.14446   0.03635   0.41595   0.08709   0.20259
  11        1PY         0.44185   0.02486  -0.20955   0.23024   0.46678
  12        1PZ        -0.02865   0.76755  -0.03863   0.01093  -0.03682
  13 4   C  1S         -0.09501  -0.01553  -0.15683  -0.06541   0.07471
  14        1PX        -0.31352  -0.02921  -0.37341   0.06656  -0.25004
  15        1PY         0.19125   0.01648   0.06838  -0.40808  -0.17415
  16        1PZ        -0.01195   0.37127  -0.01295   0.01534  -0.01072
  17 5   C  1S         -0.08015   0.00543   0.18607   0.02814  -0.01085
  18        1PX        -0.26604  -0.01551   0.07950   0.31288  -0.07418
  19        1PY        -0.12655  -0.01196   0.12739   0.44276   0.21790
  20        1PZ        -0.01406   0.23375  -0.00423   0.03038   0.00492
  21 6   H  1S         -0.21597  -0.00708   0.20373   0.41913   0.04333
  22 7   H  1S         -0.26010  -0.02525  -0.30323   0.23973   0.02866
  23 8   H  1S         -0.27736   0.01773   0.29446  -0.19673   0.26158
  24 9   H  1S         -0.23361  -0.00668  -0.26102  -0.16218   0.22369
                          11        12        13        14        15
                           O         O         O         V         V
     Eigenvalues --    -0.49442  -0.39571  -0.35086   0.03229   0.06447
   1 1   C  1S         -0.04015  -0.01136  -0.01109   0.02172   0.02668
   2        1PX        -0.48267  -0.00484  -0.01190   0.00745  -0.00626
   3        1PY         0.28436  -0.01750  -0.01932   0.00547   0.01158
   4        1PZ         0.00187   0.50163   0.49309  -0.36648  -0.55802
   5 2   C  1S         -0.02952  -0.00132  -0.01197  -0.02597  -0.02830
   6        1PX         0.10699   0.00769   0.02626   0.02530   0.01356
   7        1PY         0.07971   0.00334   0.02509   0.01781   0.00730
   8        1PZ        -0.01356   0.07115   0.59201   0.59054   0.36291
   9 3   O  1S          0.01851  -0.00077   0.00430   0.00623   0.00147
  10        1PX         0.11196  -0.01475  -0.00252   0.00480  -0.01474
  11        1PY         0.21837  -0.02623  -0.00588   0.01125   0.00632
  12        1PZ        -0.01663  -0.51916  -0.09960  -0.35628   0.00345
  13 4   C  1S         -0.00782  -0.00716   0.00856  -0.02250   0.01595
  14        1PX        -0.13887   0.00353   0.00403   0.01428  -0.00202
  15        1PY         0.28385  -0.00155   0.00408   0.00478  -0.00329
  16        1PZ         0.00661   0.28863  -0.55622   0.53409  -0.42636
  17 5   C  1S         -0.03365   0.01057  -0.00530  -0.00639  -0.00417
  18        1PX         0.48331  -0.02556   0.01448   0.02154  -0.00904
  19        1PY        -0.21470  -0.01965   0.00740  -0.00891  -0.00939
  20        1PZ         0.01583   0.62260  -0.29058  -0.31559   0.60911
  21 6   H  1S          0.20845  -0.01187   0.00764  -0.00218   0.00684
  22 7   H  1S         -0.26867   0.00294  -0.00621   0.01436  -0.01220
  23 8   H  1S         -0.12124  -0.00558  -0.00053   0.03215   0.02689
  24 9   H  1S          0.30576   0.00011  -0.00030  -0.01548  -0.02329
                          16        17        18        19        20
                           V         V         V         V         V
     Eigenvalues --     0.09716   0.13520   0.14391   0.15611   0.17404
   1 1   C  1S          0.02948  -0.27780   0.16603   0.06493   0.00849
   2        1PX         0.04135  -0.27873  -0.30299  -0.19998   0.40069
   3        1PY         0.03530   0.13454  -0.14842   0.20692   0.10569
   4        1PZ         0.02233  -0.03146   0.01758   0.01067  -0.00400
   5 2   C  1S         -0.25653   0.21207  -0.38955  -0.04419   0.27210
   6        1PX        -0.04950  -0.22959  -0.10103  -0.27312  -0.24323
   7        1PY         0.35346   0.09181  -0.06427   0.21952   0.15586
   8        1PZ        -0.04345   0.03683  -0.02006   0.00454   0.01895
   9 3   O  1S          0.22676   0.00290  -0.00535   0.07028   0.07106
  10        1PX         0.20504  -0.03936  -0.25369  -0.19657   0.14819
  11        1PY         0.44787   0.01832   0.07964   0.19755   0.07551
  12        1PZ        -0.00451  -0.00592   0.00420  -0.01001  -0.00836
  13 4   C  1S         -0.29505  -0.22421  -0.02479   0.42123  -0.09012
  14        1PX         0.38528  -0.25751  -0.30851   0.14117   0.17336
  15        1PY         0.21028   0.12216   0.11505   0.11056   0.17402
  16        1PZ        -0.02513  -0.01062   0.00567   0.02673  -0.00674
  17 5   C  1S          0.08105   0.32911  -0.17652  -0.09944  -0.35519
  18        1PX         0.06007  -0.20518  -0.30378  -0.17356  -0.12752
  19        1PY         0.01788   0.12045  -0.11226   0.44885  -0.26081
  20        1PZ         0.01351  -0.00024  -0.01802  -0.00592   0.00911
  21 6   H  1S         -0.19233  -0.19222   0.47242  -0.01957   0.46427
  22 7   H  1S          0.25836   0.45855   0.30036  -0.32686   0.08297
  23 8   H  1S          0.32202  -0.41176   0.22816  -0.18382  -0.36890
  24 9   H  1S         -0.08983   0.05789  -0.10090  -0.33552  -0.00197
                          21        22        23        24
                           V         V         V         V
     Eigenvalues --     0.18724   0.19116   0.20841   0.22210
   1 1   C  1S          0.51304   0.09872  -0.05261  -0.07384
   2        1PX        -0.04551   0.24469  -0.17591   0.28005
   3        1PY         0.01960   0.34496   0.53686   0.05641
   4        1PZ         0.02646   0.02125   0.01524   0.00438
   5 2   C  1S         -0.06175   0.11952   0.12362  -0.07149
   6        1PX        -0.34981   0.30800   0.30573  -0.10177
   7        1PY        -0.30077   0.10346   0.04109   0.51254
   8        1PZ         0.00852  -0.01684  -0.01375  -0.01207
   9 3   O  1S         -0.00468  -0.06985  -0.02159   0.02200
  10        1PX         0.06025  -0.08976   0.08148  -0.47430
  11        1PY         0.06977  -0.20343  -0.06087   0.19510
  12        1PZ         0.00106   0.00869   0.00405   0.00201
  13 4   C  1S         -0.14587   0.08182  -0.14831   0.03821
  14        1PX        -0.06897  -0.32229   0.11194  -0.32029
  15        1PY        -0.14654   0.38864  -0.28928  -0.38842
  16        1PZ        -0.00885   0.00090  -0.00549   0.00301
  17 5   C  1S          0.07638  -0.21972   0.20870   0.09574
  18        1PX         0.34865   0.27484  -0.31551   0.17592
  19        1PY        -0.22907   0.18403  -0.28856  -0.25643
  20        1PZ         0.00088   0.01273  -0.02021  -0.00594
  21 6   H  1S         -0.17569  -0.09943   0.16327  -0.05211
  22 7   H  1S          0.04873   0.30589  -0.10903  -0.06177
  23 8   H  1S         -0.24193   0.14715   0.13083   0.00771
  24 9   H  1S         -0.43494  -0.30305  -0.39460   0.06060
     Density Matrix:
                           1         2         3         4         5
   1 1   C  1S          1.21548
   2        1PX        -0.01628   0.91369
   3        1PY         0.06903  -0.02949   0.98739
   4        1PZ        -0.00937  -0.00787  -0.00708   1.10195
   5 2   C  1S          0.30828  -0.31290  -0.39758  -0.01395   1.24302
   6        1PX         0.26195  -0.11764  -0.31643   0.02587  -0.10339
   7        1PY         0.38740  -0.40490  -0.35444   0.01580   0.02950
   8        1PZ        -0.02489   0.00528  -0.00615   0.84366  -0.00549
   9 3   O  1S         -0.00110  -0.03545   0.00649  -0.00080   0.10349
  10        1PX        -0.03169  -0.04653  -0.00329  -0.00797  -0.23343
  11        1PY        -0.07945   0.01506   0.07007  -0.00486   0.36156
  12        1PZ         0.01023   0.00381   0.00229  -0.25803  -0.01384
  13 4   C  1S         -0.02843  -0.00128   0.02260  -0.00003   0.01497
  14        1PX         0.01375  -0.07484  -0.00365   0.00076  -0.01965
  15        1PY        -0.01424  -0.06268  -0.00405  -0.00344  -0.03417
  16        1PZ        -0.00134  -0.00248   0.00599  -0.08417   0.00615
  17 5   C  1S          0.25725   0.44899  -0.11656   0.01133  -0.02755
  18        1PX        -0.41163  -0.58338   0.17518  -0.01860   0.01636
  19        1PY         0.18065   0.31737   0.02347  -0.00261   0.01364
  20        1PZ        -0.01954  -0.01944  -0.00281   0.44877   0.00680
  21 6   H  1S         -0.04856  -0.06545   0.02141  -0.00093   0.05105
  22 7   H  1S          0.04988   0.06965  -0.02353  -0.00041   0.04912
  23 8   H  1S         -0.06212   0.05173   0.07549   0.00873   0.60902
  24 9   H  1S          0.59003  -0.21816   0.74378   0.02840  -0.05500
                           6         7         8         9        10
   6        1PX         0.95798
   7        1PY         0.06383   0.84819
   8        1PZ         0.00283   0.00925   1.02970
   9 3   O  1S          0.15274  -0.22390   0.00518   1.86533
  10        1PX        -0.13308   0.40414  -0.00153  -0.07652   1.17585
  11        1PY         0.46380  -0.53143   0.01323  -0.28001   0.06361
  12        1PZ        -0.00059   0.02091   0.41935   0.01046   0.00825
  13 4   C  1S         -0.00420  -0.04139   0.00656   0.09065   0.37644
  14        1PX         0.03498  -0.03691   0.00249  -0.24794  -0.70248
  15        1PY         0.00095  -0.00583   0.00128  -0.07765  -0.26039
  16        1PZ        -0.01314  -0.01013  -0.32239   0.00299   0.01214
  17 5   C  1S         -0.02253  -0.00964   0.00002  -0.00118  -0.02261
  18        1PX        -0.00398   0.06992  -0.00544   0.03326  -0.00020
  19        1PY         0.00403  -0.05380   0.00730  -0.01351   0.06317
  20        1PZ         0.00216  -0.00407  -0.06948  -0.00346   0.00110
  21 6   H  1S          0.03113   0.05071  -0.00053   0.02398   0.08564
  22 7   H  1S          0.05800  -0.07262  -0.00259  -0.04141  -0.06284
  23 8   H  1S         -0.73165  -0.12318   0.03849  -0.03982   0.03041
  24 9   H  1S         -0.04951  -0.03989   0.01002   0.02092  -0.02186
                          11        12        13        14        15
  11        1PY         1.31964
  12        1PZ         0.01987   1.74542
  13 4   C  1S          0.14461  -0.01438   1.24864
  14        1PX        -0.35169   0.02505   0.09990   0.83227
  15        1PY         0.01373   0.00839  -0.03935  -0.07359   0.95603
  16        1PZ         0.00558   0.38357  -0.01000  -0.00228  -0.00375
  17 5   C  1S         -0.07542  -0.00477   0.31908   0.03304   0.46005
  18        1PX         0.04567   0.00680   0.00258   0.16175   0.01994
  19        1PY         0.03158   0.00153  -0.52918  -0.06974  -0.59590
  20        1PZ        -0.00394  -0.22882  -0.02740  -0.00261  -0.02226
  21 6   H  1S          0.06592  -0.00122  -0.05898   0.02708  -0.05827
  22 7   H  1S         -0.05114   0.00611   0.60087   0.47420  -0.58117
  23 8   H  1S         -0.07587   0.00585   0.04921  -0.10330  -0.02202
  24 9   H  1S          0.09362  -0.00776   0.05132   0.00436   0.04858
                          16        17        18        19        20
  16        1PZ         1.06263
  17 5   C  1S          0.02033   1.22204
  18        1PX        -0.01990   0.05869   0.97500
  19        1PY        -0.02728   0.06740   0.03528   0.93511
  20        1PZ         0.85763   0.01299  -0.00607  -0.00758   1.05631
  21 6   H  1S         -0.00447   0.57540   0.64161   0.44269   0.01255
  22 7   H  1S          0.01166  -0.05934  -0.00271   0.09960   0.00959
  23 8   H  1S         -0.00487   0.04693  -0.06018   0.02703  -0.00653
  24 9   H  1S          0.00059  -0.04132   0.05606  -0.01831   0.00674
                          21        22        23        24
  21 6   H  1S          0.83354
  22 7   H  1S          0.00938   0.81409
  23 8   H  1S         -0.01255  -0.02201   0.81141
  24 9   H  1S         -0.00594  -0.01596   0.01006   0.84929
    Full Mulliken population analysis:
                           1         2         3         4         5
   1 1   C  1S          1.21548
   2        1PX         0.00000   0.91369
   3        1PY         0.00000   0.00000   0.98739
   4        1PZ         0.00000   0.00000   0.00000   1.10195
   5 2   C  1S          0.00000   0.00000   0.00000   0.00000   1.24302
   6        1PX         0.00000   0.00000   0.00000   0.00000   0.00000
   7        1PY         0.00000   0.00000   0.00000   0.00000   0.00000
   8        1PZ         0.00000   0.00000   0.00000   0.00000   0.00000
   9 3   O  1S          0.00000   0.00000   0.00000   0.00000   0.00000
  10        1PX         0.00000   0.00000   0.00000   0.00000   0.00000
  11        1PY         0.00000   0.00000   0.00000   0.00000   0.00000
  12        1PZ         0.00000   0.00000   0.00000   0.00000   0.00000
  13 4   C  1S          0.00000   0.00000   0.00000   0.00000   0.00000
  14        1PX         0.00000   0.00000   0.00000   0.00000   0.00000
  15        1PY         0.00000   0.00000   0.00000   0.00000   0.00000
  16        1PZ         0.00000   0.00000   0.00000   0.00000   0.00000
  17 5   C  1S          0.00000   0.00000   0.00000   0.00000   0.00000
  18        1PX         0.00000   0.00000   0.00000   0.00000   0.00000
  19        1PY         0.00000   0.00000   0.00000   0.00000   0.00000
  20        1PZ         0.00000   0.00000   0.00000   0.00000   0.00000
  21 6   H  1S          0.00000   0.00000   0.00000   0.00000   0.00000
  22 7   H  1S          0.00000   0.00000   0.00000   0.00000   0.00000
  23 8   H  1S          0.00000   0.00000   0.00000   0.00000   0.00000
  24 9   H  1S          0.00000   0.00000   0.00000   0.00000   0.00000
                           6         7         8         9        10
   6        1PX         0.95798
   7        1PY         0.00000   0.84819
   8        1PZ         0.00000   0.00000   1.02970
   9 3   O  1S          0.00000   0.00000   0.00000   1.86533
  10        1PX         0.00000   0.00000   0.00000   0.00000   1.17585
  11        1PY         0.00000   0.00000   0.00000   0.00000   0.00000
  12        1PZ         0.00000   0.00000   0.00000   0.00000   0.00000
  13 4   C  1S          0.00000   0.00000   0.00000   0.00000   0.00000
  14        1PX         0.00000   0.00000   0.00000   0.00000   0.00000
  15        1PY         0.00000   0.00000   0.00000   0.00000   0.00000
  16        1PZ         0.00000   0.00000   0.00000   0.00000   0.00000
  17 5   C  1S          0.00000   0.00000   0.00000   0.00000   0.00000
  18        1PX         0.00000   0.00000   0.00000   0.00000   0.00000
  19        1PY         0.00000   0.00000   0.00000   0.00000   0.00000
  20        1PZ         0.00000   0.00000   0.00000   0.00000   0.00000
  21 6   H  1S          0.00000   0.00000   0.00000   0.00000   0.00000
  22 7   H  1S          0.00000   0.00000   0.00000   0.00000   0.00000
  23 8   H  1S          0.00000   0.00000   0.00000   0.00000   0.00000
  24 9   H  1S          0.00000   0.00000   0.00000   0.00000   0.00000
                          11        12        13        14        15
  11        1PY         1.31964
  12        1PZ         0.00000   1.74542
  13 4   C  1S          0.00000   0.00000   1.24864
  14        1PX         0.00000   0.00000   0.00000   0.83227
  15        1PY         0.00000   0.00000   0.00000   0.00000   0.95603
  16        1PZ         0.00000   0.00000   0.00000   0.00000   0.00000
  17 5   C  1S          0.00000   0.00000   0.00000   0.00000   0.00000
  18        1PX         0.00000   0.00000   0.00000   0.00000   0.00000
  19        1PY         0.00000   0.00000   0.00000   0.00000   0.00000
  20        1PZ         0.00000   0.00000   0.00000   0.00000   0.00000
  21 6   H  1S          0.00000   0.00000   0.00000   0.00000   0.00000
  22 7   H  1S          0.00000   0.00000   0.00000   0.00000   0.00000
  23 8   H  1S          0.00000   0.00000   0.00000   0.00000   0.00000
  24 9   H  1S          0.00000   0.00000   0.00000   0.00000   0.00000
                          16        17        18        19        20
  16        1PZ         1.06263
  17 5   C  1S          0.00000   1.22204
  18        1PX         0.00000   0.00000   0.97500
  19        1PY         0.00000   0.00000   0.00000   0.93511
  20        1PZ         0.00000   0.00000   0.00000   0.00000   1.05631
  21 6   H  1S          0.00000   0.00000   0.00000   0.00000   0.00000
  22 7   H  1S          0.00000   0.00000   0.00000   0.00000   0.00000
  23 8   H  1S          0.00000   0.00000   0.00000   0.00000   0.00000
  24 9   H  1S          0.00000   0.00000   0.00000   0.00000   0.00000
                          21        22        23        24
  21 6   H  1S          0.83354
  22 7   H  1S          0.00000   0.81409
  23 8   H  1S          0.00000   0.00000   0.81141
  24 9   H  1S          0.00000   0.00000   0.00000   0.84929
     Gross orbital populations:
                           1
   1 1   C  1S          1.21548
   2        1PX         0.91369
   3        1PY         0.98739
   4        1PZ         1.10195
   5 2   C  1S          1.24302
   6        1PX         0.95798
   7        1PY         0.84819
   8        1PZ         1.02970
   9 3   O  1S          1.86533
  10        1PX         1.17585
  11        1PY         1.31964
  12        1PZ         1.74542
  13 4   C  1S          1.24864
  14        1PX         0.83227
  15        1PY         0.95603
  16        1PZ         1.06263
  17 5   C  1S          1.22204
  18        1PX         0.97500
  19        1PY         0.93511
  20        1PZ         1.05631
  21 6   H  1S          0.83354
  22 7   H  1S          0.81409
  23 8   H  1S          0.81141
  24 9   H  1S          0.84929
          Condensed to atoms (all electrons):
               1          2          3          4          5          6
     1  C    4.218511   0.000000   0.000000   0.000000   0.000000   0.000000
     2  C    0.000000   4.078890   0.000000   0.000000   0.000000   0.000000
     3  O    0.000000   0.000000   6.106237   0.000000   0.000000   0.000000
     4  C    0.000000   0.000000   0.000000   4.099567   0.000000   0.000000
     5  C    0.000000   0.000000   0.000000   0.000000   4.188469   0.000000
     6  H    0.000000   0.000000   0.000000   0.000000   0.000000   0.833536
     7  H    0.000000   0.000000   0.000000   0.000000   0.000000   0.000000
     8  H    0.000000   0.000000   0.000000   0.000000   0.000000   0.000000
     9  H    0.000000   0.000000   0.000000   0.000000   0.000000   0.000000
               7          8          9
     1  C    0.000000   0.000000   0.000000
     2  C    0.000000   0.000000   0.000000
     3  O    0.000000   0.000000   0.000000
     4  C    0.000000   0.000000   0.000000
     5  C    0.000000   0.000000   0.000000
     6  H    0.000000   0.000000   0.000000
     7  H    0.814091   0.000000   0.000000
     8  H    0.000000   0.811407   0.000000
     9  H    0.000000   0.000000   0.849292
 Mulliken charges:
               1
     1  C   -0.218511
     2  C   -0.078890
     3  O   -0.106237
     4  C   -0.099567
     5  C   -0.188469
     6  H    0.166464
     7  H    0.185909
     8  H    0.188593
     9  H    0.150708
 Sum of Mulliken charges =   0.00000
 Mulliken charges with hydrogens summed into heavy atoms:
               1
     1  C   -0.067803
     2  C    0.109703
     3  O   -0.106237
     4  C    0.086343
     5  C   -0.022005
 Charge=              0.0000 electrons
 Dipole moment (field-independent basis, Debye):
    X=              0.2449    Y=              0.3759    Z=              0.1754  Tot=              0.4817
 N-N= 1.033286149487D+02 E-N=-1.708530148553D+02  KE=-1.653337327376D+01
 Orbital energies and kinetic energies (alpha):
                                 1                 2
   1         O                -1.554495         -1.309819
   2         O                -1.234129         -1.046230
   3         O                -1.102792         -0.963553
   4         O                -0.822702         -0.710495
   5         O                -0.808308         -0.717085
   6         O                -0.681815         -0.602452
   7         O                -0.595149         -0.484562
   8         O                -0.560981         -0.501849
   9         O                -0.511918         -0.442203
  10         O                -0.504313         -0.407980
  11         O                -0.494419         -0.423285
  12         O                -0.395708         -0.341909
  13         O                -0.350857         -0.315266
  14         V                 0.032291         -0.195453
  15         V                 0.064475         -0.190609
  16         V                 0.097159         -0.193313
  17         V                 0.135195         -0.232716
  18         V                 0.143906         -0.205300
  19         V                 0.156112         -0.168250
  20         V                 0.174039         -0.188172
  21         V                 0.187242         -0.170427
  22         V                 0.191160         -0.135340
  23         V                 0.208411         -0.129272
  24         V                 0.222104         -0.048520
 Total kinetic energy from orbitals=-1.653337327376D+01
 Leave Link  601 at Tue Dec 15 16:23:07 2015, MaxMem=    33554432 cpu:         0.0
 (Enter /home/Applications/g09/g09/l701.exe)
 Compute integral first derivatives.
 ... and contract with generalized density number  6.
 Leave Link  701 at Tue Dec 15 16:23:07 2015, MaxMem=    33554432 cpu:         0.0
 (Enter /home/Applications/g09/g09/l702.exe)
 L702 exits ... SP integral derivatives will be done elsewhere.
 Leave Link  702 at Tue Dec 15 16:23:07 2015, MaxMem=    33554432 cpu:         0.0
 (Enter /home/Applications/g09/g09/l703.exe)
 Compute integral first derivatives, UseDBF=F ICtDFT=           0.
 Integral derivatives from FoFJK, PRISM(SPDF).
 Calling FoFJK, ICntrl=  10005127 FMM=F ISym2X=0 I1Cent= 0 IOpClX= 0 NMat=1 NMatS=1 NMatT=0.
 FoFJK:  IHMeth= 8 ICntrl=10005127 DoSepK=F KAlg= 0 I1Cent=   0 FoldK=F
 IRaf=         0 NMat=   1 IRICut=       1 DoRegI=T DoRafI=F ISym2E= 0.
 FoFCou: FMM=F IPFlag=           0 FMFlag=      100000 FMFlg1=         800
         NFxFlg=           0 DoJE=F BraDBF=F KetDBF=F FulRan=T
         wScrn=  0.000000 ICntrl=10005127 IOpCl=  0 I1Cent=           0 NGrid=           0
         NMat0=    1 NMatS0=      1 NMatT0=    0 NMatD0=    1 NMtDS0=    0 NMtDT0=    0
 Symmetry not used in FoFCou.
 Leave Link  703 at Tue Dec 15 16:23:07 2015, MaxMem=    33554432 cpu:         0.0
 (Enter /home/Applications/g09/g09/l716.exe)
 Dipole        = 2.71532305D-02 2.76380759D-01 1.09128832D-01
 ***** Axes restored to original set *****
 -------------------------------------------------------------------
 Center     Atomic                   Forces (Hartrees/Bohr)
 Number     Number              X              Y              Z
 -------------------------------------------------------------------
      1        6           0.075223315    0.072549269   -0.004947425
      2        6          -0.056176498   -0.050940399   -0.000907970
      3        8          -0.070495815    0.006951892    0.003043273
      4        6          -0.107732493    0.072475769   -0.003856359
      5        6           0.131052183   -0.041745496    0.004233899
      6        1          -0.012124522   -0.018951911    0.000180290
      7        1           0.004919771   -0.005620438    0.001490387
      8        1          -0.006546997   -0.003229761    0.000598945
      9        1           0.041881056   -0.031488926    0.000164960
 -------------------------------------------------------------------
 Cartesian Forces:  Max     0.131052183 RMS     0.047491865
 Z-matrix is all fixed cartesians, so copy forces.
 Force constants in Cartesian coordinates: 
                1             2             3             4             5 
      1  0.974313D+00
      2 -0.506483D-01  0.782788D+00
      3 -0.191158D-01  0.219524D-02  0.207886D+00
      4 -0.507752D+00 -0.103585D+00  0.106575D-02  0.926585D+00
      5 -0.815920D-01 -0.215178D+00 -0.169976D-03  0.926649D-02  0.899955D+00
      6 -0.599252D-02 -0.230623D-02 -0.103630D+00  0.195617D-01  0.136213D-01
      7 -0.841819D-02  0.297247D-01 -0.994133D-03 -0.286657D+00  0.172028D+00
      8 -0.604381D-02  0.213732D-01 -0.263332D-03  0.216224D+00 -0.389965D+00
      9 -0.536430D-03  0.869053D-03  0.585485D-02 -0.102688D-01  0.660352D-02
     10  0.105240D-01 -0.260095D-03 -0.500496D-03  0.234139D-01  0.168242D-01
     11  0.348370D-01 -0.870388D-03 -0.212477D-02 -0.184250D-01 -0.132462D-01
     12 -0.195531D-02  0.455170D-04 -0.208744D-02  0.113762D-02  0.736298D-03
     13 -0.162665D+00  0.419795D-02  0.298411D-02  0.964841D-02 -0.340916D-01
     14 -0.186760D-01 -0.375652D+00  0.115196D-01 -0.228602D-03  0.797873D-03
     15  0.325987D-02  0.131480D-01 -0.758740D-01 -0.726055D-04  0.438372D-03
     16  0.169288D-01 -0.385870D-03  0.835984D-04  0.000000D+00  0.104515D-05
     17 -0.216230D-01  0.515990D-03  0.587011D-03 -0.170454D-05  0.378615D-05
     18  0.158128D-02  0.479701D-03  0.154831D-01 -0.514700D-04  0.114326D-03
     19  0.150589D-04  0.126869D-04  0.391052D-03  0.306096D-05  0.000000D+00
     20  0.189790D-04  0.159894D-04  0.492848D-03  0.000000D+00  0.000000D+00
     21  0.324350D-03  0.273258D-03  0.842274D-02 -0.865370D-04  0.106941D-04
     22  0.746965D-02 -0.263254D-01 -0.240432D-02 -0.160181D+00 -0.100252D+00
     23 -0.367039D-02  0.129807D-01 -0.108885D-02 -0.960681D-01 -0.307711D+00
     24  0.201177D-03 -0.128128D-02  0.287605D-01 -0.113830D-01 -0.204614D-01
     25 -0.330416D+00  0.147270D+00  0.184902D-01 -0.505970D-02  0.178166D-01
     26  0.147398D+00 -0.225973D+00 -0.111478D-01 -0.718048D-02  0.253430D-01
     27  0.222334D-01 -0.134233D-01 -0.848151D-01  0.973458D-04 -0.893129D-03
                6             7             8             9            10 
      6  0.190419D+00
      7 -0.791411D-02  0.524248D+00
      8  0.590013D-02 -0.381783D-01  0.674228D+00
      9 -0.445916D-01  0.124561D-01 -0.172285D-02  0.537088D-01
     10  0.642309D-03 -0.262286D+00 -0.179279D+00 -0.603947D-02  0.988245D+00
     11 -0.668049D-03 -0.135760D+00 -0.311026D+00 -0.528706D-02 -0.754917D-01
     12 -0.126850D-02 -0.440076D-02 -0.452359D-02 -0.457890D-01 -0.630985D-02
     13  0.148359D-02 -0.864689D-02  0.678797D-02  0.699663D-03 -0.586567D+00
     14  0.161085D-03 -0.283808D-01  0.222938D-01  0.959715D-03  0.132996D+00
     15  0.394221D-03 -0.829909D-03  0.444324D-03  0.634938D-02  0.162245D-01
     16  0.310364D-04  0.426493D-05 -0.717911D-05  0.224947D-03 -0.537577D-02
     17  0.112432D-03  0.000000D+00 -0.137780D-05  0.431715D-04  0.695674D-02
     18  0.339497D-02  0.140165D-03 -0.235939D-03  0.739282D-02  0.151258D-02
     19 -0.119256D-03  0.196284D-01 -0.154478D-01  0.914165D-03 -0.167977D+00
     20  0.364182D-04  0.114673D-01 -0.902755D-02  0.690588D-03  0.982446D-01
     21  0.337150D-02  0.586319D-03 -0.546128D-03  0.500658D-02 -0.553791D-02
     22 -0.100952D-01  0.221289D-01  0.159420D-01  0.242263D-02  0.105324D-04
     23 -0.173190D-01 -0.109075D-01 -0.786591D-02 -0.156286D-02  0.482582D-05
     24 -0.757640D-01  0.102729D-02  0.841208D-03  0.479411D-02 -0.126699D-03
     25  0.240243D-02 -0.124040D-05  0.185561D-05  0.127129D-03  0.130976D-04
     26  0.461915D-03  0.578851D-05 -0.865950D-05 -0.593269D-03  0.420041D-05
     27  0.276751D-01 -0.709732D-04  0.106175D-03  0.727409D-02  0.135059D-03
               11            12            13            14            15 
     11  0.810721D+00
     12  0.203462D-02  0.217008D+00
     13  0.108455D+00  0.149113D-01  0.957815D+00
     14 -0.232795D+00 -0.345793D-02 -0.108069D-01  0.758221D+00
     15 -0.435331D-02 -0.119128D+00 -0.224468D-01 -0.120123D-01  0.208911D+00
     16 -0.177989D-01  0.107473D-02 -0.234422D+00 -0.100002D+00  0.479944D-02
     17  0.229078D-01 -0.595989D-04 -0.103530D+00 -0.187046D+00  0.443521D-02
     18  0.220708D-02  0.293906D-01  0.368923D-02  0.322220D-02 -0.792248D-01
     19  0.104174D+00 -0.438753D-02  0.772821D-02  0.255011D-01 -0.627152D-03
     20 -0.275694D+00  0.530362D-02  0.452905D-02  0.148371D-01  0.772889D-03
     21  0.806205D-02 -0.865691D-01  0.678656D-03 -0.118303D-02  0.362257D-01
     22 -0.130158D-05 -0.410345D-03 -0.193544D-05  0.429902D-05  0.127662D-03
     23  0.000000D+00 -0.188015D-03  0.881734D-05 -0.195852D-04 -0.581594D-03
     24  0.156573D-04  0.493623D-02 -0.999292D-04  0.221964D-03  0.659135D-02
     25  0.110345D-04  0.340119D-03  0.171105D-01 -0.407326D-03 -0.434997D-03
     26  0.353877D-05  0.109077D-03  0.244495D-01 -0.637689D-03 -0.229155D-02
     27  0.113785D-03  0.350722D-02 -0.189986D-02  0.568669D-03  0.157545D-01
               16            17            18            19            20 
     16  0.222888D+00
     17  0.118217D+00  0.163629D+00
     18 -0.577421D-02 -0.487261D-02  0.416055D-01
     19 -0.182244D-04 -0.349760D-05 -0.598940D-03  0.140621D+00
     20 -0.229685D-04 -0.440807D-05 -0.754852D-03 -0.114236D+00  0.269873D+00
     21 -0.392531D-03 -0.753337D-04 -0.129004D-01  0.442766D-02 -0.654151D-02
     22  0.000000D+00  0.000000D+00  0.000000D+00  0.000000D+00  0.000000D+00
     23  0.000000D+00  0.000000D+00  0.000000D+00  0.000000D+00  0.000000D+00
     24  0.000000D+00  0.000000D+00  0.000000D+00  0.000000D+00  0.000000D+00
     25 -0.455841D-05 -0.165132D-04 -0.498630D-03  0.000000D+00  0.000000D+00
     26 -0.146189D-05 -0.529580D-05 -0.159911D-03  0.000000D+00  0.000000D+00
     27 -0.470051D-04 -0.170280D-03 -0.514174D-02  0.000000D+00  0.000000D+00
               21            22            23            24            25 
     21  0.464429D-01
     22  0.000000D+00  0.130578D+00
     23  0.000000D+00  0.110615D+00  0.302698D+00
     24  0.000000D+00  0.105814D-01  0.197296D-01  0.421368D-01
     25  0.000000D+00 -0.387746D-05  0.176647D-04 -0.200198D-03  0.318362D+00
     26  0.000000D+00  0.180947D-04 -0.824350D-04  0.934256D-03 -0.164693D+00
     27  0.000000D+00 -0.221860D-03  0.101074D-02 -0.114550D-01 -0.202261D-01
               26            27 
     26  0.201361D+00
     27  0.126873D-01  0.472008D-01
 Leave Link  716 at Tue Dec 15 16:23:07 2015, MaxMem=    33554432 cpu:         0.0
 (Enter /home/Applications/g09/g09/l103.exe)

 GradGradGradGradGradGradGradGradGradGradGradGradGradGradGradGradGradGrad
 Berny optimization.
 Search for a local minimum.
 Step number   1 out of a maximum of    2
 All quantities printed in internal units (Hartrees-Bohrs-Radians)
 Second derivative matrix not updated -- first step.
 ITU=  0
     Eigenvalues ---    0.01868   0.02961   0.06938   0.07336   0.07994
     Eigenvalues ---    0.08809   0.12955   0.14028   0.15788   0.23956
     Eigenvalues ---    0.26942   0.32520   0.40305   0.43376   0.61894
     Eigenvalues ---    0.82887   1.04181   1.29673   1.39690   1.59612
     Eigenvalues ---    1.71196
 Quadratic step=4.633D-01 exceeds max=3.000D-01 adjusted using Lamda=-1.166D-01.
 Angle between NR and scaled steps=  17.53 degrees.
 Angle between quadratic step and forces=  38.27 degrees.
 Linear search not attempted -- first point.
 TrRot= -0.011391  0.005750 -0.000117 -0.368986  0.000997  0.369881
 Variable       Old X    -DE/DX   Delta X   Delta X   Delta X     New X
                                 (Linear)    (Quad)   (Total)
    X1        1.74938   0.07522   0.00000   0.11765   0.10754   1.85691
    Y1       -1.40705   0.07255   0.00000   0.03409   0.04149  -1.36556
    Z1        0.07373  -0.00495   0.00000  -0.01737  -0.01971   0.05401
    X2       -0.71877  -0.05618   0.00000  -0.03613  -0.04557  -0.76434
    Y2       -2.10610  -0.05094   0.00000  -0.01398  -0.00893  -2.11503
    Z2        0.05985  -0.00091   0.00000  -0.00745  -0.00762   0.05222
    X3       -2.21242  -0.07050   0.00000  -0.14021  -0.15155  -2.36397
    Y3       -0.02596   0.00695   0.00000   0.00503   0.00867  -0.01729
    Z3        0.01491   0.00304   0.00000   0.01574   0.01780   0.03271
    X4       -0.56980  -0.10773   0.00000  -0.07740  -0.09065  -0.66045
    Y4        2.06330   0.07248   0.00000   0.04621   0.05136   2.11466
    Z4        0.05045  -0.00386   0.00000  -0.01620  -0.01496   0.03549
    X5        1.81244   0.13105   0.00000   0.09670   0.08412   1.89656
    Y5        1.33968  -0.04175   0.00000  -0.01850  -0.01104   1.32864
    Z5       -0.01781   0.00423   0.00000   0.01362   0.01221  -0.00560
    X6        3.48082  -0.01212   0.00000   0.04461   0.03084   3.51166
    Y6        2.64160  -0.01895   0.00000  -0.05860  -0.04967   2.59193
    Z6       -0.07618   0.00018   0.00000   0.01058   0.00812  -0.06806
    X7       -1.61684   0.00492   0.00000  -0.01999  -0.03487  -1.65171
    Y7        3.85838  -0.00562   0.00000   0.03543   0.03972   3.89810
    Z7       -0.00598   0.00149   0.00000  -0.00579  -0.00298  -0.00896
    X8       -1.61454  -0.00655   0.00000  -0.03216  -0.04008  -1.65462
    Y8       -3.93699  -0.00323   0.00000  -0.02258  -0.01827  -3.95527
    Z8       -0.08435   0.00060   0.00000   0.00554   0.00553  -0.07882
    X9        3.32843   0.04188   0.00000   0.14934   0.14023   3.46865
    Y9       -2.52133  -0.03149   0.00000  -0.06221  -0.05333  -2.57466
    Z9       -0.04475   0.00016   0.00000   0.00590   0.00162  -0.04313
         Item               Value     Threshold  Converged?
 Maximum Force            0.131052     0.000450     NO 
 RMS     Force            0.047492     0.000300     NO 
 Maximum Displacement     0.151553     0.001800     NO 
 RMS     Displacement     0.057233     0.001200     NO 
 Predicted change in Energy=-3.432365D-02
 GradGradGradGradGradGradGradGradGradGradGradGradGradGradGradGradGradGrad

 Leave Link  103 at Tue Dec 15 16:23:07 2015, MaxMem=    33554432 cpu:         0.0
 (Enter /home/Applications/g09/g09/l9999.exe)
 1\1\GINC-DUSTIN-DESKTOP\Force\RAM1-FC\STO-3G\C4H4O1\DUSTIN\15-Dec-2015
 \0\\#P AM1(Input,print) CIS(Singlets,NStates=15) pop(full) force\\AM1-
 Reparam Input\\0,1\C,0.925731,-0.744579,0.039015\C,-0.380357,-1.114501
 ,0.031671\O,-1.170762,-0.013737,0.007892\C,-0.301526,1.091852,0.026696
 \C,0.959101,0.708926,-0.009426\H,1.84197,1.397872,-0.040313\H,-0.85559
 3,2.041767,-0.003163\H,-0.854377,-2.083368,-0.044637\H,1.761327,-1.334
 228,-0.02368\\Version=ES64L-G09RevD.01\State=1-A\HF=0.0178342\RMSD=8.8
 04e-09\RMSF=4.749e-02\Dipole=0.2690878,-0.0678852,-0.1096178\PG=C01 [X
 (C4H4O1)]\\@


 WHEN A MATHEMATICIAN ENGAGED IN INVESTIGATING
 PHYSICAL ACTIONS AND RESULTS HAS ARRIVED AT HIS
 CONCLUSIONS, MAY THEY NOT BE EXPRESSED IN COMMON
 LANGUAGE AS FULLY, CLEARLY, AND DEFINITELY AS IN
 MATHEMATICAL FORMULAE?
           - LETTER FROM M. FARADAY TO J.C. MAXWELL, 1857.
 Job cpu time:       0 days  0 hours  0 minutes  0.5 seconds.
 File lengths (MBytes):  RWF=      7 Int=      0 D2E=      0 Chk=      2 Scr=      1
 Normal termination of Gaussian 09 at Tue Dec 15 16:23:07 2015.
