 Entering Gaussian System, Link 0=g09
 Input=FuranAM1_53P9.com
 Output=FuranAM1_53P9.log
 Initial command:
 /home/Applications/g09/g09/l1.exe "/home/Applications/g09/scratch/Gau-9171.inp" -scrdir="/home/Applications/g09/scratch/"
 Entering Link 1 = /home/Applications/g09/g09/l1.exe PID=      9173.
  
 Copyright (c) 1988,1990,1992,1993,1995,1998,2003,2009,2013,
            Gaussian, Inc.  All Rights Reserved.
  
 This is part of the Gaussian(R) 09 program.  It is based on
 the Gaussian(R) 03 system (copyright 2003, Gaussian, Inc.),
 the Gaussian(R) 98 system (copyright 1998, Gaussian, Inc.),
 the Gaussian(R) 94 system (copyright 1995, Gaussian, Inc.),
 the Gaussian 92(TM) system (copyright 1992, Gaussian, Inc.),
 the Gaussian 90(TM) system (copyright 1990, Gaussian, Inc.),
 the Gaussian 88(TM) system (copyright 1988, Gaussian, Inc.),
 the Gaussian 86(TM) system (copyright 1986, Carnegie Mellon
 University), and the Gaussian 82(TM) system (copyright 1983,
 Carnegie Mellon University). Gaussian is a federally registered
 trademark of Gaussian, Inc.
  
 This software contains proprietary and confidential information,
 including trade secrets, belonging to Gaussian, Inc.
  
 This software is provided under written license and may be
 used, copied, transmitted, or stored only in accord with that
 written license.
  
 The following legend is applicable only to US Government
 contracts under FAR:
  
                    RESTRICTED RIGHTS LEGEND
  
 Use, reproduction and disclosure by the US Government is
 subject to restrictions as set forth in subparagraphs (a)
 and (c) of the Commercial Computer Software - Restricted
 Rights clause in FAR 52.227-19.
  
 Gaussian, Inc.
 340 Quinnipiac St., Bldg. 40, Wallingford CT 06492
  
  
 ---------------------------------------------------------------
 Warning -- This program may not be used in any manner that
 competes with the business of Gaussian, Inc. or will provide
 assistance to any competitor of Gaussian, Inc.  The licensee
 of this program is prohibited from giving any competitor of
 Gaussian, Inc. access to this program.  By using this program,
 the user acknowledges that Gaussian, Inc. is engaged in the
 business of creating and licensing software in the field of
 computational chemistry and represents and warrants to the
 licensee that it is not a competitor of Gaussian, Inc. and that
 it will not use this program in any manner prohibited above.
 ---------------------------------------------------------------
  

 Cite this work as:
 Gaussian 09, Revision D.01,
 M. J. Frisch, G. W. Trucks, H. B. Schlegel, G. E. Scuseria, 
 M. A. Robb, J. R. Cheeseman, G. Scalmani, V. Barone, B. Mennucci, 
 G. A. Petersson, H. Nakatsuji, M. Caricato, X. Li, H. P. Hratchian, 
 A. F. Izmaylov, J. Bloino, G. Zheng, J. L. Sonnenberg, M. Hada, 
 M. Ehara, K. Toyota, R. Fukuda, J. Hasegawa, M. Ishida, T. Nakajima, 
 Y. Honda, O. Kitao, H. Nakai, T. Vreven, J. A. Montgomery, Jr., 
 J. E. Peralta, F. Ogliaro, M. Bearpark, J. J. Heyd, E. Brothers, 
 K. N. Kudin, V. N. Staroverov, T. Keith, R. Kobayashi, J. Normand, 
 K. Raghavachari, A. Rendell, J. C. Burant, S. S. Iyengar, J. Tomasi, 
 M. Cossi, N. Rega, J. M. Millam, M. Klene, J. E. Knox, J. B. Cross, 
 V. Bakken, C. Adamo, J. Jaramillo, R. Gomperts, R. E. Stratmann, 
 O. Yazyev, A. J. Austin, R. Cammi, C. Pomelli, J. W. Ochterski, 
 R. L. Martin, K. Morokuma, V. G. Zakrzewski, G. A. Voth, 
 P. Salvador, J. J. Dannenberg, S. Dapprich, A. D. Daniels, 
 O. Farkas, J. B. Foresman, J. V. Ortiz, J. Cioslowski, 
 and D. J. Fox, Gaussian, Inc., Wallingford CT, 2013.
 
 ******************************************
 Gaussian 09:  ES64L-G09RevD.01 24-Apr-2013
                15-Dec-2015 
 ******************************************
 ------------------------------------------------------------
 #P AM1(Input,print) CIS(Singlets,NStates=15) pop(full) force
 ------------------------------------------------------------
 1/10=7,30=1,38=1/1,3;
 2/12=2,17=6,18=5,40=1/2;
 3/5=2,16=1,25=1,41=700000,71=1,135=100,136=1/1,2,8,3;
 4/35=1/1;
 5/5=2,35=1,38=5/2;
 8/6=1,10=1,108=15/1;
 9/15=2,41=15,42=1,48=1,49=10/14;
 10/5=4/2;
 6/7=3,18=1/1;
 7/12=6,13=5,29=1/1,2,3,16;
 1/10=7,30=1/3;
 99//99;
 Leave Link    1 at Tue Dec 15 17:07:20 2015, MaxMem=           0 cpu:         0.0
 (Enter /home/Applications/g09/g09/l101.exe)
 -----------------
 AM1-Reparam Input
 -----------------
 Symbolic Z-matrix:
 Charge =  0 Multiplicity = 1
 6                     0.99856  -0.7322   -0.03644 
 6                    -0.36511  -1.06995  -0.04922 
 8                    -1.12814   0.02293  -0.01466 
 6                    -0.38507   1.0587   -0.0283 
 6                     0.91063   0.74994   0.00984 
 1                     1.7907    1.34891  -0.04833 
 1                    -0.88742   2.05632   0.03423 
 1                    -0.88311  -2.08018  -0.01714 
 1                     1.78103  -1.34808   0.02706 
 
 NAtoms=      9 NQM=        9 NQMF=       0 NMMI=      0 NMMIF=      0
                NMic=       0 NMicF=      0.
                    Isotopes and Nuclear Properties:
 (Nuclear quadrupole moments (NQMom) in fm**2, nuclear magnetic moments (NMagM)
  in nuclear magnetons)

  Atom         1           2           3           4           5           6           7           8           9
 IAtWgt=          12          12          16          12          12           1           1           1           1
 AtmWgt=  12.0000000  12.0000000  15.9949146  12.0000000  12.0000000   1.0078250   1.0078250   1.0078250   1.0078250
 NucSpn=           0           0           0           0           0           1           1           1           1
 AtZEff=   0.0000000   0.0000000   0.0000000   0.0000000   0.0000000   0.0000000   0.0000000   0.0000000   0.0000000
 NQMom=    0.0000000   0.0000000   0.0000000   0.0000000   0.0000000   0.0000000   0.0000000   0.0000000   0.0000000
 NMagM=    0.0000000   0.0000000   0.0000000   0.0000000   0.0000000   2.7928460   2.7928460   2.7928460   2.7928460
 AtZNuc=   6.0000000   6.0000000   8.0000000   6.0000000   6.0000000   1.0000000   1.0000000   1.0000000   1.0000000
 Leave Link  101 at Tue Dec 15 17:07:20 2015, MaxMem=    33554432 cpu:         0.1
 (Enter /home/Applications/g09/g09/l103.exe)

 GradGradGradGradGradGradGradGradGradGradGradGradGradGradGradGradGradGrad
 Berny optimization.
 Initialization pass.
 Trust Radius=3.00D-01 FncErr=1.00D-07 GrdErr=1.00D-07
 Number of steps in this run=      2 maximum allowed number of steps=      2.
 GradGradGradGradGradGradGradGradGradGradGradGradGradGradGradGradGradGrad

 Leave Link  103 at Tue Dec 15 17:07:20 2015, MaxMem=    33554432 cpu:         0.0
 (Enter /home/Applications/g09/g09/l202.exe)
                          Input orientation:                          
 ---------------------------------------------------------------------
 Center     Atomic      Atomic             Coordinates (Angstroms)
 Number     Number       Type             X           Y           Z
 ---------------------------------------------------------------------
      1          6           0        0.998562   -0.732196   -0.036436
      2          6           0       -0.365105   -1.069955   -0.049218
      3          8           0       -1.128138    0.022932   -0.014658
      4          6           0       -0.385074    1.058698   -0.028299
      5          6           0        0.910625    0.749940    0.009836
      6          1           0        1.790703    1.348906   -0.048334
      7          1           0       -0.887424    2.056323    0.034230
      8          1           0       -0.883111   -2.080180   -0.017144
      9          1           0        1.781028   -1.348077    0.027058
 ---------------------------------------------------------------------
                    Distance matrix (angstroms):
                    1          2          3          4          5
     1  C    0.000000
     2  C    1.404931   0.000000
     3  O    2.256888   1.333348   0.000000
     4  C    2.263143   2.128849   1.274810   0.000000
     5  C    1.485463   2.223284   2.164647   1.332525   0.000000
     6  H    2.226795   3.240123   3.206084   2.195137   1.066153
     7  H    3.367161   3.170709   2.048173   1.118714   2.222659
     8  H    2.314763   1.135744   2.117339   3.178163   3.350790
     9  H    0.997795   2.165423   3.216310   3.238461   2.271469
                    6          7          8          9
     6  H    0.000000
     7  H    2.771213   0.000000
     8  H    4.348435   4.136824   0.000000
     9  H    2.698054   4.325578   2.763253   0.000000
 Stoichiometry    C4H4O
 Framework group  C1[X(C4H4O)]
 Deg. of freedom    21
 Full point group                 C1      NOp   1
 Largest Abelian subgroup         C1      NOp   1
 Largest concise Abelian subgroup C1      NOp   1
                         Standard orientation:                         
 ---------------------------------------------------------------------
 Center     Atomic      Atomic             Coordinates (Angstroms)
 Number     Number       Type             X           Y           Z
 ---------------------------------------------------------------------
      1          6           0        1.007904    0.735301   -0.010651
      2          6           0        0.916886   -0.666669   -0.015906
      3          8           0       -0.356045   -1.062698    0.009082
      4          6           0       -1.117933   -0.040962   -0.017816
      5          6           0       -0.431617    1.100602    0.019935
      6          1           0       -0.735326    2.120375   -0.047185
      7          1           0       -2.221389   -0.217233    0.035419
      8          1           0        1.722424   -1.466074    0.028507
      9          1           0        1.831221    1.294886    0.057225
 ---------------------------------------------------------------------
 Rotational constants (GHZ):      9.7358231      9.2920578      4.7563077
 Leave Link  202 at Tue Dec 15 17:07:20 2015, MaxMem=    33554432 cpu:         0.0
 (Enter /home/Applications/g09/g09/l301.exe)

 Semi-emprical parameters in input format:
 Method=8 CoreType=1 PeptideFC=0.0106250000 RIJScale=0.5404210000
 ****
 H       
 PQN=1 NValence=1 F0ss=0.4980120000 ZetaOverlap=1.0856700000 U=-0.3768230000
 Beta=-0.2268830000 CoreKO=1.0354420000 KON=0,0,0,1.0458670000 KON=1,0,1,1.0589200000
 KON=0,1,1,1.0589200000 KON=2,1,1,1.0697690000 EISol=-0.4188110042 EHeat=0.0830298228
 Alpha=1.4609850000
 GCore=0.0085280000,1.5127750000,2.2676710000
 GCore=0.0003530000,1.4551640000,3.4779940000
 GCore=-0.0011900000,0.5600570000,3.5861320000
 ****
 C       
 PQN=2,2 NValence=4 F0ss=0.4494440000 F0sp=0.4215150000 F0pp=0.3497590000 F2pp=0.1878900000
 G1sp=0.2701540000
 ZetaOverlap=1.8086650000,1.3781170000
 U=-1.7923890000,-1.4557970000
 Beta=-0.5453250000,-0.3063130000 DDN=0,1,0.7474020000 DDN=1,1,0.7268010000
 CoreKO=1.1124280000 KON=0,0,0,1.1723100000 KON=1,0,1,0.8998210000 KON=0,1,1,1.1012040000
 KON=2,1,1,0.7783930000 EISol=-4.4398989268 EHeat=0.2723305520 Alpha=1.2756240000
 DipHyp=1.4947180026
 GCore=0.0007890000,1.2095400000,2.6678360000
 GCore=0.0028980000,1.4001430000,3.2840710000
 GCore=-0.0013790000,1.3017660000,3.8739390000
 GCore=-0.0001030000,1.4001430000,4.6088130000
 ****
 O       
 PQN=2,2 NValence=6 F0ss=0.5310640000 F0sp=0.5321300000 F0pp=0.4958710000 F2pp=0.2543430000
 G1sp=0.4013240000
 ZetaOverlap=2.6354490000,2.5240390000
 U=-3.5951870000,-2.0345890000
 Beta=-1.1573400000,-1.2994290000 DDN=0,1,0.4953610000 DDN=1,1,0.5082060000
 CoreKO=0.8515990000 KON=0,0,0,0.8822960000 KON=1,0,1,0.5019540000 KON=0,1,1,0.8671530000
 KON=2,1,1,0.5515580000 EISol=-11.6164441184 EHeat=0.0949133088 Alpha=2.4031680000
 DipHyp=0.9906650029
 GCore=0.0204720000,1.2640290000,1.6023330000
 GCore=0.0051530000,1.9602000000,2.7307880000
 ****
 
 Standard basis: VSTO-6G (5D, 7F)
 Ernie: Thresh=  0.10000D-02 Tol=  0.10000D-05 Strict=F.
  NNHCO=     0 NNPyr=     0 NCTC=     0               EPep=         0.000000000
    EC=        69.337965149  ECS=         2.527380129   EG=         0.408488710
   EHC=         0.000000000  EAt=       -31.051283842  AtH=         1.516354808
 EPDDG=         0.000000000  ECC=        72.273833988 EAtT=        32.567638650
 There are    24 symmetry adapted cartesian basis functions of A   symmetry.
 There are    24 symmetry adapted basis functions of A   symmetry.
    24 basis functions,   144 primitive gaussians,    24 cartesian basis functions
    13 alpha electrons       13 beta electrons
       nuclear repulsion energy       104.8414726379 Hartrees.
 IExCor=    0 DFT=F Ex=HF Corr=None ExCW=0 ScaHFX=  1.000000
 ScaDFX=  1.000000  1.000000  1.000000  1.000000 ScalE2=  1.000000  1.000000
 IRadAn=      0 IRanWt=     -1 IRanGd=            0 ICorTp=0 IEmpDi=  4
 Integral buffers will be    131072 words long.
 Regular integral format.
 Two-electron integral symmetry is turned off.
 Leave Link  301 at Tue Dec 15 17:07:20 2015, MaxMem=    33554432 cpu:         0.0
 (Enter /home/Applications/g09/g09/l302.exe)
 Do NDO integrals.
 NPDir=0 NMtPBC=     1 NCelOv=     1 NCel=       1 NClECP=     1 NCelD=      1
         NCelK=      1 NCelE2=     1 NClLst=     1 CellRange=     0.0.
 One-electron integrals computed using PRISM.
 NBasis=    24 RedAO= F EigKep=  0.00D+00  NBF=    24
 NBsUse=    24 1.00D-04 EigRej=  0.00D+00 NBFU=    24
 Leave Link  302 at Tue Dec 15 17:07:20 2015, MaxMem=    33554432 cpu:         0.0
 (Enter /home/Applications/g09/g09/l308.exe)
 Leave Link  308 at Tue Dec 15 17:07:20 2015, MaxMem=    33554432 cpu:         0.0
 (Enter /home/Applications/g09/g09/l303.exe)
 DipDrv:  MaxL=1.
 Leave Link  303 at Tue Dec 15 17:07:21 2015, MaxMem=    33554432 cpu:         0.0
 (Enter /home/Applications/g09/g09/l401.exe)
 Simple Huckel Guess.
 JPrj=0 DoOrth=F DoCkMO=F.
 Leave Link  401 at Tue Dec 15 17:07:21 2015, MaxMem=    33554432 cpu:         0.0
 (Enter /home/Applications/g09/g09/l502.exe)
 Closed shell SCF:
 Using DIIS extrapolation, IDIIS=  1040.
 Overlap will be assumed to be unity.
 Two-electron integral symmetry not used.
 Keep J ints in memory in canonical form, NReq=888082.
 IVT=       79475 IEndB=       79475 NGot=    33554432 MDV=    33473473
 LenX=    33473473 LenY=    33472456
 Requested convergence on RMS density matrix=1.00D-08 within 128 cycles.
 Requested convergence on MAX density matrix=1.00D-06.
 Requested convergence on             energy=1.00D-06.
 No special actions if energy rises.
 FoFCou: FMM=F IPFlag=           0 FMFlag=           0 FMFlg1=           0
         NFxFlg=           0 DoJE=F BraDBF=F KetDBF=F FulRan=T
         wScrn=  0.000000 ICntrl=     600 IOpCl=  2 I1Cent=           0 NGrid=           0
         NMat0=    1 NMatS0=     54 NMatT0=    0 NMatD0=    1 NMtDS0=    0 NMtDT0=    0
 Symmetry not used in FoFCou.

 Cycle   1  Pass 1  IDiag  1:
 E=  4.44196760937858    
 DIIS: error= 1.46D-01 at cycle   1 NSaved=   1.
 NSaved= 1 IEnMin= 1 EnMin=  4.44196760937858     IErMin= 1 ErrMin= 1.46D-01
 ErrMax= 1.46D-01  0.00D+00 EMaxC= 1.00D-01 BMatC= 5.21D-01 BMatP= 5.21D-01
 IDIUse=3 WtCom= 0.00D+00 WtEn= 1.00D+00
 Coeff-Com:  0.100D+01
 Coeff-En:   0.100D+01
 Coeff:      0.100D+01
 GapD=    2.000 DampG=2.000 DampE=0.250 DampFc=0.5000 IDamp=-1.
 Damping current iteration by 5.00D-01
 RMSDP=6.36D-02 MaxDP=6.56D-01              OVMax= 0.00D+00

 Cycle   2  Pass 1  IDiag  1:
 E=  3.43495086850285     Delta-E=       -1.007016740876 Rises=F Damp=T
 DIIS: error= 8.48D-02 at cycle   2 NSaved=   2.
 NSaved= 2 IEnMin= 2 EnMin=  3.43495086850285     IErMin= 2 ErrMin= 8.48D-02
 ErrMax= 8.48D-02  0.00D+00 EMaxC= 1.00D-01 BMatC= 1.91D-01 BMatP= 5.21D-01
 IDIUse=3 WtCom= 1.52D-01 WtEn= 8.48D-01
 Coeff-Com: -0.125D+01 0.225D+01
 Coeff-En:   0.000D+00 0.100D+01
 Coeff:     -0.191D+00 0.119D+01
 RMSDP=3.72D-02 MaxDP=3.69D-01 DE=-1.01D+00 OVMax= 0.00D+00

 Cycle   3  Pass 1  IDiag  1:
 E=  2.10618881035752     Delta-E=       -1.328762058145 Rises=F Damp=F
 DIIS: error= 2.05D-02 at cycle   3 NSaved=   3.
 NSaved= 3 IEnMin= 3 EnMin=  2.10618881035752     IErMin= 3 ErrMin= 2.05D-02
 ErrMax= 2.05D-02  0.00D+00 EMaxC= 1.00D-01 BMatC= 1.52D-02 BMatP= 1.91D-01
 IDIUse=3 WtCom= 7.95D-01 WtEn= 2.05D-01
 Coeff-Com:  0.396D+00-0.896D+00 0.150D+01
 Coeff-En:   0.000D+00 0.000D+00 0.100D+01
 Coeff:      0.315D+00-0.713D+00 0.140D+01
 RMSDP=1.17D-02 MaxDP=6.16D-02 DE=-1.33D+00 OVMax= 0.00D+00

 Cycle   4  Pass 1  IDiag  1:
 E=  2.04661793174131     Delta-E=       -0.059570878616 Rises=F Damp=F
 DIIS: error= 4.87D-03 at cycle   4 NSaved=   4.
 NSaved= 4 IEnMin= 4 EnMin=  2.04661793174131     IErMin= 4 ErrMin= 4.87D-03
 ErrMax= 4.87D-03  0.00D+00 EMaxC= 1.00D-01 BMatC= 1.17D-03 BMatP= 1.52D-02
 IDIUse=3 WtCom= 9.51D-01 WtEn= 4.87D-02
 Coeff-Com: -0.792D-01 0.159D+00-0.462D+00 0.138D+01
 Coeff-En:   0.000D+00 0.000D+00 0.000D+00 0.100D+01
 Coeff:     -0.754D-01 0.152D+00-0.440D+00 0.136D+01
 RMSDP=4.11D-03 MaxDP=2.26D-02 DE=-5.96D-02 OVMax= 0.00D+00

 Cycle   5  Pass 1  IDiag  3:
 E=  2.04139944800117     Delta-E=       -0.005218483740 Rises=F Damp=F
 DIIS: error= 1.01D-03 at cycle   5 NSaved=   5.
 NSaved= 5 IEnMin= 5 EnMin=  2.04139944800117     IErMin= 5 ErrMin= 1.01D-03
 ErrMax= 1.01D-03  0.00D+00 EMaxC= 1.00D-01 BMatC= 3.83D-05 BMatP= 1.17D-03
 IDIUse=3 WtCom= 9.90D-01 WtEn= 1.01D-02
 Coeff-Com:  0.191D-01-0.355D-01 0.121D+00-0.504D+00 0.140D+01
 Coeff-En:   0.000D+00 0.000D+00 0.000D+00 0.000D+00 0.100D+01
 Coeff:      0.189D-01-0.352D-01 0.120D+00-0.499D+00 0.140D+01
 Gap=     0.393 Goal=   None    Shift=    0.000
 RMSDP=8.15D-04 MaxDP=4.12D-03 DE=-5.22D-03 OVMax= 7.41D-03

 Cycle   6  Pass 1  IDiag  3:
 E=  2.04120695668563     Delta-E=       -0.000192491316 Rises=F Damp=F
 DIIS: error= 2.37D-04 at cycle   6 NSaved=   6.
 NSaved= 6 IEnMin= 6 EnMin=  2.04120695668563     IErMin= 6 ErrMin= 2.37D-04
 ErrMax= 2.37D-04  0.00D+00 EMaxC= 1.00D-01 BMatC= 1.54D-06 BMatP= 3.83D-05
 IDIUse=3 WtCom= 9.98D-01 WtEn= 2.37D-03
 Coeff-Com: -0.175D-02 0.330D-02-0.208D-01 0.109D+00-0.479D+00 0.139D+01
 Coeff-En:   0.000D+00 0.000D+00 0.000D+00 0.000D+00 0.000D+00 0.100D+01
 Coeff:     -0.175D-02 0.329D-02-0.207D-01 0.108D+00-0.478D+00 0.139D+01
 Gap=     0.393 Goal=   None    Shift=    0.000
 RMSDP=1.67D-04 MaxDP=1.31D-03 DE=-1.92D-04 OVMax= 1.28D-03

 Cycle   7  Pass 1  IDiag  3:
 E=  2.04119970021333     Delta-E=       -0.000007256472 Rises=F Damp=F
 DIIS: error= 4.34D-05 at cycle   7 NSaved=   7.
 NSaved= 7 IEnMin= 7 EnMin=  2.04119970021333     IErMin= 7 ErrMin= 4.34D-05
 ErrMax= 4.34D-05  0.00D+00 EMaxC= 1.00D-01 BMatC= 3.81D-08 BMatP= 1.54D-06
 IDIUse=1 WtCom= 1.00D+00 WtEn= 0.00D+00
 Coeff-Com:  0.192D-03-0.349D-03 0.669D-02-0.392D-01 0.191D+00-0.636D+00
 Coeff-Com:  0.148D+01
 Coeff:      0.192D-03-0.349D-03 0.669D-02-0.392D-01 0.191D+00-0.636D+00
 Coeff:      0.148D+01
 Gap=     0.393 Goal=   None    Shift=    0.000
 RMSDP=2.41D-05 MaxDP=2.05D-04 DE=-7.26D-06 OVMax= 1.46D-04

 Cycle   8  Pass 1  IDiag  3:
 E=  2.04119953123157     Delta-E=       -0.000000168982 Rises=F Damp=F
 DIIS: error= 6.48D-06 at cycle   8 NSaved=   8.
 NSaved= 8 IEnMin= 8 EnMin=  2.04119953123157     IErMin= 8 ErrMin= 6.48D-06
 ErrMax= 6.48D-06  0.00D+00 EMaxC= 1.00D-01 BMatC= 9.32D-10 BMatP= 3.81D-08
 IDIUse=1 WtCom= 1.00D+00 WtEn= 0.00D+00
 Coeff-Com:  0.114D-04-0.461D-04-0.158D-02 0.104D-01-0.551D-01 0.191D+00
 Coeff-Com: -0.516D+00 0.137D+01
 Coeff:      0.114D-04-0.461D-04-0.158D-02 0.104D-01-0.551D-01 0.191D+00
 Coeff:     -0.516D+00 0.137D+01
 Gap=     0.393 Goal=   None    Shift=    0.000
 RMSDP=3.85D-06 MaxDP=3.06D-05 DE=-1.69D-07 OVMax= 2.62D-05

 Cycle   9  Pass 1  IDiag  3:
 E=  2.04119952674317     Delta-E=       -0.000000004488 Rises=F Damp=F
 DIIS: error= 1.22D-06 at cycle   9 NSaved=   9.
 NSaved= 9 IEnMin= 9 EnMin=  2.04119952674317     IErMin= 9 ErrMin= 1.22D-06
 ErrMax= 1.22D-06  0.00D+00 EMaxC= 1.00D-01 BMatC= 5.71D-11 BMatP= 9.32D-10
 IDIUse=1 WtCom= 1.00D+00 WtEn= 0.00D+00
 Coeff-Com:  0.112D-05 0.801D-05 0.178D-03-0.133D-02 0.812D-02-0.289D-01
 Coeff-Com:  0.837D-01-0.377D+00 0.132D+01
 Coeff:      0.112D-05 0.801D-05 0.178D-03-0.133D-02 0.812D-02-0.289D-01
 Coeff:      0.837D-01-0.377D+00 0.132D+01
 Gap=     0.393 Goal=   None    Shift=    0.000
 RMSDP=1.05D-06 MaxDP=8.72D-06 DE=-4.49D-09 OVMax= 8.87D-06

 Cycle  10  Pass 1  IDiag  3:
 E=  2.04119952642064     Delta-E=       -0.000000000323 Rises=F Damp=F
 DIIS: error= 4.40D-07 at cycle  10 NSaved=  10.
 NSaved=10 IEnMin=10 EnMin=  2.04119952642064     IErMin=10 ErrMin= 4.40D-07
 ErrMax= 4.40D-07  0.00D+00 EMaxC= 1.00D-01 BMatC= 5.66D-12 BMatP= 5.71D-11
 IDIUse=1 WtCom= 1.00D+00 WtEn= 0.00D+00
 Coeff-Com: -0.130D-05-0.457D-06-0.321D-04 0.246D-03-0.169D-02 0.586D-02
 Coeff-Com: -0.173D-01 0.108D+00-0.671D+00 0.158D+01
 Coeff:     -0.130D-05-0.457D-06-0.321D-04 0.246D-03-0.169D-02 0.586D-02
 Coeff:     -0.173D-01 0.108D+00-0.671D+00 0.158D+01
 Gap=     0.393 Goal=   None    Shift=    0.000
 RMSDP=4.19D-07 MaxDP=3.63D-06 DE=-3.23D-10 OVMax= 3.94D-06

 Cycle  11  Pass 1  IDiag  3:
 E=  2.04119952638455     Delta-E=       -0.000000000036 Rises=F Damp=F
 DIIS: error= 8.72D-08 at cycle  11 NSaved=  11.
 NSaved=11 IEnMin=11 EnMin=  2.04119952638455     IErMin=11 ErrMin= 8.72D-08
 ErrMax= 8.72D-08  0.00D+00 EMaxC= 1.00D-01 BMatC= 1.98D-13 BMatP= 5.66D-12
 IDIUse=1 WtCom= 1.00D+00 WtEn= 0.00D+00
 Coeff-Com: -0.361D-06 0.899D-06 0.225D-05-0.170D-04 0.171D-03-0.506D-03
 Coeff-Com:  0.186D-02-0.220D-01 0.193D+00-0.606D+00 0.143D+01
 Coeff:     -0.361D-06 0.899D-06 0.225D-05-0.170D-04 0.171D-03-0.506D-03
 Coeff:      0.186D-02-0.220D-01 0.193D+00-0.606D+00 0.143D+01
 Gap=     0.393 Goal=   None    Shift=    0.000
 RMSDP=7.13D-08 MaxDP=5.95D-07 DE=-3.61D-11 OVMax= 6.61D-07

 Cycle  12  Pass 1  IDiag  3:
 E=  2.04119952638355     Delta-E=       -0.000000000001 Rises=F Damp=F
 DIIS: error= 9.21D-09 at cycle  12 NSaved=  12.
 NSaved=12 IEnMin=12 EnMin=  2.04119952638355     IErMin=12 ErrMin= 9.21D-09
 ErrMax= 9.21D-09  0.00D+00 EMaxC= 1.00D-01 BMatC= 3.76D-15 BMatP= 1.98D-13
 IDIUse=1 WtCom= 1.00D+00 WtEn= 0.00D+00
 Coeff-Com:  0.732D-07-0.132D-06 0.214D-06-0.277D-05-0.261D-05-0.322D-04
 Coeff-Com: -0.459D-04 0.494D-02-0.539D-01 0.182D+00-0.510D+00 0.138D+01
 Coeff:      0.732D-07-0.132D-06 0.214D-06-0.277D-05-0.261D-05-0.322D-04
 Coeff:     -0.459D-04 0.494D-02-0.539D-01 0.182D+00-0.510D+00 0.138D+01
 Gap=     0.393 Goal=   None    Shift=    0.000
 RMSDP=8.11D-09 MaxDP=6.56D-08 DE=-9.95D-13 OVMax= 6.64D-08

 Cycle  13  Pass 2  IDiag  1:
 SCF Done:  E(RAM1) =   2.04119952638     A.U. after   13 cycles
            NFock= 12  Conv=0.81D-08     -V/T= 1.1315
 KE=-1.552315283456D+01 PE=-1.704667412628D+02 EE= 8.318962098581D+01
 Leave Link  502 at Tue Dec 15 17:07:21 2015, MaxMem=    33554432 cpu:         0.0
 (Enter /home/Applications/g09/g09/l801.exe)
 Range of M.O.s used for correlation:     1    24
 NBasis=    24 NAE=    13 NBE=    13 NFC=     0 NFV=     0
 NROrb=     24 NOA=    13 NOB=    13 NVA=    11 NVB=    11
 Leave Link  801 at Tue Dec 15 17:07:21 2015, MaxMem=    33554432 cpu:         0.0
 (Enter /home/Applications/g09/g09/l914.exe)
 RHF ground state
 MDV=    33554432 DFT=F DoStab=F Mixed=F DoRPA=F DoScal=F NonHer=F
 Making orbital integer symmetry assigments:
 Orbital symmetries:
       Occupied  (A) (A) (A) (A) (A) (A) (A) (A) (A) (A) (A) (A)
                 (A)
       Virtual   (A) (A) (A) (A) (A) (A) (A) (A) (A) (A) (A)
    60 initial guesses have been made.
 Convergence on wavefunction:    0.000001000000000
 Davidson Disk Diagonalization:  ConvIn= 1.00D-06 SkipCon=T Conv= 1.00D-06.
 Max sub-space:   240 roots to seek:    60 dimension of matrix:          286
 Iteration     1 Dimension    60 NMult     0 NNew     60
 CISAX will form    60 AO SS matrices at one time.
 NMat=    60 NSing=    60 JSym2X= 0.
 FoFJK:  IHMeth= 8 ICntrl=       0 DoSepK=F KAlg= 0 I1Cent=   0 FoldK=F
 IRaf=         1 NMat= 120 IRICut=       1 DoRegI=T DoRafI=F ISym2E= 0.
 FoFCou: FMM=F IPFlag=           0 FMFlag=      100000 FMFlg1=           0
         NFxFlg=           0 DoJE=F BraDBF=F KetDBF=F FulRan=T
         wScrn=  0.000000 ICntrl=       0 IOpCl=  0 I1Cent=           0 NGrid=           0
         NMat0=  120 NMatS0=     60 NMatT0=    0 NMatD0=  120 NMtDS0=    0 NMtDT0=    0
 Symmetry not used in FoFCou.
 New state      2 was old state      4
 New state      3 was old state      2
 New state      4 was old state      3
 New state      5 was old state      9
 New state      6 was old state      8
 New state      7 was old state      6
 New state      8 was old state      5
 New state      9 was old state      7
 New state     12 was old state     20
 New state     13 was old state     14
 New state     14 was old state     13
 New state     15 was old state     12
 Excitation Energies [eV] at current iteration:
 Root      1 :     5.303871639630274
 Root      2 :     6.487600631086803
 Root      3 :     6.616670061030406
 Root      4 :     6.798179647232311
 Root      5 :     7.764561873052206
 Root      6 :     7.947334126909800
 Root      7 :     8.549188686181628
 Root      8 :     8.561328009307442
 Root      9 :     8.871007083364407
 Root     10 :     9.580920331192907
 Root     11 :     9.718105523597709
 Root     12 :     9.778615088772355
 Root     13 :    10.132214492074840
 Root     14 :    10.198420496545930
 Root     15 :    10.409166770522260
 Root     16 :    10.430434302277190
 Root     17 :    10.478721949962190
 Root     18 :    10.700770356823730
 Root     19 :    10.802629324472300
 Root     20 :    11.312553890206660
 Root     21 :    11.526810776564850
 Root     22 :    11.605467954649310
 Root     23 :    11.757983622604000
 Root     24 :    12.098364775787660
 Root     25 :    12.353280654212390
 Root     26 :    12.362427050089310
 Root     27 :    12.577035741437330
 Root     28 :    12.776744550946480
 Root     29 :    12.817991042076250
 Root     30 :    12.844934946807490
 Root     31 :    12.913967676798410
 Root     32 :    13.071543424044250
 Root     33 :    13.437810658597480
 Root     34 :    13.611360724329240
 Root     35 :    13.887207037679560
 Root     36 :    13.943188493332750
 Root     37 :    14.241499249619720
 Root     38 :    14.256903781088720
 Root     39 :    14.359191266542830
 Root     40 :    14.836991656053630
 Root     41 :    14.920805221207760
 Root     42 :    14.943136688899570
 Root     43 :    15.047279597299100
 Root     44 :    15.132587135554650
 Root     45 :    15.342039272133520
 Root     46 :    15.359176927845700
 Root     47 :    15.635399872780790
 Root     48 :    15.665679392686430
 Root     49 :    15.733352445118750
 Root     50 :    15.782235107499760
 Root     51 :    16.082537375819550
 Root     52 :    16.521017223707120
 Root     53 :    17.003381153310460
 Root     54 :    17.231890823772430
 Root     55 :    17.369696496861620
 Root     56 :    17.516550418972700
 Root     57 :    17.532447590591200
 Root     58 :    17.603648720680940
 Root     59 :    17.980384537591010
 Root     60 :    18.283496183112150
 Iteration     2 Dimension   120 NMult    60 NNew     60
 CISAX will form    60 AO SS matrices at one time.
 NMat=    60 NSing=    60 JSym2X= 0.
 Root      1 not converged, maximum delta is    0.020545615997975
 Root      2 not converged, maximum delta is    0.025185260482069
 Root      3 not converged, maximum delta is    0.029997898800045
 Root      4 not converged, maximum delta is    0.029566010661080
 Root      5 not converged, maximum delta is    0.021983609106811
 Root      6 not converged, maximum delta is    0.019667783884107
 Root      7 not converged, maximum delta is    0.296702231157615
 Root      8 not converged, maximum delta is    0.246240998756940
 Root      9 not converged, maximum delta is    0.010002251491395
 Root     10 not converged, maximum delta is    0.135065308892817
 Root     11 not converged, maximum delta is    0.051105025868052
 Root     12 not converged, maximum delta is    0.108457494088130
 Root     13 not converged, maximum delta is    0.078512012441956
 Root     14 not converged, maximum delta is    0.056994716223270
 Root     15 not converged, maximum delta is    0.117527088140435
 Excitation Energies [eV] at current iteration:
 Root      1 :     5.235477513989221   Change is   -0.068394125641053
 Root      2 :     6.473677417237025   Change is   -0.013923213849778
 Root      3 :     6.585894360669467   Change is   -0.030775700360938
 Root      4 :     6.755449005050751   Change is   -0.042730642181560
 Root      5 :     7.743989664553211   Change is   -0.020572208498995
 Root      6 :     7.930427096432345   Change is   -0.016907030477455
 Root      7 :     8.533460251193500   Change is   -0.015728434988130
 Root      8 :     8.539159837035246   Change is   -0.022168172272196
 Root      9 :     8.862525033683925   Change is   -0.008482049680482
 Root     10 :     9.398789586611116   Change is   -0.182130744581792
 Root     11 :     9.652014645856793   Change is   -0.066090877740916
 Root     12 :     9.694415785116908   Change is   -0.084199303655448
 Root     13 :    10.078742040483760   Change is   -0.053472451591087
 Root     14 :    10.135620341942930   Change is   -0.062800154602998
 Root     15 :    10.278434040782270   Change is   -0.130732729739992
 Root     16 :    10.425598088514390   Change is   -0.004836213762804
 Root     17 :    10.452264583456760   Change is   -0.026457366505429
 Root     18 :    10.530669797183140   Change is   -0.170100559640591
 Root     19 :    10.633735673023620   Change is   -0.168893651448691
 Root     20 :    11.270649668067500   Change is   -0.256161108497347
 Root     21 :    11.285481119857080   Change is   -0.027072770349579
 Root     22 :    11.451971905868570   Change is   -0.153496048780738
 Root     23 :    11.535796523717360   Change is   -0.222187098886637
 Root     24 :    11.928447091925720   Change is   -0.433979958163598
 Root     25 :    12.048566329219070   Change is   -0.049798446568589
 Root     26 :    12.159306263634010   Change is   -0.193974390578378
 Root     27 :    12.405574546201900   Change is   -0.171461195235431
 Root     28 :    12.504922969072170   Change is   -0.340011977735325
 Root     29 :    12.649359313508110   Change is   -0.127385237438375
 Root     30 :    12.682243896706010   Change is   -0.231723780092402
 Root     31 :    12.793693241957020   Change is   -0.024297800119234
 Root     32 :    12.970916203984200   Change is   -0.100627220060045
 Root     33 :    13.209997186513710   Change is   -0.227813472083761
 Root     34 :    13.472698704829190   Change is   -0.138662019500044
 Root     35 :    13.678331040101340   Change is   -0.264857453231407
 Root     36 :    13.758298351391980   Change is   -0.128908686287578
 Root     37 :    14.114231853047810   Change is   -0.142671928040914
 Root     38 :    14.212493948225330   Change is   -0.029005301394391
 Root     39 :    14.232074636585760   Change is   -0.127116629957078
 Root     40 :    14.664283279766010   Change is   -0.172708376287620
 Root     41 :    14.767445307973880   Change is   -0.175691380925688
 Root     42 :    14.772997771021280   Change is   -0.147807450186478
 Root     43 :    14.943314761289530   Change is   -0.103964836009574
 Root     44 :    15.043150457039700   Change is   -0.298888815093815
 Root     45 :    15.104231927498490   Change is   -0.028355208056159
 Root     46 :    15.177468557418000   Change is   -0.181708370427695
 Root     47 :    15.233741735217770   Change is   -0.431937657468655
 Root     48 :    15.428984731496990   Change is   -0.304367713621758
 Root     49 :    15.565181452420370   Change is   -0.070218420360423
 Root     50 :    15.724714804306780   Change is   -0.057520303192984
 Root     51 :    15.901931273115600   Change is   -0.180606102703953
 Root     52 :    16.334348468751100   Change is   -0.186668754956024
 Root     53 :    16.782614634998560   Change is   -0.220766518311906
 Root     54 :    17.023568415014080   Change is   -0.346128081847539
 Root     55 :    17.180946433654140   Change is   -0.335603985318564
 Root     56 :    17.224440260534290   Change is   -0.007450563238144
 Root     57 :    17.266511920288360   Change is   -0.337136800392579
 Root     58 :    17.345609941936510   Change is   -0.186837648654699
 Root     59 :    17.464903051291120
 Root     60 :    17.784047221128290   Change is   -0.196337316462721
 Iteration     3 Dimension   135 NMult   120 NNew     15
 CISAX will form    15 AO SS matrices at one time.
 NMat=    15 NSing=    15 JSym2X= 0.
 Root      1 not converged, maximum delta is    0.001228086487890
 Root      2 not converged, maximum delta is    0.000057534410974
 Root      3 not converged, maximum delta is    0.000070953339853
 Root      4 not converged, maximum delta is    0.000065733801028
 Root      5 not converged, maximum delta is    0.000063187288794
 Root      6 not converged, maximum delta is    0.000104698272254
 Root      7 not converged, maximum delta is    0.003931077680539
 Root      8 not converged, maximum delta is    0.004819462278673
 Root      9 not converged, maximum delta is    0.000042086188572
 Root     10 not converged, maximum delta is    0.001395555772001
 Root     11 not converged, maximum delta is    0.000173756899597
 Root     12 not converged, maximum delta is    0.001223575143564
 Root     13 not converged, maximum delta is    0.000334866209460
 Root     14 not converged, maximum delta is    0.000214137800727
 Root     15 not converged, maximum delta is    0.001892800175710
 Excitation Energies [eV] at current iteration:
 Root      1 :     5.235129671042706   Change is   -0.000347842946516
 Root      2 :     6.473676192819561   Change is   -0.000001224417464
 Root      3 :     6.585893344993154   Change is   -0.000001015676314
 Root      4 :     6.755448321036772   Change is   -0.000000684013980
 Root      5 :     7.743988464453063   Change is   -0.000001200100148
 Root      6 :     7.930424774418873   Change is   -0.000002322013473
 Root      7 :     8.533404787492133   Change is   -0.000055463701366
 Root      8 :     8.539108214461411   Change is   -0.000051622573835
 Root      9 :     8.862524575131477   Change is   -0.000000458552447
 Root     10 :     9.398179320842033   Change is   -0.000610265769082
 Root     11 :     9.652003502165377   Change is   -0.000011143691415
 Root     12 :     9.694105625565490   Change is   -0.000310159551418
 Root     13 :    10.078721377161320   Change is   -0.000020663322440
 Root     14 :    10.135612267068020   Change is   -0.000008074874911
 Root     15 :    10.277719472536870   Change is   -0.000714568245397
 Iteration     4 Dimension   143 NMult   135 NNew      8
 CISAX will form     8 AO SS matrices at one time.
 NMat=     8 NSing=     8 JSym2X= 0.
 Root      1 not converged, maximum delta is    0.000055704147924
 Root      2 not converged, maximum delta is    0.000001616212096
 Root      3 not converged, maximum delta is    0.000003514342327
 Root      4 not converged, maximum delta is    0.000004283840955
 Root      5 not converged, maximum delta is    0.000001152373930
 Root      6 not converged, maximum delta is    0.000002734217479
 Root      7 not converged, maximum delta is    0.000019718269908
 Root      8 not converged, maximum delta is    0.000017179443615
 Root      9 not converged, maximum delta is    0.000003479356149
 Root     10 not converged, maximum delta is    0.000065476413728
 Root     11 not converged, maximum delta is    0.000013285207319
 Root     12 not converged, maximum delta is    0.000079867240084
 Root     13 not converged, maximum delta is    0.000017589641860
 Root     14 not converged, maximum delta is    0.000015080481956
 Root     15 not converged, maximum delta is    0.000057674213026
 Excitation Energies [eV] at current iteration:
 Root      1 :     5.235128841127779   Change is   -0.000000829914926
 Root      2 :     6.473676191874646   Change is   -0.000000000944915
 Root      3 :     6.585893342605325   Change is   -0.000000002387828
 Root      4 :     6.755448317830393   Change is   -0.000000003206378
 Root      5 :     7.743988464164201   Change is   -0.000000000288861
 Root      6 :     7.930424771171687   Change is   -0.000000003247186
 Root      7 :     8.533404685707207   Change is   -0.000000101784925
 Root      8 :     8.539108122228976   Change is   -0.000000092232435
 Root      9 :     8.862524573680119   Change is   -0.000000001451359
 Root     10 :     9.398178692717115   Change is   -0.000000628124918
 Root     11 :     9.652003487940465   Change is   -0.000000014224911
 Root     12 :     9.694104613540917   Change is   -0.000001012024573
 Root     13 :    10.078721329937030   Change is   -0.000000047224286
 Root     14 :    10.135612233729260   Change is   -0.000000033338761
 Root     15 :    10.277718144437170   Change is   -0.000001328099698
 Convergence achieved on expansion vectors.
 ***********************************************************************
 Excited states from <AA,BB:AA,BB> singles matrix:
 ***********************************************************************
 
 1PDM for each excited state written to RWF  633
 Ground to excited state transition densities written to RWF  633
 Ground to excited state transition electric dipole moments (Au):
       state          X           Y           Z        Dip. S.      Osc.
         1        -1.6318      0.4507      0.0687      2.8705      0.3682
         2         0.0090     -0.0197      0.0610      0.0042      0.0007
         3        -0.0631      0.0025      0.1847      0.0381      0.0061
         4        -0.0420      0.0195      0.2071      0.0450      0.0075
         5         0.0101     -0.0107     -0.0289      0.0011      0.0002
         6        -0.0208      0.0561     -0.1851      0.0378      0.0074
         7        -0.2002     -0.5868     -0.2393      0.4416      0.0923
         8        -0.1838     -0.4633      0.2389      0.3056      0.0639
         9         0.0142     -0.0188     -0.1474      0.0223      0.0048
        10        -0.7657     -0.1075      0.0230      0.5984      0.1378
        11        -0.1025      0.0074      0.2746      0.0860      0.0203
        12        -0.3786      0.0346     -0.0167      0.1448      0.0344
        13         0.0030     -0.0069     -0.2394      0.0574      0.0142
        14        -0.0758     -0.0034      0.3394      0.1209      0.0300
        15         0.4627     -0.3342      0.0767      0.3317      0.0835
 Ground to excited state transition velocity dipole moments (Au):
       state          X           Y           Z        Dip. S.      Osc.
         1         0.1758     -0.0497     -0.0024      0.0334      0.1157
         2         0.0001      0.0067     -0.0166      0.0003      0.0009
         3         0.0075      0.0052     -0.1192      0.0143      0.0394
         4         0.0068     -0.0035     -0.1266      0.0161      0.0432
         5        -0.0028      0.0031      0.0184      0.0004      0.0008
         6         0.0091     -0.0103      0.0087      0.0003      0.0006
         7         0.0584      0.1738      0.0200      0.0340      0.0723
         8         0.0575      0.1445     -0.0172      0.0245      0.0520
         9        -0.0012      0.0044     -0.0105      0.0001      0.0003
        10         0.1367      0.0198     -0.0135      0.0192      0.0372
        11         0.0112     -0.0004      0.0386      0.0016      0.0030
        12         0.0460     -0.0389      0.0132      0.0038      0.0071
        13         0.0004      0.0033     -0.0671      0.0045      0.0081
        14         0.0085      0.0019      0.0349      0.0013      0.0023
        15        -0.0895      0.0496      0.0042      0.0105      0.0185
 Ground to excited state transition magnetic dipole moments (Au):
       state          X           Y           Z
         1        -0.0303     -0.0105     -0.5018
         2        -0.4546     -0.8334      0.0002
         3        -0.0992      0.0379     -0.0246
         4        -0.2144      0.0228     -0.0280
         5        -0.2747     -0.5858      0.0009
         6         0.7757     -0.5172     -0.0142
         7         0.3204     -0.1168      0.0282
         8        -0.2929      0.1131     -0.0078
         9         0.2428      0.1193      0.0062
        10        -0.0240      0.0136     -0.2358
        11         0.1553      0.1042     -0.0249
        12         0.0054      0.0237     -0.1879
        13        -0.1502     -0.1339     -0.0065
        14         0.1214     -0.3218     -0.0448
        15        -0.0008     -0.0071      0.0554
 Ground to excited state transition velocity quadrupole moments (Au):
       state          XX          YY          ZZ          XY          XZ          YZ
         1         0.1881     -0.1609     -0.0012      0.2640     -0.0002     -0.0054
         2         0.0232      0.0342      0.0080      0.0018     -0.1770      0.0635
         3        -0.0032      0.0131     -0.0009      0.0095      0.0889     -0.1464
         4         0.0212     -0.0161     -0.0044     -0.0037     -0.0802     -0.0868
         5         0.0034      0.0024     -0.0089     -0.0121      0.4012     -0.1136
         6         0.0259     -0.0165     -0.0026      0.0101     -0.0672     -0.1386
         7        -0.0951      0.1688     -0.0191      0.1488     -0.0113      0.0875
         8        -0.0994      0.1389     -0.0124      0.1415     -0.0316     -0.0986
         9        -0.0104      0.0147     -0.0064      0.0065     -0.0047      0.0592
        10         0.1076      0.0011      0.0053      0.2353      0.0012     -0.0338
        11         0.0270     -0.0005     -0.0144      0.0130     -0.2151      0.1619
        12        -0.2244     -0.3424     -0.0481      0.1208     -0.0169     -0.0098
        13        -0.0299     -0.0416     -0.0072      0.0163      0.1404     -0.1053
        14         0.0018     -0.0115      0.0133     -0.0019      0.3886      0.0529
        15        -0.2651     -0.0893     -0.0121     -0.0794     -0.0157      0.0075
 <0|del|b> * <b|rxdel|0> + <0|del|b> * <b|delr+rdel|0>
 Rotatory Strengths (R) in cgs (10**-40 erg-esu-cm/Gauss)
       state          XX          YY          ZZ    R(velocity)    E-M Angle
         1         1.9987     -8.1116     -7.0634     -4.3921       92.24
         2        -6.5510     -0.0391    -10.1129     -5.5677      109.36
         3         2.2497      3.2590      1.4727      2.3271       79.44
         4         5.1819      1.4747     -0.9418      1.9049       85.83
         5        -4.0623      1.6482     -0.1509     -0.8550       94.86
         6         5.5609      6.7953     17.4015      9.9193       36.01
         7       -16.6833     24.1525     -9.7717     -0.7675       90.93
         8        20.9696    -22.4524      0.6807     -0.2674       90.41
         9         0.4503     -0.3909      0.3106      0.1233       86.85
        10         0.2582     -1.5481      1.6715      0.1272       89.68
        11        -0.5833      2.0844     -0.0296      0.4905       84.42
        12        -2.4434     -4.2403      0.4312     -2.0842      105.63
        13        -1.4943      1.3739      0.0050     -0.0385       90.00
        14        -2.8082     -0.0163      0.6709     -0.7179       95.22
        15         0.3032     -0.0281     -0.3618     -0.0289       90.00
 1/2[<0|r|b>*<b|rxdel|0> + (<0|rxdel|b>*<b|r|0>)*]
 Rotatory Strengths (R) in cgs (10**-40 erg-esu-cm/Gauss)
       state          XX          YY          ZZ     R(length)
         1       -34.9583      3.3474     24.3922     -2.4062
         2         2.8998    -11.6354     -0.0088     -2.9148
         3        -4.4233     -0.0680      3.2194     -0.4240
         4        -6.3741     -0.3132      4.0936     -0.8645
         5         1.9615     -4.4332      0.0174     -0.8181
         6        11.3938     20.5079     -1.8638     10.0126
         7        45.3519    -48.4712      4.7801      0.5536
         8       -38.0699     37.0539      1.3255      0.1032
         9        -2.4373      1.5883      0.6496     -0.0665
        10       -12.9865      1.0358      3.8384     -2.7041
        11        11.2603     -0.5420      4.8399      5.1861
        12         1.4466     -0.5784     -2.2185     -0.4501
        13         0.3196     -0.6550     -1.1014     -0.4790
        14         6.5075     -0.7688     10.7464      5.4950
        15         0.2655     -1.6780     -3.0019     -1.4715
  1/2[<0|del|b>*<b|r|0> + (<0|r|b>*<b|del|0>)*] (Au)
       state          X           Y           Z        Dip. S.   Osc.(frdel)
         1        -0.2868     -0.0224     -0.0002      0.3094      0.2063
         2         0.0000     -0.0001     -0.0010      0.0011      0.0008
         3        -0.0005      0.0000     -0.0220      0.0225      0.0150
         4        -0.0003     -0.0001     -0.0262      0.0266      0.0177
         5         0.0000      0.0000     -0.0005      0.0006      0.0004
         6        -0.0002     -0.0006     -0.0016      0.0024      0.0016
         7        -0.0117     -0.1020     -0.0048      0.1185      0.0790
         8        -0.0106     -0.0670     -0.0041      0.0816      0.0544
         9         0.0000     -0.0001      0.0015     -0.0014     -0.0010
        10        -0.1046     -0.0021     -0.0003      0.1071      0.0714
        11        -0.0011      0.0000      0.0106     -0.0095     -0.0063
        12        -0.0174     -0.0013     -0.0002      0.0190      0.0127
        13         0.0000      0.0000      0.0161     -0.0161     -0.0107
        14        -0.0006      0.0000      0.0118     -0.0112     -0.0075
        15        -0.0414     -0.0166      0.0003      0.0577      0.0384

 Excitation energies and oscillator strengths:
 
 Excited State   1:      Singlet-A      5.2351 eV  236.83 nm  f=0.3682  <S**2>=0.000
      13 -> 14         0.69672
 This state for optimization and/or second-order correction.
 Total Energy, E(CIS) =   2.23358697966    
 Copying the excited state density for this state as the 1-particle RhoCI density.
 
 Excited State   2:      Singlet-A      6.4737 eV  191.52 nm  f=0.0007  <S**2>=0.000
      12 -> 14         0.69734
 
 Excited State   3:      Singlet-A      6.5859 eV  188.26 nm  f=0.0061  <S**2>=0.000
      13 -> 15         0.64001
      13 -> 17         0.10548
      13 -> 18         0.24044
 
 Excited State   4:      Singlet-A      6.7554 eV  183.53 nm  f=0.0075  <S**2>=0.000
      13 -> 15         0.10777
      13 -> 16         0.60242
      13 -> 17         0.24010
      13 -> 18        -0.23001
 
 Excited State   5:      Singlet-A      7.7440 eV  160.10 nm  f=0.0002  <S**2>=0.000
      13 -> 15         0.11163
      13 -> 16        -0.25547
      13 -> 17         0.13959
      13 -> 18        -0.37661
      13 -> 19         0.47593
      13 -> 20         0.11520
 
 Excited State   6:      Singlet-A      7.9304 eV  156.34 nm  f=0.0074  <S**2>=0.000
      10 -> 14         0.69362
 
 Excited State   7:      Singlet-A      8.5334 eV  145.29 nm  f=0.0923  <S**2>=0.000
      11 -> 14         0.53489
      13 -> 15         0.12618
      13 -> 17        -0.36308
      13 -> 18        -0.19042
 
 Excited State   8:      Singlet-A      8.5391 eV  145.20 nm  f=0.0639  <S**2>=0.000
      11 -> 14         0.43543
      13 -> 15        -0.15280
      13 -> 17         0.43168
      13 -> 18         0.24439
 
 Excited State   9:      Singlet-A      8.8625 eV  139.90 nm  f=0.0048  <S**2>=0.000
      11 -> 16        -0.14016
      13 -> 16         0.18596
      13 -> 17        -0.26121
      13 -> 18         0.34529
      13 -> 19         0.49333
 
 Excited State  10:      Singlet-A      9.3982 eV  131.92 nm  f=0.1378  <S**2>=0.000
      10 -> 15         0.13373
      10 -> 17         0.13993
      12 -> 15         0.28017
      12 -> 16        -0.35009
      12 -> 17        -0.13884
      12 -> 18         0.35231
      12 -> 19        -0.22000
 
 Excited State  11:      Singlet-A      9.6520 eV  128.45 nm  f=0.0203  <S**2>=0.000
      13 -> 18         0.12652
      13 -> 20         0.67272
 
 Excited State  12:      Singlet-A      9.6941 eV  127.90 nm  f=0.0344  <S**2>=0.000
      10 -> 15        -0.17725
      10 -> 18        -0.10743
      12 -> 15         0.56230
      12 -> 16         0.17053
      12 -> 17         0.24358
      12 -> 19         0.10815
 
 Excited State  13:      Singlet-A     10.0787 eV  123.02 nm  f=0.0142  <S**2>=0.000
      11 -> 15         0.48969
      11 -> 16         0.23989
      11 -> 17         0.13492
      13 -> 21        -0.34911
 
 Excited State  14:      Singlet-A     10.1356 eV  122.33 nm  f=0.0300  <S**2>=0.000
      11 -> 15         0.27623
      11 -> 16         0.18375
      13 -> 21         0.59232
 
 Excited State  15:      Singlet-A     10.2777 eV  120.63 nm  f=0.0835  <S**2>=0.000
       8 -> 16        -0.17554
      12 -> 16         0.46346
      12 -> 18         0.13502
      12 -> 19        -0.40313
 SavETr:  write IOETrn=   770 NScale= 10 NData=  16 NLR=1 NState=   15 LETran=     280.
 The selected state is a singlet
 CISAX will form     1 AO SS matrices at one time.
 NMat=     1 NSing=     1 JSym2X= 0.
 Leave Link  914 at Tue Dec 15 17:07:21 2015, MaxMem=    33554432 cpu:         0.1
 (Enter /home/Applications/g09/g09/l1002.exe)
 Minotr:  Closed shell wavefunction.
          Computing CIS/TD-HF/TD-KS derivatives.
          Using Z-Vector for PSCF gradient.
          Skipping F1 and S1 gradient terms here.
          IDoAtm=111111111
          Direct CPHF calculation.
          Differentiating once with respect to electric field.
                with respect to dipole field.
          Differentiating once with respect to nuclear coordinates.
          Electric field/nuclear overlap derivatives assumed to be zero.
          Requested convergence is 1.0D-10 RMS, and 1.0D-09 maximum.
          NewPWx=T KeepS1=F KeepF1=F KeepIn=T MapXYZ=F SortEE=F KeepMc=T.
          MDV=      33495423 using IRadAn=       0.
 Keep J ints in memory in canonical form, NReq=871704.
 FoFCou: FMM=F IPFlag=           0 FMFlag=           0 FMFlg1=           0
         NFxFlg=           0 DoJE=F BraDBF=F KetDBF=F FulRan=T
         wScrn=  0.000000 ICntrl=     600 IOpCl=  2 I1Cent=           0 NGrid=           0
         NMat0=    1 NMatS0=     54 NMatT0=    0 NMatD0=    1 NMtDS0=    0 NMtDT0=    0
 Symmetry not used in FoFCou.
          Solving linear equations separately, MaxMat=       0.
          There are     1 degrees of freedom in the 1st order CPHF.  IDoFFX=0 NUNeed=     1.
 LinEq1:  Iter=  0 NonCon=     1 RMS=5.41D-03 Max=3.45D-02 NDo=     1
 AX will form     1 AO Fock derivatives at one time.
 LinEq1:  Iter=  1 NonCon=     1 RMS=4.53D-04 Max=1.20D-03 NDo=     1
 LinEq1:  Iter=  2 NonCon=     1 RMS=6.93D-05 Max=6.02D-04 NDo=     1
 LinEq1:  Iter=  3 NonCon=     1 RMS=8.38D-06 Max=4.09D-05 NDo=     1
 LinEq1:  Iter=  4 NonCon=     1 RMS=1.55D-06 Max=7.69D-06 NDo=     1
 LinEq1:  Iter=  5 NonCon=     1 RMS=1.73D-07 Max=6.14D-07 NDo=     1
 LinEq1:  Iter=  6 NonCon=     1 RMS=2.23D-08 Max=6.58D-08 NDo=     1
 LinEq1:  Iter=  7 NonCon=     1 RMS=2.70D-09 Max=8.87D-09 NDo=     1
 LinEq1:  Iter=  8 NonCon=     1 RMS=3.08D-10 Max=1.02D-09 NDo=     1
 LinEq1:  Iter=  9 NonCon=     0 RMS=3.54D-11 Max=1.18D-10 NDo=     1
 Linear equations converged to 1.000D-10 1.000D-09 after     9 iterations.
 End of Minotr F.D. properties file   721 does not exist.
 End of Minotr F.D. properties file   722 does not exist.
 End of Minotr F.D. properties file   788 does not exist.
 Leave Link 1002 at Tue Dec 15 17:07:21 2015, MaxMem=    33554432 cpu:         0.0
 (Enter /home/Applications/g09/g09/l601.exe)
 Copying SCF densities to generalized density rwf, IOpCl= 0 IROHF=0.

 **********************************************************************

            Population analysis using the SCF density.

 **********************************************************************

 Orbital symmetries:
       Occupied  (A) (A) (A) (A) (A) (A) (A) (A) (A) (A) (A) (A)
                 (A)
       Virtual   (A) (A) (A) (A) (A) (A) (A) (A) (A) (A) (A)
 The electronic state is 1-A.
 Alpha  occ. eigenvalues --   -1.96395  -1.19240  -0.96212  -0.83689  -0.77425
 Alpha  occ. eigenvalues --   -0.69188  -0.66537  -0.55458  -0.53537  -0.46377
 Alpha  occ. eigenvalues --   -0.44777  -0.41649  -0.30049
 Alpha virt. eigenvalues --    0.09294   0.16905   0.18633   0.24772   0.25481
 Alpha virt. eigenvalues --    0.27734   0.29922   0.31271   0.39517   0.47679
 Alpha virt. eigenvalues --    0.52963
     Molecular Orbital Coefficients:
                           1         2         3         4         5
                           O         O         O         O         O
     Eigenvalues --    -1.96395  -1.19240  -0.96212  -0.83689  -0.77425
   1 1   C  1S          0.07447   0.45908  -0.26442  -0.31593  -0.18819
   2        1PX        -0.07628  -0.18865  -0.11241  -0.21856   0.07436
   3        1PY        -0.07459  -0.06185   0.14836   0.03944  -0.39658
   4        1PZ         0.00114   0.00504  -0.00529  -0.00829  -0.00351
   5 2   C  1S          0.23109   0.22684  -0.49385   0.10333   0.44514
   6        1PX        -0.25291  -0.03765   0.00865  -0.31389   0.05030
   7        1PY        -0.03697   0.30570   0.05199  -0.39839  -0.13074
   8        1PZ         0.00519   0.00281  -0.01190   0.00285   0.01039
   9 3   O  1S          0.82950  -0.28423  -0.03587   0.02669  -0.27305
  10        1PX         0.00934   0.05259  -0.25091   0.26835   0.06534
  11        1PY         0.05931   0.16157   0.08984  -0.08933   0.14001
  12        1PZ        -0.00112  -0.00095   0.00068  -0.00073  -0.00040
  13 4   C  1S          0.26422   0.24818   0.55676  -0.11965   0.33458
  14        1PX         0.19613   0.21338  -0.09364  -0.01302  -0.09473
  15        1PY        -0.19596   0.26374  -0.05056   0.52690  -0.06896
  16        1PZ         0.00699   0.00469   0.01885  -0.01004   0.01695
  17 5   C  1S          0.08599   0.48881   0.21768   0.27629  -0.22154
  18        1PX         0.02004   0.11500  -0.24989  -0.21302  -0.23653
  19        1PY        -0.11806  -0.15219  -0.09065   0.07122  -0.30481
  20        1PZ        -0.00106  -0.00882  -0.00314  -0.01165   0.00906
  21 6   H  1S          0.00580   0.14464   0.09195   0.17681  -0.20112
  22 7   H  1S          0.04918   0.02541   0.26114  -0.05124   0.18755
  23 8   H  1S          0.04083   0.01914  -0.20855   0.04175   0.24416
  24 9   H  1S          0.00628   0.14064  -0.12814  -0.21769  -0.16197
                           6         7         8         9        10
                           O         O         O         O         O
     Eigenvalues --    -0.69188  -0.66537  -0.55458  -0.53537  -0.46377
   1 1   C  1S         -0.20492  -0.04512  -0.13494  -0.05410   0.11124
   2        1PX        -0.23015  -0.04562  -0.03201   0.19325   0.38450
   3        1PY        -0.10107  -0.00862   0.07502  -0.29985   0.42502
   4        1PZ        -0.07134   0.33071  -0.00016  -0.01958   0.03500
   5 2   C  1S         -0.14877  -0.04621  -0.01660  -0.16065  -0.10263
   6        1PX        -0.35712  -0.07337   0.53525   0.33370  -0.16967
   7        1PY         0.15410   0.02652  -0.32486   0.38187  -0.32662
   8        1PZ        -0.10693   0.50485   0.00382  -0.02056   0.03495
   9 3   O  1S         -0.18226  -0.03140  -0.02477   0.28860  -0.05490
  10        1PX         0.04148   0.01345  -0.14373  -0.05493   0.07927
  11        1PY         0.20414   0.04019   0.04867  -0.11082   0.03790
  12        1PZ        -0.05729   0.25559   0.00044   0.01006  -0.01198
  13 4   C  1S         -0.10366  -0.04034   0.06788  -0.12330   0.14756
  14        1PX         0.48128   0.09621   0.54463   0.11998   0.18418
  15        1PY        -0.13493  -0.00803  -0.14286   0.50474   0.20706
  16        1PZ        -0.12368   0.62152   0.00626   0.00710  -0.06526
  17 5   C  1S         -0.16804  -0.02412   0.17339  -0.05038  -0.11768
  18        1PX         0.13600   0.03119  -0.02543  -0.31458  -0.07933
  19        1PY        -0.21668  -0.05457   0.07361  -0.24748  -0.36395
  20        1PZ        -0.06845   0.37790  -0.00335  -0.00623  -0.01185
  21 6   H  1S         -0.21169  -0.05558   0.13079  -0.11439  -0.26226
  22 7   H  1S         -0.28784  -0.05809  -0.26583  -0.14421  -0.04702
  23 8   H  1S         -0.25545  -0.05238   0.33201  -0.06856  -0.00830
  24 9   H  1S         -0.24047  -0.03799  -0.05800  -0.03941   0.41615
                          11        12        13        14        15
                           O         O         O         V         V
     Eigenvalues --    -0.44777  -0.41649  -0.30049   0.09294   0.16905
   1 1   C  1S         -0.02033  -0.07547  -0.01391  -0.01159  -0.12294
   2        1PX        -0.02617   0.45248  -0.00509  -0.01187   0.09594
   3        1PY        -0.04095  -0.10725  -0.02916  -0.02630   0.04914
   4        1PZ         0.26212   0.00071   0.59227   0.67972  -0.00125
   5 2   C  1S         -0.00881   0.12428   0.00245  -0.00250  -0.02229
   6        1PX         0.01897  -0.25987   0.00596   0.00410   0.03981
   7        1PY         0.04325   0.17255   0.00321  -0.00972   0.08245
   8        1PZ         0.71400   0.00751  -0.35395  -0.21651  -0.00049
   9 3   O  1S          0.00743  -0.10120   0.00375   0.00030   0.02098
  10        1PX        -0.00813   0.04279  -0.00335  -0.00078   0.06881
  11        1PY        -0.00075   0.15357  -0.00594   0.00089   0.10283
  12        1PZ         0.00668  -0.00130  -0.20224   0.00557  -0.00313
  13 4   C  1S          0.00558   0.05417   0.00053  -0.00335  -0.10613
  14        1PX        -0.01171   0.22406  -0.00339   0.00250   0.42308
  15        1PY        -0.01162  -0.14400  -0.00214   0.00583   0.22546
  16        1PZ        -0.62229   0.01964  -0.31755   0.21463  -0.01099
  17 5   C  1S          0.00326  -0.02146   0.02617  -0.02453  -0.16479
  18        1PX        -0.00566  -0.44648  -0.01047   0.01303   0.22982
  19        1PY         0.02026   0.41599   0.00817  -0.00330   0.22171
  20        1PZ        -0.16386   0.00004   0.61652  -0.66520   0.01184
  21 6   H  1S          0.02047   0.34885   0.00007   0.01761  -0.02642
  22 7   H  1S         -0.00237  -0.11606  -0.00408   0.00697   0.75528
  23 8   H  1S         -0.00012  -0.13754  -0.00411  -0.01023   0.06539
  24 9   H  1S         -0.03136   0.16852   0.00172   0.01188  -0.05224
                          16        17        18        19        20
                           V         V         V         V         V
     Eigenvalues --     0.18633   0.24772   0.25481   0.27734   0.29922
   1 1   C  1S         -0.11438  -0.06322  -0.16383   0.43039   0.15673
   2        1PX        -0.12377  -0.10638   0.41100  -0.30137  -0.15843
   3        1PY         0.37314   0.38202  -0.25719  -0.33165   0.10714
   4        1PZ         0.01877   0.01343  -0.00735  -0.00554  -0.00152
   5 2   C  1S         -0.06311   0.40258  -0.18398  -0.33231  -0.01344
   6        1PX        -0.20370   0.23265  -0.11973  -0.10264   0.06071
   7        1PY         0.44654   0.11609  -0.01302  -0.23660  -0.04101
   8        1PZ        -0.01598  -0.00143  -0.00275   0.00309  -0.00223
   9 3   O  1S          0.02034   0.04477   0.01508  -0.00972   0.01665
  10        1PX        -0.00672   0.01117   0.02826   0.00191   0.02716
  11        1PY         0.10553   0.03973   0.02178  -0.02583   0.06957
  12        1PZ        -0.00328   0.00382   0.00528  -0.00132   0.00754
  13 4   C  1S          0.01865   0.35093   0.35494   0.21913   0.07449
  14        1PX        -0.07850  -0.02041  -0.11392   0.08809   0.00349
  15        1PY         0.04396   0.23533   0.22064   0.15134   0.12231
  16        1PZ         0.00442   0.00364   0.00399   0.00335  -0.00617
  17 5   C  1S         -0.11913  -0.22575   0.01038  -0.29268  -0.56159
  18        1PX        -0.13881   0.05666   0.60840  -0.18632   0.03380
  19        1PY         0.06138   0.35305   0.11705   0.40007  -0.28334
  20        1PZ        -0.00552   0.00384   0.00695   0.00842   0.03541
  21 6   H  1S         -0.07237  -0.23710   0.10849  -0.22011   0.70833
  22 7   H  1S         -0.11623  -0.20971  -0.25351  -0.04632  -0.02823
  23 8   H  1S          0.71388  -0.35447   0.17334   0.13354  -0.03482
  24 9   H  1S         -0.03446  -0.14672  -0.10199   0.09262  -0.07088
                          21        22        23        24
                           V         V         V         V
     Eigenvalues --     0.31271   0.39517   0.47679   0.52963
   1 1   C  1S         -0.46950   0.00703   0.07035  -0.01776
   2        1PX        -0.35163   0.00487   0.03482  -0.01516
   3        1PY        -0.17939   0.00045  -0.00059   0.03449
   4        1PZ        -0.02951   0.02824  -0.00023   0.00108
   5 2   C  1S          0.04431  -0.00050  -0.14601  -0.17805
   6        1PX         0.07880  -0.00369   0.19826   0.18630
   7        1PY         0.06458  -0.00835  -0.09844   0.14491
   8        1PZ         0.00004  -0.22230   0.00184  -0.00575
   9 3   O  1S          0.02050  -0.00089   0.13870  -0.00607
  10        1PX         0.02206   0.00780   0.28835   0.85674
  11        1PY         0.08454   0.03068   0.85501  -0.28865
  12        1PZ         0.01108   0.94281  -0.03192   0.00210
  13 4   C  1S          0.03490  -0.00186  -0.15397   0.19021
  14        1PX        -0.04530  -0.00113  -0.22344   0.06005
  15        1PY         0.05640  -0.01034   0.02198  -0.22675
  16        1PZ        -0.00347  -0.24177   0.00203   0.00537
  17 5   C  1S         -0.06777   0.00875   0.07285   0.02011
  18        1PX         0.11982  -0.00690  -0.02938  -0.03179
  19        1PY         0.02763   0.00408   0.03392  -0.02389
  20        1PZ         0.00968   0.03010  -0.00355  -0.00139
  21 6   H  1S          0.05103  -0.00794  -0.05269   0.00633
  22 7   H  1S         -0.03335   0.00196  -0.03373   0.00996
  23 8   H  1S         -0.03189   0.00128  -0.03647  -0.00915
  24 9   H  1S          0.75588  -0.00677  -0.04868  -0.00468
     Density Matrix:
                           1         2         3         4         5
   1 1   C  1S          1.01058
   2        1PX         0.08961   1.10812
   3        1PY         0.14560   0.08398   0.98148
   4        1PZ        -0.00375   0.00512  -0.00621   1.07139
   5 2   C  1S          0.31674   0.05686  -0.54260  -0.00858   1.26799
   6        1PX         0.07556   0.09462  -0.15645  -0.00224  -0.20463
   7        1PY         0.42887   0.03104  -0.57233  -0.00547  -0.17951
   8        1PZ        -0.00913  -0.00400   0.00340   0.30752  -0.00272
   9 3   O  1S          0.02310   0.00214  -0.04575  -0.00081   0.00352
  10        1PX         0.02634  -0.00466  -0.05119   0.00084   0.39296
  11        1PY         0.01043  -0.00570  -0.08878  -0.00146   0.11808
  12        1PZ         0.00131  -0.00113   0.00330  -0.06008  -0.01093
  13 4   C  1S         -0.01198   0.00454   0.03939   0.00371   0.01296
  14        1PX        -0.03965   0.02848   0.01115  -0.00238   0.00227
  15        1PY         0.04103  -0.00221  -0.01088  -0.00563  -0.06813
  16        1PZ         0.00415   0.00580   0.01049  -0.27855   0.00431
  17 5   C  1S          0.26119  -0.46158   0.18220   0.03417  -0.01209
  18        1PX         0.49697  -0.58239   0.26566   0.00104   0.01758
  19        1PY        -0.08383   0.11914   0.06038   0.00002   0.03365
  20        1PZ        -0.02025  -0.00132  -0.02986   0.90360   0.00017
  21 6   H  1S          0.00603  -0.02045   0.01453  -0.01019   0.07568
  22 7   H  1S          0.07217  -0.06746   0.00534  -0.00402   0.05972
  23 8   H  1S          0.06194  -0.00469  -0.09455  -0.00123   0.51889
  24 9   H  1S          0.58662   0.62265   0.43920   0.03325   0.05076
                           6         7         8         9        10
   6        1PX         1.58797
   7        1PY         0.04951   1.37494
   8        1PZ        -0.00401   0.00999   1.80678
   9 3   O  1S         -0.07060  -0.00845   0.00016   1.95370
  10        1PX        -0.44652  -0.19834   0.01207  -0.07582   0.35172
  11        1PY        -0.23680   0.11524   0.01173  -0.25973  -0.02123
  12        1PZ         0.01425   0.01022   0.42171   0.00960  -0.00078
  13 4   C  1S         -0.04162  -0.05164   0.00290   0.00693  -0.25656
  14        1PX         0.00755  -0.01144  -0.00121   0.05687  -0.02492
  15        1PY         0.02626   0.01901  -0.00165  -0.05128   0.31815
  16        1PZ        -0.00243  -0.00237  -0.01439  -0.00081  -0.00454
  17 5   C  1S          0.05479   0.01864  -0.01201   0.02751  -0.01650
  18        1PX         0.00658  -0.00855   0.00290  -0.02933  -0.00400
  19        1PY        -0.02121   0.00581   0.00008  -0.04055  -0.01023
  20        1PZ         0.00019  -0.00482  -0.27467  -0.00082  -0.00165
  21 6   H  1S         -0.01198   0.06222   0.00645   0.00672  -0.01836
  22 7   H  1S         -0.06181  -0.00794  -0.00068   0.01035  -0.08094
  23 8   H  1S          0.54670  -0.50177   0.01800   0.00981   0.03818
  24 9   H  1S         -0.03665   0.00308  -0.00083   0.00641   0.02214
                          11        12        13        14        15
  11        1PY         0.29654
  12        1PZ        -0.00425   0.21961
  13 4   C  1S          0.34282  -0.01538   1.24914
  14        1PX         0.36468  -0.00774   0.06032   1.47617
  15        1PY        -0.27056   0.01667  -0.27104  -0.10940   1.50019
  16        1PZ         0.01656   0.45368  -0.00906   0.00883  -0.00318
  17 5   C  1S          0.03754  -0.00266   0.35186   0.19351   0.42643
  18        1PX        -0.05127   0.00113  -0.34633  -0.04127  -0.36538
  19        1PY        -0.10833  -0.00282  -0.40164  -0.18484  -0.39029
  20        1PZ        -0.00340  -0.05037  -0.01947  -0.00802  -0.01412
  21 6   H  1S          0.01047  -0.00098   0.05532   0.04008  -0.02560
  22 7   H  1S         -0.03262   0.00332   0.50451  -0.73462  -0.08913
  23 8   H  1S         -0.06936   0.00295   0.05406   0.04045  -0.03260
  24 9   H  1S          0.00189  -0.00424   0.06964   0.04097   0.04443
                          16        17        18        19        20
  16        1PZ         1.79044
  17 5   C  1S          0.00780   0.99111
  18        1PX        -0.00495   0.00708   1.00451
  19        1PY        -0.00165   0.16014  -0.10507   1.13176
  20        1PZ         0.30079   0.01760   0.00001  -0.00058   1.10988
  21 6   H  1S          0.00024   0.54684  -0.25849   0.74136  -0.02376
  22 7   H  1S          0.01889   0.07329  -0.05605  -0.08751  -0.00167
  23 8   H  1S          0.00003   0.06789   0.05470  -0.02978  -0.00649
  24 9   H  1S         -0.00334  -0.00453   0.00979   0.00204   0.00808
                          21        22        23        24
  21 6   H  1S          0.74021
  22 7   H  1S         -0.00224   0.60491
  23 8   H  1S          0.00911   0.01252   0.61764
  24 9   H  1S          0.00325   0.00932   0.00253   0.75324
    Full Mulliken population analysis:
                           1         2         3         4         5
   1 1   C  1S          1.01058
   2        1PX         0.00000   1.10812
   3        1PY         0.00000   0.00000   0.98148
   4        1PZ         0.00000   0.00000   0.00000   1.07139
   5 2   C  1S          0.00000   0.00000   0.00000   0.00000   1.26799
   6        1PX         0.00000   0.00000   0.00000   0.00000   0.00000
   7        1PY         0.00000   0.00000   0.00000   0.00000   0.00000
   8        1PZ         0.00000   0.00000   0.00000   0.00000   0.00000
   9 3   O  1S          0.00000   0.00000   0.00000   0.00000   0.00000
  10        1PX         0.00000   0.00000   0.00000   0.00000   0.00000
  11        1PY         0.00000   0.00000   0.00000   0.00000   0.00000
  12        1PZ         0.00000   0.00000   0.00000   0.00000   0.00000
  13 4   C  1S          0.00000   0.00000   0.00000   0.00000   0.00000
  14        1PX         0.00000   0.00000   0.00000   0.00000   0.00000
  15        1PY         0.00000   0.00000   0.00000   0.00000   0.00000
  16        1PZ         0.00000   0.00000   0.00000   0.00000   0.00000
  17 5   C  1S          0.00000   0.00000   0.00000   0.00000   0.00000
  18        1PX         0.00000   0.00000   0.00000   0.00000   0.00000
  19        1PY         0.00000   0.00000   0.00000   0.00000   0.00000
  20        1PZ         0.00000   0.00000   0.00000   0.00000   0.00000
  21 6   H  1S          0.00000   0.00000   0.00000   0.00000   0.00000
  22 7   H  1S          0.00000   0.00000   0.00000   0.00000   0.00000
  23 8   H  1S          0.00000   0.00000   0.00000   0.00000   0.00000
  24 9   H  1S          0.00000   0.00000   0.00000   0.00000   0.00000
                           6         7         8         9        10
   6        1PX         1.58797
   7        1PY         0.00000   1.37494
   8        1PZ         0.00000   0.00000   1.80678
   9 3   O  1S          0.00000   0.00000   0.00000   1.95370
  10        1PX         0.00000   0.00000   0.00000   0.00000   0.35172
  11        1PY         0.00000   0.00000   0.00000   0.00000   0.00000
  12        1PZ         0.00000   0.00000   0.00000   0.00000   0.00000
  13 4   C  1S          0.00000   0.00000   0.00000   0.00000   0.00000
  14        1PX         0.00000   0.00000   0.00000   0.00000   0.00000
  15        1PY         0.00000   0.00000   0.00000   0.00000   0.00000
  16        1PZ         0.00000   0.00000   0.00000   0.00000   0.00000
  17 5   C  1S          0.00000   0.00000   0.00000   0.00000   0.00000
  18        1PX         0.00000   0.00000   0.00000   0.00000   0.00000
  19        1PY         0.00000   0.00000   0.00000   0.00000   0.00000
  20        1PZ         0.00000   0.00000   0.00000   0.00000   0.00000
  21 6   H  1S          0.00000   0.00000   0.00000   0.00000   0.00000
  22 7   H  1S          0.00000   0.00000   0.00000   0.00000   0.00000
  23 8   H  1S          0.00000   0.00000   0.00000   0.00000   0.00000
  24 9   H  1S          0.00000   0.00000   0.00000   0.00000   0.00000
                          11        12        13        14        15
  11        1PY         0.29654
  12        1PZ         0.00000   0.21961
  13 4   C  1S          0.00000   0.00000   1.24914
  14        1PX         0.00000   0.00000   0.00000   1.47617
  15        1PY         0.00000   0.00000   0.00000   0.00000   1.50019
  16        1PZ         0.00000   0.00000   0.00000   0.00000   0.00000
  17 5   C  1S          0.00000   0.00000   0.00000   0.00000   0.00000
  18        1PX         0.00000   0.00000   0.00000   0.00000   0.00000
  19        1PY         0.00000   0.00000   0.00000   0.00000   0.00000
  20        1PZ         0.00000   0.00000   0.00000   0.00000   0.00000
  21 6   H  1S          0.00000   0.00000   0.00000   0.00000   0.00000
  22 7   H  1S          0.00000   0.00000   0.00000   0.00000   0.00000
  23 8   H  1S          0.00000   0.00000   0.00000   0.00000   0.00000
  24 9   H  1S          0.00000   0.00000   0.00000   0.00000   0.00000
                          16        17        18        19        20
  16        1PZ         1.79044
  17 5   C  1S          0.00000   0.99111
  18        1PX         0.00000   0.00000   1.00451
  19        1PY         0.00000   0.00000   0.00000   1.13176
  20        1PZ         0.00000   0.00000   0.00000   0.00000   1.10988
  21 6   H  1S          0.00000   0.00000   0.00000   0.00000   0.00000
  22 7   H  1S          0.00000   0.00000   0.00000   0.00000   0.00000
  23 8   H  1S          0.00000   0.00000   0.00000   0.00000   0.00000
  24 9   H  1S          0.00000   0.00000   0.00000   0.00000   0.00000
                          21        22        23        24
  21 6   H  1S          0.74021
  22 7   H  1S          0.00000   0.60491
  23 8   H  1S          0.00000   0.00000   0.61764
  24 9   H  1S          0.00000   0.00000   0.00000   0.75324
     Gross orbital populations:
                           1
   1 1   C  1S          1.01058
   2        1PX         1.10812
   3        1PY         0.98148
   4        1PZ         1.07139
   5 2   C  1S          1.26799
   6        1PX         1.58797
   7        1PY         1.37494
   8        1PZ         1.80678
   9 3   O  1S          1.95370
  10        1PX         0.35172
  11        1PY         0.29654
  12        1PZ         0.21961
  13 4   C  1S          1.24914
  14        1PX         1.47617
  15        1PY         1.50019
  16        1PZ         1.79044
  17 5   C  1S          0.99111
  18        1PX         1.00451
  19        1PY         1.13176
  20        1PZ         1.10988
  21 6   H  1S          0.74021
  22 7   H  1S          0.60491
  23 8   H  1S          0.61764
  24 9   H  1S          0.75324
          Condensed to atoms (all electrons):
               1          2          3          4          5          6
     1  C    4.171569   0.000000   0.000000   0.000000   0.000000   0.000000
     2  C    0.000000   6.037687   0.000000   0.000000   0.000000   0.000000
     3  O    0.000000   0.000000   2.821565   0.000000   0.000000   0.000000
     4  C    0.000000   0.000000   0.000000   6.015933   0.000000   0.000000
     5  C    0.000000   0.000000   0.000000   0.000000   4.237259   0.000000
     6  H    0.000000   0.000000   0.000000   0.000000   0.000000   0.740205
     7  H    0.000000   0.000000   0.000000   0.000000   0.000000   0.000000
     8  H    0.000000   0.000000   0.000000   0.000000   0.000000   0.000000
     9  H    0.000000   0.000000   0.000000   0.000000   0.000000   0.000000
               7          8          9
     1  C    0.000000   0.000000   0.000000
     2  C    0.000000   0.000000   0.000000
     3  O    0.000000   0.000000   0.000000
     4  C    0.000000   0.000000   0.000000
     5  C    0.000000   0.000000   0.000000
     6  H    0.000000   0.000000   0.000000
     7  H    0.604908   0.000000   0.000000
     8  H    0.000000   0.617635   0.000000
     9  H    0.000000   0.000000   0.753238
 Mulliken charges:
               1
     1  C   -0.171569
     2  C   -2.037687
     3  O    3.178435
     4  C   -2.015933
     5  C   -0.237259
     6  H    0.259795
     7  H    0.395092
     8  H    0.382365
     9  H    0.246762
 Sum of Mulliken charges =   0.00000
 Mulliken charges with hydrogens summed into heavy atoms:
               1
     1  C    0.075193
     2  C   -1.655322
     3  O    3.178435
     4  C   -1.620841
     5  C    0.022536
 Charge=              0.0000 electrons
 Dipole moment (field-independent basis, Debye):
    X=             -3.3509    Y=             -8.8824    Z=              0.5494  Tot=              9.5094
 N-N= 1.048414726379D+02 E-N=-1.704667412519D+02  KE=-1.552315283456D+01
 Orbital energies and kinetic energies (alpha):
                                 1                 2
   1         O                -1.963951         -1.437086
   2         O                -1.192397         -1.057162
   3         O                -0.962119         -0.853341
   4         O                -0.836893         -0.615119
   5         O                -0.774245         -0.671467
   6         O                -0.691884         -0.570085
   7         O                -0.665372         -0.523012
   8         O                -0.554579         -0.387353
   9         O                -0.535372         -0.296819
  10         O                -0.463771         -0.414480
  11         O                -0.447765         -0.322869
  12         O                -0.416490         -0.338559
  13         O                -0.300488         -0.274225
  14         V                 0.092936         -0.180036
  15         V                 0.169054         -0.183031
  16         V                 0.186329         -0.177193
  17         V                 0.247720         -0.131407
  18         V                 0.254807         -0.098432
  19         V                 0.277336         -0.096986
  20         V                 0.299216         -0.172596
  21         V                 0.312712         -0.162790
  22         V                 0.395167          0.501919
  23         V                 0.476787          0.531736
  24         V                 0.529626          0.607022
 Total kinetic energy from orbitals=-1.552315283456D+01
 Leave Link  601 at Tue Dec 15 17:07:21 2015, MaxMem=    33554432 cpu:         0.0
 (Enter /home/Applications/g09/g09/l701.exe)
 Compute integral first derivatives.
 ... and contract with generalized density number  6.
 Leave Link  701 at Tue Dec 15 17:07:21 2015, MaxMem=    33554432 cpu:         0.0
 (Enter /home/Applications/g09/g09/l702.exe)
 L702 exits ... SP integral derivatives will be done elsewhere.
 Leave Link  702 at Tue Dec 15 17:07:21 2015, MaxMem=    33554432 cpu:         0.0
 (Enter /home/Applications/g09/g09/l703.exe)
 Compute integral first derivatives, UseDBF=F ICtDFT=           0.
 Integral derivatives from FoFJK, PRISM(SPDF).
 Calling FoFJK, ICntrl=  10005127 FMM=F ISym2X=0 I1Cent= 0 IOpClX= 0 NMat=1 NMatS=1 NMatT=0.
 FoFJK:  IHMeth= 8 ICntrl=10005127 DoSepK=F KAlg= 0 I1Cent=   0 FoldK=F
 IRaf=         0 NMat=   1 IRICut=       1 DoRegI=T DoRafI=F ISym2E= 0.
 FoFCou: FMM=F IPFlag=           0 FMFlag=      100000 FMFlg1=         800
         NFxFlg=           0 DoJE=F BraDBF=F KetDBF=F FulRan=T
         wScrn=  0.000000 ICntrl=10005127 IOpCl=  0 I1Cent=           0 NGrid=           0
         NMat0=    1 NMatS0=      1 NMatT0=    0 NMatD0=    1 NMtDS0=    0 NMtDT0=    0
 Symmetry not used in FoFCou.
 Leave Link  703 at Tue Dec 15 17:07:21 2015, MaxMem=    33554432 cpu:         0.0
 (Enter /home/Applications/g09/g09/l716.exe)
 Dipole        =-1.39721176D+00-3.83731293D+00 2.12265696D-01
 ***** Axes restored to original set *****
 -------------------------------------------------------------------
 Center     Atomic                   Forces (Hartrees/Bohr)
 Number     Number              X              Y              Z
 -------------------------------------------------------------------
      1        6           0.026715636    0.023530111    0.000244105
      2        6          -0.180385205   -0.142667827   -0.001303339
      3        8          -0.025649765   -0.088741505   -0.007292641
      4        6          -0.223692262    0.225939206    0.007695060
      5        6           0.205825152   -0.002423271   -0.001024569
      6        1           0.065012250    0.051782720   -0.001567438
      7        1           0.004062528    0.055665042   -0.001352007
      8        1           0.011332618   -0.035597703   -0.001861789
      9        1           0.116779049   -0.087486773    0.006462618
 -------------------------------------------------------------------
 Cartesian Forces:  Max     0.225939206 RMS     0.094089138
 Z-matrix is all fixed cartesians, so copy forces.
 Force constants in Cartesian coordinates: 
                1             2             3             4             5 
      1  0.906726D+00
      2 -0.119983D+00  0.759847D+00
      3  0.273437D-01 -0.468605D-02  0.178054D+00
      4 -0.430864D+00 -0.774081D-01 -0.580979D-02  0.848704D+00
      5 -0.559125D-01 -0.190939D+00 -0.874841D-03 -0.543342D-01  0.866755D+00
      6  0.199608D-03  0.325258D-03 -0.853887D-01 -0.902231D-02  0.588531D-02
      7 -0.737895D-02  0.297223D-01  0.140463D-02 -0.303665D+00  0.188866D+00
      8 -0.514250D-02  0.207695D-01  0.371921D-03  0.236436D+00 -0.427848D+00
      9  0.154047D-03 -0.168028D-03  0.723155D-02  0.115560D-01 -0.113495D-01
     10  0.810358D-02  0.470361D-03  0.339970D-03  0.273698D-01  0.191504D-01
     11  0.342488D-01  0.195279D-02  0.253618D-02 -0.196530D-01 -0.137551D-01
     12  0.197392D-02  0.149005D-03 -0.839879D-03 -0.133280D-02 -0.984280D-03
     13 -0.154705D+00  0.214570D-01 -0.155306D-02  0.806242D-02 -0.324776D-01
     14  0.141007D-02 -0.338318D+00 -0.129454D-01  0.469279D-03 -0.190781D-02
     15 -0.137604D-02 -0.114752D-01 -0.667260D-01 -0.875590D-04 -0.498831D-03
     16  0.156777D-01  0.945173D-03 -0.480324D-03  0.000000D+00 -0.554495D-05
     17 -0.232558D-01 -0.144188D-02  0.198861D-02  0.000000D+00  0.173300D-05
     18 -0.226641D-02 -0.546861D-03  0.132093D-01 -0.341004D-05 -0.660475D-04
     19  0.128148D-04  0.114574D-04 -0.342639D-03  0.147263D-04 -0.443547D-05
     20  0.223839D-04  0.200130D-04 -0.598495D-03 -0.744273D-05  0.224170D-05
     21 -0.254173D-03 -0.227251D-03  0.679603D-02  0.237055D-03 -0.713995D-04
     22  0.599806D-02 -0.242546D-01  0.100488D-02 -0.144900D+00 -0.844314D-01
     23 -0.308476D-02  0.124467D-01  0.203060D-03 -0.794802D-01 -0.256655D+00
     24 -0.288965D-03  0.310463D-03  0.226248D-01  0.470703D-02  0.779899D-02
     25 -0.343570D+00  0.169040D+00 -0.219074D-01 -0.472052D-02  0.191491D-01
     26  0.171698D+00 -0.264337D+00  0.140050D-01 -0.602252D-02  0.243451D-01
     27 -0.254857D-01  0.163187D-01 -0.749611D-01 -0.244219D-03  0.160573D-03
                6             7             8             9            10 
      6  0.168300D+00
      7  0.953587D-02  0.645673D+00
      8 -0.115182D-01  0.728106D-01  0.932837D+00
      9 -0.530474D-01 -0.166658D-01  0.581996D-02  0.742095D-01
     10 -0.130542D-02 -0.371043D+00 -0.308431D+00  0.972840D-02  0.105577D+01
     11  0.106959D-02 -0.259292D+00 -0.533053D+00  0.750694D-02  0.953373D-01
     12  0.163055D-02  0.676941D-02  0.582756D-02 -0.606215D-01  0.165527D-02
     13 -0.138530D-02 -0.778093D-02  0.556750D-02 -0.108920D-02 -0.566279D+00
     14 -0.381464D-03 -0.325104D-01  0.232838D-01 -0.263968D-02  0.103835D+00
     15 -0.236731D-02  0.115593D-02 -0.527250D-03  0.119034D-01 -0.169094D-01
     16  0.177066D-03  0.000000D+00 -0.121311D-05 -0.414325D-04 -0.416235D-02
     17 -0.553396D-04 -0.207631D-04  0.270732D-04  0.924655D-03  0.595904D-02
     18  0.210908D-02 -0.199718D-03  0.260414D-03  0.889416D-02 -0.161477D-02
     19  0.465398D-03  0.226847D-01 -0.163031D-01 -0.219979D-02 -0.149777D+00
     20 -0.235213D-03  0.114855D-01 -0.825632D-02 -0.125855D-02  0.836743D-01
     21  0.749168D-02 -0.100023D-02  0.749267D-03  0.240681D-02  0.802158D-02
     22  0.372562D-02  0.215100D-01  0.150587D-01 -0.128941D-02  0.986479D-05
     23  0.569856D-02 -0.110610D-01 -0.774680D-02  0.764876D-03  0.000000D+00
     24 -0.605399D-01 -0.992578D-03 -0.796300D-03  0.326666D-02  0.188501D-03
     25 -0.239054D-02  0.000000D+00  0.497410D-05 -0.152862D-03  0.115450D-04
     26 -0.788458D-03  0.000000D+00 -0.129932D-04  0.399301D-03  0.393512D-05
     27  0.218118D-01 -0.756259D-05 -0.187330D-03  0.575694D-02 -0.104105D-03
               11            12            13            14            15 
     11  0.100794D+01
     12  0.368734D-02  0.214768D+00
     13  0.779868D-01 -0.180072D-01  0.989739D+00
     14 -0.216754D+00  0.310188D-02  0.220145D-01  0.716092D+00
     15  0.479435D-02 -0.115511D+00  0.680724D-03 -0.174373D-02  0.206131D+00
     16 -0.172112D-01  0.207274D-02 -0.293487D+00 -0.122197D+00  0.141732D-01
     17  0.249859D-01 -0.171251D-03 -0.121198D+00 -0.196537D+00  0.777070D-02
     18 -0.312094D-02  0.295959D-01  0.186755D-01  0.115475D-01 -0.827603D-01
     19  0.885758D-01  0.686560D-02  0.612850D-02  0.259158D-01  0.160005D-02
     20 -0.271320D+00 -0.115343D-01  0.308964D-02  0.128308D-01 -0.109142D-02
     21 -0.163236D-01 -0.777628D-01 -0.583322D-04  0.349361D-02  0.302678D-01
     22 -0.297121D-05  0.311758D-03  0.000000D+00  0.279516D-05 -0.892573D-04
     23  0.000000D+00  0.292802D-04  0.000000D+00 -0.592785D-05  0.189293D-03
     24 -0.567754D-04  0.595723D-02 -0.730902D-05 -0.141565D-03  0.452057D-02
     25  0.103222D-04 -0.308689D-03  0.183218D-01  0.106044D-02  0.852360D-03
     26  0.351831D-05 -0.105216D-03  0.235604D-01  0.131725D-02  0.258210D-02
     27 -0.930780D-04  0.278353D-02  0.274415D-02 -0.291180D-03  0.145419D-01
               16            17            18            19            20 
     16  0.281938D+00
     17  0.138463D+00  0.172857D+00
     18 -0.156337D-01 -0.929264D-02  0.449935D-01
     19 -0.286030D-05  0.638337D-04  0.614010D-03  0.120939D+00
     20 -0.499615D-05  0.111500D-03  0.107251D-02 -0.982594D-01  0.266612D+00
     21  0.567323D-04 -0.126610D-02 -0.121785D-01 -0.700263D-02  0.136455D-01
     22  0.000000D+00  0.000000D+00  0.000000D+00  0.000000D+00  0.000000D+00
     23  0.000000D+00  0.000000D+00  0.000000D+00  0.000000D+00  0.000000D+00
     24  0.000000D+00  0.000000D+00  0.000000D+00  0.000000D+00  0.000000D+00
     25  0.359678D-04 -0.112413D-04  0.428422D-03  0.000000D+00  0.000000D+00
     26  0.122596D-04 -0.383157D-05  0.146027D-03  0.000000D+00  0.000000D+00
     27 -0.324332D-03  0.101366D-03 -0.386321D-02  0.000000D+00  0.000000D+00
               21            22            23            24            25 
     21  0.429791D-01
     22  0.000000D+00  0.117387D+00
     23  0.000000D+00  0.936161D-01  0.251985D+00
     24  0.000000D+00 -0.382863D-02 -0.653506D-02  0.325293D-01
     25  0.000000D+00 -0.438225D-05  0.929367D-05  0.221945D-03  0.329926D+00
     26  0.000000D+00  0.114472D-04 -0.242766D-04 -0.579758D-03 -0.189263D+00
     27  0.000000D+00  0.165040D-03 -0.350009D-03 -0.835869D-02  0.232567D-01
               26            27 
     26  0.238713D+00
     27 -0.156590D-01  0.422888D-01
 Leave Link  716 at Tue Dec 15 17:07:21 2015, MaxMem=    33554432 cpu:         0.0
 (Enter /home/Applications/g09/g09/l103.exe)

 GradGradGradGradGradGradGradGradGradGradGradGradGradGradGradGradGradGrad
 Berny optimization.
 Search for a local minimum.
 Step number   1 out of a maximum of    2
 All quantities printed in internal units (Hartrees-Bohrs-Radians)
 Second derivative matrix not updated -- first step.
 ITU=  0
     Eigenvalues ---    0.01561   0.03392   0.06998   0.07405   0.07859
     Eigenvalues ---    0.09643   0.12717   0.13274   0.15804   0.25115
     Eigenvalues ---    0.27873   0.29454   0.38256   0.41822   0.61149
     Eigenvalues ---    0.87098   1.17788   1.27583   1.51170   1.57398
     Eigenvalues ---    1.92371
 Quadratic step=1.399D+00 exceeds max=3.000D-01 adjusted using Lamda=-8.884D-01.
 Angle between NR and scaled steps=  28.80 degrees.
 Angle between quadratic step and forces=  21.33 degrees.
 Linear search not attempted -- first point.
 TrRot= -0.010005 -0.001630 -0.000289  0.000181 -0.000032  0.000181
 MatCor failed.
 Variable       Old X    -DE/DX   Delta X   Delta X   Delta X     New X
                                 (Linear)    (Quad)   (Total)
    X1        1.88701   0.02672   0.00000   0.02609   0.01660   1.90360
    Y1       -1.38365   0.02353   0.00000  -0.01397  -0.01491  -1.39856
    Z1       -0.06885   0.00024   0.00000   0.00262   0.00239  -0.06647
    X2       -0.68995  -0.18039   0.00000  -0.09274  -0.10198  -0.79192
    Y2       -2.02192  -0.14267   0.00000  -0.09615  -0.09806  -2.11998
    Z2       -0.09301  -0.00130   0.00000  -0.00106  -0.00137  -0.09438
    X3       -2.13187  -0.02565   0.00000  -0.01538  -0.02539  -2.15726
    Y3        0.04334  -0.08874   0.00000  -0.03828  -0.04069   0.00265
    Z3       -0.02770  -0.00729   0.00000  -0.00625  -0.00661  -0.03431
    X4       -0.72768  -0.22369   0.00000  -0.09907  -0.10984  -0.83753
    Y4        2.00065   0.22594   0.00000   0.12211   0.12018   2.12083
    Z4       -0.05348   0.00770   0.00000   0.00857   0.00825  -0.04523
    X5        1.72083   0.20583   0.00000   0.09797   0.08744   1.80828
    Y5        1.41718  -0.00242   0.00000   0.03012   0.02915   1.44634
    Z5        0.01859  -0.00102   0.00000  -0.00355  -0.00378   0.01480
    X6        3.38394   0.06501   0.00000   0.08333   0.07239   3.45632
    Y6        2.54906   0.05178   0.00000   0.05299   0.05262   2.60168
    Z6       -0.09134  -0.00157   0.00000  -0.00255  -0.00273  -0.09407
    X7       -1.67699   0.00406   0.00000  -0.00855  -0.02000  -1.69699
    Y7        3.88589   0.05567   0.00000   0.08377   0.08152   3.96741
    Z7        0.06469  -0.00135   0.00000   0.00097   0.00062   0.06531
    X8       -1.66884   0.01133   0.00000   0.00026  -0.00830  -1.67713
    Y8       -3.93097  -0.03560   0.00000  -0.05842  -0.06066  -3.99163
    Z8       -0.03240  -0.00186   0.00000  -0.00082  -0.00116  -0.03356
    X9        3.36566   0.11678   0.00000   0.09813   0.08908   3.45473
    Y9       -2.54750  -0.08749   0.00000  -0.06878  -0.06916  -2.61665
    Z9        0.05113   0.00646   0.00000   0.00457   0.00439   0.05552
         Item               Value     Threshold  Converged?
 Maximum Force            0.225939     0.000450     NO 
 RMS     Force            0.094089     0.000300     NO 
 Maximum Displacement     0.120180     0.001800     NO 
 RMS     Displacement     0.057574     0.001200     NO 
 Predicted change in Energy=-1.086457D-01
 GradGradGradGradGradGradGradGradGradGradGradGradGradGradGradGradGradGrad

 Leave Link  103 at Tue Dec 15 17:07:21 2015, MaxMem=    33554432 cpu:         0.0
 (Enter /home/Applications/g09/g09/l9999.exe)
 1\1\GINC-DUSTIN-DESKTOP\Force\RAM1-FC\STO-3G\C4H4O1\DUSTIN\15-Dec-2015
 \0\\#P AM1(Input,print) CIS(Singlets,NStates=15) pop(full) force\\AM1-
 Reparam Input\\0,1\C,0.998562,-0.732196,-0.036436\C,-0.365105,-1.06995
 5,-0.049218\O,-1.128138,0.022932,-0.014658\C,-0.385074,1.058698,-0.028
 299\C,0.910625,0.74994,0.009836\H,1.790703,1.348906,-0.048334\H,-0.887
 424,2.056323,0.03423\H,-0.883111,-2.08018,-0.017144\H,1.781028,-1.3480
 77,0.027058\\Version=ES64L-G09RevD.01\State=1-A\HF=2.0411995\RMSD=8.10
 7e-09\RMSF=9.409e-02\Dipole=-4.0808455,0.167198,0.2024181\PG=C01 [X(C4
 H4O1)]\\@


 POCKETA-POCKETA
 BARON VON RICHTOFEN
 SLAUGHTERED THE ALLIES WITH
 HARDLY A CARE.
 KILLED EIGHTY-ONE WITH HIS
 BLOOD-COLORED TRIPLANE, THEN
 UN-AEROBATICALLY
 PLUNGED FROM THE AIR.
   -- TONY HOFFMAN
 Job cpu time:       0 days  0 hours  0 minutes  0.7 seconds.
 File lengths (MBytes):  RWF=      7 Int=      0 D2E=      0 Chk=      2 Scr=      1
 Normal termination of Gaussian 09 at Tue Dec 15 17:07:21 2015.
