 Entering Gaussian System, Link 0=g09
 Input=FuranDFT.com
 Output=FuranDFT.log
 Initial command:
 /home/Applications/g09/g09/l1.exe "/home/Applications/g09/scratch/Gau-9988.inp" -scrdir="/home/Applications/g09/scratch/"
 Entering Link 1 = /home/Applications/g09/g09/l1.exe PID=      9990.
  
 Copyright (c) 1988,1990,1992,1993,1995,1998,2003,2009,2013,
            Gaussian, Inc.  All Rights Reserved.
  
 This is part of the Gaussian(R) 09 program.  It is based on
 the Gaussian(R) 03 system (copyright 2003, Gaussian, Inc.),
 the Gaussian(R) 98 system (copyright 1998, Gaussian, Inc.),
 the Gaussian(R) 94 system (copyright 1995, Gaussian, Inc.),
 the Gaussian 92(TM) system (copyright 1992, Gaussian, Inc.),
 the Gaussian 90(TM) system (copyright 1990, Gaussian, Inc.),
 the Gaussian 88(TM) system (copyright 1988, Gaussian, Inc.),
 the Gaussian 86(TM) system (copyright 1986, Carnegie Mellon
 University), and the Gaussian 82(TM) system (copyright 1983,
 Carnegie Mellon University). Gaussian is a federally registered
 trademark of Gaussian, Inc.
  
 This software contains proprietary and confidential information,
 including trade secrets, belonging to Gaussian, Inc.
  
 This software is provided under written license and may be
 used, copied, transmitted, or stored only in accord with that
 written license.
  
 The following legend is applicable only to US Government
 contracts under FAR:
  
                    RESTRICTED RIGHTS LEGEND
  
 Use, reproduction and disclosure by the US Government is
 subject to restrictions as set forth in subparagraphs (a)
 and (c) of the Commercial Computer Software - Restricted
 Rights clause in FAR 52.227-19.
  
 Gaussian, Inc.
 340 Quinnipiac St., Bldg. 40, Wallingford CT 06492
  
  
 ---------------------------------------------------------------
 Warning -- This program may not be used in any manner that
 competes with the business of Gaussian, Inc. or will provide
 assistance to any competitor of Gaussian, Inc.  The licensee
 of this program is prohibited from giving any competitor of
 Gaussian, Inc. access to this program.  By using this program,
 the user acknowledges that Gaussian, Inc. is engaged in the
 business of creating and licensing software in the field of
 computational chemistry and represents and warrants to the
 licensee that it is not a competitor of Gaussian, Inc. and that
 it will not use this program in any manner prohibited above.
 ---------------------------------------------------------------
  

 Cite this work as:
 Gaussian 09, Revision D.01,
 M. J. Frisch, G. W. Trucks, H. B. Schlegel, G. E. Scuseria, 
 M. A. Robb, J. R. Cheeseman, G. Scalmani, V. Barone, B. Mennucci, 
 G. A. Petersson, H. Nakatsuji, M. Caricato, X. Li, H. P. Hratchian, 
 A. F. Izmaylov, J. Bloino, G. Zheng, J. L. Sonnenberg, M. Hada, 
 M. Ehara, K. Toyota, R. Fukuda, J. Hasegawa, M. Ishida, T. Nakajima, 
 Y. Honda, O. Kitao, H. Nakai, T. Vreven, J. A. Montgomery, Jr., 
 J. E. Peralta, F. Ogliaro, M. Bearpark, J. J. Heyd, E. Brothers, 
 K. N. Kudin, V. N. Staroverov, T. Keith, R. Kobayashi, J. Normand, 
 K. Raghavachari, A. Rendell, J. C. Burant, S. S. Iyengar, J. Tomasi, 
 M. Cossi, N. Rega, J. M. Millam, M. Klene, J. E. Knox, J. B. Cross, 
 V. Bakken, C. Adamo, J. Jaramillo, R. Gomperts, R. E. Stratmann, 
 O. Yazyev, A. J. Austin, R. Cammi, C. Pomelli, J. W. Ochterski, 
 R. L. Martin, K. Morokuma, V. G. Zakrzewski, G. A. Voth, 
 P. Salvador, J. J. Dannenberg, S. Dapprich, A. D. Daniels, 
 O. Farkas, J. B. Foresman, J. V. Ortiz, J. Cioslowski, 
 and D. J. Fox, Gaussian, Inc., Wallingford CT, 2013.
 
 ******************************************
 Gaussian 09:  ES64L-G09RevD.01 24-Apr-2013
                18-Oct-2015 
 ******************************************
 -------------------------------------------------------
 #P B3LYP/3-21G CIS(Singlets,NStates=15) pop(full) force
 -------------------------------------------------------
 1/10=7,30=1,38=1/1,3;
 2/12=2,17=6,18=5,40=1/2;
 3/5=5,11=9,16=1,25=1,30=1,71=1,74=-5/1,2,8,3;
 4//1;
 5/5=2,38=5/2;
 8/6=1,10=1,108=15/1;
 9/15=2,41=15,42=1,48=1/14;
 10/5=4/2;
 6/7=3,18=1/1;
 7/12=6,13=5,29=1/1,2,3,16;
 1/10=7,30=1/3;
 99//99;
 Leave Link    1 at Sun Oct 18 13:37:52 2015, MaxMem=           0 cpu:         0.0
 (Enter /home/Applications/g09/g09/l101.exe)
 --------
 FuranDFT
 --------
 Symbolic Z-matrix:
 Charge =  0 Multiplicity = 1
 6                     0.95548  -0.71596   0. 
 6                    -0.34563  -1.09282   0. 
 8                    -1.15731   0.        0. 
 6                    -0.34563   1.09282   0. 
 6                     0.95548   0.71596   0. 
 1                     1.81044   1.36938   0. 
 1                    -0.84031   2.04688   0. 
 1                    -0.84031  -2.04688   0. 
 1                     1.81044  -1.36938   0. 
 
 NAtoms=      9 NQM=        9 NQMF=       0 NMMI=      0 NMMIF=      0
                NMic=       0 NMicF=      0.
                    Isotopes and Nuclear Properties:
 (Nuclear quadrupole moments (NQMom) in fm**2, nuclear magnetic moments (NMagM)
  in nuclear magnetons)

  Atom         1           2           3           4           5           6           7           8           9
 IAtWgt=          12          12          16          12          12           1           1           1           1
 AtmWgt=  12.0000000  12.0000000  15.9949146  12.0000000  12.0000000   1.0078250   1.0078250   1.0078250   1.0078250
 NucSpn=           0           0           0           0           0           1           1           1           1
 AtZEff=   0.0000000   0.0000000   0.0000000   0.0000000   0.0000000   0.0000000   0.0000000   0.0000000   0.0000000
 NQMom=    0.0000000   0.0000000   0.0000000   0.0000000   0.0000000   0.0000000   0.0000000   0.0000000   0.0000000
 NMagM=    0.0000000   0.0000000   0.0000000   0.0000000   0.0000000   2.7928460   2.7928460   2.7928460   2.7928460
 AtZNuc=   6.0000000   6.0000000   8.0000000   6.0000000   6.0000000   1.0000000   1.0000000   1.0000000   1.0000000
 Leave Link  101 at Sun Oct 18 13:37:52 2015, MaxMem=    33554432 cpu:         0.0
 (Enter /home/Applications/g09/g09/l103.exe)

 GradGradGradGradGradGradGradGradGradGradGradGradGradGradGradGradGradGrad
 Berny optimization.
 Initialization pass.
 Trust Radius=3.00D-01 FncErr=1.00D-07 GrdErr=1.00D-07
 Number of steps in this run=      2 maximum allowed number of steps=      2.
 GradGradGradGradGradGradGradGradGradGradGradGradGradGradGradGradGradGrad

 Leave Link  103 at Sun Oct 18 13:37:52 2015, MaxMem=    33554432 cpu:         0.0
 (Enter /home/Applications/g09/g09/l202.exe)
                          Input orientation:                          
 ---------------------------------------------------------------------
 Center     Atomic      Atomic             Coordinates (Angstroms)
 Number     Number       Type             X           Y           Z
 ---------------------------------------------------------------------
      1          6           0        0.955475   -0.715963    0.000000
      2          6           0       -0.345627   -1.092818    0.000000
      3          8           0       -1.157305    0.000000    0.000000
      4          6           0       -0.345627    1.092818    0.000000
      5          6           0        0.955475    0.715963    0.000000
      6          1           0        1.810438    1.369382    0.000000
      7          1           0       -0.840307    2.046884    0.000000
      8          1           0       -0.840307   -2.046884    0.000000
      9          1           0        1.810438   -1.369382    0.000000
 ---------------------------------------------------------------------
                    Distance matrix (angstroms):
                    1          2          3          4          5
     1  C    0.000000
     2  C    1.354580   0.000000
     3  O    2.230794   1.361276   0.000000
     4  C    2.228128   2.185636   1.361276   0.000000
     5  C    1.431926   2.228128   2.230794   1.354580   0.000000
     6  H    2.253802   3.272773   3.268441   2.173730   1.076066
     7  H    3.295172   3.178433   2.071285   1.074686   2.235214
     8  H    2.235214   1.074686   2.071285   3.178433   3.295172
     9  H    1.076066   2.173730   3.268441   3.272773   2.253802
                    6          7          8          9
     6  H    0.000000
     7  H    2.735957   0.000000
     8  H    4.324040   4.093768   0.000000
     9  H    2.738764   4.324040   2.735957   0.000000
 Stoichiometry    C4H4O
 Framework group  C2V[C2(O),SGV(C4H4)]
 Deg. of freedom     8
 Full point group                 C2V     NOp   4
 Largest Abelian subgroup         C2V     NOp   4
 Largest concise Abelian subgroup C2      NOp   2
                         Standard orientation:                         
 ---------------------------------------------------------------------
 Center     Atomic      Atomic             Coordinates (Angstroms)
 Number     Number       Type             X           Y           Z
 ---------------------------------------------------------------------
      1          6           0        0.000000    0.715963   -0.955475
      2          6           0        0.000000    1.092818    0.345627
      3          8           0        0.000000    0.000000    1.157305
      4          6           0        0.000000   -1.092818    0.345627
      5          6           0        0.000000   -0.715963   -0.955475
      6          1           0        0.000000   -1.369382   -1.810438
      7          1           0        0.000000   -2.046884    0.840307
      8          1           0        0.000000    2.046884    0.840307
      9          1           0        0.000000    1.369382   -1.810438
 ---------------------------------------------------------------------
 Rotational constants (GHZ):      9.5015164      9.3284592      4.7070963
 Leave Link  202 at Sun Oct 18 13:37:52 2015, MaxMem=    33554432 cpu:         0.0
 (Enter /home/Applications/g09/g09/l301.exe)
 Standard basis: 3-21G (6D, 7F)
 Ernie: Thresh=  0.10000D-02 Tol=  0.10000D-05 Strict=F.
 There are    23 symmetry adapted cartesian basis functions of A1  symmetry.
 There are     4 symmetry adapted cartesian basis functions of A2  symmetry.
 There are     6 symmetry adapted cartesian basis functions of B1  symmetry.
 There are    20 symmetry adapted cartesian basis functions of B2  symmetry.
 There are    23 symmetry adapted basis functions of A1  symmetry.
 There are     4 symmetry adapted basis functions of A2  symmetry.
 There are     6 symmetry adapted basis functions of B1  symmetry.
 There are    20 symmetry adapted basis functions of B2  symmetry.
    53 basis functions,    87 primitive gaussians,    53 cartesian basis functions
    18 alpha electrons       18 beta electrons
       nuclear repulsion energy       161.2261194346 Hartrees.
 IExCor=  402 DFT=T Ex+Corr=B3LYP ExCW=0 ScaHFX=  0.200000
 ScaDFX=  0.800000  0.720000  1.000000  0.810000 ScalE2=  1.000000  1.000000
 IRadAn=      0 IRanWt=     -1 IRanGd=            0 ICorTp=0 IEmpDi=  4
 NAtoms=    9 NActive=    9 NUniq=    5 SFac= 3.24D+00 NAtFMM=   60 NAOKFM=F Big=F
 Integral buffers will be    131072 words long.
 Regular integral format.
 Two-electron integral symmetry is turned on.
 Leave Link  301 at Sun Oct 18 13:37:52 2015, MaxMem=    33554432 cpu:         0.0
 (Enter /home/Applications/g09/g09/l302.exe)
 NPDir=0 NMtPBC=     1 NCelOv=     1 NCel=       1 NClECP=     1 NCelD=      1
         NCelK=      1 NCelE2=     1 NClLst=     1 CellRange=     0.0.
 One-electron integrals computed using PRISM.
 One-electron integral symmetry used in STVInt
 NBasis=    53 RedAO= T EigKep=  3.16D-03  NBF=    23     4     6    20
 NBsUse=    53 1.00D-06 EigRej= -1.00D+00 NBFU=    23     4     6    20
 Precomputing XC quadrature grid using
 IXCGrd= 4 IRadAn=           0 IRanWt=          -1 IRanGd=           0 AccXCQ= 0.00D+00.
 Generated NRdTot=       0 NPtTot=           0 NUsed=           0 NTot=          32
 NSgBfM=    53    53    53    53    53 MxSgAt=     9 MxSgA2=     9.
 Leave Link  302 at Sun Oct 18 13:37:52 2015, MaxMem=    33554432 cpu:         0.1
 (Enter /home/Applications/g09/g09/l308.exe)
 Leave Link  308 at Sun Oct 18 13:37:52 2015, MaxMem=    33554432 cpu:         0.0
 (Enter /home/Applications/g09/g09/l303.exe)
 DipDrv:  MaxL=1.
 Leave Link  303 at Sun Oct 18 13:37:52 2015, MaxMem=    33554432 cpu:         0.0
 (Enter /home/Applications/g09/g09/l401.exe)
 ExpMin= 1.83D-01 ExpMax= 3.22D+02 ExpMxC= 3.22D+02 IAcc=1 IRadAn=         1 AccDes= 0.00D+00
 Harris functional with IExCor=  402 and IRadAn=       1 diagonalized for initial guess.
 HarFok:  IExCor=  402 AccDes= 0.00D+00 IRadAn=         1 IDoV= 1 UseB2=F ITyADJ=14
 ICtDFT=  3500011 ScaDFX=  1.000000  1.000000  1.000000  1.000000
 FoFCou: FMM=F IPFlag=           0 FMFlag=      100000 FMFlg1=           0
         NFxFlg=           0 DoJE=T BraDBF=F KetDBF=T FulRan=T
         wScrn=  0.000000 ICntrl=     500 IOpCl=  0 I1Cent=   200000004 NGrid=           0
         NMat0=    1 NMatS0=      1 NMatT0=    0 NMatD0=    1 NMtDS0=    0 NMtDT0=    0
 Petite list used in FoFCou.
 Harris En= -228.740769099091    
 JPrj=0 DoOrth=F DoCkMO=F.
 Initial guess orbital symmetries:
       Occupied  (A1) (B2) (A1) (B2) (A1) (A1) (A1) (B2) (B2) (A1)
                 (A1) (B2) (B2) (A1) (B1) (A1) (B1) (A2)
       Virtual   (B1) (A2) (A1) (B2) (A1) (B2) (B2) (A1) (A1) (B2)
                 (B2) (A1) (B2) (B1) (A1) (A2) (B1) (B2) (A1) (A2)
                 (A1) (B2) (B2) (A1) (B2) (A1) (B2) (A1) (B1) (B2)
                 (A1) (A1) (B2) (B2) (A1)
 The electronic state of the initial guess is 1-A1.
 Leave Link  401 at Sun Oct 18 13:37:52 2015, MaxMem=    33554432 cpu:         0.1
 (Enter /home/Applications/g09/g09/l502.exe)
 Closed shell SCF:
 Using DIIS extrapolation, IDIIS=  1040.
 Integral symmetry usage will be decided dynamically.
 Keep R1 ints in memory in symmetry-blocked form, NReq=1929742.
 IVT=       27841 IEndB=       27841 NGot=    33554432 MDV=    33224857
 LenX=    33224857 LenY=    33221607
 Requested convergence on RMS density matrix=1.00D-08 within 128 cycles.
 Requested convergence on MAX density matrix=1.00D-06.
 Requested convergence on             energy=1.00D-06.
 No special actions if energy rises.
 FoFCou: FMM=F IPFlag=           0 FMFlag=           0 FMFlg1=           0
         NFxFlg=           0 DoJE=F BraDBF=F KetDBF=F FulRan=T
         wScrn=  0.000000 ICntrl=     600 IOpCl=  0 I1Cent=           0 NGrid=           0
         NMat0=    1 NMatS0=   1431 NMatT0=    0 NMatD0=    1 NMtDS0=    0 NMtDT0=    0
 Petite list used in FoFCou.
 Integral accuracy reduced to 1.0D-05 until final iterations.

 Cycle   1  Pass 0  IDiag  1:
 E= -228.670634327291    
 DIIS: error= 4.27D-02 at cycle   1 NSaved=   1.
 NSaved= 1 IEnMin= 1 EnMin= -228.670634327291     IErMin= 1 ErrMin= 4.27D-02
 ErrMax= 4.27D-02  0.00D+00 EMaxC= 1.00D-01 BMatC= 7.65D-02 BMatP= 7.65D-02
 IDIUse=3 WtCom= 5.73D-01 WtEn= 4.27D-01
 Coeff-Com:  0.100D+01
 Coeff-En:   0.100D+01
 Coeff:      0.100D+01
 Gap=     0.231 Goal=   None    Shift=    0.000
 GapD=    0.231 DampG=1.000 DampE=0.500 DampFc=0.5000 IDamp=-1.
 Damping current iteration by 5.00D-01
 RMSDP=1.20D-02 MaxDP=1.06D-01              OVMax= 1.98D-01

 Cycle   2  Pass 0  IDiag  1:
 E= -228.700879998958     Delta-E=       -0.030245671666 Rises=F Damp=T
 DIIS: error= 1.71D-02 at cycle   2 NSaved=   2.
 NSaved= 2 IEnMin= 2 EnMin= -228.700879998958     IErMin= 2 ErrMin= 1.71D-02
 ErrMax= 1.71D-02  0.00D+00 EMaxC= 1.00D-01 BMatC= 9.30D-03 BMatP= 7.65D-02
 IDIUse=3 WtCom= 8.29D-01 WtEn= 1.71D-01
 Coeff-Com:  0.122D+00 0.878D+00
 Coeff-En:   0.214D+00 0.786D+00
 Coeff:      0.137D+00 0.863D+00
 Gap=     0.247 Goal=   None    Shift=    0.000
 RMSDP=4.34D-03 MaxDP=3.33D-02 DE=-3.02D-02 OVMax= 1.71D-01

 Cycle   3  Pass 0  IDiag  1:
 E= -228.740786944576     Delta-E=       -0.039906945618 Rises=F Damp=F
 DIIS: error= 1.96D-02 at cycle   3 NSaved=   3.
 NSaved= 3 IEnMin= 3 EnMin= -228.740786944576     IErMin= 2 ErrMin= 1.71D-02
 ErrMax= 1.96D-02  0.00D+00 EMaxC= 1.00D-01 BMatC= 1.11D-02 BMatP= 9.30D-03
 IDIUse=2 WtCom= 0.00D+00 WtEn= 1.00D+00
 Coeff-En:   0.000D+00 0.000D+00 0.100D+01
 Coeff:      0.000D+00 0.000D+00 0.100D+01
 Gap=     0.241 Goal=   None    Shift=    0.000
 RMSDP=5.69D-03 MaxDP=4.51D-02 DE=-3.99D-02 OVMax= 1.23D-01

 Cycle   4  Pass 0  IDiag  1:
 E= -228.712550833046     Delta-E=        0.028236111530 Rises=F Damp=F
 DIIS: error= 4.34D-02 at cycle   4 NSaved=   4.
 NSaved= 4 IEnMin= 3 EnMin= -228.740786944576     IErMin= 2 ErrMin= 1.71D-02
 ErrMax= 4.34D-02  0.00D+00 EMaxC= 1.00D-01 BMatC= 4.25D-02 BMatP= 9.30D-03
 IDIUse=2 WtCom= 0.00D+00 WtEn= 1.00D+00
 Coeff-En:   0.000D+00 0.000D+00 0.745D+00 0.255D+00
 Coeff:      0.000D+00 0.000D+00 0.745D+00 0.255D+00
 Gap=     0.252 Goal=   None    Shift=    0.000
 RMSDP=2.87D-03 MaxDP=2.28D-02 DE= 2.82D-02 OVMax= 6.77D-02

 Cycle   5  Pass 0  IDiag  1:
 E= -228.748858813898     Delta-E=       -0.036307980852 Rises=F Damp=F
 DIIS: error= 9.37D-03 at cycle   5 NSaved=   5.
 NSaved= 5 IEnMin= 5 EnMin= -228.748858813898     IErMin= 5 ErrMin= 9.37D-03
 ErrMax= 9.37D-03  0.00D+00 EMaxC= 1.00D-01 BMatC= 2.25D-03 BMatP= 9.30D-03
 IDIUse=3 WtCom= 9.06D-01 WtEn= 9.37D-02
 Coeff-Com: -0.930D-02 0.295D-01 0.231D+00-0.898D-01 0.838D+00
 Coeff-En:   0.000D+00 0.000D+00 0.205D+00 0.000D+00 0.795D+00
 Coeff:     -0.843D-02 0.268D-01 0.229D+00-0.814D-01 0.834D+00
 Gap=     0.256 Goal=   None    Shift=    0.000
 RMSDP=9.49D-04 MaxDP=7.33D-03 DE=-3.63D-02 OVMax= 2.05D-02

 Cycle   6  Pass 0  IDiag  1:
 E= -228.750894367158     Delta-E=       -0.002035553260 Rises=F Damp=F
 DIIS: error= 6.17D-04 at cycle   6 NSaved=   6.
 NSaved= 6 IEnMin= 6 EnMin= -228.750894367158     IErMin= 6 ErrMin= 6.17D-04
 ErrMax= 6.17D-04  0.00D+00 EMaxC= 1.00D-01 BMatC= 1.03D-05 BMatP= 2.25D-03
 IDIUse=3 WtCom= 9.94D-01 WtEn= 6.17D-03
 Coeff-Com: -0.560D-02 0.117D-01 0.327D-01-0.373D-01 0.255D+00 0.744D+00
 Coeff-En:   0.000D+00 0.000D+00 0.000D+00 0.000D+00 0.000D+00 0.100D+01
 Coeff:     -0.557D-02 0.116D-01 0.325D-01-0.370D-01 0.253D+00 0.745D+00
 Gap=     0.256 Goal=   None    Shift=    0.000
 RMSDP=6.91D-05 MaxDP=5.10D-04 DE=-2.04D-03 OVMax= 1.32D-03

 Cycle   7  Pass 0  IDiag  1:
 E= -228.750904975421     Delta-E=       -0.000010608263 Rises=F Damp=F
 DIIS: error= 3.15D-05 at cycle   7 NSaved=   7.
 NSaved= 7 IEnMin= 7 EnMin= -228.750904975421     IErMin= 7 ErrMin= 3.15D-05
 ErrMax= 3.15D-05  0.00D+00 EMaxC= 1.00D-01 BMatC= 3.80D-08 BMatP= 1.03D-05
 IDIUse=1 WtCom= 1.00D+00 WtEn= 0.00D+00
 Coeff-Com: -0.832D-03 0.117D-02 0.518D-02-0.528D-02 0.471D-01 0.252D+00
 Coeff-Com:  0.701D+00
 Coeff:     -0.832D-03 0.117D-02 0.518D-02-0.528D-02 0.471D-01 0.252D+00
 Coeff:      0.701D+00
 Gap=     0.256 Goal=   None    Shift=    0.000
 RMSDP=3.10D-06 MaxDP=2.87D-05 DE=-1.06D-05 OVMax= 5.36D-05

 Initial convergence to 1.0D-05 achieved.  Increase integral accuracy.
 Cycle   8  Pass 1  IDiag  1:
 E= -228.750961358119     Delta-E=       -0.000056382698 Rises=F Damp=F
 DIIS: error= 1.70D-05 at cycle   1 NSaved=   1.
 NSaved= 1 IEnMin= 1 EnMin= -228.750961358119     IErMin= 1 ErrMin= 1.70D-05
 ErrMax= 1.70D-05  0.00D+00 EMaxC= 1.00D-01 BMatC= 1.05D-08 BMatP= 1.05D-08
 IDIUse=1 WtCom= 1.00D+00 WtEn= 0.00D+00
 Coeff-Com:  0.100D+01
 Coeff:      0.100D+01
 Gap=     0.256 Goal=   None    Shift=    0.000
 RMSDP=3.10D-06 MaxDP=2.87D-05 DE=-5.64D-05 OVMax= 3.79D-05

 Cycle   9  Pass 1  IDiag  1:
 E= -228.750961371021     Delta-E=       -0.000000012902 Rises=F Damp=F
 DIIS: error= 7.66D-06 at cycle   2 NSaved=   2.
 NSaved= 2 IEnMin= 2 EnMin= -228.750961371021     IErMin= 2 ErrMin= 7.66D-06
 ErrMax= 7.66D-06  0.00D+00 EMaxC= 1.00D-01 BMatC= 1.65D-09 BMatP= 1.05D-08
 IDIUse=1 WtCom= 1.00D+00 WtEn= 0.00D+00
 Coeff-Com:  0.160D+00 0.840D+00
 Coeff:      0.160D+00 0.840D+00
 Gap=     0.256 Goal=   None    Shift=    0.000
 RMSDP=1.87D-06 MaxDP=1.76D-05 DE=-1.29D-08 OVMax= 3.85D-05

 Cycle  10  Pass 1  IDiag  1:
 E= -228.750961369062     Delta-E=        0.000000001959 Rises=F Damp=F
 DIIS: error= 1.25D-05 at cycle   3 NSaved=   3.
 NSaved= 3 IEnMin= 2 EnMin= -228.750961371021     IErMin= 2 ErrMin= 7.66D-06
 ErrMax= 1.25D-05  0.00D+00 EMaxC= 1.00D-01 BMatC= 3.84D-09 BMatP= 1.65D-09
 IDIUse=1 WtCom= 1.00D+00 WtEn= 0.00D+00
 Coeff-Com: -0.167D-01 0.612D+00 0.404D+00
 Coeff:     -0.167D-01 0.612D+00 0.404D+00
 Gap=     0.256 Goal=   None    Shift=    0.000
 RMSDP=1.16D-06 MaxDP=9.26D-06 DE= 1.96D-09 OVMax= 2.63D-05

 Cycle  11  Pass 1  IDiag  1:
 E= -228.750961372490     Delta-E=       -0.000000003428 Rises=F Damp=F
 DIIS: error= 3.87D-07 at cycle   4 NSaved=   4.
 NSaved= 4 IEnMin= 4 EnMin= -228.750961372490     IErMin= 4 ErrMin= 3.87D-07
 ErrMax= 3.87D-07  0.00D+00 EMaxC= 1.00D-01 BMatC= 9.08D-12 BMatP= 1.65D-09
 IDIUse=1 WtCom= 1.00D+00 WtEn= 0.00D+00
 Coeff-Com: -0.912D-02 0.186D+00 0.140D+00 0.684D+00
 Coeff:     -0.912D-02 0.186D+00 0.140D+00 0.684D+00
 Gap=     0.256 Goal=   None    Shift=    0.000
 RMSDP=6.60D-08 MaxDP=4.60D-07 DE=-3.43D-09 OVMax= 8.09D-07

 Cycle  12  Pass 1  IDiag  1:
 E= -228.750961372498     Delta-E=       -0.000000000008 Rises=F Damp=F
 DIIS: error= 1.38D-07 at cycle   5 NSaved=   5.
 NSaved= 5 IEnMin= 5 EnMin= -228.750961372498     IErMin= 5 ErrMin= 1.38D-07
 ErrMax= 1.38D-07  0.00D+00 EMaxC= 1.00D-01 BMatC= 8.70D-13 BMatP= 9.08D-12
 IDIUse=1 WtCom= 1.00D+00 WtEn= 0.00D+00
 Coeff-Com: -0.221D-02 0.361D-01 0.312D-01 0.293D+00 0.642D+00
 Coeff:     -0.221D-02 0.361D-01 0.312D-01 0.293D+00 0.642D+00
 Gap=     0.256 Goal=   None    Shift=    0.000
 RMSDP=2.54D-08 MaxDP=2.67D-07 DE=-8.47D-12 OVMax= 5.34D-07

 Cycle  13  Pass 1  IDiag  1:
 E= -228.750961372500     Delta-E=       -0.000000000002 Rises=F Damp=F
 DIIS: error= 6.48D-08 at cycle   6 NSaved=   6.
 NSaved= 6 IEnMin= 6 EnMin= -228.750961372500     IErMin= 6 ErrMin= 6.48D-08
 ErrMax= 6.48D-08  0.00D+00 EMaxC= 1.00D-01 BMatC= 1.57D-13 BMatP= 8.70D-13
 IDIUse=1 WtCom= 1.00D+00 WtEn= 0.00D+00
 Coeff-Com: -0.617D-03 0.373D-02 0.440D-02 0.106D+00 0.360D+00 0.527D+00
 Coeff:     -0.617D-03 0.373D-02 0.440D-02 0.106D+00 0.360D+00 0.527D+00
 Gap=     0.256 Goal=   None    Shift=    0.000
 RMSDP=7.87D-09 MaxDP=7.67D-08 DE=-1.99D-12 OVMax= 1.17D-07

 SCF Done:  E(RB3LYP) =  -228.750961372     A.U. after   13 cycles
            NFock= 13  Conv=0.79D-08     -V/T= 2.0080
 KE= 2.269371030095D+02 PE=-8.550618172132D+02 EE= 2.381476333966D+02
 Leave Link  502 at Sun Oct 18 13:37:53 2015, MaxMem=    33554432 cpu:         1.0
 (Enter /home/Applications/g09/g09/l801.exe)
 DoSCS=F DFT=T ScalE2(SS,OS)=  1.000000  1.000000
 ExpMin= 1.83D-01 ExpMax= 3.22D+02 ExpMxC= 3.22D+02 IAcc=3 IRadAn=         5 AccDes= 0.00D+00
 HarFok:  IExCor=  205 AccDes= 0.00D+00 IRadAn=         5 IDoV=-2 UseB2=F ITyADJ=14
 ICtDFT= 12500011 ScaDFX=  1.000000  1.000000  1.000000  1.000000
 Largest valence mixing into a core orbital is  2.09D-04
 Largest core mixing into a valence orbital is  4.65D-05
 Range of M.O.s used for correlation:     6    53
 NBasis=    53 NAE=    18 NBE=    18 NFC=     5 NFV=     0
 NROrb=     48 NOA=    13 NOB=    13 NVA=    35 NVB=    35
 Leave Link  801 at Sun Oct 18 13:37:53 2015, MaxMem=    33554432 cpu:         0.2
 (Enter /home/Applications/g09/g09/l914.exe)
 RHF ground state
 MDV=    33554432 DFT=T DoStab=F Mixed=T DoRPA=F DoScal=F NonHer=F
 Keep R1, R2, and R3 ints in memory in symmetry-blocked form, NReq=3551322.
 FoFCou: FMM=F IPFlag=           0 FMFlag=           0 FMFlg1=           0
         NFxFlg=           0 DoJE=F BraDBF=F KetDBF=F FulRan=T
         wScrn=  0.000000 ICntrl=     600 IOpCl=  0 I1Cent=           0 NGrid=           0
         NMat0=    1 NMatS0=   1431 NMatT0=    0 NMatD0=    1 NMtDS0=    0 NMtDT0=    0
 Petite list used in FoFCou.
 Making orbital integer symmetry assigments:
 Orbital symmetries:
       Occupied  (A1) (B2) (A1) (B2) (A1) (A1) (A1) (B2) (B2) (A1)
                 (A1) (B1) (B2) (B2) (A1) (A1) (B1) (A2)
       Virtual   (B1) (A2) (A1) (A1) (B2) (B2) (B2) (A1) (A1) (B2)
                 (B2) (A1) (B1) (B2) (A1) (A2) (B1) (B2) (A1) (A2)
                 (A1) (B2) (B2) (A1) (B2) (A1) (B2) (A1) (B1) (B2)
                 (A1) (A1) (B2) (B2) (A1)
    60 initial guesses have been made.
 Convergence on wavefunction:    0.000001000000000
 Davidson Disk Diagonalization:  ConvIn= 1.00D-06 SkipCon=T Conv= 1.00D-06.
 Max sub-space:   240 roots to seek:    60 dimension of matrix:          910
 Iteration     1 Dimension    60 NMult     0 NNew     60
 CISAX will form    60 AO SS matrices at one time.
 NMat=    60 NSing=    60 JSym2X=-1.
 New state      1 was old state      3
 New state      2 was old state      1
 New state      3 was old state      5
 New state      4 was old state      6
 New state      5 was old state      7
 New state      6 was old state      8
 New state      7 was old state      9
 New state      8 was old state     11
 New state      9 was old state      4
 New state     10 was old state     13
 New state     11 was old state     10
 New state     13 was old state     14
 New state     14 was old state     15
 New state     15 was old state      2
 Excitation Energies [eV] at current iteration:
 Root      1 :     7.457480950712966
 Root      2 :     8.170835202758447
 Root      3 :     8.723688065398237
 Root      4 :     8.915623078313066
 Root      5 :     9.443925788011477
 Root      6 :     9.707553625967769
 Root      7 :     9.983377678249029
 Root      8 :    10.147144346949790
 Root      9 :    10.208719730495010
 Root     10 :    10.383737744129420
 Root     11 :    10.482094403867350
 Root     12 :    10.603773890418690
 Root     13 :    10.806071003065690
 Root     14 :    11.105738201742650
 Root     15 :    11.143346154172290
 Root     16 :    11.192274884988550
 Root     17 :    11.196944123803460
 Root     18 :    11.359244790079060
 Root     19 :    11.473431737772200
 Root     20 :    11.666799409545160
 Root     21 :    12.074227770037140
 Root     22 :    12.134346534147350
 Root     23 :    12.220656435628960
 Root     24 :    12.523769137445850
 Root     25 :    12.793858699994590
 Root     26 :    13.223017502141740
 Root     27 :    13.424645720688460
 Root     28 :    13.705836157420430
 Root     29 :    13.880101363279550
 Root     30 :    14.064525724319840
 Root     31 :    14.073521674263980
 Root     32 :    14.095437840397730
 Root     33 :    14.277034963169520
 Root     34 :    14.533364776437900
 Root     35 :    14.676796420381170
 Root     36 :    14.700645486366680
 Root     37 :    14.708110976150430
 Root     38 :    14.803907228800300
 Root     39 :    14.856916307209230
 Root     40 :    14.961165245949300
 Root     41 :    15.005624459547720
 Root     42 :    15.079867951759440
 Root     43 :    15.312052852648210
 Root     44 :    15.421039913994240
 Root     45 :    15.499693815594700
 Root     46 :    15.651983479008810
 Root     47 :    15.683521770627790
 Root     48 :    15.704900613586850
 Root     49 :    15.735715727955940
 Root     50 :    15.878416266950010
 Root     51 :    15.943642994542880
 Root     52 :    16.173842101273170
 Root     53 :    16.258036695274810
 Root     54 :    16.372163824146340
 Root     55 :    16.443447131579220
 Root     56 :    16.621941988248410
 Root     57 :    16.807451932871240
 Root     58 :    17.285370776431080
 Root     59 :    17.361958903611430
 Root     60 :    17.969486485273730
 Iteration     2 Dimension   120 NMult    60 NNew     60
 CISAX will form    60 AO SS matrices at one time.
 NMat=    60 NSing=    60 JSym2X=-1.
 Root      1 not converged, maximum delta is    0.045857150535235
 Root      2 not converged, maximum delta is    0.061611227966780
 Root      3 not converged, maximum delta is    0.005737441339362
 Root      4 not converged, maximum delta is    0.015521505364482
 Root      5 not converged, maximum delta is    0.022928638036245
 New state      6 was old state      9
 Root      6 not converged, maximum delta is    0.053698807877887
 New state      7 was old state      6
 Root      7 not converged, maximum delta is    0.007655389417752
 New state      8 was old state     15
 Root      8 not converged, maximum delta is    0.093041191991093
 New state      9 was old state      7
 Root      9 not converged, maximum delta is    0.043880430224322
 New state     10 was old state      8
 Root     10 not converged, maximum delta is    0.041618286659796
 New state     11 was old state     10
 Root     11 not converged, maximum delta is    0.012752342402225
 New state     12 was old state     11
 Root     12 not converged, maximum delta is    0.024431299885499
 New state     13 was old state     12
 Root     13 not converged, maximum delta is    0.026417839318141
 New state     14 was old state     13
 Root     14 not converged, maximum delta is    0.007494205858970
 New state     15 was old state     14
 Root     15 not converged, maximum delta is    0.007225829542118
 Excitation Energies [eV] at current iteration:
 Root      1 :     7.309174545107746   Change is   -0.148306405605220
 Root      2 :     7.348481704860387   Change is   -0.822353497898059
 Root      3 :     8.717812399188736   Change is   -0.005875666209503
 Root      4 :     8.888061242250094   Change is   -0.027561836062972
 Root      5 :     9.421028127596498   Change is   -0.022897660414978
 Root      6 :     9.632943259331325   Change is   -0.575776471163682
 Root      7 :     9.699119993978071   Change is   -0.008433631989699
 Root      8 :     9.837169156507121   Change is   -1.306176997665173
 Root      9 :     9.968877307844672   Change is   -0.014500370404358
 Root     10 :    10.123150165781820   Change is   -0.023994181167976
 Root     11 :    10.367914965265230   Change is   -0.015822778864189
 Root     12 :    10.466844701103960   Change is   -0.015249702763394
 Root     13 :    10.591427688047310   Change is   -0.012346202371386
 Root     14 :    10.801281586959500   Change is   -0.004789416106192
 Root     15 :    11.098638201397670   Change is   -0.007100000344971
 Root     16 :    11.167043702460620   Change is   -0.029900421342841
 Root     17 :    11.172866182582790   Change is   -0.019408702405758
 Root     18 :    11.312401254998710   Change is   -0.046843535080340
 Root     19 :    11.463724246316140   Change is   -0.009707491456058
 Root     20 :    11.643459178769490   Change is   -0.023340230775672
 Root     21 :    12.032453574697350   Change is   -0.041774195339791
 Root     22 :    12.048155312880380   Change is   -0.172501122748578
 Root     23 :    12.099828454198810   Change is   -0.034518079948532
 Root     24 :    12.498957116423520   Change is   -0.024812021022337
 Root     25 :    12.707584318056410   Change is   -0.086274381938175
 Root     26 :    13.041479453888180   Change is   -1.659166032478499
 Root     27 :    13.186053313249290   Change is   -0.036964188892447
 Root     28 :    13.382280487051420   Change is   -0.042365233637039
 Root     29 :    13.524249845978800   Change is   -0.355851517300753
 Root     30 :    13.704951069630780   Change is   -0.000885087789647
 Root     31 :    14.043121689062880   Change is   -0.030399985201101
 Root     32 :    14.056211787346980   Change is   -0.039226053050743
 Root     33 :    14.174451104558990   Change is   -0.102583858610535
 Root     34 :    14.190864181932110   Change is    0.126338457612270
 Root     35 :    14.504321442261060   Change is   -0.029043334176844
 Root     36 :    14.637703984461000   Change is   -0.166203244339295
 Root     37 :    14.641054156924940   Change is   -0.035742263456235
 Root     38 :    14.685985761991710   Change is   -0.022125214158719
 Root     39 :    14.719590234794620   Change is   -0.137326072414609
 Root     40 :    14.849448130803970   Change is   -0.111717115145334
 Root     41 :    14.919647876909450   Change is   -0.085976582638273
 Root     42 :    15.031042729582940   Change is   -0.048825222176501
 Root     43 :    15.110573390168200   Change is   -0.389120425426501
 Root     44 :    15.197545213383440   Change is   -0.114507639264772
 Root     45 :    15.405641166090720   Change is   -0.015398747903528
 Root     46 :    15.466906589626610   Change is   -0.216615181001173
 Root     47 :    15.496421599466250   Change is   -0.208479014120592
 Root     48 :    15.607340793476210   Change is   -0.044642685532608
 Root     49 :    15.697508942679080   Change is   -0.038206785276864
 Root     50 :    15.746612946782160   Change is   -0.131803320167849
 Root     51 :    15.775613748191070   Change is   -0.168029246351807
 Root     52 :    16.006647656313400   Change is   -0.167194444959774
 Root     53 :    16.090275802935160   Change is   -0.167760892339646
 Root     54 :    16.326554809572820   Change is   -0.045609014573516
 Root     55 :    16.351518642618260   Change is   -0.933852133812818
 Root     56 :    16.377901266650670   Change is   -0.065545864928552
 Root     57 :    16.451307320643450   Change is   -0.356144612227792
 Root     58 :    16.457064651856580   Change is   -0.904894251754854
 Root     59 :    16.494138470487730   Change is   -0.127803517760688
 Root     60 :    16.613693977670820   Change is   -1.355792507602916
 Iteration     3 Dimension   135 NMult   120 NNew     15
 CISAX will form    15 AO SS matrices at one time.
 NMat=    15 NSing=    15 JSym2X=-1.
 Root      1 not converged, maximum delta is    0.001519270862381
 Root      2 not converged, maximum delta is    0.002792497218476
 Root      3 not converged, maximum delta is    0.000103518702787
 Root      4 not converged, maximum delta is    0.000302301126505
 Root      5 not converged, maximum delta is    0.000210617528391
 Root      6 not converged, maximum delta is    0.003437904201003
 Root      7 not converged, maximum delta is    0.000086435325602
 Root      8 not converged, maximum delta is    0.003314350673844
 Root      9 not converged, maximum delta is    0.000350901372675
 Root     10 not converged, maximum delta is    0.000726694824041
 Root     11 not converged, maximum delta is    0.000220873189269
 Root     12 not converged, maximum delta is    0.000449062731052
 Root     13 not converged, maximum delta is    0.000241563971911
 Root     14 not converged, maximum delta is    0.000105315720508
 Root     15 not converged, maximum delta is    0.000140694536078
 Excitation Energies [eV] at current iteration:
 Root      1 :     7.308135880259775   Change is   -0.001038664847971
 Root      2 :     7.346590824842101   Change is   -0.001890880018286
 Root      3 :     8.717809898394277   Change is   -0.000002500794457
 Root      4 :     8.888038903698218   Change is   -0.000022338551875
 Root      5 :     9.421013179656724   Change is   -0.000014947939774
 Root      6 :     9.631010063941902   Change is   -0.001933195389424
 Root      7 :     9.699116822901845   Change is   -0.000003171076227
 Root      8 :     9.831630636312772   Change is   -0.005538520194349
 Root      9 :     9.968852966509552   Change is   -0.000024341335121
 Root     10 :    10.123090803121440   Change is   -0.000059362660381
 Root     11 :    10.367903789290760   Change is   -0.000011175974473
 Root     12 :    10.466815347464390   Change is   -0.000029353639570
 Root     13 :    10.591415981667310   Change is   -0.000011706379996
 Root     14 :    10.801277701205680   Change is   -0.000003885753817
 Root     15 :    11.098632620696440   Change is   -0.000005580701233
 Iteration     4 Dimension   150 NMult   135 NNew     15
 CISAX will form    15 AO SS matrices at one time.
 NMat=    15 NSing=    15 JSym2X=-1.
 Root      1 not converged, maximum delta is    0.000085783943832
 Root      2 not converged, maximum delta is    0.000082895163506
 Root      3 not converged, maximum delta is    0.000002712787051
 Root      4 not converged, maximum delta is    0.000004266646060
 Root      5 not converged, maximum delta is    0.000003383737963
 Root      6 not converged, maximum delta is    0.000075138120313
 Root      7 not converged, maximum delta is    0.000002374541272
 Root      8 not converged, maximum delta is    0.000131792621713
 Root      9 not converged, maximum delta is    0.000007120918807
 Root     10 not converged, maximum delta is    0.000009211093700
 Root     11 not converged, maximum delta is    0.000007898689502
 Root     12 not converged, maximum delta is    0.000005273180003
 Root     13 not converged, maximum delta is    0.000003746305458
 Root     14 not converged, maximum delta is    0.000005960650735
 Root     15 not converged, maximum delta is    0.000008501186580
 Excitation Energies [eV] at current iteration:
 Root      1 :     7.308133734448808   Change is   -0.000002145810967
 Root      2 :     7.346588753050945   Change is   -0.000002071791157
 Root      3 :     8.717809897099562   Change is   -0.000000001294716
 Root      4 :     8.888038895783275   Change is   -0.000000007914943
 Root      5 :     9.421013172967319   Change is   -0.000000006689405
 Root      6 :     9.631007043709110   Change is   -0.000003020232792
 Root      7 :     9.699116821377245   Change is   -0.000000001524598
 Root      8 :     9.831619269474757   Change is   -0.000011366838015
 Root      9 :     9.968852955897493   Change is   -0.000000010612058
 Root     10 :    10.123090779958880   Change is   -0.000000023162563
 Root     11 :    10.367903781092060   Change is   -0.000000008198705
 Root     12 :    10.466815337558570   Change is   -0.000000009905821
 Root     13 :    10.591415976876300   Change is   -0.000000004791013
 Root     14 :    10.801277697953160   Change is   -0.000000003252516
 Root     15 :    11.098632614605140   Change is   -0.000000006091300
 Iteration     5 Dimension   165 NMult   150 NNew     15
 CISAX will form    15 AO SS matrices at one time.
 NMat=    15 NSing=    15 JSym2X=-1.
 Root      1 not converged, maximum delta is    0.000003982868510
 Root      2 not converged, maximum delta is    0.000002834092501
 Root      3 has converged.
 Root      4 has converged.
 Root      5 has converged.
 Root      6 not converged, maximum delta is    0.000003192586221
 Root      7 has converged.
 Root      8 not converged, maximum delta is    0.000010513626180
 Root      9 has converged.
 Root     10 has converged.
 Root     11 has converged.
 Root     12 has converged.
 Root     13 has converged.
 Root     14 has converged.
 Root     15 has converged.
 Excitation Energies [eV] at current iteration:
 Root      1 :     7.308133728801757   Change is   -0.000000005647051
 Root      2 :     7.346588751006462   Change is   -0.000000002044482
 Root      3 :     8.717809897098803   Change is   -0.000000000000758
 Root      4 :     8.888038895780470   Change is   -0.000000000002805
 Root      5 :     9.421013172964287   Change is   -0.000000000003032
 Root      6 :     9.631007040729967   Change is   -0.000000002979143
 Root      7 :     9.699116821376316   Change is   -0.000000000000929
 Root      8 :     9.831619245043566   Change is   -0.000000024431192
 Root      9 :     9.968852955894642   Change is   -0.000000000002850
 Root     10 :    10.123090779948480   Change is   -0.000000000010399
 Root     11 :    10.367903781086740   Change is   -0.000000000005311
 Root     12 :    10.466815337552330   Change is   -0.000000000006240
 Root     13 :    10.591415976873830   Change is   -0.000000000002465
 Root     14 :    10.801277697950650   Change is   -0.000000000002517
 Root     15 :    11.098632614599890   Change is   -0.000000000005252
 Iteration     6 Dimension   169 NMult   165 NNew      4
 CISAX will form     4 AO SS matrices at one time.
 NMat=     4 NSing=     4 JSym2X=-1.
 Root      1 has converged.
 Root      2 has converged.
 Root      3 has converged.
 Root      4 has converged.
 Root      5 has converged.
 Root      6 has converged.
 Root      7 has converged.
 Root      8 has converged.
 Root      9 has converged.
 Root     10 has converged.
 Root     11 has converged.
 Root     12 has converged.
 Root     13 has converged.
 Root     14 has converged.
 Root     15 has converged.
 Excitation Energies [eV] at current iteration:
 Root      1 :     7.308133728791431   Change is   -0.000000000010326
 Root      2 :     7.346588751005079   Change is   -0.000000000001384
 Root      3 :     8.717809897098821   Change is    0.000000000000017
 Root      4 :     8.888038895780495   Change is    0.000000000000026
 Root      5 :     9.421013172964289   Change is    0.000000000000002
 Root      6 :     9.631007040726370   Change is   -0.000000000003597
 Root      7 :     9.699116821376304   Change is   -0.000000000000012
 Root      8 :     9.831619244993865   Change is   -0.000000000049700
 Root      9 :     9.968852955894651   Change is    0.000000000000008
 Root     10 :    10.123090779948480   Change is    0.000000000000002
 Root     11 :    10.367903781086750   Change is    0.000000000000002
 Root     12 :    10.466815337552330   Change is    0.000000000000006
 Root     13 :    10.591415976873830   Change is    0.000000000000003
 Root     14 :    10.801277697950610   Change is   -0.000000000000039
 Root     15 :    11.098632614599890   Change is    0.000000000000002
 Convergence achieved on expansion vectors.
 ***********************************************************************
 Excited states from <AA,BB:AA,BB> singles matrix:
 ***********************************************************************
 
 1PDM for each excited state written to RWF  633
 Ground to excited state transition densities written to RWF  633
 Ground to excited state transition electric dipole moments (Au):
       state          X           Y           Z        Dip. S.      Osc.
         1         0.0000      0.0000      0.0575      0.0033      0.0006
         2         0.0000     -1.1234      0.0000      1.2621      0.2272
         3         0.0000      0.0000      0.0000      0.0000      0.0000
         4         0.1469      0.0000      0.0000      0.0216      0.0047
         5         0.0000      0.0000      0.0000      0.0000      0.0000
         6         0.0000      0.8314      0.0000      0.6913      0.1631
         7         0.0417      0.0000      0.0000      0.0017      0.0004
         8         0.0000      0.0000      1.5614      2.4378      0.5872
         9        -0.0629      0.0000      0.0000      0.0040      0.0010
        10         0.0524      0.0000      0.0000      0.0027      0.0007
        11         0.0000      0.0000      0.0000      0.0000      0.0000
        12         0.0177      0.0000      0.0000      0.0003      0.0001
        13        -0.0537      0.0000      0.0000      0.0029      0.0007
        14         0.0000      0.0000      0.0000      0.0000      0.0000
        15         0.0000      0.0000      0.0000      0.0000      0.0000
 Ground to excited state transition velocity dipole moments (Au):
       state          X           Y           Z        Dip. S.      Osc.
         1         0.0000      0.0000      0.0535      0.0029      0.0071
         2         0.0000      0.0087      0.0000      0.0001      0.0002
         3         0.0000      0.0000      0.0000      0.0000      0.0000
         4        -0.0796      0.0000      0.0000      0.0063      0.0129
         5         0.0000      0.0000      0.0000      0.0000      0.0000
         6         0.0000     -0.0921      0.0000      0.0085      0.0160
         7        -0.0488      0.0000      0.0000      0.0024      0.0044
         8         0.0000      0.0000     -0.0473      0.0022      0.0041
         9         0.0013      0.0000      0.0000      0.0000      0.0000
        10        -0.0152      0.0000      0.0000      0.0002      0.0004
        11         0.0000      0.0000      0.0000      0.0000      0.0000
        12        -0.0298      0.0000      0.0000      0.0009      0.0015
        13        -0.0452      0.0000      0.0000      0.0020      0.0035
        14         0.0000      0.0000      0.0000      0.0000      0.0000
        15         0.0000      0.0000      0.0000      0.0000      0.0000
 Ground to excited state transition magnetic dipole moments (Au):
       state          X           Y           Z
         1         0.0000      0.0000      0.0000
         2         0.4831      0.0000      0.0000
         3         0.0000      0.0000     -0.5314
         4         0.0000     -1.6252      0.0000
         5         0.0000      0.0000      0.1358
         6         0.2790      0.0000      0.0000
         7         0.0000      0.1408      0.0000
         8         0.0000      0.0000      0.0000
         9         0.0000      0.2497      0.0000
        10         0.0000     -0.1225      0.0000
        11         0.0000      0.0000      0.5065
        12         0.0000      0.0983      0.0000
        13         0.0000     -0.1381      0.0000
        14         0.0000      0.0000     -0.0796
        15         0.0000      0.0000     -0.1054
 Ground to excited state transition velocity quadrupole moments (Au):
       state          XX          YY          ZZ          XY          XZ          YZ
         1         0.0277     -0.0257     -0.0214      0.0000      0.0000      0.0000
         2         0.0000      0.0000      0.0000      0.0000      0.0000      0.2319
         3         0.0000      0.0000      0.0000      0.0721      0.0000      0.0000
         4         0.0000      0.0000      0.0000      0.0000     -0.2028      0.0000
         5         0.0000      0.0000      0.0000      0.1961      0.0000      0.0000
         6         0.0000      0.0000      0.0000      0.0000      0.0000      0.3653
         7         0.0000      0.0000      0.0000      0.0000     -0.0464      0.0000
         8         0.0586     -0.3267      0.2779      0.0000      0.0000      0.0000
         9         0.0000      0.0000      0.0000      0.0000      0.1287      0.0000
        10         0.0000      0.0000      0.0000      0.0000      0.0547      0.0000
        11         0.0000      0.0000      0.0000      0.0065      0.0000      0.0000
        12         0.0000      0.0000      0.0000      0.0000      0.0996      0.0000
        13         0.0000      0.0000      0.0000      0.0000     -0.0624      0.0000
        14         0.0000      0.0000      0.0000      0.0313      0.0000      0.0000
        15         0.0000      0.0000      0.0000     -0.0470      0.0000      0.0000
 <0|del|b> * <b|rxdel|0> + <0|del|b> * <b|delr+rdel|0>
 Rotatory Strengths (R) in cgs (10**-40 erg-esu-cm/Gauss)
       state          XX          YY          ZZ    R(velocity)    E-M Angle
         1         0.0000      0.0000      0.0000      0.0000       90.00
         2         0.0000      0.0000      0.0000      0.0000       90.00
         3         0.0000      0.0000      0.0000      0.0000       90.00
         4         0.0000      0.0000      0.0000      0.0000       90.00
         5         0.0000      0.0000      0.0000      0.0000       90.00
         6         0.0000      0.0000      0.0000      0.0000       90.00
         7         0.0000      0.0000      0.0000      0.0000       90.00
         8         0.0000      0.0000      0.0000      0.0000       90.00
         9         0.0000      0.0000      0.0000      0.0000       90.00
        10         0.0000      0.0000      0.0000      0.0000       90.00
        11         0.0000      0.0000      0.0000      0.0000       90.00
        12         0.0000      0.0000      0.0000      0.0000       90.00
        13         0.0000      0.0000      0.0000      0.0000       90.00
        14         0.0000      0.0000      0.0000      0.0000       90.00
        15         0.0000      0.0000      0.0000      0.0000       90.00
 1/2[<0|r|b>*<b|rxdel|0> + (<0|rxdel|b>*<b|r|0>)*]
 Rotatory Strengths (R) in cgs (10**-40 erg-esu-cm/Gauss)
       state          XX          YY          ZZ     R(length)
         1         0.0000      0.0000      0.0000      0.0000
         2         0.0000      0.0000      0.0000      0.0000
         3         0.0000      0.0000      0.0000      0.0000
         4         0.0000      0.0000      0.0000      0.0000
         5         0.0000      0.0000      0.0000      0.0000
         6         0.0000      0.0000      0.0000      0.0000
         7         0.0000      0.0000      0.0000      0.0000
         8         0.0000      0.0000      0.0000      0.0000
         9         0.0000      0.0000      0.0000      0.0000
        10         0.0000      0.0000      0.0000      0.0000
        11         0.0000      0.0000      0.0000      0.0000
        12         0.0000      0.0000      0.0000      0.0000
        13         0.0000      0.0000      0.0000      0.0000
        14         0.0000      0.0000      0.0000      0.0000
        15         0.0000      0.0000      0.0000      0.0000
  1/2[<0|del|b>*<b|r|0> + (<0|r|b>*<b|del|0>)*] (Au)
       state          X           Y           Z        Dip. S.   Osc.(frdel)
         1         0.0000      0.0000      0.0031     -0.0031     -0.0021
         2         0.0000     -0.0097      0.0000      0.0097      0.0065
         3         0.0000      0.0000      0.0000      0.0000      0.0000
         4        -0.0117      0.0000      0.0000      0.0117      0.0078
         5         0.0000      0.0000      0.0000      0.0000      0.0000
         6         0.0000     -0.0765      0.0000      0.0765      0.0510
         7        -0.0020      0.0000      0.0000      0.0020      0.0014
         8         0.0000      0.0000     -0.0738      0.0738      0.0492
         9        -0.0001      0.0000      0.0000      0.0001      0.0001
        10        -0.0008      0.0000      0.0000      0.0008      0.0005
        11         0.0000      0.0000      0.0000      0.0000      0.0000
        12        -0.0005      0.0000      0.0000      0.0005      0.0004
        13         0.0024      0.0000      0.0000     -0.0024     -0.0016
        14         0.0000      0.0000      0.0000      0.0000      0.0000
        15         0.0000      0.0000      0.0000      0.0000      0.0000

 Excitation energies and oscillator strengths:
 
 Excited State   1:      Singlet-A1     7.3081 eV  169.65 nm  f=0.0006  <S**2>=0.000
      17 -> 19         0.51539
      18 -> 20        -0.47478
 This state for optimization and/or second-order correction.
 Total Energy, E(CIS) =  -228.482392388    
 Copying the excited state density for this state as the 1-particle RhoCI density.
 
 Excited State   2:      Singlet-B2     7.3466 eV  168.76 nm  f=0.2272  <S**2>=0.000
      18 -> 19         0.68441
 
 Excited State   3:      Singlet-A2     8.7178 eV  142.22 nm  f=0.0000  <S**2>=0.000
      18 -> 21         0.69319
      18 -> 22        -0.11735
 
 Excited State   4:      Singlet-B1     8.8880 eV  139.50 nm  f=0.0047  <S**2>=0.000
      16 -> 19         0.70200
 
 Excited State   5:      Singlet-A2     9.4210 eV  131.60 nm  f=0.0000  <S**2>=0.000
      18 -> 21         0.11605
      18 -> 22         0.68822
 
 Excited State   6:      Singlet-B2     9.6310 eV  128.73 nm  f=0.1631  <S**2>=0.000
      17 -> 20         0.68280
 
 Excited State   7:      Singlet-B1     9.6991 eV  127.83 nm  f=0.0004  <S**2>=0.000
      15 -> 19         0.12225
      17 -> 21         0.27526
      18 -> 23         0.62303
      18 -> 24         0.10604
 
 Excited State   8:      Singlet-A1     9.8316 eV  126.11 nm  f=0.5872  <S**2>=0.000
      17 -> 19         0.44039
      18 -> 20         0.49001
 
 Excited State   9:      Singlet-B1     9.9689 eV  124.37 nm  f=0.0010  <S**2>=0.000
      15 -> 19        -0.19913
      17 -> 21         0.61945
      18 -> 23        -0.24226
 
 Excited State  10:      Singlet-B1    10.1231 eV  122.48 nm  f=0.0007  <S**2>=0.000
      15 -> 19         0.65925
      17 -> 21         0.14300
      18 -> 23        -0.17821
 
 Excited State  11:      Singlet-A2    10.3679 eV  119.58 nm  f=0.0000  <S**2>=0.000
      14 -> 19         0.56434
      16 -> 20        -0.41326
 
 Excited State  12:      Singlet-B1    10.4668 eV  118.45 nm  f=0.0001  <S**2>=0.000
      18 -> 24         0.68712
 
 Excited State  13:      Singlet-B1    10.5914 eV  117.06 nm  f=0.0007  <S**2>=0.000
      17 -> 21         0.10108
      17 -> 22         0.69215
 
 Excited State  14:      Singlet-A2    10.8013 eV  114.79 nm  f=0.0000  <S**2>=0.000
      13 -> 19         0.13546
      14 -> 19         0.39745
      16 -> 20         0.55588
 
 Excited State  15:      Singlet-A2    11.0986 eV  111.71 nm  f=0.0000  <S**2>=0.000
      17 -> 23         0.67315
      17 -> 24         0.13910
      17 -> 25        -0.12429
 SavETr:  write IOETrn=   770 NScale= 10 NData=  16 NLR=1 NState=   15 LETran=     280.
 The selected state is a singlet
 CISAX will form     1 AO SS matrices at one time.
 NMat=     1 NSing=     1 JSym2X=-1.
 CISAX will form     1 AO SS matrices at one time.
 NMat=     1 NSing=     1 JSym2X=-1.
 Leave Link  914 at Sun Oct 18 13:38:06 2015, MaxMem=    33554432 cpu:        13.2
 (Enter /home/Applications/g09/g09/l1002.exe)
 Minotr:  Closed shell wavefunction.
          Computing CIS/TD-HF/TD-KS derivatives.
          Using Z-Vector for PSCF gradient.
          Skipping F1 and S1 gradient terms here.
          IDoAtm=111111111
          Frozen-core window.
          Direct CPHF calculation.
          Differentiating once with respect to electric field.
                with respect to dipole field.
          Differentiating once with respect to nuclear coordinates.
          Requested convergence is 1.0D-10 RMS, and 1.0D-09 maximum.
          NewPWx=F KeepS1=T KeepF1=T KeepIn=T MapXYZ=F SortEE=F KeepMc=T.
          MDV=      33554290 using IRadAn=       0.
 Using stored XC quadrature information.
 Keep R1 ints in memory in symmetry-blocked form, NReq=1903181.
 FoFCou: FMM=F IPFlag=           0 FMFlag=           0 FMFlg1=           0
         NFxFlg=           0 DoJE=F BraDBF=F KetDBF=F FulRan=T
         wScrn=  0.000000 ICntrl=     600 IOpCl=  0 I1Cent=           0 NGrid=           0
         NMat0=    1 NMatS0=   1431 NMatT0=    0 NMatD0=    1 NMtDS0=    0 NMtDT0=    0
 Petite list used in FoFCou.
          Solving linear equations separately, MaxMat=       0.
          There are     1 degrees of freedom in the 1st order CPHF.  IDoFFX=0 NUNeed=     1.
 LinEq1:  Iter=  0 NonCon=     1 RMS=7.54D-03 Max=1.04D-01 NDo=     1
 AX will form     1 AO Fock derivatives at one time.
 LinEq1:  Iter=  1 NonCon=     1 RMS=5.51D-03 Max=9.59D-02 NDo=     1
 LinEq1:  Iter=  2 NonCon=     1 RMS=2.69D-03 Max=2.93D-02 NDo=     1
 LinEq1:  Iter=  3 NonCon=     1 RMS=1.36D-03 Max=1.81D-02 NDo=     1
 LinEq1:  Iter=  4 NonCon=     1 RMS=5.52D-04 Max=4.49D-03 NDo=     1
 LinEq1:  Iter=  5 NonCon=     1 RMS=6.39D-05 Max=4.94D-04 NDo=     1
 LinEq1:  Iter=  6 NonCon=     1 RMS=8.46D-06 Max=7.52D-05 NDo=     1
 LinEq1:  Iter=  7 NonCon=     1 RMS=9.61D-07 Max=6.52D-06 NDo=     1
 LinEq1:  Iter=  8 NonCon=     1 RMS=1.38D-07 Max=1.16D-06 NDo=     1
 LinEq1:  Iter=  9 NonCon=     1 RMS=1.85D-08 Max=1.14D-07 NDo=     1
 LinEq1:  Iter= 10 NonCon=     1 RMS=1.34D-09 Max=1.28D-08 NDo=     1
 LinEq1:  Iter= 11 NonCon=     1 RMS=1.10D-10 Max=7.22D-10 NDo=     1
 LinEq1:  Iter= 12 NonCon=     0 RMS=8.02D-12 Max=6.96D-11 NDo=     1
 Linear equations converged to 1.000D-10 1.000D-09 after    12 iterations.
 End of Minotr F.D. properties file   721 does not exist.
 End of Minotr F.D. properties file   722 does not exist.
 End of Minotr F.D. properties file   788 does not exist.
 Leave Link 1002 at Sun Oct 18 13:38:08 2015, MaxMem=    33554432 cpu:         2.0
 (Enter /home/Applications/g09/g09/l601.exe)
 Copying SCF densities to generalized density rwf, IOpCl= 0 IROHF=0.

 **********************************************************************

            Population analysis using the SCF density.

 **********************************************************************

 Orbital symmetries:
       Occupied  (A1) (B2) (A1) (B2) (A1) (A1) (A1) (B2) (B2) (A1)
                 (A1) (B1) (B2) (B2) (A1) (A1) (B1) (A2)
       Virtual   (B1) (A2) (A1) (A1) (B2) (B2) (B2) (A1) (A1) (B2)
                 (B2) (A1) (B1) (B2) (A1) (A2) (B1) (B2) (A1) (A2)
                 (A1) (B2) (B2) (A1) (B2) (A1) (B2) (A1) (B1) (B2)
                 (A1) (A1) (B2) (B2) (A1)
 The electronic state is 1-A1.
 Alpha  occ. eigenvalues --  -19.11289 -10.17422 -10.17379 -10.12485 -10.12365
 Alpha  occ. eigenvalues --   -1.12917  -0.80598  -0.75025  -0.60321  -0.57105
 Alpha  occ. eigenvalues --   -0.54320  -0.44915  -0.44690  -0.41879  -0.40274
 Alpha  occ. eigenvalues --   -0.36278  -0.27802  -0.23297
 Alpha virt. eigenvalues --    0.02282   0.08209   0.13407   0.15454   0.17347
 Alpha virt. eigenvalues --    0.19035   0.22209   0.22794   0.35710   0.42134
 Alpha virt. eigenvalues --    0.47366   0.68723   0.69995   0.70651   0.74833
 Alpha virt. eigenvalues --    0.76943   0.78983   0.80367   0.81209   0.83873
 Alpha virt. eigenvalues --    0.93380   0.99221   1.00826   1.02623   1.18547
 Alpha virt. eigenvalues --    1.22121   1.33769   1.37101   1.50174   1.56858
 Alpha virt. eigenvalues --    1.62689   1.73720   1.96845   2.14414   3.18921
     Molecular Orbital Coefficients:
                           1         2         3         4         5
                        (A1)--O   (B2)--O   (A1)--O   (B2)--O   (A1)--O
     Eigenvalues --   -19.11289 -10.17422 -10.17379 -10.12485 -10.12365
   1 1   C  1S          0.00016  -0.00740  -0.00816   0.69740   0.69702
   2        2S          0.00068  -0.00380  -0.00396   0.08069   0.07515
   3        2PX         0.00000   0.00000   0.00000   0.00000   0.00000
   4        2PY        -0.00117  -0.00097  -0.00082  -0.00159  -0.00009
   5        2PZ        -0.00078  -0.00144  -0.00228   0.00152   0.00085
   6        3S         -0.00512   0.03799   0.01386  -0.09982  -0.04759
   7        3PX         0.00000   0.00000   0.00000   0.00000   0.00000
   8        3PY         0.00532   0.00073   0.00399   0.02803  -0.00161
   9        3PZ        -0.00715   0.02137   0.00588  -0.02637  -0.01248
  10 2   C  1S         -0.00043   0.69720   0.69639   0.00716   0.00791
  11        2S         -0.00059   0.07777   0.07298  -0.00212  -0.00288
  12        2PX         0.00000   0.00000   0.00000   0.00000   0.00000
  13        2PY        -0.00194  -0.00261  -0.00098   0.00061   0.00070
  14        2PZ         0.00170  -0.00025   0.00063   0.00073   0.00228
  15        3S          0.01769  -0.06449  -0.04062   0.03477   0.02322
  16        3PX         0.00000   0.00000   0.00000   0.00000   0.00000
  17        3PY        -0.01555   0.01878  -0.00545  -0.01450  -0.00915
  18        3PZ         0.00037   0.02009   0.00347  -0.01484  -0.01343
  19 3   O  1S          0.98280   0.00000   0.00037   0.00000   0.00011
  20        2S          0.10796   0.00000   0.00257   0.00000   0.00049
  21        2PX         0.00000   0.00000   0.00000   0.00000   0.00000
  22        2PY         0.00000   0.00075   0.00000   0.00000   0.00000
  23        2PZ        -0.00432   0.00000  -0.00096   0.00000   0.00012
  24        3S         -0.06132   0.00000  -0.00071   0.00000  -0.00549
  25        3PX         0.00000   0.00000   0.00000   0.00000   0.00000
  26        3PY         0.00000  -0.00126   0.00000  -0.00305   0.00000
  27        3PZ         0.01410   0.00000   0.00512   0.00000   0.00266
  28 4   C  1S         -0.00043  -0.69720   0.69639  -0.00716   0.00791
  29        2S         -0.00059  -0.07777   0.07298   0.00212  -0.00288
  30        2PX         0.00000   0.00000   0.00000   0.00000   0.00000
  31        2PY         0.00194  -0.00261   0.00098   0.00061  -0.00070
  32        2PZ         0.00170   0.00025   0.00063  -0.00073   0.00228
  33        3S          0.01769   0.06449  -0.04062  -0.03477   0.02322
  34        3PX         0.00000   0.00000   0.00000   0.00000   0.00000
  35        3PY         0.01555   0.01878   0.00545  -0.01450   0.00915
  36        3PZ         0.00037  -0.02009   0.00347   0.01484  -0.01343
  37 5   C  1S          0.00016   0.00740  -0.00816  -0.69740   0.69702
  38        2S          0.00068   0.00380  -0.00396  -0.08069   0.07515
  39        2PX         0.00000   0.00000   0.00000   0.00000   0.00000
  40        2PY         0.00117  -0.00097   0.00082  -0.00159   0.00009
  41        2PZ        -0.00078   0.00144  -0.00228  -0.00152   0.00085
  42        3S         -0.00512  -0.03799   0.01386   0.09982  -0.04759
  43        3PX         0.00000   0.00000   0.00000   0.00000   0.00000
  44        3PY        -0.00532   0.00073  -0.00399   0.02803   0.00161
  45        3PZ        -0.00715  -0.02137   0.00588   0.02637  -0.01248
  46 6   H  1S         -0.00098   0.00044  -0.00107   0.00254  -0.00280
  47        2S         -0.00310  -0.00244   0.00025   0.00027   0.00640
  48 7   H  1S          0.00022   0.00359  -0.00153   0.00006  -0.00018
  49        2S          0.00382  -0.00062   0.01173  -0.00399   0.00413
  50 8   H  1S          0.00022  -0.00359  -0.00153  -0.00006  -0.00018
  51        2S          0.00382   0.00062   0.01173   0.00399   0.00413
  52 9   H  1S         -0.00098  -0.00044  -0.00107  -0.00254  -0.00280
  53        2S         -0.00310   0.00244   0.00025  -0.00027   0.00640
                           6         7         8         9        10
                        (A1)--O   (A1)--O   (B2)--O   (B2)--O   (A1)--O
     Eigenvalues --    -1.12917  -0.80598  -0.75025  -0.60321  -0.57105
   1 1   C  1S         -0.02729   0.14668  -0.07021  -0.10689   0.04569
   2        2S          0.02653  -0.15721   0.07622   0.10880  -0.04517
   3        2PX         0.00000   0.00000   0.00000   0.00000   0.00000
   4        2PY        -0.00951   0.06132   0.05825   0.10755   0.13309
   5        2PZ         0.03272  -0.05960   0.07005   0.01583   0.10877
   6        3S          0.04652  -0.29527   0.13671   0.36824  -0.15162
   7        3PX         0.00000   0.00000   0.00000   0.00000   0.00000
   8        3PY        -0.02675   0.02272  -0.01651   0.02225   0.05671
   9        3PZ         0.03787  -0.03466  -0.00728   0.04041   0.03031
  10 2   C  1S         -0.07553   0.05450  -0.14634   0.01516  -0.10780
  11        2S          0.08410  -0.06435   0.15782  -0.01249   0.11908
  12        2PX         0.00000   0.00000   0.00000   0.00000   0.00000
  13        2PY        -0.08397   0.01161  -0.02643   0.04078   0.14829
  14        2PZ         0.03169   0.12566   0.00287  -0.21361  -0.00314
  15        3S          0.05805  -0.07946   0.35940  -0.09345   0.33919
  16        3PX         0.00000   0.00000   0.00000   0.00000   0.00000
  17        3PY         0.04139   0.01171  -0.02362   0.03207   0.08250
  18        3PZ         0.01097   0.03292  -0.03637  -0.05772  -0.00978
  19 3   O  1S         -0.21046  -0.08938   0.00000   0.00000   0.05026
  20        2S          0.19090   0.08613   0.00000   0.00000  -0.05038
  21        2PX         0.00000   0.00000   0.00000   0.00000   0.00000
  22        2PY         0.00000   0.00000   0.21446  -0.26023   0.00000
  23        2PZ        -0.11365   0.02327   0.00000   0.00000   0.01246
  24        3S          0.67301   0.32432   0.00000   0.00000  -0.21778
  25        3PX         0.00000   0.00000   0.00000   0.00000   0.00000
  26        3PY         0.00000   0.00000   0.17761  -0.22760   0.00000
  27        3PZ        -0.14531   0.00443   0.00000   0.00000   0.01630
  28 4   C  1S         -0.07553   0.05450   0.14634  -0.01516  -0.10780
  29        2S          0.08410  -0.06435  -0.15782   0.01249   0.11908
  30        2PX         0.00000   0.00000   0.00000   0.00000   0.00000
  31        2PY         0.08397  -0.01161  -0.02643   0.04078  -0.14829
  32        2PZ         0.03169   0.12566  -0.00287   0.21361  -0.00314
  33        3S          0.05805  -0.07946  -0.35940   0.09345   0.33919
  34        3PX         0.00000   0.00000   0.00000   0.00000   0.00000
  35        3PY        -0.04139  -0.01171  -0.02362   0.03207  -0.08250
  36        3PZ         0.01097   0.03292   0.03637   0.05772  -0.00978
  37 5   C  1S         -0.02729   0.14668   0.07021   0.10689   0.04569
  38        2S          0.02653  -0.15721  -0.07622  -0.10880  -0.04517
  39        2PX         0.00000   0.00000   0.00000   0.00000   0.00000
  40        2PY         0.00951  -0.06132   0.05825   0.10755  -0.13309
  41        2PZ         0.03272  -0.05960  -0.07005  -0.01583   0.10877
  42        3S          0.04652  -0.29527  -0.13671  -0.36824  -0.15162
  43        3PX         0.00000   0.00000   0.00000   0.00000   0.00000
  44        3PY         0.02675  -0.02272  -0.01651   0.02225  -0.05671
  45        3PZ         0.03787  -0.03466   0.00728  -0.04041   0.03031
  46 6   H  1S          0.00750  -0.05716  -0.03626  -0.10662  -0.04070
  47        2S          0.01555  -0.01334  -0.00872  -0.06069  -0.02587
  48 7   H  1S          0.01320  -0.01478  -0.08463   0.03795   0.15899
  49        2S         -0.02257  -0.00433  -0.03216   0.02890   0.08093
  50 8   H  1S          0.01320  -0.01478   0.08463  -0.03795   0.15899
  51        2S         -0.02257  -0.00433   0.03216  -0.02890   0.08093
  52 9   H  1S          0.00750  -0.05716   0.03626   0.10662  -0.04070
  53        2S          0.01555  -0.01334   0.00872   0.06069  -0.02587
                          11        12        13        14        15
                        (A1)--O   (B1)--O   (B2)--O   (B2)--O   (A1)--O
     Eigenvalues --    -0.54320  -0.44915  -0.44690  -0.41879  -0.40274
   1 1   C  1S         -0.04562   0.00000  -0.04240   0.00998   0.01748
   2        2S          0.04222   0.00000   0.04596  -0.00564  -0.01924
   3        2PX         0.00000   0.11367   0.00000   0.00000   0.00000
   4        2PY         0.05311   0.00000   0.02222  -0.04736   0.33194
   5        2PZ        -0.20546   0.00000  -0.03670   0.26732  -0.01733
   6        3S          0.20297   0.00000   0.13900  -0.05451  -0.08849
   7        3PX         0.00000   0.08200   0.00000   0.00000   0.00000
   8        3PY         0.05415   0.00000   0.01563  -0.06886   0.20272
   9        3PZ        -0.10577   0.00000  -0.04108   0.15215  -0.04588
  10 2   C  1S          0.01283   0.00000   0.02793  -0.04057  -0.00350
  11        2S         -0.01685   0.00000  -0.02796   0.04917   0.00631
  12        2PX         0.00000   0.19103   0.00000   0.00000   0.00000
  13        2PY         0.13948   0.00000  -0.26181  -0.11163  -0.08713
  14        2PZ         0.09512   0.00000   0.00439  -0.19829  -0.09946
  15        3S         -0.01626   0.00000  -0.09603   0.13982   0.02523
  16        3PX         0.00000   0.17797   0.00000   0.00000   0.00000
  17        3PY         0.09686   0.00000  -0.17210  -0.08221  -0.06332
  18        3PZ         0.10335   0.00000  -0.00882  -0.12810  -0.11658
  19 3   O  1S         -0.05352   0.00000   0.00000   0.00000  -0.00104
  20        2S          0.05276   0.00000   0.00000   0.00000  -0.00380
  21        2PX         0.00000   0.37989   0.00000   0.00000   0.00000
  22        2PY         0.00000   0.00000   0.26305  -0.04863   0.00000
  23        2PZ         0.18304   0.00000   0.00000   0.00000  -0.16421
  24        3S          0.20630   0.00000   0.00000   0.00000   0.03943
  25        3PX         0.00000   0.38198   0.00000   0.00000   0.00000
  26        3PY         0.00000   0.00000   0.24991  -0.05458   0.00000
  27        3PZ         0.16698   0.00000   0.00000   0.00000  -0.17017
  28 4   C  1S          0.01283   0.00000  -0.02793   0.04057  -0.00350
  29        2S         -0.01685   0.00000   0.02796  -0.04917   0.00631
  30        2PX         0.00000   0.19103   0.00000   0.00000   0.00000
  31        2PY        -0.13948   0.00000  -0.26181  -0.11163   0.08713
  32        2PZ         0.09512   0.00000  -0.00439   0.19829  -0.09946
  33        3S         -0.01626   0.00000   0.09603  -0.13982   0.02523
  34        3PX         0.00000   0.17797   0.00000   0.00000   0.00000
  35        3PY        -0.09686   0.00000  -0.17210  -0.08221   0.06332
  36        3PZ         0.10335   0.00000   0.00882   0.12810  -0.11658
  37 5   C  1S         -0.04562   0.00000   0.04240  -0.00998   0.01748
  38        2S          0.04222   0.00000  -0.04596   0.00564  -0.01924
  39        2PX         0.00000   0.11367   0.00000   0.00000   0.00000
  40        2PY        -0.05311   0.00000   0.02222  -0.04736  -0.33194
  41        2PZ        -0.20546   0.00000   0.03670  -0.26732  -0.01733
  42        3S          0.20297   0.00000  -0.13900   0.05451  -0.08849
  43        3PX         0.00000   0.08200   0.00000   0.00000   0.00000
  44        3PY        -0.05415   0.00000   0.01563  -0.06886  -0.20272
  45        3PZ        -0.10577   0.00000   0.04108  -0.15215  -0.04588
  46 6   H  1S          0.13722   0.00000  -0.07577   0.17890   0.13266
  47        2S          0.07487   0.00000  -0.04936   0.15498   0.12085
  48 7   H  1S          0.07108   0.00000   0.18628   0.07743  -0.09070
  49        2S          0.02857   0.00000   0.14372   0.07088  -0.07775
  50 8   H  1S          0.07108   0.00000  -0.18628  -0.07743  -0.09070
  51        2S          0.02857   0.00000  -0.14372  -0.07088  -0.07775
  52 9   H  1S          0.13722   0.00000   0.07577  -0.17890   0.13266
  53        2S          0.07487   0.00000   0.04936  -0.15498   0.12085
                          16        17        18        19        20
                        (A1)--O   (B1)--O   (A2)--O   (B1)--V   (A2)--V
     Eigenvalues --    -0.36278  -0.27802  -0.23297   0.02282   0.08209
   1 1   C  1S         -0.02102   0.00000   0.00000   0.00000   0.00000
   2        2S          0.02107   0.00000   0.00000   0.00000   0.00000
   3        2PX         0.00000  -0.28825   0.19298  -0.17089   0.34008
   4        2PY         0.07749   0.00000   0.00000   0.00000   0.00000
   5        2PZ         0.16662   0.00000   0.00000   0.00000   0.00000
   6        3S          0.14500   0.00000   0.00000   0.00000   0.00000
   7        3PX         0.00000  -0.29900   0.20545  -0.29513   0.68346
   8        3PY         0.09613   0.00000   0.00000   0.00000   0.00000
   9        3PZ         0.12016   0.00000   0.00000   0.00000   0.00000
  10 2   C  1S          0.01962   0.00000   0.00000   0.00000   0.00000
  11        2S         -0.02389   0.00000   0.00000   0.00000   0.00000
  12        2PX         0.00000  -0.06937   0.32570   0.32173  -0.21771
  13        2PY         0.02289   0.00000   0.00000   0.00000   0.00000
  14        2PZ        -0.19945   0.00000   0.00000   0.00000   0.00000
  15        3S         -0.08041   0.00000   0.00000   0.00000   0.00000
  16        3PX         0.00000  -0.02939   0.34663   0.48993  -0.42797
  17        3PY        -0.00134   0.00000   0.00000   0.00000   0.00000
  18        3PZ        -0.00776   0.00000   0.00000   0.00000   0.00000
  19 3   O  1S         -0.07056   0.00000   0.00000   0.00000   0.00000
  20        2S          0.07078   0.00000   0.00000   0.00000   0.00000
  21        2PX         0.00000   0.31044   0.00000  -0.29018   0.00000
  22        2PY         0.00000   0.00000   0.00000   0.00000   0.00000
  23        2PZ         0.41037   0.00000   0.00000   0.00000   0.00000
  24        3S          0.26440   0.00000   0.00000   0.00000   0.00000
  25        3PX         0.00000   0.35169   0.00000  -0.40582   0.00000
  26        3PY         0.00000   0.00000   0.00000   0.00000   0.00000
  27        3PZ         0.44294   0.00000   0.00000   0.00000   0.00000
  28 4   C  1S          0.01962   0.00000   0.00000   0.00000   0.00000
  29        2S         -0.02389   0.00000   0.00000   0.00000   0.00000
  30        2PX         0.00000  -0.06937  -0.32570   0.32173   0.21771
  31        2PY        -0.02289   0.00000   0.00000   0.00000   0.00000
  32        2PZ        -0.19945   0.00000   0.00000   0.00000   0.00000
  33        3S         -0.08041   0.00000   0.00000   0.00000   0.00000
  34        3PX         0.00000  -0.02939  -0.34663   0.48993   0.42797
  35        3PY         0.00134   0.00000   0.00000   0.00000   0.00000
  36        3PZ        -0.00776   0.00000   0.00000   0.00000   0.00000
  37 5   C  1S         -0.02102   0.00000   0.00000   0.00000   0.00000
  38        2S          0.02107   0.00000   0.00000   0.00000   0.00000
  39        2PX         0.00000  -0.28825  -0.19298  -0.17089  -0.34008
  40        2PY        -0.07749   0.00000   0.00000   0.00000   0.00000
  41        2PZ         0.16662   0.00000   0.00000   0.00000   0.00000
  42        3S          0.14500   0.00000   0.00000   0.00000   0.00000
  43        3PX         0.00000  -0.29900  -0.20545  -0.29513  -0.68346
  44        3PY        -0.09613   0.00000   0.00000   0.00000   0.00000
  45        3PZ         0.12016   0.00000   0.00000   0.00000   0.00000
  46 6   H  1S         -0.04313   0.00000   0.00000   0.00000   0.00000
  47        2S         -0.06749   0.00000   0.00000   0.00000   0.00000
  48 7   H  1S         -0.08344   0.00000   0.00000   0.00000   0.00000
  49        2S         -0.08578   0.00000   0.00000   0.00000   0.00000
  50 8   H  1S         -0.08344   0.00000   0.00000   0.00000   0.00000
  51        2S         -0.08578   0.00000   0.00000   0.00000   0.00000
  52 9   H  1S         -0.04313   0.00000   0.00000   0.00000   0.00000
  53        2S         -0.06749   0.00000   0.00000   0.00000   0.00000
                          21        22        23        24        25
                        (A1)--V   (A1)--V   (B2)--V   (B2)--V   (B2)--V
     Eigenvalues --     0.13407   0.15454   0.17347   0.19035   0.22209
   1 1   C  1S          0.04595  -0.02878   0.05137  -0.10068  -0.04993
   2        2S         -0.02458   0.03029  -0.05023   0.07939   0.00715
   3        2PX         0.00000   0.00000   0.00000   0.00000   0.00000
   4        2PY        -0.07303   0.01954   0.08456   0.08197  -0.16533
   5        2PZ         0.16145  -0.02514  -0.04545  -0.14879  -0.07947
   6        3S         -0.60617   0.17572  -0.29103   1.02331   0.93248
   7        3PX         0.00000   0.00000   0.00000   0.00000   0.00000
   8        3PY        -0.22267   0.15332   0.15743   0.52882  -1.02342
   9        3PZ         0.45887  -0.18624   0.11112  -0.78640  -0.27262
  10 2   C  1S          0.03705   0.10384  -0.05177   0.03092  -0.09390
  11        2S         -0.02305  -0.07565   0.03674  -0.04184   0.06958
  12        2PX         0.00000   0.00000   0.00000   0.00000   0.00000
  13        2PY        -0.15115   0.02061   0.24519   0.08515  -0.07841
  14        2PZ        -0.00044  -0.16899   0.05622   0.04027   0.12629
  15        3S         -0.56888  -0.98484   0.67889   0.00055   1.09139
  16        3PX         0.00000   0.00000   0.00000   0.00000   0.00000
  17        3PY        -0.35654  -0.18489   0.89871  -0.05602  -0.11831
  18        3PZ         0.03554  -0.57006   0.23565   0.08875   0.29456
  19 3   O  1S          0.03189  -0.10019   0.00000   0.00000   0.00000
  20        2S         -0.02022   0.07142   0.00000   0.00000   0.00000
  21        2PX         0.00000   0.00000   0.00000   0.00000   0.00000
  22        2PY         0.00000   0.00000   0.04148   0.06344  -0.32629
  23        2PZ         0.10026  -0.15294   0.00000   0.00000   0.00000
  24        3S         -0.27931   0.82854   0.00000   0.00000   0.00000
  25        3PX         0.00000   0.00000   0.00000   0.00000   0.00000
  26        3PY         0.00000   0.00000   0.11340   0.04728  -0.65541
  27        3PZ         0.19056  -0.24595   0.00000   0.00000   0.00000
  28 4   C  1S          0.03705   0.10384   0.05177  -0.03092   0.09390
  29        2S         -0.02305  -0.07565  -0.03674   0.04184  -0.06958
  30        2PX         0.00000   0.00000   0.00000   0.00000   0.00000
  31        2PY         0.15115  -0.02061   0.24519   0.08515  -0.07841
  32        2PZ        -0.00044  -0.16899  -0.05622  -0.04027  -0.12629
  33        3S         -0.56888  -0.98484  -0.67889  -0.00055  -1.09139
  34        3PX         0.00000   0.00000   0.00000   0.00000   0.00000
  35        3PY         0.35654   0.18489   0.89871  -0.05602  -0.11831
  36        3PZ         0.03554  -0.57006  -0.23565  -0.08875  -0.29456
  37 5   C  1S          0.04595  -0.02878  -0.05137   0.10068   0.04993
  38        2S         -0.02458   0.03029   0.05023  -0.07939  -0.00715
  39        2PX         0.00000   0.00000   0.00000   0.00000   0.00000
  40        2PY         0.07303  -0.01954   0.08456   0.08197  -0.16533
  41        2PZ         0.16145  -0.02514   0.04545   0.14879   0.07947
  42        3S         -0.60617   0.17572   0.29103  -1.02331  -0.93248
  43        3PX         0.00000   0.00000   0.00000   0.00000   0.00000
  44        3PY         0.22267  -0.15332   0.15743   0.52882  -1.02342
  45        3PZ         0.45887  -0.18624  -0.11112   0.78640   0.27262
  46 6   H  1S          0.09223  -0.04446   0.00434   0.05580  -0.04515
  47        2S          1.02623  -0.42294  -0.06466   1.53171  -0.06380
  48 7   H  1S          0.04577   0.07588   0.07085  -0.00925  -0.04249
  49        2S          0.69826   1.04424   1.39983   0.02426   0.52346
  50 8   H  1S          0.04577   0.07588  -0.07085   0.00925   0.04249
  51        2S          0.69826   1.04424  -1.39983  -0.02426  -0.52346
  52 9   H  1S          0.09223  -0.04446  -0.00434  -0.05580   0.04515
  53        2S          1.02623  -0.42294   0.06466  -1.53171   0.06380
                          26        27        28        29        30
                        (A1)--V   (A1)--V   (B2)--V   (B2)--V   (A1)--V
     Eigenvalues --     0.22794   0.35710   0.42134   0.47366   0.68723
   1 1   C  1S         -0.06278   0.07558  -0.00979  -0.12494  -0.01774
   2        2S          0.02030  -0.02831  -0.01738   0.01938   0.09596
   3        2PX         0.00000   0.00000   0.00000   0.00000   0.00000
   4        2PY         0.18038   0.08108   0.21827  -0.13552   0.33737
   5        2PZ        -0.03586  -0.11483   0.16925   0.19007   0.35962
   6        3S          1.22345  -1.41090   0.68310   3.18663   0.13853
   7        3PX         0.00000   0.00000   0.00000   0.00000   0.00000
   8        3PY         0.62078  -0.20698   1.25527  -1.69672  -0.31506
   9        3PZ         0.02815  -1.40877   1.46935   1.84265  -0.16649
  10 2   C  1S          0.02013  -0.08105   0.02851   0.09435   0.04682
  11        2S         -0.00506   0.00340  -0.00727  -0.02683   0.03341
  12        2PX         0.00000   0.00000   0.00000   0.00000   0.00000
  13        2PY        -0.20039  -0.15227  -0.04666   0.26630   0.29722
  14        2PZ         0.14237  -0.22036   0.15215  -0.14006  -0.30452
  15        3S         -0.60245   1.56545  -1.14282  -1.84943  -0.10541
  16        3PX         0.00000   0.00000   0.00000   0.00000   0.00000
  17        3PY        -0.62845  -0.96199  -0.15271   1.33538  -0.12235
  18        3PZ         0.67824  -1.08159   1.74174   1.25895   0.57568
  19 3   O  1S          0.09139   0.05256   0.00000   0.00000  -0.02806
  20        2S         -0.04276  -0.02248   0.00000   0.00000   0.09368
  21        2PX         0.00000   0.00000   0.00000   0.00000   0.00000
  22        2PY         0.00000   0.00000  -0.23870   0.21577   0.00000
  23        2PZ         0.06257   0.16181   0.00000   0.00000  -0.21301
  24        3S         -0.95722  -0.66838   0.00000   0.00000  -0.23478
  25        3PX         0.00000   0.00000   0.00000   0.00000   0.00000
  26        3PY         0.00000   0.00000  -0.62439   0.38454   0.00000
  27        3PZ         0.22597   0.48959   0.00000   0.00000  -0.09470
  28 4   C  1S          0.02013  -0.08105  -0.02851  -0.09435   0.04682
  29        2S         -0.00506   0.00340   0.00727   0.02683   0.03341
  30        2PX         0.00000   0.00000   0.00000   0.00000   0.00000
  31        2PY         0.20039   0.15227  -0.04666   0.26630  -0.29722
  32        2PZ         0.14237  -0.22036  -0.15215   0.14006  -0.30452
  33        3S         -0.60245   1.56545   1.14282   1.84943  -0.10541
  34        3PX         0.00000   0.00000   0.00000   0.00000   0.00000
  35        3PY         0.62845   0.96199  -0.15271   1.33538   0.12235
  36        3PZ         0.67824  -1.08159  -1.74174  -1.25895   0.57568
[...]
     6  H   -0.025825   0.004903   0.002032  -0.028800   0.381900   0.478943
     7  H    0.002923   0.003964  -0.027773   0.386628  -0.038690  -0.000441
     8  H   -0.038690   0.386628  -0.027773   0.003964   0.002923  -0.000028
     9  H    0.381900  -0.028800   0.002032   0.004903  -0.025825  -0.001066
               7          8          9
     1  C    0.002923  -0.038690   0.381900
     2  C    0.003964   0.386628  -0.028800
     3  O   -0.027773  -0.027773   0.002032
     4  C    0.386628   0.003964   0.004903
     5  C   -0.038690   0.002923  -0.025825
     6  H   -0.000441  -0.000028  -0.001066
     7  H    0.456281  -0.000053  -0.000028
     8  H   -0.000053   0.456281  -0.000441
     9  H   -0.000028  -0.000441   0.478943
 Mulliken charges:
               1
     1  C   -0.253631
     2  C    0.091931
     3  O   -0.487744
     4  C    0.091931
     5  C   -0.253631
     6  H    0.188382
     7  H    0.217190
     8  H    0.217190
     9  H    0.188382
 Sum of Mulliken charges =   0.00000
 Mulliken charges with hydrogens summed into heavy atoms:
               1
     1  C   -0.065249
     2  C    0.309121
     3  O   -0.487744
     4  C    0.309121
     5  C   -0.065249
 Electronic spatial extent (au):  <R**2>=            289.4624
 Charge=              0.0000 electrons
 Dipole moment (field-independent basis, Debye):
    X=              0.0000    Y=              0.0000    Z=             -0.7055  Tot=              0.7055
 Quadrupole moment (field-independent basis, Debye-Ang):
   XX=            -31.7706   YY=            -23.5958   ZZ=            -28.0866
   XY=              0.0000   XZ=              0.0000   YZ=              0.0000
 Traceless Quadrupole moment (field-independent basis, Debye-Ang):
   XX=             -3.9529   YY=              4.2219   ZZ=             -0.2690
   XY=              0.0000   XZ=              0.0000   YZ=              0.0000
 Octapole moment (field-independent basis, Debye-Ang**2):
  XXX=              0.0000  YYY=              0.0000  ZZZ=             -1.9859  XYY=              0.0000
  XXY=              0.0000  XXZ=              3.4518  XZZ=              0.0000  YZZ=              0.0000
  YYZ=              4.2389  XYZ=              0.0000
 Hexadecapole moment (field-independent basis, Debye-Ang**3):
 XXXX=            -30.8080 YYYY=           -155.8313 ZZZZ=           -157.5547 XXXY=              0.0000
 XXXZ=              0.0000 YYYX=              0.0000 YYYZ=              0.0000 ZZZX=              0.0000
 ZZZY=              0.0000 XXYY=            -39.1139 XXZZ=            -34.3169 YYZZ=            -45.2806
 XXYZ=              0.0000 YYXZ=              0.0000 ZZXY=              0.0000
 N-N= 1.612261194346D+02 E-N=-8.550618193463D+02  KE= 2.269371030095D+02
 Symmetry A1   KE= 1.423007257184D+02
 Symmetry A2   KE= 2.438058318221D+00
 Symmetry B1   KE= 6.272366231708D+00
 Symmetry B2   KE= 7.592595274118D+01
 Orbital energies and kinetic energies (alpha):
                                 1                 2
   1         (A1)--O         -19.112891         28.829020
   2         (B2)--O         -10.174224         15.806381
   3         (A1)--O         -10.173787         15.793806
   4         (B2)--O         -10.124855         15.803298
   5         (A1)--O         -10.123654         15.808593
   6         (A1)--O          -1.129169          2.513581
   7         (A1)--O          -0.805982          1.800073
   8         (B2)--O          -0.750246          1.805903
   9         (B2)--O          -0.603208          1.678332
  10         (A1)--O          -0.571045          1.418844
  11         (A1)--O          -0.543201          1.285957
  12         (B1)--O          -0.449148          1.588866
  13         (B2)--O          -0.446898          1.514979
  14         (B2)--O          -0.418793          1.354084
  15         (A1)--O          -0.402742          1.423791
  16         (A1)--O          -0.362784          2.276696
  17         (B1)--O          -0.278018          1.547317
  18         (A2)--O          -0.232972          1.219029
  19         (B1)--V           0.022819          1.836171
  20         (A2)--V           0.082087          1.495165
  21         (A1)--V           0.134069          1.124973
  22         (A1)--V           0.154539          1.839002
  23         (B2)--V           0.173467          1.212047
  24         (B2)--V           0.190348          1.272735
  25         (B2)--V           0.222089          2.162090
  26         (A1)--V           0.227943          1.658181
  27         (A1)--V           0.357104          1.962104
  28         (B2)--V           0.421345          1.782610
  29         (B2)--V           0.473658          2.724124
  30         (A1)--V           0.687228          2.574552
  31         (B1)--V           0.699953          2.500044
  32         (B2)--V           0.706505          2.790520
  33         (A1)--V           0.748335          2.569895
  34         (A2)--V           0.769426          2.502544
  35         (B1)--V           0.789829          2.588089
  36         (B2)--V           0.803674          2.687308
  37         (A1)--V           0.812095          2.609739
  38         (A2)--V           0.838730          2.602459
  39         (A1)--V           0.933798          2.793558
  40         (B2)--V           0.992208          3.407190
  41         (B2)--V           1.008255          3.048618
  42         (A1)--V           1.026229          3.151880
  43         (B2)--V           1.185469          2.720897
  44         (A1)--V           1.221209          2.905392
  45         (B2)--V           1.337691          2.550902
  46         (A1)--V           1.371015          2.869075
  47         (B1)--V           1.501742          4.964759
  48         (B2)--V           1.568576          3.373797
  49         (A1)--V           1.626889          3.712876
  50         (A1)--V           1.737200          4.400774
  51         (B2)--V           1.968451          4.155541
  52         (B2)--V           2.144143          4.169268
  53         (A1)--V           3.189210          6.837125
 Total kinetic energy from orbitals= 2.269371030095D+02
 No NMR shielding tensors so no spin-rotation constants.
 Leave Link  601 at Sun Oct 18 13:38:08 2015, MaxMem=    33554432 cpu:         0.1
 (Enter /home/Applications/g09/g09/l701.exe)
 Compute integral first derivatives.
 ... and contract with generalized density number  6.
 Leave Link  701 at Sun Oct 18 13:38:08 2015, MaxMem=    33554432 cpu:         0.0
 (Enter /home/Applications/g09/g09/l702.exe)
 L702 exits ... SP integral derivatives will be done elsewhere.
 Leave Link  702 at Sun Oct 18 13:38:08 2015, MaxMem=    33554432 cpu:         0.0
 (Enter /home/Applications/g09/g09/l703.exe)
 Compute integral first derivatives, UseDBF=F ICtDFT=           0.
 Integral derivatives from FoFJK, PRISM(SPDF).
 Calling FoFJK, ICntrl=  10005127 FMM=F ISym2X=1 I1Cent= 0 IOpClX= 0 NMat=1 NMatS=1 NMatT=0.
 FoFJK:  IHMeth= 1 ICntrl=10005127 DoSepK=F KAlg= 0 I1Cent=   0 FoldK=F
 IRaf=         0 NMat=   1 IRICut=       1 DoRegI=T DoRafI=F ISym2E= 1.
 FoFCou: FMM=F IPFlag=           0 FMFlag=      100000 FMFlg1=         800
         NFxFlg=           0 DoJE=F BraDBF=F KetDBF=F FulRan=T
         wScrn=  0.000000 ICntrl=10005127 IOpCl=  0 I1Cent=           0 NGrid=           0
         NMat0=    1 NMatS0=      1 NMatT0=    0 NMatD0=    1 NMtDS0=    0 NMtDT0=    0
 Petite list used in FoFCou.
 Leave Link  703 at Sun Oct 18 13:38:09 2015, MaxMem=    33554432 cpu:         0.3
 (Enter /home/Applications/g09/g09/l716.exe)
 Dipole        = 1.21228236D-16 4.44089210D-16-3.67584160D-01
 ***** Axes restored to original set *****
 -------------------------------------------------------------------
 Center     Atomic                   Forces (Hartrees/Bohr)
 Number     Number              X              Y              Z
 -------------------------------------------------------------------
      1        6           0.083689766   -0.026126262    0.000000000
      2        6          -0.058048726   -0.075047440    0.000000000
      3        8          -0.054414162    0.000000000    0.000000000
      4        6          -0.058048726    0.075047440    0.000000000
      5        6           0.083689766    0.026126262    0.000000000
      6        1          -0.000342274   -0.001760412    0.000000000
      7        1           0.001908315   -0.000784134    0.000000000
      8        1           0.001908315    0.000784134    0.000000000
      9        1          -0.000342274    0.001760412    0.000000000
 -------------------------------------------------------------------
 Cartesian Forces:  Max     0.083689766 RMS     0.036693177
 Z-matrix is all fixed cartesians, so copy forces.
 Force constants in Cartesian coordinates: 
                1             2             3             4             5 
      1  0.924213D+00
      2 -0.280496D-01  0.794695D+00
      3  0.000000D+00  0.000000D+00  0.206887D+00
      4 -0.512400D+00 -0.107252D+00  0.000000D+00  0.940723D+00
      5 -0.840374D-01 -0.216108D+00  0.000000D+00  0.222648D-01  0.891463D+00
      6  0.000000D+00  0.000000D+00 -0.105153D+00  0.000000D+00  0.000000D+00
      7 -0.847936D-02  0.292752D-01  0.000000D+00 -0.289302D+00  0.168432D+00
      8 -0.629794D-02  0.217438D-01  0.000000D+00  0.212644D+00 -0.374940D+00
      9  0.000000D+00  0.000000D+00  0.744560D-02  0.000000D+00  0.000000D+00
     10  0.100412D-01  0.000000D+00  0.000000D+00  0.243474D-01  0.180838D-01
     11  0.346676D-01  0.000000D+00  0.000000D+00 -0.180838D-01 -0.134315D-01
     12  0.000000D+00  0.000000D+00 -0.114437D-02  0.000000D+00  0.000000D+00
     13 -0.167385D+00  0.115645D-01  0.000000D+00  0.100412D-01 -0.346676D-01
     14 -0.115645D-01 -0.407138D+00  0.000000D+00  0.000000D+00  0.000000D+00
     15  0.000000D+00  0.000000D+00 -0.812287D-01  0.000000D+00  0.000000D+00
     16  0.176569D-01  0.000000D+00  0.000000D+00  0.000000D+00  0.000000D+00
     17 -0.231031D-01  0.000000D+00  0.000000D+00  0.000000D+00  0.000000D+00
     18  0.000000D+00  0.000000D+00  0.180027D-01  0.000000D+00  0.000000D+00
     19  0.000000D+00  0.000000D+00  0.000000D+00  0.000000D+00  0.000000D+00
     20  0.000000D+00  0.000000D+00  0.000000D+00  0.000000D+00  0.000000D+00
     21  0.000000D+00  0.000000D+00  0.703148D-02  0.000000D+00  0.000000D+00
     22  0.760156D-02 -0.262446D-01  0.000000D+00 -0.168217D+00 -0.108004D+00
     23 -0.394138D-02  0.136077D-01  0.000000D+00 -0.102778D+00 -0.310441D+00
     24  0.000000D+00  0.000000D+00  0.295845D-01  0.000000D+00  0.000000D+00
     25 -0.271249D+00  0.120707D+00  0.000000D+00 -0.519280D-02  0.179283D-01
     26  0.122326D+00 -0.206800D+00  0.000000D+00 -0.679449D-02  0.234582D-01
     27  0.000000D+00  0.000000D+00 -0.814255D-01  0.000000D+00  0.000000D+00
                6             7             8             9            10 
      6  0.197193D+00
      7  0.000000D+00  0.551909D+00
      8  0.000000D+00  0.000000D+00  0.723204D+00
      9 -0.472115D-01  0.000000D+00  0.000000D+00  0.567211D-01
     10  0.000000D+00 -0.289302D+00 -0.212644D+00  0.000000D+00  0.940723D+00
     11  0.000000D+00 -0.168432D+00 -0.374940D+00  0.000000D+00 -0.222648D-01
     12 -0.169673D-02  0.000000D+00  0.000000D+00 -0.472115D-01  0.000000D+00
     13  0.000000D+00 -0.847936D-02  0.629794D-02  0.000000D+00 -0.512400D+00
     14  0.000000D+00 -0.292752D-01  0.217438D-01  0.000000D+00  0.107252D+00
     15 -0.114437D-02  0.000000D+00  0.000000D+00  0.744560D-02  0.000000D+00
     16  0.000000D+00  0.000000D+00  0.000000D+00  0.000000D+00 -0.519280D-02
     17  0.000000D+00  0.000000D+00  0.000000D+00  0.000000D+00  0.679449D-02
     18  0.419500D-02  0.000000D+00  0.000000D+00  0.682264D-02  0.000000D+00
     19  0.000000D+00  0.218269D-01 -0.162117D-01  0.000000D+00 -0.168217D+00
     20  0.000000D+00  0.113172D-01 -0.840572D-02  0.000000D+00  0.102778D+00
     21  0.490261D-02  0.000000D+00  0.000000D+00  0.458270D-02  0.000000D+00
     22  0.000000D+00  0.218269D-01  0.162117D-01  0.000000D+00  0.000000D+00
     23  0.000000D+00 -0.113172D-01 -0.840572D-02  0.000000D+00  0.000000D+00
     24 -0.772883D-01  0.000000D+00  0.000000D+00  0.458270D-02  0.000000D+00
     25  0.000000D+00  0.000000D+00  0.000000D+00  0.000000D+00  0.000000D+00
     26  0.000000D+00  0.000000D+00  0.000000D+00  0.000000D+00  0.000000D+00
     27  0.262030D-01  0.000000D+00  0.000000D+00  0.682264D-02  0.000000D+00
               11            12            13            14            15 
     11  0.891463D+00
     12  0.000000D+00  0.197193D+00
     13  0.840374D-01  0.000000D+00  0.924213D+00
     14 -0.216108D+00  0.000000D+00  0.280496D-01  0.794695D+00
     15  0.000000D+00 -0.105153D+00  0.000000D+00  0.000000D+00  0.206887D+00
     16 -0.179283D-01  0.000000D+00 -0.271249D+00 -0.120707D+00  0.000000D+00
     17  0.234582D-01  0.000000D+00 -0.122326D+00 -0.206800D+00  0.000000D+00
     18  0.000000D+00  0.262030D-01  0.000000D+00  0.000000D+00 -0.814255D-01
     19  0.108004D+00  0.000000D+00  0.760156D-02  0.262446D-01  0.000000D+00
     20 -0.310441D+00  0.000000D+00  0.394138D-02  0.136077D-01  0.000000D+00
     21  0.000000D+00 -0.772883D-01  0.000000D+00  0.000000D+00  0.295845D-01
     22  0.000000D+00  0.000000D+00  0.000000D+00  0.000000D+00  0.000000D+00
     23  0.000000D+00  0.000000D+00  0.000000D+00  0.000000D+00  0.000000D+00
     24  0.000000D+00  0.490261D-02  0.000000D+00  0.000000D+00  0.703148D-02
     25  0.000000D+00  0.000000D+00  0.176569D-01  0.000000D+00  0.000000D+00
     26  0.000000D+00  0.000000D+00  0.231031D-01  0.000000D+00  0.000000D+00
     27  0.000000D+00  0.419500D-02  0.000000D+00  0.000000D+00  0.180027D-01
               16            17            18            19            20 
     16  0.258784D+00
     17  0.138635D+00  0.183342D+00
     18  0.000000D+00  0.000000D+00  0.437604D-01
     19  0.000000D+00  0.000000D+00  0.000000D+00  0.138789D+00
     20  0.000000D+00  0.000000D+00  0.000000D+00 -0.118037D+00  0.305239D+00
     21  0.000000D+00  0.000000D+00 -0.111742D-01  0.000000D+00  0.000000D+00
     22  0.000000D+00  0.000000D+00  0.000000D+00  0.000000D+00  0.000000D+00
     23  0.000000D+00  0.000000D+00  0.000000D+00  0.000000D+00  0.000000D+00
     24  0.000000D+00  0.000000D+00  0.000000D+00  0.000000D+00  0.000000D+00
     25  0.000000D+00  0.000000D+00  0.000000D+00  0.000000D+00  0.000000D+00
     26  0.000000D+00  0.000000D+00  0.000000D+00  0.000000D+00  0.000000D+00
     27  0.000000D+00  0.000000D+00 -0.638405D-02  0.000000D+00  0.000000D+00
               21            22            23            24            25 
     21  0.423613D-01
     22  0.000000D+00  0.138789D+00
     23  0.000000D+00  0.118037D+00  0.305239D+00
     24  0.000000D+00  0.000000D+00  0.000000D+00  0.423613D-01
     25  0.000000D+00  0.000000D+00  0.000000D+00  0.000000D+00  0.258784D+00
     26  0.000000D+00  0.000000D+00  0.000000D+00  0.000000D+00 -0.138635D+00
     27  0.000000D+00  0.000000D+00  0.000000D+00 -0.111742D-01  0.000000D+00
               26            27 
     26  0.183342D+00
     27  0.000000D+00  0.437604D-01
 Leave Link  716 at Sun Oct 18 13:38:09 2015, MaxMem=    33554432 cpu:         0.0
 (Enter /home/Applications/g09/g09/l103.exe)

 GradGradGradGradGradGradGradGradGradGradGradGradGradGradGradGradGradGrad
 Berny optimization.
 Search for a local minimum.
 Step number   1 out of a maximum of    2
 All quantities printed in internal units (Hartrees-Bohrs-Radians)
 Second derivative matrix not updated -- first step.
 ITU=  0
     Eigenvalues ---    0.01909   0.03043   0.07124   0.07582   0.07733
     Eigenvalues ---    0.08210   0.13100   0.13481   0.16178   0.22954
     Eigenvalues ---    0.26166   0.31112   0.39564   0.42521   0.63269
     Eigenvalues ---    0.84274   1.09112   1.36532   1.42425   1.55978
     Eigenvalues ---    1.63653
 Quadratic step=3.457D-01 exceeds max=3.000D-01 adjusted using Lamda=-3.780D-02.
 Angle between NR and scaled steps=   3.78 degrees.
 Angle between quadratic step and forces=  41.67 degrees.
 ClnCor:  largest displacement from symmetrization is 5.88D-14 for atom     8.
 Linear search not attempted -- first point.
 ClnCor:  largest displacement from symmetrization is 2.22D-16 for atom     5.
 TrRot= -0.006360  0.000000  0.000000  0.000000  0.000000  0.000000
 Variable       Old X    -DE/DX   Delta X   Delta X   Delta X     New X
                                 (Linear)    (Quad)   (Total)
    X1        1.80559   0.08369   0.00000   0.08751   0.08115   1.88674
    Y1       -1.35297  -0.02613   0.00000  -0.05475  -0.05475  -1.40772
    Z1        0.00000   0.00000   0.00000   0.00000   0.00000   0.00000
    X2       -0.65314  -0.05805   0.00000  -0.05561  -0.06197  -0.71511
    Y2       -2.06513  -0.07505   0.00000  -0.09877  -0.09877  -2.16389
    Z2        0.00000   0.00000   0.00000   0.00000   0.00000   0.00000
    X3       -2.18699  -0.05441   0.00000  -0.08189  -0.08825  -2.27524
    Y3        0.00000   0.00000   0.00000   0.00000   0.00000   0.00000
    Z3        0.00000   0.00000   0.00000   0.00000   0.00000   0.00000
    X4       -0.65314  -0.05805   0.00000  -0.05561  -0.06197  -0.71511
    Y4        2.06513   0.07505   0.00000   0.09877   0.09877   2.16389
    Z4        0.00000   0.00000   0.00000   0.00000   0.00000   0.00000
    X5        1.80559   0.08369   0.00000   0.08751   0.08115   1.88674
    Y5        1.35297   0.02613   0.00000   0.05475   0.05475   1.40772
    Z5        0.00000   0.00000   0.00000   0.00000   0.00000   0.00000
    X6        3.42123  -0.00034   0.00000   0.08257   0.07621   3.49745
    Y6        2.58776  -0.00176   0.00000   0.04026   0.04026   2.62801
    Z6        0.00000   0.00000   0.00000   0.00000   0.00000   0.00000
    X7       -1.58795   0.00191   0.00000  -0.04491  -0.05127  -1.63922
    Y7        3.86805  -0.00078   0.00000   0.08783   0.08783   3.95588
    Z7        0.00000   0.00000   0.00000   0.00000   0.00000   0.00000
    X8       -1.58795   0.00191   0.00000  -0.04491  -0.05127  -1.63922
    Y8       -3.86805   0.00078   0.00000  -0.08783  -0.08783  -3.95588
    Z8        0.00000   0.00000   0.00000   0.00000   0.00000   0.00000
    X9        3.42123  -0.00034   0.00000   0.08257   0.07621   3.49745
    Y9       -2.58776   0.00176   0.00000  -0.04026  -0.04026  -2.62801
    Z9        0.00000   0.00000   0.00000   0.00000   0.00000   0.00000
         Item               Value     Threshold  Converged?
 Maximum Force            0.083690     0.000450     NO 
 RMS     Force            0.036693     0.000300     NO 
 Maximum Displacement     0.098766     0.001800     NO 
 RMS     Displacement     0.057635     0.001200     NO 
 Predicted change in Energy=-2.307096D-02
 GradGradGradGradGradGradGradGradGradGradGradGradGradGradGradGradGradGrad

 Leave Link  103 at Sun Oct 18 13:38:09 2015, MaxMem=    33554432 cpu:         0.0
 (Enter /home/Applications/g09/g09/l9999.exe)
 1\1\GINC-DUSTIN-DESKTOP\Force\RB3LYP-FC\3-21G\C4H4O1\DUSTIN\18-Oct-201
 5\0\\#P B3LYP/3-21G CIS(Singlets,NStates=15) pop(full) force\\FuranDFT
 \\0,1\C,0.955475,-0.715963,0.\C,-0.345627,-1.092818,0.\O,-1.157305,0.,
 0.\C,-0.345627,1.092818,0.\C,0.955475,0.715963,0.\H,1.810438,1.369382,
 0.\H,-0.840307,2.046884,0.\H,-0.840307,-2.046884,0.\H,1.810438,-1.3693
 82,0.\\Version=ES64L-G09RevD.01\State=1-A1\HF=-228.7509614\RMSD=7.872e
 -09\RMSF=3.669e-02\Dipole=0.3675842,0.,0.\PG=C02V [C2(O1),SGV(C4H4)]\\
 @


 When I told the people of Northern Ireland that I was
 an atheist, a woman in the audience stood up and said,
 "Yes, but is it the God of the Catholics or the God
 of the Protestants in whom you don't believe?"
                               -- Quentin Crisp
 Job cpu time:       0 days  0 hours  0 minutes 17.2 seconds.
 File lengths (MBytes):  RWF=     14 Int=      0 D2E=      0 Chk=      3 Scr=      1
 Normal termination of Gaussian 09 at Sun Oct 18 13:38:09 2015.
