 Entering Gaussian System, Link 0=g09
 Input=FuranAM1Best3.com
 Output=FuranAM1Best3.log
 Initial command:
 /home/Applications/g09/g09/l1.exe "/home/Applications/g09/scratch/Gau-23883.inp" -scrdir="/home/Applications/g09/scratch/"
 Entering Link 1 = /home/Applications/g09/g09/l1.exe PID=     23885.
  
 Copyright (c) 1988,1990,1992,1993,1995,1998,2003,2009,2013,
            Gaussian, Inc.  All Rights Reserved.
  
 This is part of the Gaussian(R) 09 program.  It is based on
 the Gaussian(R) 03 system (copyright 2003, Gaussian, Inc.),
 the Gaussian(R) 98 system (copyright 1998, Gaussian, Inc.),
 the Gaussian(R) 94 system (copyright 1995, Gaussian, Inc.),
 the Gaussian 92(TM) system (copyright 1992, Gaussian, Inc.),
 the Gaussian 90(TM) system (copyright 1990, Gaussian, Inc.),
 the Gaussian 88(TM) system (copyright 1988, Gaussian, Inc.),
 the Gaussian 86(TM) system (copyright 1986, Carnegie Mellon
 University), and the Gaussian 82(TM) system (copyright 1983,
 Carnegie Mellon University). Gaussian is a federally registered
 trademark of Gaussian, Inc.
  
 This software contains proprietary and confidential information,
 including trade secrets, belonging to Gaussian, Inc.
  
 This software is provided under written license and may be
 used, copied, transmitted, or stored only in accord with that
 written license.
  
 The following legend is applicable only to US Government
 contracts under FAR:
  
                    RESTRICTED RIGHTS LEGEND
  
 Use, reproduction and disclosure by the US Government is
 subject to restrictions as set forth in subparagraphs (a)
 and (c) of the Commercial Computer Software - Restricted
 Rights clause in FAR 52.227-19.
  
 Gaussian, Inc.
 340 Quinnipiac St., Bldg. 40, Wallingford CT 06492
  
  
 ---------------------------------------------------------------
 Warning -- This program may not be used in any manner that
 competes with the business of Gaussian, Inc. or will provide
 assistance to any competitor of Gaussian, Inc.  The licensee
 of this program is prohibited from giving any competitor of
 Gaussian, Inc. access to this program.  By using this program,
 the user acknowledges that Gaussian, Inc. is engaged in the
 business of creating and licensing software in the field of
 computational chemistry and represents and warrants to the
 licensee that it is not a competitor of Gaussian, Inc. and that
 it will not use this program in any manner prohibited above.
 ---------------------------------------------------------------
  

 Cite this work as:
 Gaussian 09, Revision D.01,
 M. J. Frisch, G. W. Trucks, H. B. Schlegel, G. E. Scuseria, 
 M. A. Robb, J. R. Cheeseman, G. Scalmani, V. Barone, B. Mennucci, 
 G. A. Petersson, H. Nakatsuji, M. Caricato, X. Li, H. P. Hratchian, 
 A. F. Izmaylov, J. Bloino, G. Zheng, J. L. Sonnenberg, M. Hada, 
 M. Ehara, K. Toyota, R. Fukuda, J. Hasegawa, M. Ishida, T. Nakajima, 
 Y. Honda, O. Kitao, H. Nakai, T. Vreven, J. A. Montgomery, Jr., 
 J. E. Peralta, F. Ogliaro, M. Bearpark, J. J. Heyd, E. Brothers, 
 K. N. Kudin, V. N. Staroverov, T. Keith, R. Kobayashi, J. Normand, 
 K. Raghavachari, A. Rendell, J. C. Burant, S. S. Iyengar, J. Tomasi, 
 M. Cossi, N. Rega, J. M. Millam, M. Klene, J. E. Knox, J. B. Cross, 
 V. Bakken, C. Adamo, J. Jaramillo, R. Gomperts, R. E. Stratmann, 
 O. Yazyev, A. J. Austin, R. Cammi, C. Pomelli, J. W. Ochterski, 
 R. L. Martin, K. Morokuma, V. G. Zakrzewski, G. A. Voth, 
 P. Salvador, J. J. Dannenberg, S. Dapprich, A. D. Daniels, 
 O. Farkas, J. B. Foresman, J. V. Ortiz, J. Cioslowski, 
 and D. J. Fox, Gaussian, Inc., Wallingford CT, 2013.
 
 ******************************************
 Gaussian 09:  ES64L-G09RevD.01 24-Apr-2013
                 1-Dec-2015 
 ******************************************
 ----------------------------
 #P AM1(Input,print) Opt Freq
 ----------------------------
 1/14=-1,18=20,19=15,26=1,38=1/1,3;
 2/9=110,12=2,17=6,18=5,40=1/2;
 3/5=2,16=1,25=1,41=700000,71=1,135=100,136=1/1,2,3;
 4/35=1/1;
 5/5=2,35=1,38=5/2;
 6/7=2,8=2,9=2,10=2,28=1/1;
 7//1,2,3,16;
 1/14=-1,18=20,19=15,26=1/3(2);
 2/9=110/2;
 99//99;
 2/9=110/2;
 3/5=2,16=1,25=1,41=700000,71=1,135=20,136=1/1,2,3;
 4/5=5,16=3,35=1/1;
 5/5=2,35=1,38=5/2;
 7//1,2,3,16;
 1/14=-1,18=20,19=15,26=1/3(-5);
 2/9=110/2;
 6/7=2,8=2,9=2,10=2,19=2,28=1/1;
 99/9=1/99;
 Leave Link    1 at Tue Dec  1 17:37:47 2015, MaxMem=           0 cpu:         0.0
 (Enter /home/Applications/g09/g09/l101.exe)
 -----------------
 AM1-Reparam Input
 -----------------
 Symbolic Z-matrix:
 Charge =  0 Multiplicity = 1
 6                     0.97259  -0.73032   0.00002 
 6                    -0.38107  -1.0791    0.01864 
 8                    -1.14397  -0.00525   0.01988 
 6                    -0.36557   1.12034   0.03706 
 6                     0.95469   0.69275  -0.02067 
 1                     1.8034    1.3681   -0.0066 
 1                    -0.81291   2.0524    0.04566 
 1                    -0.84799  -2.08711  -0.04597 
 1                     1.85587  -1.33007   0.04164 
 
 NAtoms=      9 NQM=        9 NQMF=       0 NMMI=      0 NMMIF=      0
                NMic=       0 NMicF=      0.
                    Isotopes and Nuclear Properties:
 (Nuclear quadrupole moments (NQMom) in fm**2, nuclear magnetic moments (NMagM)
  in nuclear magnetons)

  Atom         1           2           3           4           5           6           7           8           9
 IAtWgt=          12          12          16          12          12           1           1           1           1
 AtmWgt=  12.0000000  12.0000000  15.9949146  12.0000000  12.0000000   1.0078250   1.0078250   1.0078250   1.0078250
 NucSpn=           0           0           0           0           0           1           1           1           1
 AtZEff=   0.0000000   0.0000000   0.0000000   0.0000000   0.0000000   0.0000000   0.0000000   0.0000000   0.0000000
 NQMom=    0.0000000   0.0000000   0.0000000   0.0000000   0.0000000   0.0000000   0.0000000   0.0000000   0.0000000
 NMagM=    0.0000000   0.0000000   0.0000000   0.0000000   0.0000000   2.7928460   2.7928460   2.7928460   2.7928460
 AtZNuc=   6.0000000   6.0000000   8.0000000   6.0000000   6.0000000   1.0000000   1.0000000   1.0000000   1.0000000
 Leave Link  101 at Tue Dec  1 17:37:47 2015, MaxMem=    33554432 cpu:         0.0
 (Enter /home/Applications/g09/g09/l103.exe)

 GradGradGradGradGradGradGradGradGradGradGradGradGradGradGradGradGradGrad
 Berny optimization.
 Initialization pass.
                           ----------------------------
                           !    Initial Parameters    !
                           ! (Angstroms and Degrees)  !
 --------------------------                            --------------------------
 ! Name  Definition              Value          Derivative Info.                !
 --------------------------------------------------------------------------------
 ! R1    R(1,2)                  1.398          estimate D2E/DX2                !
 ! R2    R(1,5)                  1.4233         estimate D2E/DX2                !
 ! R3    R(1,9)                  1.0685         estimate D2E/DX2                !
 ! R4    R(2,3)                  1.3173         estimate D2E/DX2                !
 ! R5    R(2,8)                  1.1128         estimate D2E/DX2                !
 ! R6    R(3,4)                  1.3686         estimate D2E/DX2                !
 ! R7    R(4,5)                  1.389          estimate D2E/DX2                !
 ! R8    R(4,7)                  1.0339         estimate D2E/DX2                !
 ! R9    R(5,6)                  1.0847         estimate D2E/DX2                !
 ! A1    A(2,1,5)              103.7365         estimate D2E/DX2                !
 ! A2    A(2,1,9)              131.2924         estimate D2E/DX2                !
 ! A3    A(5,1,9)              124.9024         estimate D2E/DX2                !
 ! A4    A(1,2,3)              110.9416         estimate D2E/DX2                !
 ! A5    A(1,2,8)              129.1618         estimate D2E/DX2                !
 ! A6    A(3,2,8)              119.7034         estimate D2E/DX2                !
 ! A7    A(2,3,4)              109.9419         estimate D2E/DX2                !
 ! A8    A(3,4,5)              106.6729         estimate D2E/DX2                !
 ! A9    A(3,4,7)              119.6985         estimate D2E/DX2                !
 ! A10   A(5,4,7)              133.5626         estimate D2E/DX2                !
 ! A11   A(1,5,4)              108.611          estimate D2E/DX2                !
 ! A12   A(1,5,6)              127.7678         estimate D2E/DX2                !
 ! A13   A(4,5,6)              123.4708         estimate D2E/DX2                !
 ! D1    D(5,1,2,3)             -0.4364         estimate D2E/DX2                !
 ! D2    D(5,1,2,8)            174.4109         estimate D2E/DX2                !
 ! D3    D(9,1,2,3)            176.5908         estimate D2E/DX2                !
 ! D4    D(9,1,2,8)             -8.5619         estimate D2E/DX2                !
 ! D5    D(2,1,5,4)              2.2122         estimate D2E/DX2                !
 ! D6    D(2,1,5,6)            177.8328         estimate D2E/DX2                !
 ! D7    D(9,1,5,4)           -175.0645         estimate D2E/DX2                !
 ! D8    D(9,1,5,6)              0.5561         estimate D2E/DX2                !
 ! D9    D(1,2,3,4)             -1.542          estimate D2E/DX2                !
 ! D10   D(8,2,3,4)           -176.9437         estimate D2E/DX2                !
 ! D11   D(2,3,4,5)              2.9058         estimate D2E/DX2                !
 ! D12   D(2,3,4,7)           -179.6581         estimate D2E/DX2                !
 ! D13   D(3,4,5,1)             -3.1475         estimate D2E/DX2                !
 ! D14   D(3,4,5,6)           -178.9977         estimate D2E/DX2                !
 ! D15   D(7,4,5,1)            179.9265         estimate D2E/DX2                !
 ! D16   D(7,4,5,6)              4.0763         estimate D2E/DX2                !
 --------------------------------------------------------------------------------
 Trust Radius=3.00D-01 FncErr=1.00D-07 GrdErr=1.00D-07
 Number of steps in this run=     48 maximum allowed number of steps=    100.
 GradGradGradGradGradGradGradGradGradGradGradGradGradGradGradGradGradGrad

 Leave Link  103 at Tue Dec  1 17:37:47 2015, MaxMem=    33554432 cpu:         0.0
 (Enter /home/Applications/g09/g09/l202.exe)
                          Input orientation:                          
 ---------------------------------------------------------------------
 Center     Atomic      Atomic             Coordinates (Angstroms)
 Number     Number       Type             X           Y           Z
 ---------------------------------------------------------------------
      1          6           0        0.972588   -0.730317    0.000020
      2          6           0       -0.381072   -1.079098    0.018640
      3          8           0       -1.143969   -0.005250    0.019880
      4          6           0       -0.365566    1.120336    0.037059
      5          6           0        0.954688    0.692745   -0.020665
      6          1           0        1.803404    1.368100   -0.006603
      7          1           0       -0.812912    2.052403    0.045656
      8          1           0       -0.847989   -2.087115   -0.045968
      9          1           0        1.855870   -1.330072    0.041641
 ---------------------------------------------------------------------
                    Distance matrix (angstroms):
                    1          2          3          4          5
     1  C    0.000000
     2  C    1.397995   0.000000
     3  O    2.237394   1.317256   0.000000
     4  C    2.284063   2.199566   1.368631   0.000000
     5  C    1.423325   2.219285   2.212058   1.388970   0.000000
     6  H    2.256912   3.280450   3.251738   2.183512   1.084722
     7  H    3.306603   3.161252   2.084274   1.033896   2.231026
     8  H    2.271017   1.112782   2.103830   3.244590   3.313292
     9  H    1.068469   2.251095   3.279430   3.307461   2.215355
                    6          7          8          9
     6  H    0.000000
     7  H    2.704831   0.000000
     8  H    4.355450   4.140680   0.000000
     9  H    2.699113   4.308544   2.809207   0.000000
 Stoichiometry    C4H4O
 Framework group  C1[X(C4H4O)]
 Deg. of freedom    21
 Full point group                 C1      NOp   1
 Largest Abelian subgroup         C1      NOp   1
 Largest concise Abelian subgroup C1      NOp   1
                         Standard orientation:                         
 ---------------------------------------------------------------------
 Center     Atomic      Atomic             Coordinates (Angstroms)
 Number     Number       Type             X           Y           Z
 ---------------------------------------------------------------------
      1          6           0       -0.818300    0.901595   -0.003525
      2          6           0       -1.038144   -0.478997   -0.008560
      3          8           0        0.102662   -1.137448    0.004267
      4          6           0        1.150160   -0.256832   -0.016055
      5          6           0        0.599989    1.017884    0.024541
      6          1           0        1.192629    1.926172    0.004268
      7          1           0        2.120193   -0.614569   -0.014877
      8          1           0       -1.998171   -1.037953    0.056250
      9          1           0       -1.498180    1.724031   -0.058182
 ---------------------------------------------------------------------
 Rotational constants (GHZ):      9.4627353      9.2256206      4.6728975
 Leave Link  202 at Tue Dec  1 17:37:47 2015, MaxMem=    33554432 cpu:         0.0
 (Enter /home/Applications/g09/g09/l301.exe)

 Semi-emprical parameters in input format:
 Method=8 CoreType=1 PeptideFC=0.0120930000 RIJScale=0.5388840000
 ****
 H       
 PQN=1 NValence=1 F0ss=0.5586300000 ZetaOverlap=1.0950750000 U=-0.4119510000
 Beta=-0.2338190000 CoreKO=1.1007910000 KON=0,0,0,0.9764370000 KON=1,0,1,1.1361190000
 KON=0,1,1,1.0139660000 KON=2,1,1,1.2635130000 EISol=-0.4188110042 EHeat=0.0830298228
 Alpha=1.4078420000
 GCore=0.0080140000,1.2229470000,2.2663690000
 GCore=0.0002960000,1.5853770000,2.7382840000
 GCore=-0.0012210000,0.6561060000,3.9519220000
 ****
 C       
 PQN=2,2 NValence=4 F0ss=0.4805700000 F0sp=0.4819370000 F0pp=0.3439950000 F2pp=0.1961420000
 G1sp=0.2678900000
 ZetaOverlap=1.8366850000,1.4875730000
 U=-1.4842670000,-1.3886060000
 Beta=-0.6376780000,-0.3536670000 DDN=0,1,0.9094820000 DDN=1,1,0.8346670000
 CoreKO=1.1045690000 KON=0,0,0,1.0182330000 KON=1,0,1,0.7342900000 KON=0,1,1,1.1944780000
 KON=2,1,1,0.7056720000 EISol=-4.4398989268 EHeat=0.2723305520 Alpha=1.4025920000
 DipHyp=1.8188593534
 GCore=0.0007870000,1.5590290000,2.8992300000
 GCore=0.0031100000,1.3744800000,3.7653660000
 GCore=-0.0013700000,1.3772400000,4.0631190000
 GCore=-0.0000820000,1.5210550000,5.3709760000
 ****
 O       
 PQN=2,2 NValence=6 F0ss=0.7455940000 F0sp=0.5814220000 F0pp=0.4393740000 F2pp=0.2294290000
 G1sp=0.3535640000
 ZetaOverlap=2.7714830000,2.5744810000
 U=-3.8069400000,-2.7329690000
 Beta=-1.1272460000,-1.1587550000 DDN=0,1,0.5172290000 DDN=1,1,0.4110560000
 CoreKO=0.8743200000 KON=0,0,0,0.8886000000 KON=1,0,1,0.5063100000 KON=0,1,1,0.8996480000
 KON=2,1,1,0.5582300000 EISol=-11.6164441184 EHeat=0.0949133088 Alpha=2.3820330000
 DipHyp=1.0343984867
 GCore=0.0192970000,1.5130470000,1.5620930000
 GCore=0.0058890000,1.6294880000,2.3818730000
 ****
 
 Standard basis: VSTO-6G (5D, 7F)
 Ernie: Thresh=  0.10000D-02 Tol=  0.10000D-05 Strict=F.
  NNHCO=     0 NNPyr=     0 NCTC=     0               EPep=         0.000000000
    EC=        68.720498066  ECS=         1.876205314   EG=         0.350342885
   EHC=         0.000000000  EAt=       -31.051283842  AtH=         1.516354808
 EPDDG=         0.000000000  ECC=        70.947046265 EAtT=        32.567638650
 There are    24 symmetry adapted cartesian basis functions of A   symmetry.
 There are    24 symmetry adapted basis functions of A   symmetry.
    24 basis functions,   144 primitive gaussians,    24 cartesian basis functions
    13 alpha electrons       13 beta electrons
       nuclear repulsion energy       103.5146849159 Hartrees.
 IExCor=    0 DFT=F Ex=HF Corr=None ExCW=0 ScaHFX=  1.000000
 ScaDFX=  1.000000  1.000000  1.000000  1.000000 ScalE2=  1.000000  1.000000
 IRadAn=      0 IRanWt=     -1 IRanGd=            0 ICorTp=0 IEmpDi=  4
 Integral buffers will be    131072 words long.
 Regular integral format.
 Two-electron integral symmetry is turned off.
 Leave Link  301 at Tue Dec  1 17:37:47 2015, MaxMem=    33554432 cpu:         0.0
 (Enter /home/Applications/g09/g09/l302.exe)
 Do NDO integrals.
 NPDir=0 NMtPBC=     1 NCelOv=     1 NCel=       1 NClECP=     1 NCelD=      1
         NCelK=      1 NCelE2=     1 NClLst=     1 CellRange=     0.0.
 One-electron integrals computed using PRISM.
 NBasis=    24 RedAO= F EigKep=  0.00D+00  NBF=    24
 NBsUse=    24 1.00D-04 EigRej=  0.00D+00 NBFU=    24
 Leave Link  302 at Tue Dec  1 17:37:47 2015, MaxMem=    33554432 cpu:         0.0
 (Enter /home/Applications/g09/g09/l303.exe)
 DipDrv:  MaxL=1.
 Leave Link  303 at Tue Dec  1 17:37:47 2015, MaxMem=    33554432 cpu:         0.0
 (Enter /home/Applications/g09/g09/l401.exe)
 Simple Huckel Guess.
 JPrj=0 DoOrth=F DoCkMO=F.
 Leave Link  401 at Tue Dec  1 17:37:47 2015, MaxMem=    33554432 cpu:         0.0
 (Enter /home/Applications/g09/g09/l502.exe)
 Closed shell SCF:
 Using DIIS extrapolation, IDIIS=  1040.
 Overlap will be assumed to be unity.
 Two-electron integral symmetry not used.
 Keep J ints in memory in canonical form, NReq=888082.
 IVT=       79475 IEndB=       79475 NGot=    33554432 MDV=    33473473
 LenX=    33473473 LenY=    33472456
 Requested convergence on RMS density matrix=1.00D-08 within 128 cycles.
 Requested convergence on MAX density matrix=1.00D-06.
 Requested convergence on             energy=1.00D-06.
 No special actions if energy rises.
 FoFCou: FMM=F IPFlag=           0 FMFlag=           0 FMFlg1=           0
         NFxFlg=           0 DoJE=F BraDBF=F KetDBF=F FulRan=T
         wScrn=  0.000000 ICntrl=     600 IOpCl=  2 I1Cent=           0 NGrid=           0
         NMat0=    1 NMatS0=     54 NMatT0=    0 NMatD0=    1 NMtDS0=    0 NMtDT0=    0
 Symmetry not used in FoFCou.

 Cycle   1  Pass 1  IDiag  1:
 E=  2.12875997596541    
 DIIS: error= 6.59D-02 at cycle   1 NSaved=   1.
 NSaved= 1 IEnMin= 1 EnMin=  2.12875997596541     IErMin= 1 ErrMin= 6.59D-02
 ErrMax= 6.59D-02  0.00D+00 EMaxC= 1.00D-01 BMatC= 1.70D-01 BMatP= 1.70D-01
 IDIUse=3 WtCom= 3.41D-01 WtEn= 6.59D-01
 Coeff-Com:  0.100D+01
 Coeff-En:   0.100D+01
 Coeff:      0.100D+01
 GapD=    2.000 DampG=2.000 DampE=0.500 DampFc=1.0000 IDamp=-1.
 RMSDP=1.81D-02 MaxDP=1.24D-01              OVMax= 0.00D+00

 Cycle   2  Pass 1  IDiag  1:
 E=  1.81977994082966     Delta-E=       -0.308980035136 Rises=F Damp=F
 DIIS: error= 1.59D-02 at cycle   2 NSaved=   2.
 NSaved= 2 IEnMin= 2 EnMin=  1.81977994082966     IErMin= 2 ErrMin= 1.59D-02
 ErrMax= 1.59D-02  0.00D+00 EMaxC= 1.00D-01 BMatC= 1.13D-02 BMatP= 1.70D-01
 IDIUse=3 WtCom= 8.41D-01 WtEn= 1.59D-01
 Coeff-Com: -0.299D+00 0.130D+01
 Coeff-En:   0.000D+00 0.100D+01
 Coeff:     -0.251D+00 0.125D+01
 RMSDP=6.52D-03 MaxDP=3.77D-02 DE=-3.09D-01 OVMax= 0.00D+00

 Cycle   3  Pass 1  IDiag  3:
 E=  1.79349246095177     Delta-E=       -0.026287479878 Rises=F Damp=F
 DIIS: error= 2.74D-03 at cycle   3 NSaved=   3.
 NSaved= 3 IEnMin= 3 EnMin=  1.79349246095177     IErMin= 3 ErrMin= 2.74D-03
 ErrMax= 2.74D-03  0.00D+00 EMaxC= 1.00D-01 BMatC= 4.01D-04 BMatP= 1.13D-02
 IDIUse=3 WtCom= 9.73D-01 WtEn= 2.74D-02
 Coeff-Com:  0.599D-01-0.396D+00 0.134D+01
 Coeff-En:   0.000D+00 0.000D+00 0.100D+01
 Coeff:      0.583D-01-0.386D+00 0.133D+01
 Gap=     0.411 Goal=   None    Shift=    0.000
 RMSDP=1.82D-03 MaxDP=1.08D-02 DE=-2.63D-02 OVMax= 1.25D-02

 Cycle   4  Pass 1  IDiag  3:
 E=  1.79202929539993     Delta-E=       -0.001463165552 Rises=F Damp=F
 DIIS: error= 9.77D-04 at cycle   4 NSaved=   4.
 NSaved= 4 IEnMin= 4 EnMin=  1.79202929539993     IErMin= 4 ErrMin= 9.77D-04
 ErrMax= 9.77D-04  0.00D+00 EMaxC= 1.00D-01 BMatC= 2.87D-05 BMatP= 4.01D-04
 IDIUse=3 WtCom= 9.90D-01 WtEn= 9.77D-03
 Coeff-Com: -0.274D-02 0.528D-01-0.434D+00 0.138D+01
 Coeff-En:   0.000D+00 0.000D+00 0.000D+00 0.100D+01
 Coeff:     -0.271D-02 0.523D-01-0.430D+00 0.138D+01
 Gap=     0.412 Goal=   None    Shift=    0.000
 RMSDP=6.56D-04 MaxDP=5.08D-03 DE=-1.46D-03 OVMax= 6.06D-03

 Cycle   5  Pass 1  IDiag  3:
 E=  1.79188653283828     Delta-E=       -0.000142762562 Rises=F Damp=F
 DIIS: error= 3.22D-04 at cycle   5 NSaved=   5.
 NSaved= 5 IEnMin= 5 EnMin=  1.79188653283828     IErMin= 5 ErrMin= 3.22D-04
 ErrMax= 3.22D-04  0.00D+00 EMaxC= 1.00D-01 BMatC= 2.12D-06 BMatP= 2.87D-05
 IDIUse=3 WtCom= 9.97D-01 WtEn= 3.22D-03
 Coeff-Com: -0.262D-02 0.614D-02 0.591D-01-0.510D+00 0.145D+01
 Coeff-En:   0.000D+00 0.000D+00 0.000D+00 0.000D+00 0.100D+01
 Coeff:     -0.261D-02 0.612D-02 0.590D-01-0.509D+00 0.145D+01
 Gap=     0.412 Goal=   None    Shift=    0.000
 RMSDP=2.23D-04 MaxDP=1.86D-03 DE=-1.43D-04 OVMax= 2.25D-03

 Cycle   6  Pass 1  IDiag  3:
 E=  1.79187456327806     Delta-E=       -0.000011969560 Rises=F Damp=F
 DIIS: error= 3.97D-05 at cycle   6 NSaved=   6.
 NSaved= 6 IEnMin= 6 EnMin=  1.79187456327806     IErMin= 6 ErrMin= 3.97D-05
 ErrMax= 3.97D-05  0.00D+00 EMaxC= 1.00D-01 BMatC= 9.66D-08 BMatP= 2.12D-06
 IDIUse=1 WtCom= 1.00D+00 WtEn= 0.00D+00
 Coeff-Com:  0.189D-02-0.854D-02 0.257D-02 0.158D+00-0.671D+00 0.152D+01
 Coeff:      0.189D-02-0.854D-02 0.257D-02 0.158D+00-0.671D+00 0.152D+01
 Gap=     0.412 Goal=   None    Shift=    0.000
 RMSDP=4.68D-05 MaxDP=3.27D-04 DE=-1.20D-05 OVMax= 4.65D-04

 Cycle   7  Pass 1  IDiag  3:
 E=  1.79187405225213     Delta-E=       -0.000000511026 Rises=F Damp=F
 DIIS: error= 7.97D-06 at cycle   7 NSaved=   7.
 NSaved= 7 IEnMin= 7 EnMin=  1.79187405225213     IErMin= 7 ErrMin= 7.97D-06
 ErrMax= 7.97D-06  0.00D+00 EMaxC= 1.00D-01 BMatC= 3.42D-09 BMatP= 9.66D-08
 IDIUse=1 WtCom= 1.00D+00 WtEn= 0.00D+00
 Coeff-Com: -0.324D-03 0.165D-02-0.168D-02-0.248D-01 0.125D+00-0.425D+00
 Coeff-Com:  0.133D+01
 Coeff:     -0.324D-03 0.165D-02-0.168D-02-0.248D-01 0.125D+00-0.425D+00
 Coeff:      0.133D+01
 Gap=     0.412 Goal=   None    Shift=    0.000
 RMSDP=7.82D-06 MaxDP=5.23D-05 DE=-5.11D-07 OVMax= 9.13D-05

 Cycle   8  Pass 1  IDiag  3:
 E=  1.79187403692571     Delta-E=       -0.000000015326 Rises=F Damp=F
 DIIS: error= 1.19D-06 at cycle   8 NSaved=   8.
 NSaved= 8 IEnMin= 8 EnMin=  1.79187403692571     IErMin= 8 ErrMin= 1.19D-06
 ErrMax= 1.19D-06  0.00D+00 EMaxC= 1.00D-01 BMatC= 1.17D-10 BMatP= 3.42D-09
 IDIUse=1 WtCom= 1.00D+00 WtEn= 0.00D+00
 Coeff-Com:  0.305D-04-0.255D-03 0.100D-02-0.103D-02-0.580D-02 0.538D-01
 Coeff-Com: -0.329D+00 0.128D+01
 Coeff:      0.305D-04-0.255D-03 0.100D-02-0.103D-02-0.580D-02 0.538D-01
 Coeff:     -0.329D+00 0.128D+01
 Gap=     0.412 Goal=   None    Shift=    0.000
 RMSDP=1.30D-06 MaxDP=9.46D-06 DE=-1.53D-08 OVMax= 1.47D-05

 Cycle   9  Pass 1  IDiag  3:
 E=  1.79187403641191     Delta-E=       -0.000000000514 Rises=F Damp=F
 DIIS: error= 4.10D-07 at cycle   9 NSaved=   9.
 NSaved= 9 IEnMin= 9 EnMin=  1.79187403641191     IErMin= 9 ErrMin= 4.10D-07
 ErrMax= 4.10D-07  0.00D+00 EMaxC= 1.00D-01 BMatC= 6.85D-12 BMatP= 1.17D-10
 IDIUse=1 WtCom= 1.00D+00 WtEn= 0.00D+00
 Coeff-Com: -0.373D-05 0.522D-04-0.270D-03 0.653D-03 0.740D-04-0.139D-01
 Coeff-Com:  0.118D+00-0.651D+00 0.155D+01
 Coeff:     -0.373D-05 0.522D-04-0.270D-03 0.653D-03 0.740D-04-0.139D-01
 Coeff:      0.118D+00-0.651D+00 0.155D+01
 Gap=     0.412 Goal=   None    Shift=    0.000
 RMSDP=4.27D-07 MaxDP=3.32D-06 DE=-5.14D-10 OVMax= 5.21D-06

 Cycle  10  Pass 1  IDiag  3:
 E=  1.79187403637253     Delta-E=       -0.000000000039 Rises=F Damp=F
 DIIS: error= 9.25D-08 at cycle  10 NSaved=  10.
 NSaved=10 IEnMin=10 EnMin=  1.79187403637253     IErMin=10 ErrMin= 9.25D-08
 ErrMax= 9.25D-08  0.00D+00 EMaxC= 1.00D-01 BMatC= 1.85D-13 BMatP= 6.85D-12
 IDIUse=1 WtCom= 1.00D+00 WtEn= 0.00D+00
 Coeff-Com:  0.108D-05-0.174D-04 0.922D-04-0.221D-03-0.433D-04 0.462D-02
 Coeff-Com: -0.390D-01 0.222D+00-0.624D+00 0.144D+01
 Coeff:      0.108D-05-0.174D-04 0.922D-04-0.221D-03-0.433D-04 0.462D-02
 Coeff:     -0.390D-01 0.222D+00-0.624D+00 0.144D+01
 Gap=     0.412 Goal=   None    Shift=    0.000
 RMSDP=7.41D-08 MaxDP=6.20D-07 DE=-3.94D-11 OVMax= 9.10D-07

 Cycle  11  Pass 1  IDiag  3:
 E=  1.79187403637151     Delta-E=       -0.000000000001 Rises=F Damp=F
 DIIS: error= 1.45D-08 at cycle  11 NSaved=  11.
 NSaved=11 IEnMin=11 EnMin=  1.79187403637151     IErMin=11 ErrMin= 1.45D-08
 ErrMax= 1.45D-08  0.00D+00 EMaxC= 1.00D-01 BMatC= 5.29D-15 BMatP= 1.85D-13
 IDIUse=1 WtCom= 1.00D+00 WtEn= 0.00D+00
 Coeff-Com: -0.480D-06 0.667D-05-0.337D-04 0.768D-04 0.268D-04-0.167D-02
 Coeff-Com:  0.139D-01-0.794D-01 0.229D+00-0.622D+00 0.146D+01
 Coeff:     -0.480D-06 0.667D-05-0.337D-04 0.768D-04 0.268D-04-0.167D-02
 Coeff:      0.139D-01-0.794D-01 0.229D+00-0.622D+00 0.146D+01
 Gap=     0.412 Goal=   None    Shift=    0.000
 RMSDP=1.21D-08 MaxDP=9.61D-08 DE=-1.02D-12 OVMax= 1.25D-07

 Cycle  12  Pass 1  IDiag  3:
 E=  1.79187403637131     Delta-E=        0.000000000000 Rises=F Damp=F
 DIIS: error= 2.08D-09 at cycle  12 NSaved=  12.
 NSaved=12 IEnMin=12 EnMin=  1.79187403637131     IErMin=12 ErrMin= 2.08D-09
 ErrMax= 2.08D-09  0.00D+00 EMaxC= 1.00D-01 BMatC= 1.66D-16 BMatP= 5.29D-15
 IDIUse=1 WtCom= 1.00D+00 WtEn= 0.00D+00
 Coeff-Com:  0.178D-06-0.225D-05 0.108D-04-0.215D-04-0.209D-04 0.562D-03
 Coeff-Com: -0.446D-02 0.254D-01-0.727D-01 0.199D+00-0.556D+00 0.141D+01
 Coeff:      0.178D-06-0.225D-05 0.108D-04-0.215D-04-0.209D-04 0.562D-03
 Coeff:     -0.446D-02 0.254D-01-0.727D-01 0.199D+00-0.556D+00 0.141D+01
 Gap=     0.412 Goal=   None    Shift=    0.000
 RMSDP=1.90D-09 MaxDP=1.41D-08 DE=-1.99D-13 OVMax= 1.60D-08

 Cycle  13  Pass 2  IDiag  1:
 SCF Done:  E(RAM1) =   1.79187403637     A.U. after   13 cycles
            NFock= 12  Conv=0.19D-08     -V/T= 1.1378
 KE=-1.299965459657D+01 PE=-1.710727964032D+02 EE= 8.234964012025D+01
 Leave Link  502 at Tue Dec  1 17:37:47 2015, MaxMem=    33554432 cpu:         0.0
 (Enter /home/Applications/g09/g09/l601.exe)
 Copying SCF densities to generalized density rwf, IOpCl= 0 IROHF=0.

 **********************************************************************

            Population analysis using the SCF density.

 **********************************************************************

 Orbital symmetries:
       Occupied  (A) (A) (A) (A) (A) (A) (A) (A) (A) (A) (A) (A)
                 (A)
       Virtual   (A) (A) (A) (A) (A) (A) (A) (A) (A) (A) (A)
 The electronic state is 1-A.
 Alpha  occ. eigenvalues --   -1.55543  -1.07720  -0.90717  -0.85835  -0.78401
 Alpha  occ. eigenvalues --   -0.71942  -0.70316  -0.59108  -0.57071  -0.54167
 Alpha  occ. eigenvalues --   -0.51189  -0.47434  -0.39215
 Alpha virt. eigenvalues --    0.01951   0.06225   0.12925   0.14873   0.20247
 Alpha virt. eigenvalues --    0.21017   0.21627   0.40146   0.48750   0.57845
 Alpha virt. eigenvalues --    0.67237
          Condensed to atoms (all electrons):
               1          2          3          4          5          6
     1  C    4.081533   0.000000   0.000000   0.000000   0.000000   0.000000
     2  C    0.000000   3.642796   0.000000   0.000000   0.000000   0.000000
     3  O    0.000000   0.000000   6.275106   0.000000   0.000000   0.000000
     4  C    0.000000   0.000000   0.000000   3.641197   0.000000   0.000000
     5  C    0.000000   0.000000   0.000000   0.000000   4.054663   0.000000
     6  H    0.000000   0.000000   0.000000   0.000000   0.000000   1.043923
     7  H    0.000000   0.000000   0.000000   0.000000   0.000000   0.000000
     8  H    0.000000   0.000000   0.000000   0.000000   0.000000   0.000000
     9  H    0.000000   0.000000   0.000000   0.000000   0.000000   0.000000
               7          8          9
     1  C    0.000000   0.000000   0.000000
     2  C    0.000000   0.000000   0.000000
     3  O    0.000000   0.000000   0.000000
     4  C    0.000000   0.000000   0.000000
     5  C    0.000000   0.000000   0.000000
     6  H    0.000000   0.000000   0.000000
     7  H    1.116225   0.000000   0.000000
     8  H    0.000000   1.085780   0.000000
     9  H    0.000000   0.000000   1.058777
 Mulliken charges:
               1
     1  C   -0.081533
     2  C    0.357204
     3  O   -0.275106
     4  C    0.358803
     5  C   -0.054663
     6  H   -0.043923
     7  H   -0.116225
     8  H   -0.085780
     9  H   -0.058777
 Sum of Mulliken charges =   0.00000
 Mulliken charges with hydrogens summed into heavy atoms:
               1
     1  C   -0.140310
     2  C    0.271424
     3  O   -0.275106
     4  C    0.242577
     5  C   -0.098586
 Charge=              0.0000 electrons
 Dipole moment (field-independent basis, Debye):
    X=              0.0213    Y=              0.0242    Z=             -0.0606  Tot=              0.0686
 N-N= 1.035146849159D+02 E-N=-1.710727963974D+02  KE=-1.299965459657D+01
 Leave Link  601 at Tue Dec  1 17:37:47 2015, MaxMem=    33554432 cpu:         0.0
 (Enter /home/Applications/g09/g09/l701.exe)
 Compute integral first derivatives.
 ... and contract with generalized density number  0.
 Leave Link  701 at Tue Dec  1 17:37:47 2015, MaxMem=    33554432 cpu:         0.0
 (Enter /home/Applications/g09/g09/l702.exe)
 L702 exits ... SP integral derivatives will be done elsewhere.
 Leave Link  702 at Tue Dec  1 17:37:47 2015, MaxMem=    33554432 cpu:         0.0
 (Enter /home/Applications/g09/g09/l703.exe)
 Compute integral first derivatives, UseDBF=F ICtDFT=           0.
 Integral derivatives from FoFJK, PRISM(SPDF).
 Calling FoFJK, ICntrl=      2127 FMM=F ISym2X=0 I1Cent= 0 IOpClX= 0 NMat=1 NMatS=1 NMatT=0.
 FoFJK:  IHMeth= 8 ICntrl=    2127 DoSepK=F KAlg= 0 I1Cent=   0 FoldK=F
 IRaf=         0 NMat=   1 IRICut=       1 DoRegI=T DoRafI=F ISym2E= 0.
 FoFCou: FMM=F IPFlag=           0 FMFlag=      100000 FMFlg1=         800
         NFxFlg=           0 DoJE=F BraDBF=F KetDBF=F FulRan=T
         wScrn=  0.000000 ICntrl=    2127 IOpCl=  0 I1Cent=           0 NGrid=           0
         NMat0=    1 NMatS0=      1 NMatT0=    0 NMatD0=    1 NMtDS0=    0 NMtDT0=    0
 Symmetry not used in FoFCou.
 Leave Link  703 at Tue Dec  1 17:37:47 2015, MaxMem=    33554432 cpu:         0.0
 (Enter /home/Applications/g09/g09/l716.exe)
 Dipole        = 8.39000196D-03 9.50317088D-03-2.38443220D-02
 ***** Axes restored to original set *****
 -------------------------------------------------------------------
 Center     Atomic                   Forces (Hartrees/Bohr)
 Number     Number              X              Y              Z
 -------------------------------------------------------------------
      1        6          -0.146026947    0.080152870    0.002832450
      2        6           0.138005704   -0.021575740   -0.014720082
      3        8           0.005554241    0.044221213    0.007452182
      4        6           0.117001086   -0.092173862   -0.017502151
      5        6          -0.118947133   -0.047279228    0.020319352
      6        1          -0.005942923   -0.010113742   -0.002725273
      7        1          -0.002655936    0.016941491    0.001047858
      8        1           0.018261297    0.031743476    0.006528395
      9        1          -0.005249389   -0.001916478   -0.003232730
 -------------------------------------------------------------------
 Cartesian Forces:  Max     0.146026947 RMS     0.057952690
 Leave Link  716 at Tue Dec  1 17:37:47 2015, MaxMem=    33554432 cpu:         0.0
 (Enter /home/Applications/g09/g09/l103.exe)

 GradGradGradGradGradGradGradGradGradGradGradGradGradGradGradGradGradGrad
 Berny optimization.
 FormGI is forming the generalized inverse of G from B-inverse, IUseBI=4.
 Internal  Forces:  Max     0.147244310 RMS     0.037876276
 Search for a local minimum.
 Step number   1 out of a maximum of   48
 All quantities printed in internal units (Hartrees-Bohrs-Radians)
 RMS Force = .37876D-01 SwitMx=.10000D-02 MixMth= 1
 Mixed Optimization -- RFO/linear search
 Second derivative matrix not updated -- first step.
 ITU=  0
     Eigenvalues ---    0.01925   0.02034   0.02045   0.02205   0.02287
     Eigenvalues ---    0.02414   0.15926   0.15945   0.15972   0.15981
     Eigenvalues ---    0.21996   0.22943   0.32307   0.35430   0.37424
     Eigenvalues ---    0.39834   0.41582   0.42193   0.46527   0.49508
     Eigenvalues ---    0.59815
 RFO step:  Lambda=-1.01174590D-01 EMin= 1.92544127D-02
 Linear search not attempted -- first point.
 Maximum step size (   0.300) exceeded in Quadratic search.
    -- Step size scaled by   0.693
 Iteration  1 RMS(Cart)=  0.06031947 RMS(Int)=  0.00117329
 Iteration  2 RMS(Cart)=  0.00109782 RMS(Int)=  0.00051155
 Iteration  3 RMS(Cart)=  0.00000092 RMS(Int)=  0.00051155
 ITry= 1 IFail=0 DXMaxC= 1.68D-01 DCOld= 1.00D+10 DXMaxT= 3.00D-01 DXLimC= 3.00D+00 Rises=F
 Variable       Old X    -DE/DX   Delta X   Delta X   Delta X     New X
                                 (Linear)    (Quad)   (Total)
    R1        2.64183  -0.14724   0.00000  -0.18235  -0.18211   2.45972
    R2        2.68969  -0.09417   0.00000  -0.13208  -0.13120   2.55850
    R3        2.01911  -0.00339   0.00000  -0.00494  -0.00494   2.01417
    R4        2.48925   0.00945   0.00000   0.01350   0.01279   2.50204
    R5        2.10285  -0.03680   0.00000  -0.06012  -0.06012   2.04273
    R6        2.58634  -0.03969   0.00000  -0.04079  -0.04149   2.54484
    R7        2.62477  -0.13368   0.00000  -0.16389  -0.16359   2.46118
    R8        1.95378   0.01643   0.00000   0.02177   0.02177   1.97555
    R9        2.04983  -0.01098   0.00000  -0.01671  -0.01671   2.03311
    A1        1.81054   0.02516   0.00000   0.04104   0.04212   1.85266
    A2        2.29149  -0.01700   0.00000  -0.03232  -0.03287   2.25861
    A3        2.17996  -0.00815   0.00000  -0.00867  -0.00919   2.17077
    A4        1.93630  -0.01209   0.00000  -0.01957  -0.01991   1.91638
    A5        2.25430   0.00306   0.00000   0.00217   0.00228   2.25658
    A6        2.08922   0.00921   0.00000   0.01867   0.01881   2.10803
    A7        1.91885  -0.02999   0.00000  -0.04034  -0.04210   1.87675
    A8        1.86179   0.00149   0.00000   0.00326   0.00293   1.86472
    A9        2.08913   0.00405   0.00000   0.01137   0.01146   2.10059
   A10        2.33111  -0.00539   0.00000  -0.01375  -0.01368   2.31743
   A11        1.89562   0.01568   0.00000   0.01707   0.01811   1.91372
   A12        2.22997  -0.01205   0.00000  -0.01939  -0.02000   2.20996
   A13        2.15497  -0.00340   0.00000   0.00372   0.00313   2.15810
    D1       -0.00762   0.00076   0.00000   0.00117   0.00070  -0.00692
    D2        3.04404   0.00347   0.00000   0.01891   0.01868   3.06273
    D3        3.08209   0.00113   0.00000   0.00251   0.00215   3.08424
    D4       -0.14943   0.00384   0.00000   0.02026   0.02014  -0.12930
    D5        0.03861  -0.00213   0.00000  -0.01406  -0.01421   0.02440
    D6        3.10377   0.00142   0.00000   0.00679   0.00673   3.11049
    D7       -3.05545  -0.00203   0.00000  -0.01423  -0.01454  -3.06999
    D8        0.00971   0.00151   0.00000   0.00663   0.00640   0.01611
    D9       -0.02691   0.00275   0.00000   0.01476   0.01473  -0.01219
   D10       -3.08825   0.00056   0.00000  -0.00035  -0.00073  -3.08898
   D11        0.05072  -0.00450   0.00000  -0.02387  -0.02375   0.02697
   D12       -3.13563  -0.00161   0.00000  -0.00732  -0.00700   3.14056
   D13       -0.05493   0.00388   0.00000   0.02306   0.02324  -0.03169
   D14       -3.12410   0.00104   0.00000   0.00457   0.00432  -3.11978
   D15        3.14031   0.00002   0.00000   0.00216   0.00251  -3.14036
   D16        0.07115  -0.00282   0.00000  -0.01633  -0.01641   0.05473
         Item               Value     Threshold  Converged?
 Maximum Force            0.147244     0.000450     NO 
 RMS     Force            0.037876     0.000300     NO 
 Maximum Displacement     0.167865     0.001800     NO 
 RMS     Displacement     0.060714     0.001200     NO 
 Predicted change in Energy=-5.055154D-02
 Lowest energy point so far.  Saving SCF results.
 GradGradGradGradGradGradGradGradGradGradGradGradGradGradGradGradGradGrad

 Leave Link  103 at Tue Dec  1 17:37:47 2015, MaxMem=    33554432 cpu:         0.0
 (Enter /home/Applications/g09/g09/l202.exe)
                          Input orientation:                          
 ---------------------------------------------------------------------
 Center     Atomic      Atomic             Coordinates (Angstroms)
 Number     Number       Type             X           Y           Z
 ---------------------------------------------------------------------
      1          6           0        0.906491   -0.693053   -0.002603
      2          6           0       -0.340753   -1.064956    0.014810
      3          8           0       -1.126423    0.000706    0.025954
      4          6           0       -0.333513    1.089192    0.030650
      5          6           0        0.895694    0.660776   -0.011270
      6          1           0        1.753883    1.309523    0.001048
      7          1           0       -0.751601    2.047335    0.038527
      8          1           0       -0.759159   -2.060178   -0.039606
      9          1           0        1.790423   -1.287612    0.032150
 ---------------------------------------------------------------------
                    Distance matrix (angstroms):
                    1          2          3          4          5
     1  C    0.000000
     2  C    1.301627   0.000000
     3  O    2.148222   1.324022   0.000000
     4  C    2.171431   2.154218   1.346674   0.000000
     5  C    1.353899   2.123118   2.127449   1.302401   0.000000
     6  H    2.174488   3.166360   3.163825   2.099201   1.075877
     7  H    3.203231   3.139380   2.080707   1.045418   2.153743
     8  H    2.155178   1.080968   2.094379   3.178779   3.184797
     9  H    1.065853   2.142846   3.188698   3.187523   2.144444
                    6          7          8          9
     6  H    0.000000
     7  H    2.612129   0.000000
     8  H    4.203798   4.108263   0.000000
     9  H    2.597578   4.193304   2.665028   0.000000
 Stoichiometry    C4H4O
 Framework group  C1[X(C4H4O)]
 Deg. of freedom    21
 Full point group                 C1      NOp   1
 RotChk:  IX=0 Diff= 1.64D-02
 Largest Abelian subgroup         C1      NOp   1
 Largest concise Abelian subgroup C1      NOp   1
                         Standard orientation:                         
 ---------------------------------------------------------------------
 Center     Atomic      Atomic             Coordinates (Angstroms)
 Number     Number       Type             X           Y           Z
 ---------------------------------------------------------------------
      1          6           0       -0.765130    0.852157   -0.000380
      2          6           0       -1.032712   -0.421659   -0.005448
      3          8           0        0.094198   -1.116704   -0.000892
      4          6           0        1.113549   -0.236704   -0.008241
      5          6           0        0.584878    0.953311    0.016665
      6          1           0        1.160668    1.861958   -0.001752
      7          1           0        2.102955   -0.574289   -0.005380
      8          1           0       -1.990373   -0.920199    0.047799
      9          1           0       -1.430342    1.683519   -0.049108
 ---------------------------------------------------------------------
 Rotational constants (GHZ):     10.1619519      9.9187715      5.0203355
 Leave Link  202 at Tue Dec  1 17:37:47 2015, MaxMem=    33554432 cpu:         0.0
 (Enter /home/Applications/g09/g09/l301.exe)

 Semi-emprical parameters in input format:
 Method=8 CoreType=1 PeptideFC=0.0120930000 RIJScale=0.5388840000
 ****
 H       
 PQN=1 NValence=1 F0ss=0.5586300000 ZetaOverlap=1.0950750000 U=-0.4119510000
 Beta=-0.2338190000 CoreKO=1.1007910000 KON=0,0,0,0.9764370000 KON=1,0,1,1.1361190000
 KON=0,1,1,1.0139660000 KON=2,1,1,1.2635130000 EISol=-0.4188110042 EHeat=0.0830298228
 Alpha=1.4078420000
 GCore=0.0080140000,1.2229470000,2.2663690000
 GCore=0.0002960000,1.5853770000,2.7382840000
 GCore=-0.0012210000,0.6561060000,3.9519220000
 ****
 C       
 PQN=2,2 NValence=4 F0ss=0.4805700000 F0sp=0.4819370000 F0pp=0.3439950000 F2pp=0.1961420000
 G1sp=0.2678900000
 ZetaOverlap=1.8366850000,1.4875730000
 U=-1.4842670000,-1.3886060000
 Beta=-0.6376780000,-0.3536670000 DDN=0,1,0.9094820000 DDN=1,1,0.8346670000
 CoreKO=1.1045690000 KON=0,0,0,1.0182330000 KON=1,0,1,0.7342900000 KON=0,1,1,1.1944780000
 KON=2,1,1,0.7056720000 EISol=-4.4398989268 EHeat=0.2723305520 Alpha=1.4025920000
 DipHyp=1.8188593534
 GCore=0.0007870000,1.5590290000,2.8992300000
 GCore=0.0031100000,1.3744800000,3.7653660000
 GCore=-0.0013700000,1.3772400000,4.0631190000
 GCore=-0.0000820000,1.5210550000,5.3709760000
 ****
 O       
 PQN=2,2 NValence=6 F0ss=0.7455940000 F0sp=0.5814220000 F0pp=0.4393740000 F2pp=0.2294290000
 G1sp=0.3535640000
 ZetaOverlap=2.7714830000,2.5744810000
 U=-3.8069400000,-2.7329690000
 Beta=-1.1272460000,-1.1587550000 DDN=0,1,0.5172290000 DDN=1,1,0.4110560000
 CoreKO=0.8743200000 KON=0,0,0,0.8886000000 KON=1,0,1,0.5063100000 KON=0,1,1,0.8996480000
 KON=2,1,1,0.5582300000 EISol=-11.6164441184 EHeat=0.0949133088 Alpha=2.3820330000
 DipHyp=1.0343984867
 GCore=0.0192970000,1.5130470000,1.5620930000
 GCore=0.0058890000,1.6294880000,2.3818730000
 ****
 
 Standard basis: VSTO-6G (5D, 7F)
 Ernie: Thresh=  0.10000D-02 Tol=  0.10000D-05 Strict=F.
  NNHCO=     0 NNPyr=     0 NCTC=     0               EPep=         0.000000000
    EC=        70.277777040  ECS=         2.133919937   EG=         0.365952176
   EHC=         0.000000000  EAt=       -31.051283842  AtH=         1.516354808
 EPDDG=         0.000000000  ECC=        72.777649154 EAtT=        32.567638650
 There are    24 symmetry adapted cartesian basis functions of A   symmetry.
 There are    24 symmetry adapted basis functions of A   symmetry.
    24 basis functions,   144 primitive gaussians,    24 cartesian basis functions
    13 alpha electrons       13 beta electrons
       nuclear repulsion energy       105.3452878044 Hartrees.
 IExCor=    0 DFT=F Ex=HF Corr=None ExCW=0 ScaHFX=  1.000000
 ScaDFX=  1.000000  1.000000  1.000000  1.000000 ScalE2=  1.000000  1.000000
 IRadAn=      0 IRanWt=     -1 IRanGd=            0 ICorTp=0 IEmpDi=  4
 Integral buffers will be    131072 words long.
 Regular integral format.
 Two-electron integral symmetry is turned off.
 Leave Link  301 at Tue Dec  1 17:37:47 2015, MaxMem=    33554432 cpu:         0.0
 (Enter /home/Applications/g09/g09/l302.exe)
 Do NDO integrals.
 NPDir=0 NMtPBC=     1 NCelOv=     1 NCel=       1 NClECP=     1 NCelD=      1
         NCelK=      1 NCelE2=     1 NClLst=     1 CellRange=     0.0.
 One-electron integrals computed using PRISM.
 NBasis=    24 RedAO= F EigKep=  0.00D+00  NBF=    24
 NBsUse=    24 1.00D-04 EigRej=  0.00D+00 NBFU=    24
 Leave Link  302 at Tue Dec  1 17:37:47 2015, MaxMem=    33554432 cpu:         0.0
 (Enter /home/Applications/g09/g09/l303.exe)
 DipDrv:  MaxL=1.
 Leave Link  303 at Tue Dec  1 17:37:47 2015, MaxMem=    33554432 cpu:         0.0
 (Enter /home/Applications/g09/g09/l401.exe)
 Initial guess from the checkpoint file:  "/home/Applications/g09/scratch/Gau-23885.chk"
 B after Tr=     0.000000    0.000000    0.000000
         Rot=    0.999983   -0.000106    0.000102    0.005870 Ang=  -0.67 deg.
 Guess basis will be translated and rotated to current coordinates.
 JPrj=0 DoOrth=T DoCkMO=T.
 Leave Link  401 at Tue Dec  1 17:37:47 2015, MaxMem=    33554432 cpu:         0.0
 (Enter /home/Applications/g09/g09/l502.exe)
 Closed shell SCF:
 Using DIIS extrapolation, IDIIS=  1040.
 Overlap will be assumed to be unity.
 Two-electron integral symmetry not used.
 Keep J ints in memory in canonical form, NReq=888082.
 IVT=       79475 IEndB=       79475 NGot=    33554432 MDV=    33473473
 LenX=    33473473 LenY=    33472456
 Requested convergence on RMS density matrix=1.00D-08 within 128 cycles.
 Requested convergence on MAX density matrix=1.00D-06.
 Requested convergence on             energy=1.00D-06.
 No special actions if energy rises.
 FoFCou: FMM=F IPFlag=           0 FMFlag=           0 FMFlg1=           0
         NFxFlg=           0 DoJE=F BraDBF=F KetDBF=F FulRan=T
         wScrn=  0.000000 ICntrl=     600 IOpCl=  2 I1Cent=           0 NGrid=           0
         NMat0=    1 NMatS0=     54 NMatT0=    0 NMatD0=    1 NMtDS0=    0 NMtDT0=    0
 Symmetry not used in FoFCou.

 Cycle   1  Pass 1  IDiag  1:
 E=  1.76390283743061    
 DIIS: error= 8.93D-03 at cycle   1 NSaved=   1.
 NSaved= 1 IEnMin= 1 EnMin=  1.76390283743061     IErMin= 1 ErrMin= 8.93D-03
 ErrMax= 8.93D-03  0.00D+00 EMaxC= 1.00D-01 BMatC= 4.23D-03 BMatP= 4.23D-03
 IDIUse=3 WtCom= 9.11D-01 WtEn= 8.93D-02
 Coeff-Com:  0.100D+01
 Coeff-En:   0.100D+01
 Coeff:      0.100D+01
 GapD=    2.000 DampG=2.000 DampE=1.000 DampFc=2.0000 IDamp=-1.
 RMSDP=3.22D-03 MaxDP=1.70D-02              OVMax= 0.00D+00

 Cycle   2  Pass 1  IDiag  3:
 E=  1.75571429590303     Delta-E=       -0.008188541528 Rises=F Damp=F
 DIIS: error= 1.66D-03 at cycle   2 NSaved=   2.
 NSaved= 2 IEnMin= 2 EnMin=  1.75571429590303     IErMin= 2 ErrMin= 1.66D-03
 ErrMax= 1.66D-03  0.00D+00 EMaxC= 1.00D-01 BMatC= 1.99D-04 BMatP= 4.23D-03
 IDIUse=3 WtCom= 9.83D-01 WtEn= 1.66D-02
 Coeff-Com: -0.237D+00 0.124D+01
 Coeff-En:   0.000D+00 0.100D+01
 Coeff:     -0.233D+00 0.123D+01
 Gap=     0.437 Goal=   None    Shift=    0.000
 RMSDP=1.03D-03 MaxDP=4.62D-03 DE=-8.19D-03 OVMax= 5.85D-03

 Cycle   3  Pass 1  IDiag  3:
 E=  1.75519219846119     Delta-E=       -0.000522097442 Rises=F Damp=F
 DIIS: error= 3.55D-04 at cycle   3 NSaved=   3.
 NSaved= 3 IEnMin= 3 EnMin=  1.75519219846119     IErMin= 3 ErrMin= 3.55D-04
 ErrMax= 3.55D-04  0.00D+00 EMaxC= 1.00D-01 BMatC= 4.96D-06 BMatP= 1.99D-04
 IDIUse=3 WtCom= 9.96D-01 WtEn= 3.55D-03
 Coeff-Com:  0.708D-01-0.427D+00 0.136D+01
 Coeff-En:   0.000D+00 0.000D+00 0.100D+01
 Coeff:      0.705D-01-0.426D+00 0.135D+01
 Gap=     0.437 Goal=   None    Shift=    0.000
 RMSDP=2.64D-04 MaxDP=1.77D-03 DE=-5.22D-04 OVMax= 2.44D-03

 Cycle   4  Pass 1  IDiag  3:
 E=  1.75516985718882     Delta-E=       -0.000022341272 Rises=F Damp=F
 DIIS: error= 1.02D-04 at cycle   4 NSaved=   4.
 NSaved= 4 IEnMin= 4 EnMin=  1.75516985718882     IErMin= 4 ErrMin= 1.02D-04
 ErrMax= 1.02D-04  0.00D+00 EMaxC= 1.00D-01 BMatC= 2.52D-07 BMatP= 4.96D-06
 IDIUse=3 WtCom= 9.99D-01 WtEn= 1.02D-03
 Coeff-Com: -0.183D-01 0.117D+00-0.509D+00 0.141D+01
 Coeff-En:   0.000D+00 0.000D+00 0.000D+00 0.100D+01
 Coeff:     -0.183D-01 0.116D+00-0.508D+00 0.141D+01
 Gap=     0.438 Goal=   None    Shift=    0.000
 RMSDP=7.83D-05 MaxDP=6.90D-04 DE=-2.23D-05 OVMax= 8.86D-04

 Cycle   5  Pass 1  IDiag  3:
 E=  1.75516835026339     Delta-E=       -0.000001506925 Rises=F Damp=F
 DIIS: error= 2.04D-05 at cycle   5 NSaved=   5.
 NSaved= 5 IEnMin= 5 EnMin=  1.75516835026339     IErMin= 5 ErrMin= 2.04D-05
 ErrMax= 2.04D-05  0.00D+00 EMaxC= 1.00D-01 BMatC= 1.39D-08 BMatP= 2.52D-07
 IDIUse=1 WtCom= 1.00D+00 WtEn= 0.00D+00
 Coeff-Com:  0.761D-03-0.567D-02 0.520D-01-0.374D+00 0.133D+01
 Coeff:      0.761D-03-0.567D-02 0.520D-01-0.374D+00 0.133D+01
 Gap=     0.438 Goal=   None    Shift=    0.000
 RMSDP=1.96D-05 MaxDP=1.88D-04 DE=-1.51D-06 OVMax= 2.02D-04

 Cycle   6  Pass 1  IDiag  3:
 E=  1.75516826673673     Delta-E=       -0.000000083527 Rises=F Damp=F
 DIIS: error= 4.58D-06 at cycle   6 NSaved=   6.
 NSaved= 6 IEnMin= 6 EnMin=  1.75516826673673     IErMin= 6 ErrMin= 4.58D-06
 ErrMax= 4.58D-06  0.00D+00 EMaxC= 1.00D-01 BMatC= 7.32D-10 BMatP= 1.39D-08
 IDIUse=1 WtCom= 1.00D+00 WtEn= 0.00D+00
 Coeff-Com:  0.589D-03-0.367D-02 0.822D-02 0.637D-01-0.476D+00 0.141D+01
 Coeff:      0.589D-03-0.367D-02 0.822D-02 0.637D-01-0.476D+00 0.141D+01
 Gap=     0.438 Goal=   None    Shift=    0.000
 RMSDP=4.01D-06 MaxDP=4.06D-05 DE=-8.35D-08 OVMax= 3.18D-05

 Cycle   7  Pass 1  IDiag  3:
 E=  1.75516826284301     Delta-E=       -0.000000003894 Rises=F Damp=F
 DIIS: error= 8.95D-07 at cycle   7 NSaved=   7.
 NSaved= 7 IEnMin= 7 EnMin=  1.75516826284301     IErMin= 7 ErrMin= 8.95D-07
 ErrMax= 8.95D-07  0.00D+00 EMaxC= 1.00D-01 BMatC= 3.21D-11 BMatP= 7.32D-10
 IDIUse=1 WtCom= 1.00D+00 WtEn= 0.00D+00
 Coeff-Com: -0.312D-03 0.194D-02-0.644D-02-0.515D-02 0.109D+00-0.494D+00
 Coeff-Com:  0.139D+01
 Coeff:     -0.312D-03 0.194D-02-0.644D-02-0.515D-02 0.109D+00-0.494D+00
 Coeff:      0.139D+01
 Gap=     0.438 Goal=   None    Shift=    0.000
 RMSDP=8.53D-07 MaxDP=8.57D-06 DE=-3.89D-09 OVMax= 8.28D-06

 Cycle   8  Pass 1  IDiag  3:
 E=  1.75516826267150     Delta-E=       -0.000000000172 Rises=F Damp=F
 DIIS: error= 2.41D-07 at cycle   8 NSaved=   8.
 NSaved= 8 IEnMin= 8 EnMin=  1.75516826267150     IErMin= 8 ErrMin= 2.41D-07
 ErrMax= 2.41D-07  0.00D+00 EMaxC= 1.00D-01 BMatC= 1.95D-12 BMatP= 3.21D-11
 IDIUse=1 WtCom= 1.00D+00 WtEn= 0.00D+00
 Coeff-Com:  0.125D-03-0.775D-03 0.271D-02 0.375D-03-0.331D-01 0.178D+00
 Coeff-Com: -0.693D+00 0.155D+01
 Coeff:      0.125D-03-0.775D-03 0.271D-02 0.375D-03-0.331D-01 0.178D+00
 Coeff:     -0.693D+00 0.155D+01
 Gap=     0.438 Goal=   None    Shift=    0.000
 RMSDP=2.09D-07 MaxDP=1.47D-06 DE=-1.72D-10 OVMax= 1.79D-06

 Cycle   9  Pass 1  IDiag  3:
 E=  1.75516826266104     Delta-E=       -0.000000000010 Rises=F Damp=F
 DIIS: error= 4.54D-08 at cycle   9 NSaved=   9.
 NSaved= 9 IEnMin= 9 EnMin=  1.75516826266104     IErMin= 9 ErrMin= 4.54D-08
 ErrMax= 4.54D-08  0.00D+00 EMaxC= 1.00D-01 BMatC= 6.81D-14 BMatP= 1.95D-12
 IDIUse=1 WtCom= 1.00D+00 WtEn= 0.00D+00
 Coeff-Com: -0.455D-04 0.281D-03-0.101D-02 0.304D-04 0.111D-01-0.645D-01
 Coeff-Com:  0.272D+00-0.718D+00 0.150D+01
 Coeff:     -0.455D-04 0.281D-03-0.101D-02 0.304D-04 0.111D-01-0.645D-01
 Coeff:      0.272D+00-0.718D+00 0.150D+01
 Gap=     0.438 Goal=   None    Shift=    0.000
 RMSDP=3.63D-08 MaxDP=2.93D-07 DE=-1.05D-11 OVMax= 2.77D-07

 Cycle  10  Pass 1  IDiag  3:
 E=  1.75516826266070     Delta-E=        0.000000000000 Rises=F Damp=F
 DIIS: error= 8.29D-09 at cycle  10 NSaved=  10.
 NSaved=10 IEnMin=10 EnMin=  1.75516826266070     IErMin=10 ErrMin= 8.29D-09
 ErrMax= 8.29D-09  0.00D+00 EMaxC= 1.00D-01 BMatC= 2.34D-15 BMatP= 6.81D-14
 IDIUse=1 WtCom= 1.00D+00 WtEn= 0.00D+00
 Coeff-Com:  0.138D-04-0.841D-04 0.298D-03-0.312D-04-0.303D-02 0.179D-01
 Coeff-Com: -0.770D-01 0.212D+00-0.573D+00 0.142D+01
 Coeff:      0.138D-04-0.841D-04 0.298D-03-0.312D-04-0.303D-02 0.179D-01
 Coeff:     -0.770D-01 0.212D+00-0.573D+00 0.142D+01
 Gap=     0.438 Goal=   None    Shift=    0.000
 RMSDP=5.87D-09 MaxDP=4.79D-08 DE=-3.41D-13 OVMax= 4.49D-08

 Cycle  11  Pass 2  IDiag  1:
 SCF Done:  E(RAM1) =   1.75516826266     A.U. after   11 cycles
            NFock= 10  Conv=0.59D-08     -V/T= 1.1326
 KE=-1.323832974074D+01 PE=-1.741001824945D+02 EE= 8.374839269358D+01
 Leave Link  502 at Tue Dec  1 17:37:47 2015, MaxMem=    33554432 cpu:         0.0
 (Enter /home/Applications/g09/g09/l701.exe)
 Compute integral first derivatives.
 ... and contract with generalized density number  0.
 Leave Link  701 at Tue Dec  1 17:37:47 2015, MaxMem=    33554432 cpu:         0.0
 (Enter /home/Applications/g09/g09/l702.exe)
 L702 exits ... SP integral derivatives will be done elsewhere.
 Leave Link  702 at Tue Dec  1 17:37:47 2015, MaxMem=    33554432 cpu:         0.0
 (Enter /home/Applications/g09/g09/l703.exe)
 Compute integral first derivatives, UseDBF=F ICtDFT=           0.
 Integral derivatives from FoFJK, PRISM(SPDF).
 Calling FoFJK, ICntrl=      2127 FMM=F ISym2X=0 I1Cent= 0 IOpClX= 0 NMat=1 NMatS=1 NMatT=0.
 FoFJK:  IHMeth= 8 ICntrl=    2127 DoSepK=F KAlg= 0 I1Cent=   0 FoldK=F
 IRaf=         0 NMat=   1 IRICut=       1 DoRegI=T DoRafI=F ISym2E= 0.
 FoFCou: FMM=F IPFlag=           0 FMFlag=      100000 FMFlg1=         800
         NFxFlg=           0 DoJE=F BraDBF=F KetDBF=F FulRan=T
         wScrn=  0.000000 ICntrl=    2127 IOpCl=  0 I1Cent=           0 NGrid=           0
         NMat0=    1 NMatS0=      1 NMatT0=    0 NMatD0=    1 NMtDS0=    0 NMtDT0=    0
 Symmetry not used in FoFCou.
 Leave Link  703 at Tue Dec  1 17:37:47 2015, MaxMem=    33554432 cpu:         0.0
 (Enter /home/Applications/g09/g09/l716.exe)
 Dipole        = 3.95089233D-03 1.25820269D-01-1.75923447D-02
 ***** Axes restored to original set *****
 -------------------------------------------------------------------
 Center     Atomic                   Forces (Hartrees/Bohr)
 Number     Number              X              Y              Z
 -------------------------------------------------------------------
      1        6          -0.008361882    0.005695860    0.002981881
      2        6           0.021655070   -0.041981849   -0.009420453
      3        8          -0.039140795    0.019484124    0.004052327
      4        6           0.014155261   -0.012964489   -0.007486867
      5        6           0.000228357    0.014455699    0.009579028
      6        1           0.007358551    0.000986871   -0.002184927
      7        1          -0.005295844    0.013711920    0.000762081
      8        1           0.001780161    0.009305670    0.004454996
      9        1           0.007621122   -0.008693806   -0.002738065
 -------------------------------------------------------------------
 Cartesian Forces:  Max     0.041981849 RMS     0.014417150
 Leave Link  716 at Tue Dec  1 17:37:47 2015, MaxMem=    33554432 cpu:         0.0
 (Enter /home/Applications/g09/g09/l103.exe)

 GradGradGradGradGradGradGradGradGradGradGradGradGradGradGradGradGradGrad
 Berny optimization.
 Using GEDIIS/GDIIS optimizer.
 FormGI is forming the generalized inverse of G from B-inverse, IUseBI=4.
 Internal  Forces:  Max     0.034907280 RMS     0.007896239
 Search for a local minimum.
 Step number   2 out of a maximum of   48
 All quantities printed in internal units (Hartrees-Bohrs-Radians)
 RMS Force = .78962D-02 SwitMx=.10000D-02 MixMth= 1
 Mixed Optimization -- RFO/linear search
 Update second derivatives using D2CorX and points    1    2
 DE= -3.67D-02 DEPred=-5.06D-02 R= 7.26D-01
 TightC=F SS=  1.41D+00  RLast= 3.05D-01 DXNew= 5.0454D-01 9.1424D-01
 Trust test= 7.26D-01 RLast= 3.05D-01 DXMaxT set to 5.05D-01
 ITU=  1  0
 Use linear search instead of GDIIS.
     Eigenvalues ---    0.01923   0.02031   0.02036   0.02202   0.02284
     Eigenvalues ---    0.02407   0.15918   0.15970   0.15977   0.16015
     Eigenvalues ---    0.21893   0.22888   0.32201   0.35432   0.37264
     Eigenvalues ---    0.41233   0.41548   0.41882   0.47826   0.56535
     Eigenvalues ---    0.89293
 RFO step:  Lambda=-6.67383490D-03 EMin= 1.92268284D-02
 Quartic linear search produced a step of -0.00555.
 Iteration  1 RMS(Cart)=  0.02950177 RMS(Int)=  0.00122101
 Iteration  2 RMS(Cart)=  0.00106791 RMS(Int)=  0.00073539
 Iteration  3 RMS(Cart)=  0.00000057 RMS(Int)=  0.00073539
 ITry= 1 IFail=0 DXMaxC= 7.96D-02 DCOld= 1.00D+10 DXMaxT= 5.05D-01 DXLimC= 3.00D+00 Rises=F
 Variable       Old X    -DE/DX   Delta X   Delta X   Delta X     New X
                                 (Linear)    (Quad)   (Total)
    R1        2.45972   0.00252   0.00101  -0.00790  -0.00671   2.45301
    R2        2.55850   0.01000   0.00073   0.00915   0.00993   2.56843
    R3        2.01417   0.01108   0.00003   0.02850   0.02853   2.04270
    R4        2.50204   0.03491  -0.00007   0.05872   0.05871   2.56075
    R5        2.04273  -0.00948   0.00033  -0.03323  -0.03289   2.00984
    R6        2.54484   0.01388   0.00023   0.02507   0.02514   2.56999
    R7        2.46118   0.00399   0.00091  -0.00717  -0.00640   2.45478
    R8        1.97555   0.01469  -0.00012   0.03571   0.03558   2.01114
    R9        2.03311   0.00644   0.00009   0.01642   0.01651   2.04962
    A1        1.85266   0.00570  -0.00023   0.02148   0.02107   1.87374
    A2        2.25861  -0.00573   0.00018  -0.02853  -0.02835   2.23026
    A3        2.17077   0.00005   0.00005   0.00786   0.00795   2.17871
    A4        1.91638  -0.00178   0.00011  -0.00168  -0.00274   1.91364
    A5        2.25658   0.00318  -0.00001   0.01595   0.01494   2.27152
    A6        2.10803  -0.00125  -0.00010  -0.00899  -0.01009   2.09794
    A7        1.87675  -0.01079   0.00023  -0.03306  -0.03343   1.84331
    A8        1.86472   0.00790  -0.00002   0.03157   0.03016   1.89488
    A9        2.10059  -0.00334  -0.00006  -0.01026  -0.01084   2.08975
   A10        2.31743  -0.00450   0.00008  -0.01924  -0.01967   2.29776
   A11        1.91372  -0.00094  -0.00010  -0.01498  -0.01704   1.89669
   A12        2.20996  -0.00321   0.00011  -0.01332  -0.01446   2.19550
   A13        2.15810   0.00429  -0.00002   0.03336   0.03197   2.19007
    D1       -0.00692   0.00005   0.00000   0.00430   0.00381  -0.00311
    D2        3.06273   0.00245  -0.00010   0.09041   0.09044  -3.13002
    D3        3.08424   0.00067  -0.00001   0.02286   0.02218   3.10642
    D4       -0.12930   0.00308  -0.00011   0.10897   0.10881  -0.02049
    D5        0.02440  -0.00170   0.00008  -0.06419  -0.06341  -0.03901
    D6        3.11049   0.00106  -0.00004   0.03712   0.03630  -3.13639
    D7       -3.06999  -0.00206   0.00008  -0.08020  -0.07975   3.13345
    D8        0.01611   0.00070  -0.00004   0.02111   0.01996   0.03607
    D9       -0.01219   0.00166  -0.00008   0.05458   0.05375   0.04156
   D10       -3.08898  -0.00072   0.00000  -0.02414  -0.02404  -3.11302
   D11        0.02697  -0.00261   0.00013  -0.09242  -0.09258  -0.06562
   D12        3.14056  -0.00078   0.00004  -0.02685  -0.02662   3.11394
   D13       -0.03169   0.00255  -0.00013   0.09649   0.09698   0.06529
   D14       -3.11978   0.00017  -0.00002   0.00054  -0.00057  -3.12035
   D15       -3.14036   0.00033  -0.00001   0.01901   0.01994  -3.12042
   D16        0.05473  -0.00205   0.00009  -0.07694  -0.07761  -0.02288
         Item               Value     Threshold  Converged?
 Maximum Force            0.034907     0.000450     NO 
 RMS     Force            0.007896     0.000300     NO 
 Maximum Displacement     0.079632     0.001800     NO 
 RMS     Displacement     0.029290     0.001200     NO 
 Predicted change in Energy=-3.572826D-03
 Lowest energy point so far.  Saving SCF results.
 GradGradGradGradGradGradGradGradGradGradGradGradGradGradGradGradGradGrad

 Leave Link  103 at Tue Dec  1 17:37:47 2015, MaxMem=    33554432 cpu:         0.0
 (Enter /home/Applications/g09/g09/l202.exe)
                          Input orientation:                          
 ---------------------------------------------------------------------
 Center     Atomic      Atomic             Coordinates (Angstroms)
 Number     Number       Type             X           Y           Z
 ---------------------------------------------------------------------
      1          6           0        0.901071   -0.686608   -0.008006
      2          6           0       -0.336383   -1.078610   -0.001007
      3          8           0       -1.155622   -0.000138    0.043958
      4          6           0       -0.335514    1.084203    0.009724
      5          6           0        0.896226    0.672032    0.028979
      6          1           0        1.773560    1.309740    0.029215
      7          1           0       -0.754007    2.062716    0.009239
      8          1           0       -0.744720   -2.060595   -0.012452
      9          1           0        1.790430   -1.301008   -0.009989
 ---------------------------------------------------------------------
                    Distance matrix (angstroms):
                    1          2          3          4          5
     1  C    0.000000
     2  C    1.298079   0.000000
     3  O    2.168854   1.355092   0.000000
     4  C    2.159914   2.162840   1.359979   0.000000
     5  C    1.359152   2.141255   2.159193   1.299014   0.000000
     6  H    2.178997   3.187003   3.208754   2.121188   1.084614
     7  H    3.209106   3.168981   2.101872   1.064248   2.158161
     8  H    2.143943   1.063563   2.101787   3.171387   3.187738
     9  H    1.080948   2.138428   3.220930   3.195193   2.166565
                    6          7          8          9
     6  H    0.000000
     7  H    2.637416   0.000000
     8  H    4.207450   4.123378   0.000000
     9  H    2.611097   4.217720   2.646501   0.000000
 Stoichiometry    C4H4O
 Framework group  C1[X(C4H4O)]
 Deg. of freedom    21
 Full point group                 C1      NOp   1
 RotChk:  IX=0 Diff= 3.53D-02
 Largest Abelian subgroup         C1      NOp   1
 Largest concise Abelian subgroup C1      NOp   1
                         Standard orientation:                         
 ---------------------------------------------------------------------
 Center     Atomic      Atomic             Coordinates (Angstroms)
 Number     Number       Type             X           Y           Z
 ---------------------------------------------------------------------
      1          6           0       -0.737387    0.871747    0.007945
      2          6           0       -1.056857   -0.386405    0.008356
      3          8           0        0.067731   -1.141962   -0.018307
      4          6           0        1.102257   -0.259982    0.019265
      5          6           0        0.619560    0.945523   -0.015395
      6          1           0        1.205274    1.858388   -0.017284
      7          1           0        2.103337   -0.620903    0.033376
      8          1           0       -2.013570   -0.850987    0.013712
      9          1           0       -1.402325    1.723895   -0.004367
 ---------------------------------------------------------------------
 Rotational constants (GHZ):      9.9595978      9.8503430      4.9538651
 Leave Link  202 at Tue Dec  1 17:37:47 2015, MaxMem=    33554432 cpu:         0.0
 (Enter /home/Applications/g09/g09/l301.exe)

 Semi-emprical parameters in input format:
 Method=8 CoreType=1 PeptideFC=0.0120930000 RIJScale=0.5388840000
 ****
 H       
 PQN=1 NValence=1 F0ss=0.5586300000 ZetaOverlap=1.0950750000 U=-0.4119510000
 Beta=-0.2338190000 CoreKO=1.1007910000 KON=0,0,0,0.9764370000 KON=1,0,1,1.1361190000
 KON=0,1,1,1.0139660000 KON=2,1,1,1.2635130000 EISol=-0.4188110042 EHeat=0.0830298228
 Alpha=1.4078420000
 GCore=0.0080140000,1.2229470000,2.2663690000
 GCore=0.0002960000,1.5853770000,2.7382840000
 GCore=-0.0012210000,0.6561060000,3.9519220000
 ****
 C       
 PQN=2,2 NValence=4 F0ss=0.4805700000 F0sp=0.4819370000 F0pp=0.3439950000 F2pp=0.1961420000
 G1sp=0.2678900000
 ZetaOverlap=1.8366850000,1.4875730000
 U=-1.4842670000,-1.3886060000
 Beta=-0.6376780000,-0.3536670000 DDN=0,1,0.9094820000 DDN=1,1,0.8346670000
 CoreKO=1.1045690000 KON=0,0,0,1.0182330000 KON=1,0,1,0.7342900000 KON=0,1,1,1.1944780000
 KON=2,1,1,0.7056720000 EISol=-4.4398989268 EHeat=0.2723305520 Alpha=1.4025920000
 DipHyp=1.8188593534
 GCore=0.0007870000,1.5590290000,2.8992300000
 GCore=0.0031100000,1.3744800000,3.7653660000
 GCore=-0.0013700000,1.3772400000,4.0631190000
 GCore=-0.0000820000,1.5210550000,5.3709760000
 ****
 O       
 PQN=2,2 NValence=6 F0ss=0.7455940000 F0sp=0.5814220000 F0pp=0.4393740000 F2pp=0.2294290000
 G1sp=0.3535640000
 ZetaOverlap=2.7714830000,2.5744810000
 U=-3.8069400000,-2.7329690000
 Beta=-1.1272460000,-1.1587550000 DDN=0,1,0.5172290000 DDN=1,1,0.4110560000
 CoreKO=0.8743200000 KON=0,0,0,0.8886000000 KON=1,0,1,0.5063100000 KON=0,1,1,0.8996480000
 KON=2,1,1,0.5582300000 EISol=-11.6164441184 EHeat=0.0949133088 Alpha=2.3820330000
 DipHyp=1.0343984867
 GCore=0.0192970000,1.5130470000,1.5620930000
 GCore=0.0058890000,1.6294880000,2.3818730000
 ****
 
 Standard basis: VSTO-6G (5D, 7F)
 Ernie: Thresh=  0.10000D-02 Tol=  0.10000D-05 Strict=F.
  NNHCO=     0 NNPyr=     0 NCTC=     0               EPep=         0.000000000
    EC=        69.930163762  ECS=         2.085388706   EG=         0.348123519
   EHC=         0.000000000  EAt=       -31.051283842  AtH=         1.516354808
 EPDDG=         0.000000000  ECC=        72.363675988 EAtT=        32.567638650
 There are    24 symmetry adapted cartesian basis functions of A   symmetry.
 There are    24 symmetry adapted basis functions of A   symmetry.
    24 basis functions,   144 primitive gaussians,    24 cartesian basis functions
    13 alpha electrons       13 beta electrons
       nuclear repulsion energy       104.9313146380 Hartrees.
 IExCor=    0 DFT=F Ex=HF Corr=None ExCW=0 ScaHFX=  1.000000
 ScaDFX=  1.000000  1.000000  1.000000  1.000000 ScalE2=  1.000000  1.000000
 IRadAn=      0 IRanWt=     -1 IRanGd=            0 ICorTp=0 IEmpDi=  4
 Integral buffers will be    131072 words long.
 Regular integral format.
 Two-electron integral symmetry is turned off.
 Leave Link  301 at Tue Dec  1 17:37:48 2015, MaxMem=    33554432 cpu:         0.0
 (Enter /home/Applications/g09/g09/l302.exe)
 Do NDO integrals.
 NPDir=0 NMtPBC=     1 NCelOv=     1 NCel=       1 NClECP=     1 NCelD=      1
         NCelK=      1 NCelE2=     1 NClLst=     1 CellRange=     0.0.
 One-electron integrals computed using PRISM.
 NBasis=    24 RedAO= F EigKep=  0.00D+00  NBF=    24
 NBsUse=    24 1.00D-04 EigRej=  0.00D+00 NBFU=    24
 Leave Link  302 at Tue Dec  1 17:37:48 2015, MaxMem=    33554432 cpu:         0.0
 (Enter /home/Applications/g09/g09/l303.exe)
 DipDrv:  MaxL=1.
 Leave Link  303 at Tue Dec  1 17:37:48 2015, MaxMem=    33554432 cpu:         0.0
 (Enter /home/Applications/g09/g09/l401.exe)
 Initial guess from the checkpoint file:  "/home/Applications/g09/scratch/Gau-23885.chk"
 B after Tr=     0.000000    0.000000    0.000000
         Rot=    0.999911    0.000081   -0.000011    0.013377 Ang=   1.53 deg.
 Guess basis will be translated and rotated to current coordinates.
 JPrj=0 DoOrth=T DoCkMO=T.
 Leave Link  401 at Tue Dec  1 17:37:48 2015, MaxMem=    33554432 cpu:         0.0
 (Enter /home/Applications/g09/g09/l502.exe)
 Closed shell SCF:
 Using DIIS extrapolation, IDIIS=  1040.
 Overlap will be assumed to be unity.
 Two-electron integral symmetry not used.
 Keep J ints in memory in canonical form, NReq=888082.
 IVT=       79475 IEndB=       79475 NGot=    33554432 MDV=    33473473
 LenX=    33473473 LenY=    33472456
 Requested convergence on RMS density matrix=1.00D-08 within 128 cycles.
 Requested convergence on MAX density matrix=1.00D-06.
 Requested convergence on             energy=1.00D-06.
 No special actions if energy rises.
 FoFCou: FMM=F IPFlag=           0 FMFlag=           0 FMFlg1=           0
         NFxFlg=           0 DoJE=F BraDBF=F KetDBF=F FulRan=T
         wScrn=  0.000000 ICntrl=     600 IOpCl=  2 I1Cent=           0 NGrid=           0
         NMat0=    1 NMatS0=     54 NMatT0=    0 NMatD0=    1 NMtDS0=    0 NMtDT0=    0
 Symmetry not used in FoFCou.

 Cycle   1  Pass 1  IDiag  1:
 E=  1.75785936006925    
 DIIS: error= 7.68D-03 at cycle   1 NSaved=   1.
 NSaved= 1 IEnMin= 1 EnMin=  1.75785936006925     IErMin= 1 ErrMin= 7.68D-03
 ErrMax= 7.68D-03  0.00D+00 EMaxC= 1.00D-01 BMatC= 1.93D-03 BMatP= 1.93D-03
 IDIUse=3 WtCom= 9.23D-01 WtEn= 7.68D-02
 Coeff-Com:  0.100D+01
 Coeff-En:   0.100D+01
 Coeff:      0.100D+01
 GapD=    2.000 DampG=2.000 DampE=1.000 DampFc=2.0000 IDamp=-1.
 RMSDP=2.47D-03 MaxDP=1.08D-02              OVMax= 0.00D+00

 Cycle   2  Pass 1  IDiag  3:
 E=  1.75338625109188     Delta-E=       -0.004473108977 Rises=F Damp=F
 DIIS: error= 1.85D-03 at cycle   2 NSaved=   2.
 NSaved= 2 IEnMin= 2 EnMin=  1.75338625109188     IErMin= 2 ErrMin= 1.85D-03
 ErrMax= 1.85D-03  0.00D+00 EMaxC= 1.00D-01 BMatC= 1.53D-04 BMatP= 1.93D-03
 IDIUse=3 WtCom= 9.82D-01 WtEn= 1.85D-02
 Coeff-Com: -0.332D+00 0.133D+01
 Coeff-En:   0.000D+00 0.100D+01
 Coeff:     -0.326D+00 0.133D+01
 Gap=     0.437 Goal=   None    Shift=    0.000
 RMSDP=1.14D-03 MaxDP=4.96D-03 DE=-4.47D-03 OVMax= 5.32D-03

 Cycle   3  Pass 1  IDiag  3:
 E=  1.75285682837991     Delta-E=       -0.000529422712 Rises=F Damp=F
 DIIS: error= 2.84D-04 at cycle   3 NSaved=   3.
 NSaved= 3 IEnMin= 3 EnMin=  1.75285682837991     IErMin= 3 ErrMin= 2.84D-04
 ErrMax= 2.84D-04  0.00D+00 EMaxC= 1.00D-01 BMatC= 5.72D-06 BMatP= 1.53D-04
 IDIUse=3 WtCom= 9.97D-01 WtEn= 2.84D-03
 Coeff-Com:  0.132D+00-0.617D+00 0.148D+01
 Coeff-En:   0.000D+00 0.000D+00 0.100D+01
 Coeff:      0.132D+00-0.615D+00 0.148D+01
 Gap=     0.437 Goal=   None    Shift=    0.000
 RMSDP=3.27D-04 MaxDP=1.58D-03 DE=-5.29D-04 OVMax= 1.75D-03

 Cycle   4  Pass 1  IDiag  3:
 E=  1.75282737155993     Delta-E=       -0.000029456820 Rises=F Damp=F
 DIIS: error= 6.28D-05 at cycle   4 NSaved=   4.
 NSaved= 4 IEnMin= 4 EnMin=  1.75282737155993     IErMin= 4 ErrMin= 6.28D-05
 ErrMax= 6.28D-05  0.00D+00 EMaxC= 1.00D-01 BMatC= 1.88D-07 BMatP= 5.72D-06
 IDIUse=1 WtCom= 1.00D+00 WtEn= 0.00D+00
 Coeff-Com: -0.292D-02 0.233D-01-0.211D+00 0.119D+01
 Coeff:     -0.292D-02 0.233D-01-0.211D+00 0.119D+01
 Gap=     0.437 Goal=   None    Shift=    0.000
 RMSDP=5.70D-05 MaxDP=3.83D-04 DE=-2.95D-05 OVMax= 3.87D-04

 Cycle   5  Pass 1  IDiag  3:
 E=  1.75282643809737     Delta-E=       -0.000000933463 Rises=F Damp=F
 DIIS: error= 1.99D-05 at cycle   5 NSaved=   5.
 NSaved= 5 IEnMin= 5 EnMin=  1.75282643809737     IErMin= 5 ErrMin= 1.99D-05
 ErrMax= 1.99D-05  0.00D+00 EMaxC= 1.00D-01 BMatC= 1.37D-08 BMatP= 1.88D-07
 IDIUse=1 WtCom= 1.00D+00 WtEn= 0.00D+00
 Coeff-Com: -0.498D-02 0.199D-01 0.861D-02-0.457D+00 0.143D+01
 Coeff:     -0.498D-02 0.199D-01 0.861D-02-0.457D+00 0.143D+01
 Gap=     0.437 Goal=   None    Shift=    0.000
 RMSDP=1.50D-05 MaxDP=1.31D-04 DE=-9.33D-07 OVMax= 1.34D-04

 Cycle   6  Pass 1  IDiag  3:
 E=  1.75282637264813     Delta-E=       -0.000000065449 Rises=F Damp=F
 DIIS: error= 4.82D-06 at cycle   6 NSaved=   6.
 NSaved= 6 IEnMin= 6 EnMin=  1.75282637264813     IErMin= 6 ErrMin= 4.82D-06
 ErrMax= 4.82D-06  0.00D+00 EMaxC= 1.00D-01 BMatC= 7.29D-10 BMatP= 1.37D-08
 IDIUse=1 WtCom= 1.00D+00 WtEn= 0.00D+00
 Coeff-Com:  0.274D-02-0.116D-01 0.706D-02 0.174D+00-0.733D+00 0.156D+01
 Coeff:      0.274D-02-0.116D-01 0.706D-02 0.174D+00-0.733D+00 0.156D+01
 Gap=     0.437 Goal=   None    Shift=    0.000
 RMSDP=3.89D-06 MaxDP=3.36D-05 DE=-6.54D-08 OVMax= 3.44D-05

 Cycle   7  Pass 1  IDiag  3:
 E=  1.75282636881117     Delta-E=       -0.000000003837 Rises=F Damp=F
 DIIS: error= 7.30D-07 at cycle   7 NSaved=   7.
 NSaved= 7 IEnMin= 7 EnMin=  1.75282636881117     IErMin= 7 ErrMin= 7.30D-07
 ErrMax= 7.30D-07  0.00D+00 EMaxC= 1.00D-01 BMatC= 2.17D-11 BMatP= 7.29D-10
 IDIUse=1 WtCom= 1.00D+00 WtEn= 0.00D+00
 Coeff-Com: -0.814D-03 0.348D-02-0.263D-02-0.481D-01 0.216D+00-0.565D+00
 Coeff-Com:  0.140D+01
 Coeff:     -0.814D-03 0.348D-02-0.263D-02-0.481D-01 0.216D+00-0.565D+00
 Coeff:      0.140D+01
 Gap=     0.437 Goal=   None    Shift=    0.000
 RMSDP=6.77D-07 MaxDP=4.41D-06 DE=-3.84D-09 OVMax= 4.65D-06

 Cycle   8  Pass 1  IDiag  3:
 E=  1.75282636869120     Delta-E=       -0.000000000120 Rises=F Damp=F
 DIIS: error= 1.61D-07 at cycle   8 NSaved=   8.
 NSaved= 8 IEnMin= 8 EnMin=  1.75282636869120     IErMin= 8 ErrMin= 1.61D-07
 ErrMax= 1.61D-07  0.00D+00 EMaxC= 1.00D-01 BMatC= 1.08D-12 BMatP= 2.17D-11
 IDIUse=1 WtCom= 1.00D+00 WtEn= 0.00D+00
 Coeff-Com:  0.209D-03-0.906D-03 0.839D-03 0.113D-01-0.549D-01 0.162D+00
 Coeff-Com: -0.582D+00 0.146D+01
 Coeff:      0.209D-03-0.906D-03 0.839D-03 0.113D-01-0.549D-01 0.162D+00
 Coeff:     -0.582D+00 0.146D+01
 Gap=     0.437 Goal=   None    Shift=    0.000
 RMSDP=1.74D-07 MaxDP=1.27D-06 DE=-1.20D-10 OVMax= 1.69D-06

 Cycle   9  Pass 1  IDiag  3:
 E=  1.75282636868444     Delta-E=       -0.000000000007 Rises=F Damp=F
 DIIS: error= 4.17D-08 at cycle   9 NSaved=   9.
 NSaved= 9 IEnMin= 9 EnMin=  1.75282636868444     IErMin= 9 ErrMin= 4.17D-08
 ErrMax= 4.17D-08  0.00D+00 EMaxC= 1.00D-01 BMatC= 4.71D-14 BMatP= 1.08D-12
 IDIUse=1 WtCom= 1.00D+00 WtEn= 0.00D+00
 Coeff-Com: -0.619D-04 0.268D-03-0.229D-03-0.351D-02 0.171D-01-0.513D-01
 Coeff-Com:  0.204D+00-0.657D+00 0.149D+01
 Coeff:     -0.619D-04 0.268D-03-0.229D-03-0.351D-02 0.171D-01-0.513D-01
 Coeff:      0.204D+00-0.657D+00 0.149D+01
 Gap=     0.437 Goal=   None    Shift=    0.000
 RMSDP=3.84D-08 MaxDP=3.06D-07 DE=-6.76D-12 OVMax= 4.44D-07

 Cycle  10  Pass 1  IDiag  3:
 E=  1.75282636868415     Delta-E=        0.000000000000 Rises=F Damp=F
 DIIS: error= 6.28D-09 at cycle  10 NSaved=  10.
 NSaved=10 IEnMin=10 EnMin=  1.75282636868415     IErMin=10 ErrMin= 6.28D-09
 ErrMax= 6.28D-09  0.00D+00 EMaxC= 1.00D-01 BMatC= 1.32D-15 BMatP= 4.71D-14
 IDIUse=1 WtCom= 1.00D+00 WtEn= 0.00D+00
 Coeff-Com:  0.148D-04-0.644D-04 0.600D-04 0.796D-03-0.402D-02 0.126D-01
 Coeff-Com: -0.551D-01 0.194D+00-0.560D+00 0.141D+01
 Coeff:      0.148D-04-0.644D-04 0.600D-04 0.796D-03-0.402D-02 0.126D-01
 Coeff:     -0.551D-01 0.194D+00-0.560D+00 0.141D+01
 Gap=     0.437 Goal=   None    Shift=    0.000
 RMSDP=6.03D-09 MaxDP=4.78D-08 DE=-2.84D-13 OVMax= 7.23D-08

 Cycle  11  Pass 2  IDiag  1:
 SCF Done:  E(RAM1) =   1.75282636868     A.U. after   11 cycles
            NFock= 10  Conv=0.60D-08     -V/T= 1.1330
 KE=-1.317794113109D+01 PE=-1.734709081272D+02 EE= 8.347036098897D+01
 Leave Link  502 at Tue Dec  1 17:37:48 2015, MaxMem=    33554432 cpu:         0.0
 (Enter /home/Applications/g09/g09/l701.exe)
 Compute integral first derivatives.
 ... and contract with generalized density number  0.
 Leave Link  701 at Tue Dec  1 17:37:48 2015, MaxMem=    33554432 cpu:         0.0
 (Enter /home/Applications/g09/g09/l702.exe)
 L702 exits ... SP integral derivatives will be done elsewhere.
 Leave Link  702 at Tue Dec  1 17:37:48 2015, MaxMem=    33554432 cpu:         0.0
 (Enter /home/Applications/g09/g09/l703.exe)
 Compute integral first derivatives, UseDBF=F ICtDFT=           0.
 Integral derivatives from FoFJK, PRISM(SPDF).
 Calling FoFJK, ICntrl=      2127 FMM=F ISym2X=0 I1Cent= 0 IOpClX= 0 NMat=1 NMatS=1 NMatT=0.
 FoFJK:  IHMeth= 8 ICntrl=    2127 DoSepK=F KAlg= 0 I1Cent=   0 FoldK=F
 IRaf=         0 NMat=   1 IRICut=       1 DoRegI=T DoRafI=F ISym2E= 0.
 FoFCou: FMM=F IPFlag=           0 FMFlag=      100000 FMFlg1=         800
         NFxFlg=           0 DoJE=F BraDBF=F KetDBF=F FulRan=T
         wScrn=  0.000000 ICntrl=    2127 IOpCl=  0 I1Cent=           0 NGrid=           0
         NMat0=    1 NMatS0=      1 NMatT0=    0 NMatD0=    1 NMtDS0=    0 NMtDT0=    0
 Symmetry not used in FoFCou.
 Leave Link  703 at Tue Dec  1 17:37:48 2015, MaxMem=    33554432 cpu:         0.0
 (Enter /home/Applications/g09/g09/l716.exe)
 Dipole        = 2.93574930D-04 1.81404693D-01 2.50600736D-02
 ***** Axes restored to original set *****
 -------------------------------------------------------------------
 Center     Atomic                   Forces (Hartrees/Bohr)
 Number     Number              X              Y              Z
 -------------------------------------------------------------------
      1        6          -0.000629366    0.003938439    0.005405009
      2        6           0.000318583    0.000241515    0.004972983
      3        8           0.005509530    0.003629752   -0.010376328
      4        6          -0.003098440   -0.009111439    0.012757579
      5        6           0.001257098    0.005188223   -0.011216124
      6        1          -0.000013394   -0.001948684    0.000683007
      7        1          -0.000487335   -0.000186556   -0.000368625
      8        1          -0.002638195   -0.000687172   -0.000498478
      9        1          -0.000218482   -0.001064078   -0.001359022
 -------------------------------------------------------------------
 Cartesian Forces:  Max     0.012757579 RMS     0.004892413
 Leave Link  716 at Tue Dec  1 17:37:48 2015, MaxMem=    33554432 cpu:         0.0
 (Enter /home/Applications/g09/g09/l103.exe)

 GradGradGradGradGradGradGradGradGradGradGradGradGradGradGradGradGradGrad
 Berny optimization.
 Using GEDIIS/GDIIS optimizer.
 FormGI is forming the generalized inverse of G from B-inverse, IUseBI=4.
 Internal  Forces:  Max     0.006710329 RMS     0.002280822
 Search for a local minimum.
 Step number   3 out of a maximum of   48
 All quantities printed in internal units (Hartrees-Bohrs-Radians)
 RMS Force = .22808D-02 SwitMx=.10000D-02 MixMth= 1
 Mixed Optimization -- RFO/linear search
 Update second derivatives using D2CorX and points    1    2    3
 DE= -2.34D-03 DEPred=-3.57D-03 R= 6.55D-01
 TightC=F SS=  1.41D+00  RLast= 2.73D-01 DXNew= 8.4853D-01 8.1934D-01
 Trust test= 6.55D-01 RLast= 2.73D-01 DXMaxT set to 8.19D-01
 ITU=  1  1  0
 Use linear search instead of GDIIS.
     Eigenvalues ---    0.01879   0.01960   0.02152   0.02200   0.02309
     Eigenvalues ---    0.03818   0.14523   0.15977   0.15989   0.16097
     Eigenvalues ---    0.20296   0.22864   0.32281   0.35479   0.36574
     Eigenvalues ---    0.40638   0.41479   0.42056   0.50247   0.54380
     Eigenvalues ---    0.89237
 RFO step:  Lambda=-2.21013558D-03 EMin= 1.87930258D-02
 Quartic linear search produced a step of -0.22564.
 Iteration  1 RMS(Cart)=  0.02724223 RMS(Int)=  0.00142253
 Iteration  2 RMS(Cart)=  0.00111993 RMS(Int)=  0.00079367
 Iteration  3 RMS(Cart)=  0.00000086 RMS(Int)=  0.00079367
 ITry= 1 IFail=0 DXMaxC= 1.03D-01 DCOld= 1.00D+10 DXMaxT= 8.19D-01 DXLimC= 3.00D+00 Rises=F
 Variable       Old X    -DE/DX   Delta X   Delta X   Delta X     New X
                                 (Linear)    (Quad)   (Total)
    R1        2.45301   0.00080   0.00151  -0.01079  -0.00899   2.44402
    R2        2.56843  -0.00037  -0.00224  -0.00018  -0.00232   2.56611
    R3        2.04270   0.00043  -0.00644   0.01756   0.01112   2.05382
    R4        2.56075  -0.00328  -0.01325   0.03108   0.01792   2.57867
    R5        2.00984   0.00165   0.00742  -0.01836  -0.01094   1.99890
    R6        2.56999  -0.00671  -0.00567   0.00236  -0.00354   2.56644
    R7        2.45478  -0.00083   0.00144  -0.01262  -0.01140   2.44338
    R8        2.01114   0.00002  -0.00803   0.02215   0.01412   2.02525
    R9        2.04962  -0.00116  -0.00373   0.00650   0.00277   2.05240
    A1        1.87374   0.00048  -0.00475   0.01979   0.01357   1.88730
    A2        2.23026  -0.00123   0.00640  -0.02492  -0.01892   2.21135
    A3        2.17871   0.00080  -0.00179   0.00736   0.00512   2.18383
    A4        1.91364  -0.00144   0.00062  -0.00646  -0.00649   1.90715
    A5        2.27152   0.00292  -0.00337   0.02076   0.01782   2.28934
    A6        2.09794  -0.00145   0.00228  -0.01411  -0.01140   2.08654
    A7        1.84331   0.00160   0.00754  -0.01735  -0.01160   1.83172
    A8        1.89488   0.00236  -0.00680   0.02745   0.01762   1.91250
    A9        2.08975  -0.00166   0.00245  -0.01148  -0.00986   2.07989
   A10        2.29776  -0.00054   0.00444  -0.01251  -0.00891   2.28885
   A11        1.89669  -0.00260   0.00384  -0.01531  -0.01279   1.88389
   A12        2.19550  -0.00022   0.00326  -0.01339  -0.00973   2.18578
   A13        2.19007   0.00294  -0.00721   0.03019   0.02335   2.21343
    D1       -0.00311   0.00037  -0.00086   0.00031  -0.00043  -0.00354
    D2       -3.13002  -0.00185  -0.02041  -0.01453  -0.03471   3.11846
    D3        3.10642   0.00214  -0.00500   0.07613   0.07056  -3.10620
    D4       -0.02049  -0.00008  -0.02455   0.06129   0.03628   0.01579
    D5       -0.03901   0.00301   0.01431   0.06688   0.08049   0.04148
    D6       -3.13639   0.00020  -0.00819   0.03038   0.02281  -3.11358
    D7        3.13345   0.00135   0.01800  -0.00536   0.01146  -3.13828
    D8        0.03607  -0.00146  -0.00450  -0.04186  -0.04621  -0.01015
    D9        0.04156  -0.00326  -0.01213  -0.06358  -0.07490  -0.03334
   D10       -3.11302  -0.00126   0.00542  -0.05012  -0.04495   3.12521
   D11       -0.06562   0.00496   0.02089   0.10382   0.12538   0.05976
   D12        3.11394   0.00113   0.00601   0.02167   0.02785  -3.14140
   D13        0.06529  -0.00500  -0.02188  -0.10610  -0.12845  -0.06317
[...]
               16            17            18            19            20 
     16  0.133614D+00
     17 -0.560650D-01  0.112125D+00
     18  0.270886D-01 -0.617572D-01  0.945642D-01
     19  0.289764D-01 -0.503679D-01 -0.328069D-01  0.831748D-01
     20 -0.107471D-01 -0.258144D-01  0.193142D-01  0.650013D-02  0.938165D-01
     21  0.965042D-02  0.148948D-01 -0.959538D-02 -0.529945D-02 -0.470646D-01
     22  0.109670D-02  0.109195D-01 -0.971885D-02 -0.120068D-02 -0.467519D-01
     23  0.103767D-04 -0.187113D-05 -0.285663D-05  0.592703D-05  0.284082D-04
     24  0.163876D-04 -0.134125D-05  0.000000D+00  0.000000D+00  0.122887D-04
     25  0.405125D-05 -0.638383D-05  0.403734D-05  0.599138D-05  0.176599D-04
     26  0.100621D-04 -0.585395D-05  0.634621D-05  0.000000D+00  0.154043D-05
     27  0.764854D-05 -0.326873D-05  0.566835D-05  0.150988D-05 -0.863748D-05
     28 -0.664047D-05 -0.869423D-05  0.111055D-04  0.000000D+00  0.570733D-05
     29  0.159035D-04  0.000000D+00  0.000000D+00  0.268708D-05  0.000000D+00
     30  0.161453D-05 -0.642244D-05  0.526095D-05  0.168818D-05  0.149010D-04
     31  0.155520D-04 -0.829446D-05  0.811387D-05 -0.541880D-05 -0.333707D-05
     32  0.154414D-04 -0.592690D-05  0.522207D-05 -0.156170D-05  0.991113D-05
     33 -0.757828D-05  0.669210D-05 -0.719542D-05  0.858176D-05 -0.184414D-04
     34 -0.414976D-05 -0.587277D-05  0.270119D-04 -0.241084D-04 -0.946359D-05
     35 -0.128286D-05 -0.174769D-04  0.102359D-04  0.000000D+00  0.139792D-04
     36  0.566596D-05 -0.149020D-04  0.402462D-05  0.441426D-05 -0.302212D-05
     37 -0.100895D-04  0.161572D-05  0.914842D-05 -0.540507D-05  0.597729D-05
     38 -0.314071D-05  0.419061D-05  0.293716D-05  0.000000D+00 -0.110241D-04
               21            22            23            24            25 
     21  0.739110D-01
     22 -0.268464D-01  0.735983D-01
     23 -0.164768D-04  0.000000D+00  0.228188D-01
     24  0.331819D-05 -0.111787D-04  0.324943D-02  0.172873D-01
     25 -0.250797D-04  0.135970D-04  0.917093D-02 -0.775695D-02  0.154806D-01
     26 -0.528475D-05  0.229773D-05 -0.103985D-01  0.628093D-02 -0.144725D-02
     27  0.297291D-05 -0.119690D-04 -0.177991D-01 -0.755625D-02 -0.297850D-02
     28 -0.425935D-04  0.425091D-04 -0.787769D-02 -0.391093D-02  0.210675D-02
     29  0.126108D-04 -0.250461D-04 -0.443051D-02  0.322491D-02 -0.915908D-02
     30 -0.329556D-04  0.294321D-04  0.549092D-02  0.687023D-02 -0.407383D-02
     31  0.106545D-04 -0.960329D-05 -0.191115D-01  0.204102D-02 -0.116405D-01
     32 -0.548585D-05  0.000000D+00 -0.227249D-02 -0.100382D-01  0.292552D-02
     33  0.000000D+00  0.954811D-05  0.783239D-02 -0.683103D-02  0.975449D-02
     34 -0.194501D-04  0.227264D-04  0.512840D-02 -0.801981D-03  0.153641D-02
     35  0.000000D+00  0.208841D-05  0.573679D-02  0.887320D-02 -0.439238D-02
     36 -0.455698D-04  0.410801D-04 -0.439505D-02  0.515055D-02 -0.958545D-02
     37  0.224144D-04 -0.152939D-04  0.887710D-02  0.187127D-02  0.515182D-02
     38 -0.233257D-04  0.236978D-04 -0.125474D-02 -0.185138D-02 -0.412485D-04
               26            27            28            29            30 
     26  0.152321D-01
     27  0.726438D-02  0.221886D-01
     28  0.607351D-02  0.767224D-02  0.123012D-01
     29 -0.150367D-02  0.767124D-02 -0.210790D-02  0.123031D-01
     30 -0.269453D-02 -0.684512D-02  0.252108D-02  0.252393D-02  0.118901D-01
     31  0.951199D-02  0.703097D-02  0.514916D-02 -0.287131D-03 -0.216894D-02
     32 -0.484023D-02 -0.178279D-02  0.173585D-02 -0.687444D-02 -0.335580D-02
     33 -0.490892D-02  0.703250D-02 -0.286834D-03  0.514973D-02 -0.216961D-02
     34 -0.439398D-02 -0.178219D-02 -0.687563D-02  0.173630D-02 -0.335713D-02
     35 -0.125598D-02 -0.177985D-01 -0.443106D-02 -0.787659D-02  0.549085D-02
     36 -0.398504D-04 -0.297428D-02 -0.915813D-02  0.210992D-02 -0.407393D-02
     37 -0.185402D-02 -0.756141D-02  0.322095D-02 -0.391235D-02  0.687001D-02
     38 -0.637889D-03  0.726281D-02 -0.150612D-02  0.607415D-02 -0.269478D-02
               31            32            33            34            35 
     31  0.234765D-01
     32  0.527521D-02  0.119575D-01
     33 -0.190237D-01 -0.640615D-02  0.234845D-01
     34 -0.639882D-02 -0.129586D-02  0.527021D-02  0.119649D-01
     35  0.783143D-02  0.513262D-02 -0.191146D-01 -0.226915D-02  0.228176D-01
     36  0.975313D-02  0.153936D-02 -0.116401D-01  0.293235D-02  0.916669D-02
     37 -0.683065D-02 -0.802289D-03  0.203885D-02 -0.100442D-01  0.325385D-02
     38 -0.490895D-02 -0.439555D-02  0.951343D-02 -0.484265D-02 -0.103971D-01
               36            37            38 
     36  0.154818D-01
     37 -0.775722D-02  0.172867D-01
     38 -0.144214D-02  0.627558D-02  0.152305D-01
 Leave Link  716 at Tue Dec  1 17:37:49 2015, MaxMem=    33554432 cpu:         0.0
 (Enter /home/Applications/g09/g09/l103.exe)

 GradGradGradGradGradGradGradGradGradGradGradGradGradGradGradGradGradGrad
 Berny optimization.
 Red2BG is reusing G-inverse.
 Internal  Forces:  Max     0.000176630 RMS     0.000052223
 Search for a local minimum.
 Step number   1 out of a maximum of    2
 All quantities printed in internal units (Hartrees-Bohrs-Radians)
 Second derivative matrix not updated -- analytic derivatives used.
 ITU=  0
     Eigenvalues ---    0.01639   0.02070   0.03753   0.04040   0.07368
     Eigenvalues ---    0.08250   0.09709   0.09911   0.11459   0.11681
     Eigenvalues ---    0.16703   0.24987   0.37616   0.38148   0.40496
     Eigenvalues ---    0.41285   0.61492   0.62084   0.66471   0.78792
     Eigenvalues ---    1.04160
 Angle between quadratic step and forces=  56.96 degrees.
 Linear search not attempted -- first point.
 Iteration  1 RMS(Cart)=  0.00026915 RMS(Int)=  0.00000014
 Iteration  2 RMS(Cart)=  0.00000011 RMS(Int)=  0.00000010
 ITry= 1 IFail=0 DXMaxC= 9.39D-04 DCOld= 1.00D+10 DXMaxT= 3.00D-01 DXLimC= 3.00D+00 Rises=F
 Variable       Old X    -DE/DX   Delta X   Delta X   Delta X     New X
                                 (Linear)    (Quad)   (Total)
    R1        2.45431  -0.00005   0.00000  -0.00007  -0.00007   2.45423
    R2        2.56906   0.00005   0.00000   0.00006   0.00006   2.56912
    R3        2.04480   0.00002   0.00000   0.00004   0.00004   2.04483
    R4        2.55838   0.00003   0.00000   0.00000   0.00000   2.55838
    R5        2.01323   0.00003   0.00000   0.00012   0.00012   2.01335
    R6        2.55860  -0.00015   0.00000  -0.00022  -0.00022   2.55838
    R7        2.45404   0.00018   0.00000   0.00020   0.00020   2.45423
    R8        2.01326   0.00003   0.00000   0.00009   0.00009   2.01335
    R9        2.04456   0.00011   0.00000   0.00027   0.00027   2.04483
    A1        1.88420  -0.00005   0.00000  -0.00021  -0.00021   1.88399
    A2        2.21371   0.00003   0.00000   0.00018   0.00018   2.21389
    A3        2.18528   0.00002   0.00000   0.00003   0.00003   2.18531
    A4        1.90477   0.00007   0.00000   0.00023   0.00023   1.90500
    A5        2.29422  -0.00006   0.00000  -0.00036  -0.00036   2.29386
    A6        2.08420  -0.00001   0.00000   0.00013   0.00013   2.08433
    A7        1.84687   0.00000   0.00000  -0.00007  -0.00007   1.84680
    A8        1.90499   0.00000   0.00000   0.00001   0.00001   1.90500
    A9        2.08453  -0.00004   0.00000  -0.00020  -0.00020   2.08433
   A10        2.29367   0.00003   0.00000   0.00019   0.00019   2.29386
   A11        1.88395  -0.00003   0.00000   0.00004   0.00004   1.88399
   A12        2.18519   0.00002   0.00000   0.00012   0.00012   2.18531
   A13        2.21404   0.00000   0.00000  -0.00015  -0.00016   2.21389
    D1       -0.00050   0.00004   0.00000   0.00050   0.00050   0.00000
    D2       -3.14152  -0.00001   0.00000  -0.00007  -0.00007  -3.14159
    D3        3.14074   0.00004   0.00000   0.00085   0.00085   3.14159
    D4       -0.00028  -0.00001   0.00000   0.00028   0.00028   0.00000
    D5        0.00045  -0.00003   0.00000  -0.00045  -0.00045   0.00000
    D6        3.14079   0.00002   0.00000   0.00080   0.00080  -3.14159
    D7       -3.14080  -0.00004   0.00000  -0.00079  -0.00079   3.14159
    D8       -0.00046   0.00002   0.00000   0.00046   0.00046   0.00000
    D9        0.00037  -0.00003   0.00000  -0.00037  -0.00037   0.00000
   D10        3.14147   0.00001   0.00000   0.00012   0.00012   3.14159
   D11       -0.00008   0.00001   0.00000   0.00008   0.00008   0.00000
   D12       -3.14127  -0.00001   0.00000  -0.00032  -0.00032  -3.14159
   D13       -0.00022   0.00001   0.00000   0.00022   0.00022   0.00000
   D14       -3.14053  -0.00004   0.00000  -0.00106  -0.00106   3.14159
   D15        3.14091   0.00004   0.00000   0.00068   0.00068   3.14159
   D16        0.00059  -0.00001   0.00000  -0.00059  -0.00059   0.00000
         Item               Value     Threshold  Converged?
 Maximum Force            0.000177     0.000450     YES
 RMS     Force            0.000052     0.000300     YES
 Maximum Displacement     0.000939     0.001800     YES
 RMS     Displacement     0.000269     0.001200     YES
 Predicted change in Energy=-2.075054D-07
 Optimization completed.
    -- Stationary point found.
                           ----------------------------
                           !   Optimized Parameters   !
                           ! (Angstroms and Degrees)  !
 --------------------------                            --------------------------
 ! Name  Definition              Value          Derivative Info.                !
 --------------------------------------------------------------------------------
 ! R1    R(1,2)                  1.2988         -DE/DX =   -0.0001              !
 ! R2    R(1,5)                  1.3595         -DE/DX =    0.0                 !
 ! R3    R(1,9)                  1.0821         -DE/DX =    0.0                 !
 ! R4    R(2,3)                  1.3538         -DE/DX =    0.0                 !
 ! R5    R(2,8)                  1.0654         -DE/DX =    0.0                 !
 ! R6    R(3,4)                  1.354          -DE/DX =   -0.0001              !
 ! R7    R(4,5)                  1.2986         -DE/DX =    0.0002              !
 ! R8    R(4,7)                  1.0654         -DE/DX =    0.0                 !
 ! R9    R(5,6)                  1.0819         -DE/DX =    0.0001              !
 ! A1    A(2,1,5)              107.9566         -DE/DX =    0.0                 !
 ! A2    A(2,1,9)              126.8362         -DE/DX =    0.0                 !
 ! A3    A(5,1,9)              125.2072         -DE/DX =    0.0                 !
 ! A4    A(1,2,3)              109.1352         -DE/DX =    0.0001              !
 ! A5    A(1,2,8)              131.4491         -DE/DX =   -0.0001              !
 ! A6    A(3,2,8)              119.4157         -DE/DX =    0.0                 !
 ! A7    A(2,3,4)              105.818          -DE/DX =    0.0                 !
 ! A8    A(3,4,5)              109.1477         -DE/DX =    0.0                 !
 ! A9    A(3,4,7)              119.4347         -DE/DX =    0.0                 !
 ! A10   A(5,4,7)              131.4177         -DE/DX =    0.0                 !
 ! A11   A(1,5,4)              107.9425         -DE/DX =    0.0                 !
 ! A12   A(1,5,6)              125.2022         -DE/DX =    0.0                 !
 ! A13   A(4,5,6)              126.8553         -DE/DX =    0.0                 !
 ! D1    D(5,1,2,3)             -0.0288         -DE/DX =    0.0                 !
 ! D2    D(5,1,2,8)           -179.9961         -DE/DX =    0.0                 !
 ! D3    D(9,1,2,3)            179.9511         -DE/DX =    0.0                 !
 ! D4    D(9,1,2,8)             -0.0162         -DE/DX =    0.0                 !
 ! D5    D(2,1,5,4)              0.0256         -DE/DX =    0.0                 !
 ! D6    D(2,1,5,6)           -180.046          -DE/DX =    0.0                 !
 ! D7    D(9,1,5,4)            180.0453         -DE/DX =    0.0                 !
 ! D8    D(9,1,5,6)             -0.0263         -DE/DX =    0.0                 !
 ! D9    D(1,2,3,4)              0.0211         -DE/DX =    0.0                 !
 ! D10   D(8,2,3,4)            179.993          -DE/DX =    0.0                 !
 ! D11   D(2,3,4,5)             -0.0048         -DE/DX =    0.0                 !
 ! D12   D(2,3,4,7)           -179.9817         -DE/DX =    0.0                 !
 ! D13   D(3,4,5,1)             -0.0123         -DE/DX =    0.0                 !
 ! D14   D(3,4,5,6)            180.0608         -DE/DX =    0.0                 !
 ! D15   D(7,4,5,1)            179.9608         -DE/DX =    0.0                 !
 ! D16   D(7,4,5,6)              0.0339         -DE/DX =    0.0                 !
 --------------------------------------------------------------------------------
 GradGradGradGradGradGradGradGradGradGradGradGradGradGradGradGradGradGrad

 Leave Link  103 at Tue Dec  1 17:37:49 2015, MaxMem=    33554432 cpu:         0.0
 (Enter /home/Applications/g09/g09/l9999.exe)
 1\1\GINC-DUSTIN-DESKTOP\Freq\RAM1\ZDO\C4H4O1\DUSTIN\01-Dec-2015\0\\#P 
 Geom=AllCheck Guess=TCheck SCRF=Check GenChk RAM1/ZDO Freq\\AM1-Repara
 m Input\\0,1\C,0.9022228368,-0.6782839305,0.0026321282\C,-0.332608746,
 -1.0807490398,0.0013581306\O,-1.1508942477,-0.0022509085,0.012579354\C
 ,-0.3361649363,1.0791127721,0.0202581946\C,0.8999593291,0.6811518782,0
 .0141804113\H,1.782991812,1.3063017904,0.0186663932\H,-0.7621813044,2.
 0555491593,0.0300265044\H,-0.755662582,-2.0584765507,-0.0061556796\H,1
 .7873798385,-1.3006231704,-0.0038854365\\Version=ES64L-G09RevD.01\Stat
 e=1-A\HF=1.7520188\RMSD=1.199e-09\RMSF=8.185e-05\ZeroPoint=0.0787211\T
 hermal=0.0821454\Dipole=0.1736747,0.0001956,-0.0005115\DipoleDeriv=-0.
 5443139,0.3187963,0.0033635,0.1324201,-0.2457122,-0.0010118,0.0019998,
 -0.0015299,-0.1202448,0.6260519,-0.1759303,-0.0019013,-0.3480231,-0.05
 22468,-0.0028508,-0.0035821,-0.0032643,0.3540784,-0.6150474,-0.0010799
 ,0.0005643,-0.0007122,-0.0355357,0.0029153,0.0004957,0.0026212,-0.3444
 038,0.6239775,0.1782841,0.0010768,0.3500524,-0.0506536,-0.0045372,0.00
 26547,-0.0038247,0.3539005,-0.5424868,-0.3199286,-0.0021575,-0.1333864
 ,-0.2469377,-0.0011231,-0.0005784,-0.0007248,-0.1201138,0.2076024,0.11
 74755,0.000759,0.1089132,0.1760635,0.0013102,0.000714,0.0014013,0.0108
 45,0.0181792,-0.0730083,-0.0008599,-0.0895868,0.1396218,0.0020968,-0.0
 010212,0.0020759,-0.0724462,0.0176732,0.0727504,0.0004472,0.0891649,0.
 1400191,0.0016535,0.0005647,0.0017179,-0.0725223,0.2083639,-0.1173592,
 -0.001292,-0.1088433,0.1753792,0.0015471,-0.0012509,0.0015274,0.010907
 8\Polar=36.5024121,0.0053541,35.604976,-0.0569174,0.2567735,6.3881652\
 HyperPolar=2.4591889,0.0229334,-13.1598351,-0.0646484,0.0013188,-0.164
 3869,0.0129414,4.2380113,0.0102404,-0.0261127\PG=C01 [X(C4H4O1)]\NImag
 =0\\1.13727524,0.01866973,0.92652312,-0.00139962,0.00586957,0.23159401
 ,-0.69549451,-0.14827593,-0.00027310,1.05623986,-0.24968318,-0.1521086
 2,0.00018642,0.11264997,0.95245154,-0.00113510,0.00000429,-0.12169367,
 -0.00056750,0.00600845,0.24331074,-0.11721726,0.01498739,0.00043358,-0
 .23875016,0.26279273,0.00257559,0.70143756,0.07202368,0.00744051,-0.00
 035379,0.21248010,-0.38726123,-0.00287800,-0.00045284,0.86023807,0.000
 91274,-0.00024479,0.03087125,0.00215293,-0.00298990,-0.11025102,-0.001
 21385,0.00641395,0.12655841,0.01090779,0.08748189,0.00075298,-0.001395
 38,-0.01122342,-0.00005453,-0.23705183,-0.21178819,-0.00156474,1.05737
 890,0.01190170,-0.02261793,-0.00029383,0.01156678,-0.10306214,-0.00115
 288,-0.26209612,-0.38864702,-0.00186913,-0.11242974,0.95133398,0.00011
 321,-0.00044219,0.00909796,0.00014659,-0.00109772,0.02570158,-0.002011
 92,-0.00197821,-0.11027885,-0.00273580,0.00648414,0.24327177,-0.082478
 30,-0.05656143,-0.00054664,0.01121110,-0.01182224,-0.00009757,-0.11688
 679,-0.07245146,-0.00032580,-0.69740529,0.24789596,0.00338698,1.138120
 61,0.05821622,-0.58126232,-0.00405830,-0.08737469,-0.02300768,-0.00012
 188,-0.01541678,0.00712965,-0.00016126,0.14646822,-0.15064653,-0.00057
 552,-0.01785436,0.92636681,0.00044408,-0.00383238,-0.11588629,-0.00074
 964,-0.00025227,0.00909936,0.00016412,-0.00004733,0.03086125,0.0025079
 3,-0.00077555,-0.12162304,-0.00191217,0.00609281,0.23150289,-0.0012308
 2,-0.01495323,-0.00012007,0.00003526,-0.00165532,-0.00000450,-0.003723
 66,-0.00040760,0.00001647,-0.03992272,-0.01208959,-0.00002611,-0.22608
 774,-0.13023682,-0.00095876,0.27327383,-0.02416282,-0.02927335,-0.0002
 7221,-0.00147067,-0.00442097,-0.00009645,0.00135686,0.00042523,-0.0000
 7127,-0.00356401,0.00883729,0.00004011,-0.13050947,-0.13303149,-0.0004
 9869,0.15890687,0.16020549,-0.00020449,-0.00029710,0.00673888,-0.00000
 119,-0.00009695,0.00688750,0.00003373,-0.00006952,0.00799548,0.0000479
 7,0.00005546,0.00470386,-0.00095676,-0.00048774,-0.05865183,0.00108448
 ,0.00090955,0.03358516,-0.00317433,0.00179224,0.00004750,0.00117657,-0
 .00190233,-0.00000480,0.00799208,-0.02002419,-0.00017583,-0.09370655,0
 .11165873,0.00107677,-0.02194950,0.03295467,0.00035257,-0.00251125,-0.
 00013643,0.00000314,0.11289466,0.00198209,-0.00183483,-0.00012230,0.00
 097083,-0.00552642,-0.00010321,-0.00198801,-0.04988546,-0.00050940,0.1
 0451658,-0.28526412,-0.00223490,0.01903553,-0.01456730,-0.00023027,0.0
 0113805,0.00018628,-0.00000152,-0.12556563,0.35786454,0.00004194,-0.00
 012148,0.01133020,0.00001994,-0.00009845,0.00591696,-0.00001446,-0.000
 47377,0.00812035,0.00101791,-0.00224655,-0.06368022,0.00022628,-0.0002
 5576,0.00663474,0.00001598,0.00000032,0.00017976,-0.00130234,0.0031784
 1,0.03492840,-0.02176695,-0.03297276,-0.00022883,-0.09305809,-0.111072
 68,-0.00089055,0.00792151,0.02022308,0.00017590,0.00117346,0.00192156,
 0.00002674,-0.00316118,-0.00179671,0.00001279,-0.00043037,-0.00109482,
 -0.00001156,-0.00028763,-0.00012832,-0.00000535,0.11211465,-0.01904589
 ,-0.01473063,-0.00014669,-0.10394636,-0.28594865,-0.00169174,0.0021872
 5,-0.04986253,-0.00050921,-0.00094743,-0.00552248,-0.00009729,-0.00198
 488,-0.00184503,-0.00011091,-0.00003776,-0.00067570,0.00000273,0.00012
 790,-0.00030022,0.00001770,0.12479344,0.35870261,-0.00010720,-0.000123
 51,0.00663112,-0.00083360,-0.00167804,-0.06367326,0.00002260,-0.000550
 57,0.00812908,0.00000515,-0.00009982,0.00591881,0.00000718,-0.00010684
 ,0.01132639,-0.00000062,0.00000494,-0.00100962,-0.00000403,0.00001972,
 -0.00242032,0.00091553,0.00253402,0.03491855,-0.22682101,0.12983187,0.
 00133419,-0.03996449,0.01191656,0.00017896,-0.00372150,0.00039742,0.00
 002218,0.00002178,0.00167063,0.00002354,-0.00136306,0.01504048,0.00013
 909,0.00059750,0.00067450,0.00000468,-0.00043406,0.00003889,0.00000010
 ,-0.00250542,-0.00114629,-0.00000501,0.27419028,0.13009843,-0.13213614
 ,-0.00080887,0.00340002,0.00888433,0.00003144,-0.00137051,0.00042272,-
 0.00005899,0.00148608,-0.00441088,-0.00009842,0.02425236,-0.02913623,-
 0.00034541,-0.00066465,-0.00225274,-0.00001490,0.00109508,-0.00067252,
 -0.00000043,0.00012718,0.00018259,0.00000011,-0.15842400,0.15911891,0.
 00133439,-0.00081246,-0.05868340,0.00010563,0.00001846,0.00470181,0.00
 001052,-0.00006274,0.00799399,0.00002319,-0.00010183,0.00688814,0.0002
 1844,-0.00032545,0.00673661,-0.00000687,-0.00001631,-0.00042921,0.0000
 0705,0.00000347,-0.00100990,0.00000534,0.00000139,0.00017921,-0.001697
 70,0.00129547,0.03362272\\0.00003712,0.00013371,0.00005165,-0.00004971
 ,-0.00013535,-0.00008816,-0.00004122,-0.00013179,0.00007329,0.00020139
 ,0.00009064,-0.00002371,-0.00007574,0.00008012,-0.00014617,-0.00008565
 ,-0.00007260,0.00005929,0.00004612,-0.00001744,0.00002761,-0.00001150,
 0.00004287,0.00001288,-0.00002079,0.00000984,0.00003330\\\@


 WE HAVE LEFT UNDONE THOSE THINGS WHICH WE OUGHT TO HAVE DONE,
 AND WE HAVE DONE THOSE THINGS WHICH WE OUGHT NOT TO HAVE DONE.
                   BOOK OF COMMON PRAYER                      
 Job cpu time:       0 days  0 hours  0 minutes  0.3 seconds.
 File lengths (MBytes):  RWF=      5 Int=      0 D2E=      0 Chk=      2 Scr=      1
 Normal termination of Gaussian 09 at Tue Dec  1 17:37:49 2015.
