 Entering Gaussian System, Link 0=g09
 Input=FuranAM1_22.com
 Output=FuranAM1_22.log
 Initial command:
 /home/Applications/g09/g09/l1.exe "/home/Applications/g09/scratch/Gau-5626.inp" -scrdir="/home/Applications/g09/scratch/"
 Entering Link 1 = /home/Applications/g09/g09/l1.exe PID=      5628.
  
 Copyright (c) 1988,1990,1992,1993,1995,1998,2003,2009,2013,
            Gaussian, Inc.  All Rights Reserved.
  
 This is part of the Gaussian(R) 09 program.  It is based on
 the Gaussian(R) 03 system (copyright 2003, Gaussian, Inc.),
 the Gaussian(R) 98 system (copyright 1998, Gaussian, Inc.),
 the Gaussian(R) 94 system (copyright 1995, Gaussian, Inc.),
 the Gaussian 92(TM) system (copyright 1992, Gaussian, Inc.),
 the Gaussian 90(TM) system (copyright 1990, Gaussian, Inc.),
 the Gaussian 88(TM) system (copyright 1988, Gaussian, Inc.),
 the Gaussian 86(TM) system (copyright 1986, Carnegie Mellon
 University), and the Gaussian 82(TM) system (copyright 1983,
 Carnegie Mellon University). Gaussian is a federally registered
 trademark of Gaussian, Inc.
  
 This software contains proprietary and confidential information,
 including trade secrets, belonging to Gaussian, Inc.
  
 This software is provided under written license and may be
 used, copied, transmitted, or stored only in accord with that
 written license.
  
 The following legend is applicable only to US Government
 contracts under FAR:
  
                    RESTRICTED RIGHTS LEGEND
  
 Use, reproduction and disclosure by the US Government is
 subject to restrictions as set forth in subparagraphs (a)
 and (c) of the Commercial Computer Software - Restricted
 Rights clause in FAR 52.227-19.
  
 Gaussian, Inc.
 340 Quinnipiac St., Bldg. 40, Wallingford CT 06492
  
  
 ---------------------------------------------------------------
 Warning -- This program may not be used in any manner that
 competes with the business of Gaussian, Inc. or will provide
 assistance to any competitor of Gaussian, Inc.  The licensee
 of this program is prohibited from giving any competitor of
 Gaussian, Inc. access to this program.  By using this program,
 the user acknowledges that Gaussian, Inc. is engaged in the
 business of creating and licensing software in the field of
 computational chemistry and represents and warrants to the
 licensee that it is not a competitor of Gaussian, Inc. and that
 it will not use this program in any manner prohibited above.
 ---------------------------------------------------------------
  

 Cite this work as:
 Gaussian 09, Revision D.01,
 M. J. Frisch, G. W. Trucks, H. B. Schlegel, G. E. Scuseria, 
 M. A. Robb, J. R. Cheeseman, G. Scalmani, V. Barone, B. Mennucci, 
 G. A. Petersson, H. Nakatsuji, M. Caricato, X. Li, H. P. Hratchian, 
 A. F. Izmaylov, J. Bloino, G. Zheng, J. L. Sonnenberg, M. Hada, 
 M. Ehara, K. Toyota, R. Fukuda, J. Hasegawa, M. Ishida, T. Nakajima, 
 Y. Honda, O. Kitao, H. Nakai, T. Vreven, J. A. Montgomery, Jr., 
 J. E. Peralta, F. Ogliaro, M. Bearpark, J. J. Heyd, E. Brothers, 
 K. N. Kudin, V. N. Staroverov, T. Keith, R. Kobayashi, J. Normand, 
 K. Raghavachari, A. Rendell, J. C. Burant, S. S. Iyengar, J. Tomasi, 
 M. Cossi, N. Rega, J. M. Millam, M. Klene, J. E. Knox, J. B. Cross, 
 V. Bakken, C. Adamo, J. Jaramillo, R. Gomperts, R. E. Stratmann, 
 O. Yazyev, A. J. Austin, R. Cammi, C. Pomelli, J. W. Ochterski, 
 R. L. Martin, K. Morokuma, V. G. Zakrzewski, G. A. Voth, 
 P. Salvador, J. J. Dannenberg, S. Dapprich, A. D. Daniels, 
 O. Farkas, J. B. Foresman, J. V. Ortiz, J. Cioslowski, 
 and D. J. Fox, Gaussian, Inc., Wallingford CT, 2013.
 
 ******************************************
 Gaussian 09:  ES64L-G09RevD.01 24-Apr-2013
                15-Dec-2015 
 ******************************************
 ------------------------------------------------------------
 #P AM1(Input,print) CIS(Singlets,NStates=15) pop(full) force
 ------------------------------------------------------------
 1/10=7,30=1,38=1/1,3;
 2/12=2,17=6,18=5,40=1/2;
 3/5=2,16=1,25=1,41=700000,71=1,135=100,136=1/1,2,8,3;
 4/35=1/1;
 5/5=2,35=1,38=5/2;
 8/6=1,10=1,108=15/1;
 9/15=2,41=15,42=1,48=1,49=10/14;
 10/5=4/2;
 6/7=3,18=1/1;
 7/12=6,13=5,29=1/1,2,3,16;
 1/10=7,30=1/3;
 99//99;
 Leave Link    1 at Tue Dec 15 16:14:40 2015, MaxMem=           0 cpu:         0.0
 (Enter /home/Applications/g09/g09/l101.exe)
 -----------------
 AM1-Reparam Input
 -----------------
 Symbolic Z-matrix:
 Charge =  0 Multiplicity = 1
 6                     0.94085  -0.68139  -0.00773 
 6                    -0.3773   -1.0843   -0.00652 
 8                    -1.12141   0.04217   0.03346 
 6                    -0.34729   1.06851  -0.03269 
 6                     0.97508   0.66656  -0.03105 
 1                     1.81318   1.32111   0.04677 
 1                    -0.85439   2.08452  -0.0038 
 1                    -0.86767  -2.05531  -0.03591 
 1                     1.76716  -1.38436   0.03296 
 
 NAtoms=      9 NQM=        9 NQMF=       0 NMMI=      0 NMMIF=      0
                NMic=       0 NMicF=      0.
                    Isotopes and Nuclear Properties:
 (Nuclear quadrupole moments (NQMom) in fm**2, nuclear magnetic moments (NMagM)
  in nuclear magnetons)

  Atom         1           2           3           4           5           6           7           8           9
 IAtWgt=          12          12          16          12          12           1           1           1           1
 AtmWgt=  12.0000000  12.0000000  15.9949146  12.0000000  12.0000000   1.0078250   1.0078250   1.0078250   1.0078250
 NucSpn=           0           0           0           0           0           1           1           1           1
 AtZEff=   0.0000000   0.0000000   0.0000000   0.0000000   0.0000000   0.0000000   0.0000000   0.0000000   0.0000000
 NQMom=    0.0000000   0.0000000   0.0000000   0.0000000   0.0000000   0.0000000   0.0000000   0.0000000   0.0000000
 NMagM=    0.0000000   0.0000000   0.0000000   0.0000000   0.0000000   2.7928460   2.7928460   2.7928460   2.7928460
 AtZNuc=   6.0000000   6.0000000   8.0000000   6.0000000   6.0000000   1.0000000   1.0000000   1.0000000   1.0000000
 Leave Link  101 at Tue Dec 15 16:14:40 2015, MaxMem=    33554432 cpu:         0.0
 (Enter /home/Applications/g09/g09/l103.exe)

 GradGradGradGradGradGradGradGradGradGradGradGradGradGradGradGradGradGrad
 Berny optimization.
 Initialization pass.
 Trust Radius=3.00D-01 FncErr=1.00D-07 GrdErr=1.00D-07
 Number of steps in this run=      2 maximum allowed number of steps=      2.
 GradGradGradGradGradGradGradGradGradGradGradGradGradGradGradGradGradGrad

 Leave Link  103 at Tue Dec 15 16:14:40 2015, MaxMem=    33554432 cpu:         0.0
 (Enter /home/Applications/g09/g09/l202.exe)
                          Input orientation:                          
 ---------------------------------------------------------------------
 Center     Atomic      Atomic             Coordinates (Angstroms)
 Number     Number       Type             X           Y           Z
 ---------------------------------------------------------------------
      1          6           0        0.940853   -0.681394   -0.007728
      2          6           0       -0.377300   -1.084301   -0.006521
      3          8           0       -1.121411    0.042173    0.033458
      4          6           0       -0.347292    1.068506   -0.032685
      5          6           0        0.975082    0.666563   -0.031045
      6          1           0        1.813182    1.321113    0.046766
      7          1           0       -0.854394    2.084519   -0.003797
      8          1           0       -0.867672   -2.055305   -0.035913
      9          1           0        1.767155   -1.384362    0.032962
 ---------------------------------------------------------------------
                    Distance matrix (angstroms):
                    1          2          3          4          5
     1  C    0.000000
     2  C    1.378355   0.000000
     3  O    2.185904   1.350645   0.000000
     4  C    2.173037   2.153175   1.287243   0.000000
     5  C    1.348593   2.212479   2.188448   1.382112   0.000000
     6  H    2.184940   3.253777   3.201203   2.176642   1.066256
     7  H    3.297454   3.204535   2.060064   1.135900   2.314805
     8  H    2.271385   1.088199   2.113909   3.166860   3.286994
     9  H    1.085631   2.165706   3.221617   3.239098   2.199493
                    6          7          8          9
     6  H    0.000000
     7  H    2.775123   0.000000
     8  H    4.312078   4.139970   0.000000
     9  H    2.705902   4.348219   2.719783   0.000000
 Stoichiometry    C4H4O
 Framework group  C1[X(C4H4O)]
 Deg. of freedom    21
 Full point group                 C1      NOp   1
 Largest Abelian subgroup         C1      NOp   1
 Largest concise Abelian subgroup C1      NOp   1
                         Standard orientation:                         
 ---------------------------------------------------------------------
 Center     Atomic      Atomic             Coordinates (Angstroms)
 Number     Number       Type             X           Y           Z
 ---------------------------------------------------------------------
      1          6           0        0.804052    0.840071    0.001280
      2          6           0        1.027364   -0.520018   -0.011118
      3          8           0       -0.188200   -1.107461    0.028342
      4          6           0       -1.102251   -0.202701   -0.025629
      5          6           0       -0.527351    1.054121   -0.014606
      6          1           0       -1.063821    1.971322    0.073959
      7          1           0       -2.176746   -0.569906    0.004219
      8          1           0        1.924076   -1.135306   -0.049914
      9          1           0        1.611208    1.564739    0.045441
 ---------------------------------------------------------------------
 Rotational constants (GHZ):      9.8941020      9.4856262      4.8458639
 Leave Link  202 at Tue Dec 15 16:14:40 2015, MaxMem=    33554432 cpu:         0.0
 (Enter /home/Applications/g09/g09/l301.exe)

 Semi-emprical parameters in input format:
 Method=8 CoreType=1 PeptideFC=0.0114510000 RIJScale=0.5291770000
 ****
 H       
 PQN=1 NValence=1 F0ss=0.4721550000 ZetaOverlap=1.1880780000 U=-0.4188110000
 Beta=-0.2268830000 CoreKO=1.0589200000 KON=0,0,0,1.0589200000 KON=1,0,1,1.0589200000
 KON=0,1,1,1.0589200000 KON=2,1,1,1.0589200000 EISol=-0.4188110042 EHeat=0.0830298228
 Alpha=1.5252600000
 GCore=0.0085280000,1.4001430000,2.2676710000
 GCore=0.0003530000,1.4001430000,3.4015070000
 GCore=-0.0012730000,0.5600570000,3.9684250000
 ****
 C       
 PQN=2,2 NValence=4 F0ss=0.4494440000 F0sp=0.4215150000 F0pp=0.3768030000 F2pp=0.1898720000
 G1sp=0.2679030000
 ZetaOverlap=1.8086650000,1.6851160000
 U=-1.9120180000,-1.4557970000
 Beta=-0.5775440000,-0.2836780000 DDN=0,1,0.8236740000 DDN=1,1,0.7268010000
 CoreKO=1.1124280000 KON=0,0,0,1.1124280000 KON=1,0,1,0.8219700000 KON=0,1,1,1.1124280000
 KON=2,1,1,0.7783930000 EISol=-4.4398989268 EHeat=0.2723305520 Alpha=1.4014060000
 DipHyp=1.6472532266
 GCore=0.0007890000,1.4001430000,3.0235620000
 GCore=0.0031890000,1.4001430000,3.4959930000
 GCore=-0.0013930000,1.4001430000,3.8739390000
 GCore=-0.0000880000,1.4001430000,5.0077740000
 ****
 O       
 PQN=2,2 NValence=6 F0ss=0.5666750000 F0sp=0.5321300000 F0pp=0.4958710000 F2pp=0.2358080000
 G1sp=0.4343770000
 ZetaOverlap=3.1080320000,2.5240390000
 U=-3.5951870000,-2.8760900000
 Beta=-1.0757550000,-1.0757550000 DDN=0,1,0.4988900000 DDN=1,1,0.4852320000
 CoreKO=0.8822960000 KON=0,0,0,0.8822960000 KON=1,0,1,0.5019540000 KON=0,1,1,0.8822960000
 KON=2,1,1,0.5515580000 EISol=-11.6164441184 EHeat=0.0949133088 Alpha=2.3576810000
 DipHyp=0.9977225968
 GCore=0.0195120000,1.4001430000,1.6023330000
 GCore=0.0056550000,1.9602000000,2.7307880000
 ****
 
 Standard basis: VSTO-6G (5D, 7F)
 Ernie: Thresh=  0.10000D-02 Tol=  0.10000D-05 Strict=F.
  NNHCO=     0 NNPyr=     0 NCTC=     0               EPep=         0.000000000
    EC=        69.440906859  ECS=         1.903387800   EG=         0.383578066
   EHC=         0.000000000  EAt=       -31.051283842  AtH=         1.516354808
 EPDDG=         0.000000000  ECC=        71.727872725 EAtT=        32.567638650
 There are    24 symmetry adapted cartesian basis functions of A   symmetry.
 There are    24 symmetry adapted basis functions of A   symmetry.
    24 basis functions,   144 primitive gaussians,    24 cartesian basis functions
    13 alpha electrons       13 beta electrons
       nuclear repulsion energy       104.2955113756 Hartrees.
 IExCor=    0 DFT=F Ex=HF Corr=None ExCW=0 ScaHFX=  1.000000
 ScaDFX=  1.000000  1.000000  1.000000  1.000000 ScalE2=  1.000000  1.000000
 IRadAn=      0 IRanWt=     -1 IRanGd=            0 ICorTp=0 IEmpDi=  4
 Integral buffers will be    131072 words long.
 Regular integral format.
 Two-electron integral symmetry is turned off.
 Leave Link  301 at Tue Dec 15 16:14:40 2015, MaxMem=    33554432 cpu:         0.0
 (Enter /home/Applications/g09/g09/l302.exe)
 Do NDO integrals.
 NPDir=0 NMtPBC=     1 NCelOv=     1 NCel=       1 NClECP=     1 NCelD=      1
         NCelK=      1 NCelE2=     1 NClLst=     1 CellRange=     0.0.
 One-electron integrals computed using PRISM.
 NBasis=    24 RedAO= F EigKep=  0.00D+00  NBF=    24
 NBsUse=    24 1.00D-04 EigRej=  0.00D+00 NBFU=    24
 Leave Link  302 at Tue Dec 15 16:14:40 2015, MaxMem=    33554432 cpu:         0.0
 (Enter /home/Applications/g09/g09/l308.exe)
 Leave Link  308 at Tue Dec 15 16:14:40 2015, MaxMem=    33554432 cpu:         0.0
 (Enter /home/Applications/g09/g09/l303.exe)
 DipDrv:  MaxL=1.
 Leave Link  303 at Tue Dec 15 16:14:40 2015, MaxMem=    33554432 cpu:         0.0
 (Enter /home/Applications/g09/g09/l401.exe)
 Simple Huckel Guess.
 JPrj=0 DoOrth=F DoCkMO=F.
 Leave Link  401 at Tue Dec 15 16:14:40 2015, MaxMem=    33554432 cpu:         0.0
 (Enter /home/Applications/g09/g09/l502.exe)
 Closed shell SCF:
 Using DIIS extrapolation, IDIIS=  1040.
 Overlap will be assumed to be unity.
 Two-electron integral symmetry not used.
 Keep J ints in memory in canonical form, NReq=888082.
 IVT=       79475 IEndB=       79475 NGot=    33554432 MDV=    33473473
 LenX=    33473473 LenY=    33472456
 Requested convergence on RMS density matrix=1.00D-08 within 128 cycles.
 Requested convergence on MAX density matrix=1.00D-06.
 Requested convergence on             energy=1.00D-06.
 No special actions if energy rises.
 FoFCou: FMM=F IPFlag=           0 FMFlag=           0 FMFlg1=           0
         NFxFlg=           0 DoJE=F BraDBF=F KetDBF=F FulRan=T
         wScrn=  0.000000 ICntrl=     600 IOpCl=  2 I1Cent=           0 NGrid=           0
         NMat0=    1 NMatS0=     54 NMatT0=    0 NMatD0=    1 NMtDS0=    0 NMtDT0=    0
 Symmetry not used in FoFCou.

 Cycle   1  Pass 1  IDiag  1:
 E= 0.351241683957639    
 DIIS: error= 6.08D-02 at cycle   1 NSaved=   1.
 NSaved= 1 IEnMin= 1 EnMin= 0.351241683957639     IErMin= 1 ErrMin= 6.08D-02
 ErrMax= 6.08D-02  0.00D+00 EMaxC= 1.00D-01 BMatC= 1.14D-01 BMatP= 1.14D-01
 IDIUse=3 WtCom= 3.92D-01 WtEn= 6.08D-01
 Coeff-Com:  0.100D+01
 Coeff-En:   0.100D+01
 Coeff:      0.100D+01
 GapD=    2.000 DampG=2.000 DampE=0.500 DampFc=1.0000 IDamp=-1.
 RMSDP=1.95D-02 MaxDP=1.66D-01              OVMax= 0.00D+00

 Cycle   2  Pass 1  IDiag  1:
 E= 0.691500643536500E-01 Delta-E=       -0.282091619604 Rises=F Damp=F
 DIIS: error= 2.00D-02 at cycle   2 NSaved=   2.
 NSaved= 2 IEnMin= 2 EnMin= 0.691500643536500E-01 IErMin= 2 ErrMin= 2.00D-02
 ErrMax= 2.00D-02  0.00D+00 EMaxC= 1.00D-01 BMatC= 9.75D-03 BMatP= 1.14D-01
 IDIUse=3 WtCom= 8.00D-01 WtEn= 2.00D-01
 Coeff-Com: -0.352D+00 0.135D+01
 Coeff-En:   0.000D+00 0.100D+01
 Coeff:     -0.282D+00 0.128D+01
 RMSDP=8.25D-03 MaxDP=7.26D-02 DE=-2.82D-01 OVMax= 0.00D+00

 Cycle   3  Pass 1  IDiag  1:
 E= 0.378091659355135E-01 Delta-E=       -0.031340898418 Rises=F Damp=F
 DIIS: error= 3.96D-03 at cycle   3 NSaved=   3.
 NSaved= 3 IEnMin= 3 EnMin= 0.378091659355135E-01 IErMin= 3 ErrMin= 3.96D-03
 ErrMax= 3.96D-03  0.00D+00 EMaxC= 1.00D-01 BMatC= 4.21D-04 BMatP= 9.75D-03
 IDIUse=3 WtCom= 9.60D-01 WtEn= 3.96D-02
 Coeff-Com:  0.126D+00-0.587D+00 0.146D+01
 Coeff-En:   0.000D+00 0.000D+00 0.100D+01
 Coeff:      0.121D+00-0.564D+00 0.144D+01
 RMSDP=2.66D-03 MaxDP=3.10D-02 DE=-3.13D-02 OVMax= 0.00D+00

 Cycle   4  Pass 1  IDiag  3:
 E= 0.355204756565541E-01 Delta-E=       -0.002288690279 Rises=F Damp=F
 DIIS: error= 1.20D-03 at cycle   4 NSaved=   4.
 NSaved= 4 IEnMin= 4 EnMin= 0.355204756565541E-01 IErMin= 4 ErrMin= 1.20D-03
 ErrMax= 1.20D-03  0.00D+00 EMaxC= 1.00D-01 BMatC= 3.09D-05 BMatP= 4.21D-04
 IDIUse=3 WtCom= 9.88D-01 WtEn= 1.20D-02
 Coeff-Com:  0.949D-02-0.231D-01-0.283D+00 0.130D+01
 Coeff-En:   0.000D+00 0.000D+00 0.000D+00 0.100D+01
 Coeff:      0.938D-02-0.228D-01-0.280D+00 0.129D+01
 Gap=     0.369 Goal=   None    Shift=    0.000
 RMSDP=8.92D-04 MaxDP=1.11D-02 DE=-2.29D-03 OVMax= 8.63D-03

 Cycle   5  Pass 1  IDiag  3:
 E= 0.353301333297651E-01 Delta-E=       -0.000190342327 Rises=F Damp=F
 DIIS: error= 1.68D-04 at cycle   5 NSaved=   5.
 NSaved= 5 IEnMin= 5 EnMin= 0.353301333297651E-01 IErMin= 5 ErrMin= 1.68D-04
 ErrMax= 1.68D-04  0.00D+00 EMaxC= 1.00D-01 BMatC= 1.38D-06 BMatP= 3.09D-05
 IDIUse=3 WtCom= 9.98D-01 WtEn= 1.68D-03
 Coeff-Com: -0.613D-02 0.223D-01 0.605D-01-0.515D+00 0.144D+01
 Coeff-En:   0.000D+00 0.000D+00 0.000D+00 0.000D+00 0.100D+01
 Coeff:     -0.612D-02 0.223D-01 0.604D-01-0.514D+00 0.144D+01
 Gap=     0.369 Goal=   None    Shift=    0.000
 RMSDP=1.95D-04 MaxDP=1.83D-03 DE=-1.90D-04 OVMax= 1.52D-03

 Cycle   6  Pass 1  IDiag  3:
 E= 0.353212794826163E-01 Delta-E=       -0.000008853847 Rises=F Damp=F
 DIIS: error= 5.85D-05 at cycle   6 NSaved=   6.
 NSaved= 6 IEnMin= 6 EnMin= 0.353212794826163E-01 IErMin= 6 ErrMin= 5.85D-05
 ErrMax= 5.85D-05  0.00D+00 EMaxC= 1.00D-01 BMatC= 9.65D-08 BMatP= 1.38D-06
 IDIUse=1 WtCom= 1.00D+00 WtEn= 0.00D+00
 Coeff-Com:  0.260D-02-0.962D-02-0.166D-01 0.187D+00-0.679D+00 0.152D+01
 Coeff:      0.260D-02-0.962D-02-0.166D-01 0.187D+00-0.679D+00 0.152D+01
 Gap=     0.369 Goal=   None    Shift=    0.000
 RMSDP=6.02D-05 MaxDP=4.22D-04 DE=-8.85D-06 OVMax= 7.48D-04

 Cycle   7  Pass 1  IDiag  3:
 E= 0.353204945983805E-01 Delta-E=       -0.000000784884 Rises=F Damp=F
 DIIS: error= 2.54D-05 at cycle   7 NSaved=   7.
 NSaved= 7 IEnMin= 7 EnMin= 0.353204945983805E-01 IErMin= 7 ErrMin= 2.54D-05
 ErrMax= 2.54D-05  0.00D+00 EMaxC= 1.00D-01 BMatC= 1.00D-08 BMatP= 9.65D-08
 IDIUse=1 WtCom= 1.00D+00 WtEn= 0.00D+00
 Coeff-Com: -0.476D-03 0.142D-02 0.451D-02-0.406D-01 0.164D+00-0.653D+00
 Coeff-Com:  0.152D+01
 Coeff:     -0.476D-03 0.142D-02 0.451D-02-0.406D-01 0.164D+00-0.653D+00
 Coeff:      0.152D+01
 Gap=     0.369 Goal=   None    Shift=    0.000
 RMSDP=2.48D-05 MaxDP=2.07D-04 DE=-7.85D-07 OVMax= 2.94D-04

 Cycle   8  Pass 1  IDiag  3:
 E= 0.353203955032768E-01 Delta-E=       -0.000000099095 Rises=F Damp=F
 DIIS: error= 7.21D-06 at cycle   8 NSaved=   8.
 NSaved= 8 IEnMin= 8 EnMin= 0.353203955032768E-01 IErMin= 8 ErrMin= 7.21D-06
 ErrMax= 7.21D-06  0.00D+00 EMaxC= 1.00D-01 BMatC= 7.36D-10 BMatP= 1.00D-08
 IDIUse=1 WtCom= 1.00D+00 WtEn= 0.00D+00
 Coeff-Com:  0.669D-04 0.303D-04-0.244D-02 0.132D-01-0.507D-01 0.256D+00
 Coeff-Com: -0.848D+00 0.163D+01
 Coeff:      0.669D-04 0.303D-04-0.244D-02 0.132D-01-0.507D-01 0.256D+00
 Coeff:     -0.848D+00 0.163D+01
 Gap=     0.369 Goal=   None    Shift=    0.000
 RMSDP=7.56D-06 MaxDP=6.69D-05 DE=-9.91D-08 OVMax= 8.77D-05

 Cycle   9  Pass 1  IDiag  3:
 E= 0.353203880818569E-01 Delta-E=       -0.000000007421 Rises=F Damp=F
 DIIS: error= 1.09D-06 at cycle   9 NSaved=   9.
 NSaved= 9 IEnMin= 9 EnMin= 0.353203880818569E-01 IErMin= 9 ErrMin= 1.09D-06
 ErrMax= 1.09D-06  0.00D+00 EMaxC= 1.00D-01 BMatC= 3.13D-11 BMatP= 7.36D-10
 IDIUse=1 WtCom= 1.00D+00 WtEn= 0.00D+00
 Coeff-Com:  0.107D-04-0.155D-03 0.740D-03-0.267D-02 0.104D-01-0.765D-01
 Coeff-Com:  0.304D+00-0.733D+00 0.150D+01
 Coeff:      0.107D-04-0.155D-03 0.740D-03-0.267D-02 0.104D-01-0.765D-01
 Coeff:      0.304D+00-0.733D+00 0.150D+01
 Gap=     0.369 Goal=   None    Shift=    0.000
 RMSDP=1.23D-06 MaxDP=9.93D-06 DE=-7.42D-09 OVMax= 1.65D-05

 Cycle  10  Pass 1  IDiag  3:
 E= 0.353203878431998E-01 Delta-E=       -0.000000000239 Rises=F Damp=F
 DIIS: error= 1.88D-07 at cycle  10 NSaved=  10.
 NSaved=10 IEnMin=10 EnMin= 0.353203878431998E-01 IErMin=10 ErrMin= 1.88D-07
 ErrMax= 1.88D-07  0.00D+00 EMaxC= 1.00D-01 BMatC= 1.71D-12 BMatP= 3.13D-11
 IDIUse=1 WtCom= 1.00D+00 WtEn= 0.00D+00
 Coeff-Com: -0.108D-04 0.849D-04-0.271D-03 0.720D-03-0.252D-02 0.234D-01
 Coeff-Com: -0.101D+00 0.260D+00-0.692D+00 0.151D+01
 Coeff:     -0.108D-04 0.849D-04-0.271D-03 0.720D-03-0.252D-02 0.234D-01
 Coeff:     -0.101D+00 0.260D+00-0.692D+00 0.151D+01
 Gap=     0.369 Goal=   None    Shift=    0.000
 RMSDP=2.48D-07 MaxDP=1.59D-06 DE=-2.39D-10 OVMax= 2.94D-06

 Cycle  11  Pass 1  IDiag  3:
 E= 0.353203878322290E-01 Delta-E=       -0.000000000011 Rises=F Damp=F
 DIIS: error= 3.14D-08 at cycle  11 NSaved=  11.
 NSaved=11 IEnMin=11 EnMin= 0.353203878322290E-01 IErMin=11 ErrMin= 3.14D-08
 ErrMax= 3.14D-08  0.00D+00 EMaxC= 1.00D-01 BMatC= 6.09D-14 BMatP= 1.71D-12
 IDIUse=1 WtCom= 1.00D+00 WtEn= 0.00D+00
 Coeff-Com:  0.331D-05-0.270D-04 0.896D-04-0.253D-03 0.833D-03-0.750D-02
 Coeff-Com:  0.319D-01-0.810D-01 0.225D+00-0.605D+00 0.144D+01
 Coeff:      0.331D-05-0.270D-04 0.896D-04-0.253D-03 0.833D-03-0.750D-02
 Coeff:      0.319D-01-0.810D-01 0.225D+00-0.605D+00 0.144D+01
 Gap=     0.369 Goal=   None    Shift=    0.000
 RMSDP=3.82D-08 MaxDP=1.80D-07 DE=-1.10D-11 OVMax= 2.56D-07

 Cycle  12  Pass 1  IDiag  3:
 E= 0.353203878321580E-01 Delta-E=        0.000000000000 Rises=F Damp=F
 DIIS: error= 6.43D-09 at cycle  12 NSaved=  12.
 NSaved=12 IEnMin=12 EnMin= 0.353203878321580E-01 IErMin=12 ErrMin= 6.43D-09
 ErrMax= 6.43D-09  0.00D+00 EMaxC= 1.00D-01 BMatC= 2.65D-15 BMatP= 6.09D-14
 IDIUse=1 WtCom= 1.00D+00 WtEn= 0.00D+00
 Coeff-Com: -0.838D-06 0.724D-05-0.255D-04 0.782D-04-0.247D-03 0.209D-02
 Coeff-Com: -0.867D-02 0.214D-01-0.604D-01 0.175D+00-0.557D+00 0.143D+01
 Coeff:     -0.838D-06 0.724D-05-0.255D-04 0.782D-04-0.247D-03 0.209D-02
 Coeff:     -0.867D-02 0.214D-01-0.604D-01 0.175D+00-0.557D+00 0.143D+01
 Gap=     0.369 Goal=   None    Shift=    0.000
 RMSDP=8.34D-09 MaxDP=3.76D-08 DE=-7.11D-14 OVMax= 4.83D-08

 Cycle  13  Pass 2  IDiag  1:
 SCF Done:  E(RAM1) =  0.353203878322E-01 A.U. after   13 cycles
            NFock= 12  Conv=0.83D-08     -V/T= 1.0021
 KE=-1.664993386475D+01 PE=-1.723935182596D+02 EE= 8.478326113659D+01
 Leave Link  502 at Tue Dec 15 16:14:40 2015, MaxMem=    33554432 cpu:         0.0
 (Enter /home/Applications/g09/g09/l801.exe)
 Range of M.O.s used for correlation:     1    24
 NBasis=    24 NAE=    13 NBE=    13 NFC=     0 NFV=     0
 NROrb=     24 NOA=    13 NOB=    13 NVA=    11 NVB=    11
 Leave Link  801 at Tue Dec 15 16:14:40 2015, MaxMem=    33554432 cpu:         0.0
 (Enter /home/Applications/g09/g09/l914.exe)
 RHF ground state
 MDV=    33554432 DFT=F DoStab=F Mixed=F DoRPA=F DoScal=F NonHer=F
 Making orbital integer symmetry assigments:
 Orbital symmetries:
       Occupied  (A) (A) (A) (A) (A) (A) (A) (A) (A) (A) (A) (A)
                 (A)
       Virtual   (A) (A) (A) (A) (A) (A) (A) (A) (A) (A) (A)
    60 initial guesses have been made.
 Convergence on wavefunction:    0.000001000000000
 Davidson Disk Diagonalization:  ConvIn= 1.00D-06 SkipCon=T Conv= 1.00D-06.
 Max sub-space:   240 roots to seek:    60 dimension of matrix:          286
 Iteration     1 Dimension    60 NMult     0 NNew     60
 CISAX will form    60 AO SS matrices at one time.
 NMat=    60 NSing=    60 JSym2X= 0.
 FoFJK:  IHMeth= 8 ICntrl=       0 DoSepK=F KAlg= 0 I1Cent=   0 FoldK=F
 IRaf=         1 NMat= 120 IRICut=       1 DoRegI=T DoRafI=F ISym2E= 0.
 FoFCou: FMM=F IPFlag=           0 FMFlag=      100000 FMFlg1=           0
         NFxFlg=           0 DoJE=F BraDBF=F KetDBF=F FulRan=T
         wScrn=  0.000000 ICntrl=       0 IOpCl=  0 I1Cent=           0 NGrid=           0
         NMat0=  120 NMatS0=     60 NMatT0=    0 NMatD0=  120 NMtDS0=    0 NMtDT0=    0
 Symmetry not used in FoFCou.
 New state      2 was old state      3
 New state      3 was old state      2
 New state      4 was old state      6
 New state      5 was old state      7
 New state      6 was old state      9
 New state      7 was old state      4
 New state      9 was old state      5
 New state     10 was old state     11
 New state     11 was old state     12
 New state     12 was old state     14
 New state     13 was old state     16
 New state     14 was old state     18
 New state     15 was old state     10
 Excitation Energies [eV] at current iteration:
 Root      1 :     4.435185568581664
 Root      2 :     4.560262918327232
 Root      3 :     4.965545502517726
 Root      4 :     5.881625952341541
 Root      5 :     5.999077018044591
 Root      6 :     6.369974442390943
 Root      7 :     6.420466447045796
 Root      8 :     6.507924566097850
 Root      9 :     6.739825492437060
 Root     10 :     7.021301733719301
 Root     11 :     7.188144428943703
 Root     12 :     7.407970039908715
 Root     13 :     7.548969115115735
 Root     14 :     7.568470566531597
 Root     15 :     7.726809295655159
 Root     16 :     7.799717157606012
 Root     17 :     8.167316875450972
 Root     18 :     8.295117849718393
 Root     19 :     8.363548810063726
 Root     20 :     8.411438016937030
 Root     21 :     8.428382587547302
 Root     22 :     8.562353803056011
 Root     23 :     8.634457902383840
 Root     24 :     9.049768098452081
 Root     25 :     9.202092409587966
 Root     26 :     9.432148208618692
 Root     27 :     9.548714462351025
 Root     28 :     9.564463365675445
 Root     29 :     9.810752032362171
 Root     30 :     9.861694377075077
 Root     31 :     9.946739616575497
 Root     32 :     9.958366029881720
 Root     33 :    10.228546669782430
 Root     34 :    10.327667622377790
 Root     35 :    10.350117071208130
 Root     36 :    10.398863363132340
 Root     37 :    10.579307767637730
 Root     38 :    10.692475149202950
 Root     39 :    10.935050978371310
 Root     40 :    11.145716097586430
 Root     41 :    11.183230805211700
 Root     42 :    11.287318555108260
 Root     43 :    11.352060058958810
 Root     44 :    11.449210978031740
 Root     45 :    11.613554826333670
 Root     46 :    11.666394219685630
 Root     47 :    11.688730186189990
 Root     48 :    11.935331230533360
 Root     49 :    11.980484291230340
 Root     50 :    12.163705358499540
 Root     51 :    12.233983074152320
 Root     52 :    12.634121562130740
 Root     53 :    12.721894059353820
 Root     54 :    12.832179045500140
 Root     55 :    12.885331045981740
 Root     56 :    13.027262957214960
 Root     57 :    13.301285250953150
 Root     58 :    13.458659177240990
 Root     59 :    13.688397740548240
 Root     60 :    13.995558666080580
 Iteration     2 Dimension   120 NMult    60 NNew     60
 CISAX will form    60 AO SS matrices at one time.
 NMat=    60 NSing=    60 JSym2X= 0.
 Root      1 not converged, maximum delta is    0.036256439419568
 Root      2 not converged, maximum delta is    0.035523672501728
 Root      3 not converged, maximum delta is    0.010135920866117
 Root      4 not converged, maximum delta is    0.040140299500262
 Root      5 not converged, maximum delta is    0.044257807360632
 Root      6 not converged, maximum delta is    0.344848386502224
 Root      7 not converged, maximum delta is    0.335282135606825
 Root      8 not converged, maximum delta is    0.189489792048638
 Root      9 not converged, maximum delta is    0.028641823394592
 Root     10 not converged, maximum delta is    0.025862160722982
 Root     11 not converged, maximum delta is    0.045797295893291
 Root     12 not converged, maximum delta is    0.046685408818228
 Root     13 not converged, maximum delta is    0.304061690671578
 Root     14 not converged, maximum delta is    0.339697569447671
 Root     15 not converged, maximum delta is    0.100156968432865
 Excitation Energies [eV] at current iteration:
 Root      1 :     4.342226492684726   Change is   -0.092959075896938
 Root      2 :     4.523864767473989   Change is   -0.036398150853243
 Root      3 :     4.953426780803108   Change is   -0.012118721714618
 Root      4 :     5.783397264603901   Change is   -0.098228687737640
 Root      5 :     5.907094100014342   Change is   -0.091982918030250
 Root      6 :     6.274030400757795   Change is   -0.095944041633148
 Root      7 :     6.292760298321883   Change is   -0.127706148723913
 Root      8 :     6.443747466339056   Change is   -0.064177099758793
 Root      9 :     6.686552018279158   Change is   -0.053273474157901
 Root     10 :     6.968694648438002   Change is   -0.052607085281298
 Root     11 :     7.099000868243486   Change is   -0.089143560700217
 Root     12 :     7.280714314477378   Change is   -0.127255725431337
 Root     13 :     7.491699784714374   Change is   -0.057269330401361
 Root     14 :     7.510499309352497   Change is   -0.057971257179101
 Root     15 :     7.634292809067674   Change is   -0.092516486587485
 Root     16 :     7.732428917466439   Change is   -0.067288240139573
 Root     17 :     8.098848224153103   Change is   -0.068468651297870
 Root     18 :     8.123325494379475   Change is   -0.288112522557554
 Root     19 :     8.204605955523698   Change is   -0.090511894194694
 Root     20 :     8.244025861147303   Change is   -0.119522948916424
 Root     21 :     8.302293601289161   Change is   -0.126088986258141
 Root     22 :     8.457759523624743   Change is   -0.104594279431268
 Root     23 :     8.607507862157583   Change is   -0.026950040226258
 Root     24 :     8.855915252516466   Change is   -0.346177157071499
 Root     25 :     8.969994731552530   Change is   -0.079773366899549
 Root     26 :     9.167885213940268   Change is   -0.380829248410758
 Root     27 :     9.320959854292306   Change is   -0.540734522782771
 Root     28 :     9.369373747948346   Change is   -0.062774460670346
 Root     29 :     9.498580572267979   Change is   -0.065882793407465
 Root     30 :     9.696620183337563   Change is   -0.882687584300166
 Root     31 :     9.722534819312351   Change is   -0.088217213049819
 Root     32 :     9.765863177553948   Change is   -0.192502852327772
 Root     33 :     9.871621488742983   Change is   -0.075118127832514
 Root     34 :     9.879494592740516   Change is   -0.349052077041912
 Root     35 :     9.925681421550935   Change is   -0.424435649657197
 Root     36 :     9.996949150423152   Change is   -0.401914212709191
 Root     37 :    10.011366177634090   Change is   -0.923684800737219
 Root     38 :    10.247938347714590   Change is   -0.444536801488361
 Root     39 :    10.361903692562200   Change is    0.034236070184412
 Root     40 :    10.747224769610440   Change is   -0.398491327975998
 Root     41 :    10.897559475553550   Change is   -0.285671329658154
 Root     42 :    10.959261492823360   Change is   -0.328057062284903
 Root     43 :    11.107955688124110   Change is   -0.341255289907632
 Root     44 :    11.201966665519400   Change is   -0.150093393439405
 Root     45 :    11.272017269397440   Change is   -0.341537556936230
 Root     46 :    11.324898951257940   Change is   -0.363831234932041
 Root     47 :    11.396445373777360   Change is   -0.269948845908269
 Root     48 :    11.667136605859400   Change is   -0.313347685370942
 Root     49 :    11.735898762923390   Change is   -0.199432467609971
 Root     50 :    11.834387029566120   Change is   -0.329318328933420
 Root     51 :    11.961041755802690   Change is   -0.272941318349635
 Root     52 :    12.283016811471820   Change is   -0.438877247881999
 Root     53 :    12.388415113141560   Change is   -0.496915932840173
 Root     54 :    12.591531585698350   Change is   -0.042589976432383
 Root     55 :    12.702854766037110   Change is   -0.129324279463036
 Root     56 :    12.890135160597300   Change is   -0.137127796617666
 Root     57 :    13.071334496072350   Change is   -0.229950754880798
 Root     58 :    13.138078155993450   Change is   -0.320581021247538
 Root     59 :    13.185534013657180   Change is   -0.502863726891055
 Root     60 :    13.357854866608750
 Iteration     3 Dimension   135 NMult   120 NNew     15
 CISAX will form    15 AO SS matrices at one time.
 NMat=    15 NSing=    15 JSym2X= 0.
 Root      1 not converged, maximum delta is    0.002257793904106
 Root      2 not converged, maximum delta is    0.000389151505322
 Root      3 not converged, maximum delta is    0.000255530725182
 Root      4 not converged, maximum delta is    0.000241015549761
 Root      5 not converged, maximum delta is    0.000124983247529
 Root      6 not converged, maximum delta is    0.007025534135565
 Root      7 not converged, maximum delta is    0.006182963396389
 Root      8 not converged, maximum delta is    0.000474010784088
 Root      9 not converged, maximum delta is    0.003594158789148
 Root     10 not converged, maximum delta is    0.000454352884094
 Root     11 not converged, maximum delta is    0.000135056693072
 Root     12 not converged, maximum delta is    0.000929771176987
 Root     13 not converged, maximum delta is    0.000234328376090
 Root     14 not converged, maximum delta is    0.000201180286443
 Root     15 not converged, maximum delta is    0.000281719857635
 Excitation Energies [eV] at current iteration:
 Root      1 :     4.341663703734415   Change is   -0.000562788950311
 Root      2 :     4.523846626713336   Change is   -0.000018140760653
 Root      3 :     4.953405418376800   Change is   -0.000021362426307
 Root      4 :     5.783387836213016   Change is   -0.000009428390886
 Root      5 :     5.907090488529684   Change is   -0.000003611484657
 Root      6 :     6.273552500088768   Change is   -0.000477900669027
 Root      7 :     6.292632014740136   Change is   -0.000128283581747
 Root      8 :     6.443711031306272   Change is   -0.000036435032785
 Root      9 :     6.686026300610171   Change is   -0.000525717668987
 Root     10 :     6.968653098581728   Change is   -0.000041549856274
 Root     11 :     7.098997892732148   Change is   -0.000002975511339
 Root     12 :     7.280632152576239   Change is   -0.000082161901140
 Root     13 :     7.491683110751151   Change is   -0.000016673963222
 Root     14 :     7.510491065312104   Change is   -0.000008244040392
 Root     15 :     7.634272701109196   Change is   -0.000020107958478
 Iteration     4 Dimension   143 NMult   135 NNew      8
 CISAX will form     8 AO SS matrices at one time.
 NMat=     8 NSing=     8 JSym2X= 0.
 Root      1 not converged, maximum delta is    0.000064660577421
 Root      2 not converged, maximum delta is    0.000011734156024
 Root      3 not converged, maximum delta is    0.000010003341775
 Root      4 not converged, maximum delta is    0.000010168273806
 Root      5 not converged, maximum delta is    0.000005119043111
 Root      6 not converged, maximum delta is    0.000066319143051
 Root      7 not converged, maximum delta is    0.000027941978997
 Root      8 not converged, maximum delta is    0.000019425533556
 Root      9 not converged, maximum delta is    0.000129071001476
 Root     10 not converged, maximum delta is    0.000021527095188
 Root     11 not converged, maximum delta is    0.000006382949299
 Root     12 not converged, maximum delta is    0.000017588756718
 Root     13 not converged, maximum delta is    0.000008307489828
 Root     14 not converged, maximum delta is    0.000011391830456
 Root     15 not converged, maximum delta is    0.000015662448451
 Excitation Energies [eV] at current iteration:
 Root      1 :     4.341662646611254   Change is   -0.000001057123161
 Root      2 :     4.523846586198690   Change is   -0.000000040514646
 Root      3 :     4.953405389096790   Change is   -0.000000029280010
 Root      4 :     5.783387807925259   Change is   -0.000000028287757
 Root      5 :     5.907090480708199   Change is   -0.000000007821485
 Root      6 :     6.273550389238032   Change is   -0.000002110850736
 Root      7 :     6.292631666812880   Change is   -0.000000347927256
 Root      8 :     6.443710861358126   Change is   -0.000000169948145
 Root      9 :     6.686023058586743   Change is   -0.000003242023428
 Root     10 :     6.968652930684872   Change is   -0.000000167896856
 Root     11 :     7.098997883369481   Change is   -0.000000009362666
 Root     12 :     7.280632034006164   Change is   -0.000000118570074
 Root     13 :     7.491683085762785   Change is   -0.000000024988368
 Root     14 :     7.510491037417641   Change is   -0.000000027894462
 Root     15 :     7.634272617502249   Change is   -0.000000083606948
 Convergence achieved on expansion vectors.
 ***********************************************************************
 Excited states from <AA,BB:AA,BB> singles matrix:
 ***********************************************************************
 
 1PDM for each excited state written to RWF  633
 Ground to excited state transition densities written to RWF  633
 Ground to excited state transition electric dipole moments (Au):
       state          X           Y           Z        Dip. S.      Osc.
         1        -1.0147      0.1063     -0.0142      1.0412      0.1107
         2        -0.1740     -0.0057      0.0256      0.0310      0.0034
         3         0.0346      0.4518      0.0277      0.2061      0.0250
         4         0.0041     -0.0319     -0.0611      0.0048      0.0007
         5         0.0165      0.0124      0.1214      0.0152      0.0022
         6         0.0814      1.2656      0.0340      1.6096      0.2474
         7        -0.0895     -0.5842      0.0715      0.3544      0.0546
         8        -0.1155     -0.3581     -0.0199      0.1420      0.0224
         9         0.9962     -0.1738      0.0187      1.0229      0.1676
        10        -0.0403      0.2800     -0.1375      0.0989      0.0169
        11         0.0242      0.0309     -0.0105      0.0017      0.0003
        12         0.0479     -0.0403     -0.0066      0.0040      0.0007
        13        -0.0387      0.0161     -0.2207      0.0505      0.0093
        14        -0.0362      0.0414     -0.1338      0.0209      0.0038
        15        -0.0565      0.0453      0.0284      0.0061      0.0011
 Ground to excited state transition velocity dipole moments (Au):
       state          X           Y           Z        Dip. S.      Osc.
         1         0.0345      0.0023     -0.0047      0.0012      0.0051
         2         0.0030      0.0012     -0.0058      0.0000      0.0002
         3         0.0100     -0.0438     -0.0162      0.0023      0.0084
         4         0.0005      0.0147      0.0194      0.0006      0.0019
         5        -0.0038     -0.0077     -0.0383      0.0015      0.0047
         6        -0.0323     -0.2824     -0.0596      0.0844      0.2440
         7         0.0201      0.1300     -0.0262      0.0180      0.0519
         8         0.0258      0.0785     -0.1763      0.0379      0.1067
         9        -0.1751      0.0342     -0.0196      0.0322      0.0874
        10         0.0045     -0.0755     -0.0036      0.0057      0.0149
        11        -0.0042     -0.0125      0.0481      0.0025      0.0064
        12        -0.0083      0.0088      0.0010      0.0001      0.0004
        13         0.0083     -0.0126      0.0644      0.0044      0.0106
        14         0.0002     -0.0229      0.1156      0.0139      0.0336
        15         0.0118     -0.0101     -0.0133      0.0004      0.0010
 Ground to excited state transition magnetic dipole moments (Au):
       state          X           Y           Z
         1        -0.0234     -0.0715     -0.5026
         2         0.0109      0.6094     -0.0356
         3        -0.0155      0.0113     -0.0215
         4        -0.1785      0.0907      0.0149
         5         0.2813     -0.0092      0.0000
         6         0.1954     -0.0279     -0.0089
         7        -0.1074      0.1443      0.0068
         8        -0.0728     -0.1535     -0.0007
         9        -0.1238      0.0667      0.1858
        10        -1.6385      0.4242      0.0189
        11        -0.1265     -0.9007      0.0012
        12        -0.4012     -0.4195     -0.0359
        13         0.2643      0.2375      0.0470
        14         0.7655     -0.0351     -0.0005
        15        -0.0268      0.2456      0.0547
 Ground to excited state transition velocity quadrupole moments (Au):
       state          XX          YY          ZZ          XY          XZ          YZ
         1        -0.1377      0.1257      0.0131     -0.4242     -0.0226      0.0073
         2        -0.0171      0.0118     -0.0029     -0.0559      0.1742     -0.0245
         3         0.1529     -0.1670      0.0667      0.0327      0.0082      0.0106
         4        -0.0002      0.0010     -0.0013      0.0114     -0.1357     -0.1335
         5        -0.0154      0.0038     -0.0065      0.0015     -0.0565      0.2513
         6         0.3620     -0.1527     -0.0598     -0.1189     -0.0099      0.0201
         7        -0.1538      0.1210     -0.0052      0.0678      0.0206      0.0716
         8        -0.1055      0.0706      0.0029      0.0983      0.0509      0.1726
         9        -0.1407      0.1687      0.0059     -0.5417     -0.0168      0.0302
        10         0.1010     -0.0843     -0.0041      0.0419      0.0413      0.0803
        11         0.0115      0.0051     -0.0173     -0.0403      0.1778      0.0190
        12        -0.0363     -0.0052      0.0089     -0.0290     -0.1241      0.0391
        13         0.0192     -0.0534     -0.0115      0.0423     -0.2253      0.2398
        14         0.0102     -0.0682      0.0249      0.0124      0.1158      0.4318
        15         0.0351     -0.0137      0.0067      0.0480      0.0742     -0.0967
 <0|del|b> * <b|rxdel|0> + <0|del|b> * <b|delr+rdel|0>
 Rotatory Strengths (R) in cgs (10**-40 erg-esu-cm/Gauss)
       state          XX          YY          ZZ    R(velocity)    E-M Angle
         1         9.3098     -0.4239     -2.8194      2.0222       85.57
         2         2.2107     -0.3380      2.1658      1.3462       76.46
         3        -0.6206      1.6061     -2.1681     -0.3942      102.76
         4         6.3947     -0.1686     -1.1432      1.6943       71.80
         5        -0.6868     -3.1760      0.6393     -1.0745       95.14
         6        19.4833    -20.7359      7.7172      2.1549       87.90
         7        21.5879      1.3429     27.2831     16.7380       47.15
         8       -49.6310     29.9031    -21.4532    -13.7270      114.64
         9        14.1689      3.0264     41.2307     19.4753       60.95
        10       -40.1959     -9.5987    -59.2243    -36.3396      107.95
        11        15.7550      3.3273     13.1107     10.7310       74.83
        12        -3.5124      3.9795     -1.4538     -0.3289       93.03
        13        -0.1084      5.7785      0.0645      1.9115       84.60
        14         6.1916     -1.6100     -2.2837      0.7660       89.43
        15        -3.9042     -1.9513     -3.0263     -2.9606      132.89
 1/2[<0|r|b>*<b|rxdel|0> + (<0|rxdel|b>*<b|r|0>)*]
 Rotatory Strengths (R) in cgs (10**-40 erg-esu-cm/Gauss)
       state          XX          YY          ZZ     R(length)
         1       -16.7979      5.3757     -5.0624     -5.4949
         2         1.3465      2.4771      0.6434      1.4890
         3         0.3804     -3.6257      0.4209     -0.9415
         4         0.5169      2.0476      0.6436      1.0694
         5        -3.2748      0.0807     -0.0014     -1.0652
         6       -11.2501     25.0107      0.2148      4.6585
         7        -6.7972     59.6001     -0.3442     17.4862
         8        -5.9435    -38.8667     -0.0104    -14.9402
         9        87.1918      8.1968     -2.4615     30.9757
        10       -46.6536    -83.9908      1.8363    -42.9360
        11         2.1696     19.6645      0.0087      7.2809
        12        13.5902    -11.9506     -0.1669      0.4909
        13         7.2416     -2.7089      7.3420      3.9582
        14        19.5854      1.0274     -0.0488      6.8547
        15        -1.0708     -7.8769     -1.1004     -3.3494
  1/2[<0|del|b>*<b|r|0> + (<0|r|b>*<b|del|0>)*] (Au)
       state          X           Y           Z        Dip. S.   Osc.(frdel)
         1        -0.0350      0.0002      0.0001      0.0347      0.0231
         2        -0.0005      0.0000     -0.0001      0.0007      0.0005
         3         0.0003     -0.0198     -0.0004      0.0199      0.0133
         4         0.0000     -0.0005     -0.0012      0.0017      0.0011
         5        -0.0001     -0.0001     -0.0046      0.0048      0.0032
         6        -0.0026     -0.3575     -0.0020      0.3621      0.2414
         7        -0.0018     -0.0759     -0.0019      0.0796      0.0531
         8        -0.0030     -0.0281      0.0035      0.0276      0.0184
         9        -0.1744     -0.0059     -0.0004      0.1807      0.1205
        10        -0.0002     -0.0211      0.0005      0.0208      0.0139
        11        -0.0001     -0.0004     -0.0005      0.0010      0.0007
        12        -0.0004     -0.0004      0.0000      0.0008      0.0005
        13        -0.0003     -0.0002     -0.0142      0.0147      0.0098
        14         0.0000     -0.0009     -0.0155      0.0164      0.0109
        15        -0.0007     -0.0005     -0.0004      0.0015      0.0010

 Excitation energies and oscillator strengths:
 
 Excited State   1:      Singlet-A      4.3417 eV  285.57 nm  f=0.1107  <S**2>=0.000
      12 -> 15         0.18549
      13 -> 14         0.66715
 This state for optimization and/or second-order correction.
 Total Energy, E(CIS) =  0.194873561198    
 Copying the excited state density for this state as the 1-particle RhoCI density.
 
 Excited State   2:      Singlet-A      4.5238 eV  274.07 nm  f=0.0034  <S**2>=0.000
      13 -> 16         0.67367
      13 -> 21        -0.10108
 
 Excited State   3:      Singlet-A      4.9534 eV  250.30 nm  f=0.0250  <S**2>=0.000
      12 -> 14        -0.34709
      13 -> 15         0.61003
 
 Excited State   4:      Singlet-A      5.7834 eV  214.38 nm  f=0.0007  <S**2>=0.000
      12 -> 17        -0.12439
      12 -> 19         0.11773
      13 -> 17         0.36769
      13 -> 18         0.35437
      13 -> 19        -0.22869
      13 -> 21        -0.28834
      13 -> 22        -0.10284
      13 -> 23        -0.13030
 
 Excited State   5:      Singlet-A      5.9071 eV  209.89 nm  f=0.0022  <S**2>=0.000
      12 -> 18         0.16610
      12 -> 22        -0.11145
      13 -> 17        -0.14698
      13 -> 18         0.37352
      13 -> 19         0.39499
      13 -> 21        -0.11132
      13 -> 22        -0.17043
      13 -> 23         0.24796
 
 Excited State   6:      Singlet-A      6.2736 eV  197.63 nm  f=0.2474  <S**2>=0.000
      12 -> 14         0.51262
      12 -> 16         0.29183
      13 -> 15         0.28692
 
 Excited State   7:      Singlet-A      6.2926 eV  197.03 nm  f=0.0546  <S**2>=0.000
       7 -> 16        -0.13758
      12 -> 14        -0.23060
      12 -> 16         0.56890
      13 -> 15        -0.12636
      13 -> 17        -0.14947
 
 Excited State   8:      Singlet-A      6.4437 eV  192.41 nm  f=0.0224  <S**2>=0.000
      12 -> 14        -0.12255
      13 -> 17         0.45043
      13 -> 18        -0.21374
      13 -> 19         0.40439
 
 Excited State   9:      Singlet-A      6.6860 eV  185.44 nm  f=0.1676  <S**2>=0.000
      12 -> 15         0.66289
      13 -> 14        -0.16951
 
 Excited State  10:      Singlet-A      6.9687 eV  177.92 nm  f=0.0169  <S**2>=0.000
       9 -> 14         0.18999
      10 -> 14         0.39533
      10 -> 15         0.11669
      11 -> 14         0.43057
      11 -> 15        -0.24975
 
 Excited State  11:      Singlet-A      7.0990 eV  174.65 nm  f=0.0003  <S**2>=0.000
      12 -> 17        -0.12302
      12 -> 18         0.12831
      12 -> 19        -0.21181
      13 -> 16         0.12844
      13 -> 17         0.11354
      13 -> 18         0.29943
      13 -> 20        -0.14839
      13 -> 21         0.48777
      13 -> 22         0.15552
 
 Excited State  12:      Singlet-A      7.2806 eV  170.29 nm  f=0.0007  <S**2>=0.000
      10 -> 14         0.43599
      10 -> 15         0.28484
      11 -> 14        -0.41608
      11 -> 15         0.13023
 
 Excited State  13:      Singlet-A      7.4917 eV  165.50 nm  f=0.0093  <S**2>=0.000
      12 -> 17         0.17177
      12 -> 18        -0.19575
      12 -> 19         0.11710
      12 -> 20         0.20036
      12 -> 22        -0.22136
      12 -> 23        -0.25899
      13 -> 17         0.13645
      13 -> 20        -0.18889
      13 -> 22         0.24104
      13 -> 23         0.34405
 
 Excited State  14:      Singlet-A      7.5105 eV  165.08 nm  f=0.0038  <S**2>=0.000
      12 -> 18         0.38014
      12 -> 20         0.10914
      12 -> 21        -0.25070
      13 -> 17         0.17988
      13 -> 18        -0.15488
      13 -> 19        -0.24075
      13 -> 22        -0.11273
      13 -> 23         0.24233
      13 -> 24        -0.22978
 
 Excited State  15:      Singlet-A      7.6343 eV  162.40 nm  f=0.0011  <S**2>=0.000
       9 -> 15         0.11827
      12 -> 17        -0.24224
      12 -> 19         0.40713
      13 -> 18        -0.12837
      13 -> 20        -0.39522
      13 -> 21         0.14086
      13 -> 22        -0.13169
 SavETr:  write IOETrn=   770 NScale= 10 NData=  16 NLR=1 NState=   15 LETran=     280.
 The selected state is a singlet
 CISAX will form     1 AO SS matrices at one time.
 NMat=     1 NSing=     1 JSym2X= 0.
 Leave Link  914 at Tue Dec 15 16:14:40 2015, MaxMem=    33554432 cpu:         0.1
 (Enter /home/Applications/g09/g09/l1002.exe)
 Minotr:  Closed shell wavefunction.
          Computing CIS/TD-HF/TD-KS derivatives.
          Using Z-Vector for PSCF gradient.
          Skipping F1 and S1 gradient terms here.
          IDoAtm=111111111
          Direct CPHF calculation.
          Differentiating once with respect to electric field.
                with respect to dipole field.
          Differentiating once with respect to nuclear coordinates.
          Electric field/nuclear overlap derivatives assumed to be zero.
          Requested convergence is 1.0D-10 RMS, and 1.0D-09 maximum.
          NewPWx=T KeepS1=F KeepF1=F KeepIn=T MapXYZ=F SortEE=F KeepMc=T.
          MDV=      33495423 using IRadAn=       0.
 Keep J ints in memory in canonical form, NReq=871704.
 FoFCou: FMM=F IPFlag=           0 FMFlag=           0 FMFlg1=           0
         NFxFlg=           0 DoJE=F BraDBF=F KetDBF=F FulRan=T
         wScrn=  0.000000 ICntrl=     600 IOpCl=  2 I1Cent=           0 NGrid=           0
         NMat0=    1 NMatS0=     54 NMatT0=    0 NMatD0=    1 NMtDS0=    0 NMtDT0=    0
 Symmetry not used in FoFCou.
          Solving linear equations separately, MaxMat=       0.
          There are     1 degrees of freedom in the 1st order CPHF.  IDoFFX=0 NUNeed=     1.
 LinEq1:  Iter=  0 NonCon=     1 RMS=1.41D-02 Max=9.68D-02 NDo=     1
 AX will form     1 AO Fock derivatives at one time.
 LinEq1:  Iter=  1 NonCon=     1 RMS=2.78D-03 Max=1.93D-02 NDo=     1
 LinEq1:  Iter=  2 NonCon=     1 RMS=4.32D-04 Max=2.81D-03 NDo=     1
 LinEq1:  Iter=  3 NonCon=     1 RMS=5.50D-05 Max=2.64D-04 NDo=     1
 LinEq1:  Iter=  4 NonCon=     1 RMS=6.36D-06 Max=3.77D-05 NDo=     1
 LinEq1:  Iter=  5 NonCon=     1 RMS=1.18D-06 Max=7.15D-06 NDo=     1
 LinEq1:  Iter=  6 NonCon=     1 RMS=2.10D-07 Max=1.39D-06 NDo=     1
 LinEq1:  Iter=  7 NonCon=     1 RMS=2.56D-08 Max=9.48D-08 NDo=     1
 LinEq1:  Iter=  8 NonCon=     1 RMS=3.13D-09 Max=9.74D-09 NDo=     1
 LinEq1:  Iter=  9 NonCon=     1 RMS=3.97D-10 Max=1.68D-09 NDo=     1
 LinEq1:  Iter= 10 NonCon=     0 RMS=5.16D-11 Max=2.48D-10 NDo=     1
 Linear equations converged to 1.000D-10 1.000D-09 after    10 iterations.
 End of Minotr F.D. properties file   721 does not exist.
 End of Minotr F.D. properties file   722 does not exist.
 End of Minotr F.D. properties file   788 does not exist.
 Leave Link 1002 at Tue Dec 15 16:14:40 2015, MaxMem=    33554432 cpu:         0.0
 (Enter /home/Applications/g09/g09/l601.exe)
 Copying SCF densities to generalized density rwf, IOpCl= 0 IROHF=0.

 **********************************************************************

            Population analysis using the SCF density.

 **********************************************************************

 Orbital symmetries:
       Occupied  (A) (A) (A) (A) (A) (A) (A) (A) (A) (A) (A) (A)
                 (A)
       Virtual   (A) (A) (A) (A) (A) (A) (A) (A) (A) (A) (A)
 The electronic state is 1-A.
 Alpha  occ. eigenvalues --   -1.61402  -1.25614  -1.09548  -0.83063  -0.81648
 Alpha  occ. eigenvalues --   -0.69173  -0.62516  -0.56797  -0.51448  -0.49690
 Alpha  occ. eigenvalues --   -0.49190  -0.40124  -0.33633
 Alpha virt. eigenvalues --    0.03297   0.06889   0.09192   0.13717   0.14735
 Alpha virt. eigenvalues --    0.15636   0.18371   0.18922   0.19075   0.20909
 Alpha virt. eigenvalues --    0.23255
     Molecular Orbital Coefficients:
                           1         2         3         4         5
                           O         O         O         O         O
     Eigenvalues --    -1.61402  -1.25614  -1.09548  -0.83063  -0.81648
   1 1   C  1S          0.27251  -0.49646   0.23908  -0.31287  -0.30000
   2        1PX        -0.08535   0.10916   0.13979  -0.23850   0.10572
   3        1PY        -0.09594   0.01503  -0.14330   0.07246  -0.31086
   4        1PZ        -0.00058   0.00113   0.00018   0.00012  -0.00734
   5 2   C  1S          0.34104  -0.13660   0.52711  -0.00612   0.39664
   6        1PX        -0.18616  -0.07281  -0.01752  -0.18741   0.08539
   7        1PY         0.01732  -0.20983  -0.00974  -0.33389  -0.06028
   8        1PZ         0.00378   0.00241   0.00435   0.00795  -0.00950
   9 3   O  1S          0.65141   0.55634   0.04471   0.08487  -0.31077
  10        1PX         0.01435  -0.03654   0.38558   0.48397   0.10826
  11        1PY         0.20567  -0.02947  -0.06469  -0.11228   0.20503
  12        1PZ        -0.01034  -0.00328   0.00110   0.00646  -0.01889
  13 4   C  1S          0.37611  -0.07603  -0.50762  -0.13983   0.37973
  14        1PX         0.19566   0.01898   0.00364  -0.01919  -0.10681
  15        1PY        -0.05646  -0.25021  -0.00705   0.35959   0.11211
  16        1PZ         0.00840   0.00427  -0.00858  -0.00831  -0.00850
  17 5   C  1S          0.27308  -0.48143  -0.28429   0.38113  -0.15735
  18        1PX         0.05183  -0.10982   0.15270  -0.16121  -0.27731
  19        1PY        -0.12015   0.04176   0.08744   0.07663  -0.25214
  20        1PZ         0.00206  -0.00351  -0.00188   0.00511  -0.01127
  21 6   H  1S          0.05776  -0.15067  -0.11471   0.24518  -0.11262
  22 7   H  1S          0.07223  -0.00919  -0.18989  -0.10715   0.20150
  23 8   H  1S          0.06770  -0.03283   0.20330   0.01392   0.23659
  24 9   H  1S          0.05650  -0.15314   0.09740  -0.20240  -0.20060
                           6         7         8         9        10
                           O         O         O         O         O
     Eigenvalues --    -0.69173  -0.62516  -0.56797  -0.51448  -0.49690
   1 1   C  1S         -0.05781  -0.00093  -0.17997  -0.02440   0.00289
   2        1PX        -0.20492   0.01764  -0.11489   0.47950  -0.08454
   3        1PY        -0.16302  -0.02289  -0.08624   0.11567   0.53437
   4        1PZ        -0.00756   0.21022  -0.00115   0.02656   0.02578
   5 2   C  1S         -0.13921  -0.00048   0.15459  -0.00212  -0.02200
   6        1PX        -0.35231  -0.00515   0.38423  -0.17297   0.05957
   7        1PY         0.15629   0.02576  -0.04639   0.05742  -0.52013
   8        1PZ         0.00242   0.36294  -0.01211   0.00207   0.01359
   9 3   O  1S         -0.17166   0.00517  -0.03291  -0.06574  -0.15392
  10        1PX         0.09016   0.01102  -0.39171   0.09368   0.10921
  11        1PY         0.47637   0.03504   0.14252   0.41670   0.33076
  12        1PZ        -0.01834   0.77705   0.01702  -0.05246   0.01047
  13 4   C  1S         -0.11629  -0.00197  -0.16655   0.00399   0.12247
  14        1PX         0.37716  -0.01845   0.40397   0.10991   0.08754
  15        1PY         0.04835   0.02447  -0.14388  -0.02461  -0.10921
  16        1PZ        -0.00489   0.40957   0.03220  -0.00573   0.02016
  17 5   C  1S         -0.09641  -0.01378   0.17511  -0.03302  -0.05389
  18        1PX         0.16358  -0.02232  -0.03385  -0.41882   0.26387
  19        1PY        -0.23267  -0.01140   0.18962   0.30088  -0.06265
  20        1PZ        -0.01090   0.21757   0.02415   0.02569   0.01146
  21 6   H  1S         -0.22125   0.00323   0.23071   0.34936  -0.18523
  22 7   H  1S         -0.27507   0.01062  -0.33315  -0.07356   0.04809
  23 8   H  1S         -0.29449  -0.01976   0.33407  -0.13781   0.27553
  24 9   H  1S         -0.18829   0.00271  -0.20294   0.32527   0.25027
                          11        12        13        14        15
                           O         O         O         V         V
     Eigenvalues --    -0.49190  -0.40124  -0.33633   0.03297   0.06889
   1 1   C  1S         -0.02295   0.00287  -0.00561   0.00004   0.01003
   2        1PX        -0.29010  -0.01915  -0.00887   0.01321   0.01456
   3        1PY        -0.09895  -0.02237  -0.00896   0.00427   0.01030
   4        1PZ         0.00928   0.62696   0.30175  -0.31058  -0.60958
   5 2   C  1S          0.11628  -0.00376   0.00364   0.00756   0.00089
   6        1PX        -0.20264   0.00922   0.02378   0.01490   0.00819
   7        1PY         0.01831  -0.00163   0.00176  -0.00844  -0.01703
   8        1PZ         0.00407   0.18759   0.62703   0.56927   0.33713
   9 3   O  1S         -0.13071  -0.00136  -0.00304  -0.00643  -0.01239
  10        1PX         0.05019  -0.00568  -0.00664  -0.00186   0.01526
  11        1PY         0.23663  -0.05231   0.00549  -0.01463  -0.02406
  12        1PZ        -0.01960  -0.46334   0.05160  -0.41464   0.02790
  13 4   C  1S         -0.02992   0.00072   0.01275  -0.01204   0.03840
  14        1PX        -0.29636   0.00849   0.01265   0.00458   0.01563
  15        1PY        -0.44145   0.01064  -0.02673   0.00476  -0.02611
  16        1PZ         0.01778   0.08282  -0.59399   0.58127  -0.35992
  17 5   C  1S         -0.01046  -0.00864   0.01108   0.01635  -0.02778
  18        1PX         0.23235   0.00495   0.00326  -0.00359   0.01741
  19        1PY         0.45399  -0.04797   0.02709   0.00645  -0.02950
  20        1PZ         0.03858   0.58616  -0.39671  -0.26034   0.61290
  21 6   H  1S          0.22618  -0.01129   0.00425  -0.01454   0.03785
  22 7   H  1S          0.33623  -0.01093  -0.00739   0.01013  -0.03101
  23 8   H  1S         -0.06049  -0.00148   0.00288  -0.01499  -0.01437
  24 9   H  1S         -0.24706  -0.00517  -0.00819  -0.00631  -0.01030
                          16        17        18        19        20
                           V         V         V         V         V
     Eigenvalues --     0.09192   0.13717   0.14735   0.15636   0.18371
   1 1   C  1S          0.03079  -0.21831   0.16278   0.20836  -0.36876
   2        1PX         0.03469   0.05727  -0.11605   0.31599  -0.15195
   3        1PY         0.02208  -0.10547  -0.35945  -0.15412  -0.33606
   4        1PZ        -0.02330  -0.00933  -0.01239   0.02892  -0.00668
   5 2   C  1S         -0.29656   0.17644  -0.37978  -0.20260  -0.04649
   6        1PX         0.30351   0.05393  -0.33213   0.19765   0.26364
   7        1PY         0.30237  -0.14432  -0.14889  -0.21463   0.08368
   8        1PZ         0.01654  -0.00436   0.01609  -0.02397  -0.00425
   9 3   O  1S          0.24611  -0.05795  -0.05428  -0.04139   0.07869
  10        1PX         0.12147  -0.08134  -0.02319   0.25931   0.12796
  11        1PY         0.42346  -0.07939  -0.04866  -0.12330   0.10028
  12        1PZ        -0.03323   0.01543   0.00209   0.00784  -0.01277
  13 4   C  1S         -0.28865  -0.37832  -0.14534   0.21412   0.13853
  14        1PX        -0.08065   0.34592  -0.00411   0.37154  -0.17840
  15        1PY         0.33734  -0.14116  -0.21369   0.05509   0.08825
  16        1PZ        -0.03411  -0.02233   0.00721   0.02440   0.01099
  17 5   C  1S          0.03193   0.24482  -0.06966  -0.22555  -0.05667
  18        1PX         0.02632   0.00334  -0.17427   0.33461   0.39392
  19        1PY         0.03060  -0.22736  -0.29237   0.00636  -0.02420
  20        1PZ         0.03728   0.01225  -0.02247  -0.03586  -0.01264
  21 6   H  1S         -0.08170  -0.01780   0.25093   0.37600   0.23188
  22 7   H  1S          0.39097   0.56984   0.04879   0.15133  -0.18303
  23 8   H  1S          0.29445  -0.29081   0.50417  -0.09756  -0.09502
  24 9   H  1S         -0.11936   0.24867   0.20061  -0.30936   0.54965
                          21        22        23        24
                           V         V         V         V
     Eigenvalues --     0.18922   0.19075   0.20909   0.23255
   1 1   C  1S         -0.26633   0.04332   0.26432  -0.00616
   2        1PX        -0.00558  -0.40602  -0.39027  -0.23992
   3        1PY         0.07480   0.35788  -0.30448   0.14247
   4        1PZ        -0.00657   0.00347  -0.01816   0.00393
   5 2   C  1S          0.01187   0.22429  -0.07510  -0.09923
   6        1PX        -0.36430  -0.00992   0.16406   0.31053
   7        1PY         0.33083   0.15284  -0.31120   0.34861
   8        1PZ         0.01451   0.00664  -0.00160  -0.01558
   9 3   O  1S         -0.09298   0.01727   0.00756  -0.02680
  10        1PX        -0.00563  -0.14340  -0.03478   0.53971
  11        1PY        -0.28073  -0.01594   0.01840  -0.11952
  12        1PZ         0.00977  -0.00608   0.00081   0.00686
  13 4   C  1S          0.18089  -0.06413   0.08137   0.12773
  14        1PX         0.39591   0.06053   0.17717   0.21880
  15        1PY         0.19709   0.22699   0.22680  -0.47716
  16        1PZ         0.00427   0.00228  -0.00760   0.02263
  17 5   C  1S         -0.07262  -0.47492  -0.21468   0.02276
  18        1PX         0.18782  -0.11532  -0.31851  -0.28815
  19        1PY         0.35837  -0.24423   0.42559  -0.06370
  20        1PZ         0.01538  -0.03096   0.01932  -0.00776
  21 6   H  1S         -0.12189   0.47882  -0.25047  -0.06744
  22 7   H  1S          0.18546   0.12523   0.10420  -0.02222
  23 8   H  1S          0.34962  -0.07881  -0.16296   0.01019
  24 9   H  1S          0.15582   0.01748   0.18729   0.04999
     Density Matrix:
                           1         2         3         4         5
   1 1   C  1S          1.20536
   2        1PX         0.05217   0.96794
   3        1PY         0.05732   0.04412   0.95137
   4        1PZ         0.00252  -0.00408  -0.00388   1.05978
   5 2   C  1S          0.29443   0.10193  -0.49626  -0.00640   1.25497
   6        1PX        -0.05119   0.11519   0.07006   0.01705   0.11245
   7        1PY         0.45013   0.17496  -0.60806  -0.01552  -0.01582
   8        1PZ        -0.00031  -0.01109  -0.01559   0.76725  -0.00240
   9 3   O  1S         -0.00260   0.03359  -0.00788  -0.00746   0.10614
  10        1PX        -0.01497  -0.01455   0.05496   0.00314   0.36646
  11        1PY        -0.07842   0.01884   0.05825  -0.01487   0.19470
  12        1PZ         0.00027   0.00143   0.00446  -0.22523  -0.01137
  13 4   C  1S         -0.02745   0.01036   0.01888   0.00947   0.01370
  14        1PX        -0.01470  -0.02772   0.01083   0.01012  -0.00569
  15        1PY        -0.01064   0.07039  -0.03938  -0.01009  -0.04905
  16        1PZ         0.00148  -0.00354   0.00600  -0.08124  -0.00188
  17 5   C  1S          0.29660  -0.46384   0.10655  -0.01272  -0.03019
  18        1PX         0.48217  -0.61324   0.18441  -0.00415  -0.00347
  19        1PY        -0.03959   0.05268   0.12527  -0.02035   0.02891
  20        1PZ         0.00429  -0.01497  -0.01134   0.58999   0.00274
  21 6   H  1S         -0.04570   0.05767  -0.00645   0.00705   0.05959
  22 7   H  1S          0.04399  -0.05726   0.01460  -0.00712   0.06273
  23 8   H  1S         -0.05906  -0.01891   0.09655  -0.00254   0.61670
  24 9   H  1S          0.56821   0.57548   0.54028   0.02115  -0.05379
                           6         7         8         9        10
   6        1PX         0.85929
   7        1PY        -0.09594   0.92191
   8        1PZ         0.01126   0.00329   1.12127
   9 3   O  1S         -0.25717  -0.13355   0.00912   1.83062
  10        1PX        -0.58127  -0.36384   0.02014  -0.03669   1.16229
  11        1PY        -0.42077  -0.07886   0.01937  -0.30803   0.04348
  12        1PZ         0.03789   0.01574   0.45472   0.01877  -0.00150
  13 4   C  1S         -0.01398  -0.04658   0.01003   0.12065  -0.29445
  14        1PX         0.05135   0.01461   0.00146   0.21920  -0.27385
  15        1PY        -0.02948  -0.02625  -0.01282  -0.21571   0.43299
  16        1PZ        -0.00736  -0.00151  -0.41663   0.01588  -0.02160
  17 5   C  1S          0.02092  -0.01366   0.00057   0.00223  -0.01530
  18        1PX        -0.05422  -0.07496   0.00258  -0.03712  -0.03090
  19        1PY        -0.02155  -0.01847   0.01128  -0.00423  -0.02180
  20        1PZ        -0.01125  -0.00578  -0.11928  -0.00529  -0.00493
  21 6   H  1S         -0.00812   0.06805  -0.00022   0.02174  -0.03565
  22 7   H  1S         -0.11228  -0.04336  -0.00186  -0.05301   0.03856
  23 8   H  1S          0.57719  -0.45437  -0.01653  -0.04682  -0.06116
  24 9   H  1S          0.03309  -0.04827   0.00103   0.02511   0.06465
                          11        12        13        14        15
  11        1PY         1.38455
  12        1PZ         0.03140   1.65109
  13 4   C  1S          0.32382  -0.02504   1.25200
  14        1PX         0.52111  -0.03376  -0.11698   0.92804
  15        1PY        -0.33866   0.03955   0.02271   0.08655   0.87918
  16        1PZ         0.03770   0.50005  -0.01215  -0.00915   0.01316
  17 5   C  1S         -0.08263   0.00774   0.29273   0.16440   0.41438
  18        1PX         0.01014   0.00264  -0.24408  -0.00390  -0.34894
  19        1PY         0.07726   0.00677  -0.44691  -0.22980  -0.49204
  20        1PZ        -0.01116  -0.24826  -0.02093  -0.00917   0.00120
  21 6   H  1S          0.07833  -0.01054  -0.05271  -0.03970  -0.04296
  22 7   H  1S         -0.06408   0.00931   0.59728  -0.69686  -0.26655
  23 8   H  1S         -0.05040   0.00624   0.05267   0.07800  -0.05677
  24 9   H  1S          0.06598  -0.00603   0.06102   0.02299   0.06645
                          16        17        18        19        20
  16        1PZ         1.05910
  17 5   C  1S         -0.01414   1.20327
  18        1PX         0.00330  -0.03682   0.93684
  19        1PY        -0.02496   0.07261  -0.04265   0.97419
  20        1PZ         0.74995  -0.00508  -0.00423  -0.01406   1.10292
  21 6   H  1S          0.00881   0.57999  -0.38606   0.67835   0.03870
  22 7   H  1S          0.01439  -0.06009   0.04948   0.08770   0.00628
  23 8   H  1S          0.00819   0.04424   0.05527  -0.00853  -0.00093
  24 9   H  1S          0.00218  -0.04644  -0.05753   0.01150   0.00269
                          21        22        23        24
  21 6   H  1S          0.84370
  22 7   H  1S          0.00789   0.80231
  23 8   H  1S         -0.01674  -0.02938   0.80091
  24 9   H  1S         -0.01120  -0.01431   0.01008   0.84710
    Full Mulliken population analysis:
                           1         2         3         4         5
   1 1   C  1S          1.20536
   2        1PX         0.00000   0.96794
   3        1PY         0.00000   0.00000   0.95137
   4        1PZ         0.00000   0.00000   0.00000   1.05978
   5 2   C  1S          0.00000   0.00000   0.00000   0.00000   1.25497
   6        1PX         0.00000   0.00000   0.00000   0.00000   0.00000
   7        1PY         0.00000   0.00000   0.00000   0.00000   0.00000
   8        1PZ         0.00000   0.00000   0.00000   0.00000   0.00000
   9 3   O  1S          0.00000   0.00000   0.00000   0.00000   0.00000
  10        1PX         0.00000   0.00000   0.00000   0.00000   0.00000
  11        1PY         0.00000   0.00000   0.00000   0.00000   0.00000
  12        1PZ         0.00000   0.00000   0.00000   0.00000   0.00000
  13 4   C  1S          0.00000   0.00000   0.00000   0.00000   0.00000
  14        1PX         0.00000   0.00000   0.00000   0.00000   0.00000
  15        1PY         0.00000   0.00000   0.00000   0.00000   0.00000
  16        1PZ         0.00000   0.00000   0.00000   0.00000   0.00000
  17 5   C  1S          0.00000   0.00000   0.00000   0.00000   0.00000
  18        1PX         0.00000   0.00000   0.00000   0.00000   0.00000
  19        1PY         0.00000   0.00000   0.00000   0.00000   0.00000
  20        1PZ         0.00000   0.00000   0.00000   0.00000   0.00000
  21 6   H  1S          0.00000   0.00000   0.00000   0.00000   0.00000
  22 7   H  1S          0.00000   0.00000   0.00000   0.00000   0.00000
  23 8   H  1S          0.00000   0.00000   0.00000   0.00000   0.00000
  24 9   H  1S          0.00000   0.00000   0.00000   0.00000   0.00000
                           6         7         8         9        10
   6        1PX         0.85929
   7        1PY         0.00000   0.92191
   8        1PZ         0.00000   0.00000   1.12127
   9 3   O  1S          0.00000   0.00000   0.00000   1.83062
  10        1PX         0.00000   0.00000   0.00000   0.00000   1.16229
  11        1PY         0.00000   0.00000   0.00000   0.00000   0.00000
  12        1PZ         0.00000   0.00000   0.00000   0.00000   0.00000
  13 4   C  1S          0.00000   0.00000   0.00000   0.00000   0.00000
  14        1PX         0.00000   0.00000   0.00000   0.00000   0.00000
  15        1PY         0.00000   0.00000   0.00000   0.00000   0.00000
  16        1PZ         0.00000   0.00000   0.00000   0.00000   0.00000
  17 5   C  1S          0.00000   0.00000   0.00000   0.00000   0.00000
  18        1PX         0.00000   0.00000   0.00000   0.00000   0.00000
  19        1PY         0.00000   0.00000   0.00000   0.00000   0.00000
  20        1PZ         0.00000   0.00000   0.00000   0.00000   0.00000
  21 6   H  1S          0.00000   0.00000   0.00000   0.00000   0.00000
  22 7   H  1S          0.00000   0.00000   0.00000   0.00000   0.00000
  23 8   H  1S          0.00000   0.00000   0.00000   0.00000   0.00000
  24 9   H  1S          0.00000   0.00000   0.00000   0.00000   0.00000
                          11        12        13        14        15
  11        1PY         1.38455
  12        1PZ         0.00000   1.65109
  13 4   C  1S          0.00000   0.00000   1.25200
  14        1PX         0.00000   0.00000   0.00000   0.92804
  15        1PY         0.00000   0.00000   0.00000   0.00000   0.87918
  16        1PZ         0.00000   0.00000   0.00000   0.00000   0.00000
  17 5   C  1S          0.00000   0.00000   0.00000   0.00000   0.00000
  18        1PX         0.00000   0.00000   0.00000   0.00000   0.00000
  19        1PY         0.00000   0.00000   0.00000   0.00000   0.00000
  20        1PZ         0.00000   0.00000   0.00000   0.00000   0.00000
  21 6   H  1S          0.00000   0.00000   0.00000   0.00000   0.00000
  22 7   H  1S          0.00000   0.00000   0.00000   0.00000   0.00000
  23 8   H  1S          0.00000   0.00000   0.00000   0.00000   0.00000
  24 9   H  1S          0.00000   0.00000   0.00000   0.00000   0.00000
                          16        17        18        19        20
  16        1PZ         1.05910
  17 5   C  1S          0.00000   1.20327
  18        1PX         0.00000   0.00000   0.93684
  19        1PY         0.00000   0.00000   0.00000   0.97419
  20        1PZ         0.00000   0.00000   0.00000   0.00000   1.10292
  21 6   H  1S          0.00000   0.00000   0.00000   0.00000   0.00000
  22 7   H  1S          0.00000   0.00000   0.00000   0.00000   0.00000
  23 8   H  1S          0.00000   0.00000   0.00000   0.00000   0.00000
  24 9   H  1S          0.00000   0.00000   0.00000   0.00000   0.00000
                          21        22        23        24
  21 6   H  1S          0.84370
  22 7   H  1S          0.00000   0.80231
  23 8   H  1S          0.00000   0.00000   0.80091
  24 9   H  1S          0.00000   0.00000   0.00000   0.84710
     Gross orbital populations:
                           1
   1 1   C  1S          1.20536
   2        1PX         0.96794
   3        1PY         0.95137
   4        1PZ         1.05978
   5 2   C  1S          1.25497
   6        1PX         0.85929
   7        1PY         0.92191
   8        1PZ         1.12127
   9 3   O  1S          1.83062
  10        1PX         1.16229
  11        1PY         1.38455
  12        1PZ         1.65109
  13 4   C  1S          1.25200
  14        1PX         0.92804
  15        1PY         0.87918
  16        1PZ         1.05910
  17 5   C  1S          1.20327
  18        1PX         0.93684
  19        1PY         0.97419
  20        1PZ         1.10292
  21 6   H  1S          0.84370
  22 7   H  1S          0.80231
  23 8   H  1S          0.80091
  24 9   H  1S          0.84710
          Condensed to atoms (all electrons):
               1          2          3          4          5          6
     1  C    4.184452   0.000000   0.000000   0.000000   0.000000   0.000000
     2  C    0.000000   4.157441   0.000000   0.000000   0.000000   0.000000
     3  O    0.000000   0.000000   6.028543   0.000000   0.000000   0.000000
     4  C    0.000000   0.000000   0.000000   4.118330   0.000000   0.000000
     5  C    0.000000   0.000000   0.000000   0.000000   4.217222   0.000000
     6  H    0.000000   0.000000   0.000000   0.000000   0.000000   0.843697
     7  H    0.000000   0.000000   0.000000   0.000000   0.000000   0.000000
     8  H    0.000000   0.000000   0.000000   0.000000   0.000000   0.000000
     9  H    0.000000   0.000000   0.000000   0.000000   0.000000   0.000000
               7          8          9
     1  C    0.000000   0.000000   0.000000
     2  C    0.000000   0.000000   0.000000
     3  O    0.000000   0.000000   0.000000
     4  C    0.000000   0.000000   0.000000
     5  C    0.000000   0.000000   0.000000
     6  H    0.000000   0.000000   0.000000
     7  H    0.802308   0.000000   0.000000
     8  H    0.000000   0.800907   0.000000
     9  H    0.000000   0.000000   0.847100
 Mulliken charges:
               1
     1  C   -0.184452
     2  C   -0.157441
     3  O   -0.028543
     4  C   -0.118330
     5  C   -0.217222
     6  H    0.156303
     7  H    0.197692
     8  H    0.199093
     9  H    0.152900
 Sum of Mulliken charges =   0.00000
 Mulliken charges with hydrogens summed into heavy atoms:
               1
     1  C   -0.031552
     2  C    0.041651
     3  O   -0.028543
     4  C    0.079362
     5  C   -0.060918
 Charge=              0.0000 electrons
 Dipole moment (field-independent basis, Debye):
    X=             -0.0814    Y=              0.0268    Z=              0.1024  Tot=              0.1336
 N-N= 1.042955113756D+02 E-N=-1.723935181588D+02  KE=-1.664993386475D+01
 Orbital energies and kinetic energies (alpha):
                                 1                 2
   1         O                -1.614021         -1.344521
   2         O                -1.256137         -1.068434
   3         O                -1.095484         -0.951414
   4         O                -0.830634         -0.704568
   5         O                -0.816477         -0.720167
   6         O                -0.691732         -0.608171
   7         O                -0.625157         -0.501069
   8         O                -0.567970         -0.510326
   9         O                -0.514484         -0.437648
  10         O                -0.496897         -0.410029
  11         O                -0.491901         -0.414025
  12         O                -0.401244         -0.348436
  13         O                -0.336326         -0.306158
  14         V                 0.032971         -0.186693
  15         V                 0.068890         -0.188133
  16         V                 0.091920         -0.200371
  17         V                 0.137170         -0.238503
  18         V                 0.147354         -0.201272
  19         V                 0.156356         -0.172196
  20         V                 0.183713         -0.187586
  21         V                 0.189221         -0.127991
  22         V                 0.190747         -0.164307
  23         V                 0.209092         -0.117827
  24         V                 0.232553         -0.028453
 Total kinetic energy from orbitals=-1.664993386475D+01
 Leave Link  601 at Tue Dec 15 16:14:40 2015, MaxMem=    33554432 cpu:         0.0
 (Enter /home/Applications/g09/g09/l701.exe)
 Compute integral first derivatives.
 ... and contract with generalized density number  6.
 Leave Link  701 at Tue Dec 15 16:14:40 2015, MaxMem=    33554432 cpu:         0.0
 (Enter /home/Applications/g09/g09/l702.exe)
 L702 exits ... SP integral derivatives will be done elsewhere.
 Leave Link  702 at Tue Dec 15 16:14:40 2015, MaxMem=    33554432 cpu:         0.0
 (Enter /home/Applications/g09/g09/l703.exe)
 Compute integral first derivatives, UseDBF=F ICtDFT=           0.
 Integral derivatives from FoFJK, PRISM(SPDF).
 Calling FoFJK, ICntrl=  10005127 FMM=F ISym2X=0 I1Cent= 0 IOpClX= 0 NMat=1 NMatS=1 NMatT=0.
 FoFJK:  IHMeth= 8 ICntrl=10005127 DoSepK=F KAlg= 0 I1Cent=   0 FoldK=F
 IRaf=         0 NMat=   1 IRICut=       1 DoRegI=T DoRafI=F ISym2E= 0.
 FoFCou: FMM=F IPFlag=           0 FMFlag=      100000 FMFlg1=         800
         NFxFlg=           0 DoJE=F BraDBF=F KetDBF=F FulRan=T
         wScrn=  0.000000 ICntrl=10005127 IOpCl=  0 I1Cent=           0 NGrid=           0
         NMat0=    1 NMatS0=      1 NMatT0=    0 NMatD0=    1 NMtDS0=    0 NMtDT0=    0
 Symmetry not used in FoFCou.
 Leave Link  703 at Tue Dec 15 16:14:40 2015, MaxMem=    33554432 cpu:         0.0
 (Enter /home/Applications/g09/g09/l716.exe)
 Dipole        =-6.44722402D-02 1.55328261D-01-2.40394179D-02
 ***** Axes restored to original set *****
 -------------------------------------------------------------------
 Center     Atomic                   Forces (Hartrees/Bohr)
 Number     Number              X              Y              Z
 -------------------------------------------------------------------
      1        6           0.088090415   -0.075976587    0.001615460
      2        6          -0.008399264   -0.087432173   -0.003182408
      3        8          -0.189652547   -0.045522548    0.012177288
      4        6           0.003649137    0.166018489   -0.004104321
      5        6           0.074155457    0.052748003    0.004135510
      6        1           0.016102223    0.009863337   -0.003066900
      7        1           0.012613596   -0.024075884   -0.004554063
      8        1          -0.003311122    0.004965788   -0.001570785
      9        1           0.006752106   -0.000588425   -0.001449781
 -------------------------------------------------------------------
 Cartesian Forces:  Max     0.189652547 RMS     0.059799383
 Z-matrix is all fixed cartesians, so copy forces.
 Force constants in Cartesian coordinates: 
                1             2             3             4             5 
      1  0.875410D+00
      2 -0.230010D-01  0.941918D+00
      3  0.893731D-02 -0.150002D-01  0.230373D+00
      4 -0.466104D+00 -0.101916D+00  0.252763D-04  0.873249D+00
      5 -0.769066D-01 -0.208029D+00  0.000000D+00  0.715058D-02  0.909718D+00
      6  0.708345D-03 -0.698181D-04 -0.975548D-01 -0.661333D-02  0.190923D-01
      7 -0.916274D-02  0.299792D-01  0.133522D-02 -0.277230D+00  0.169420D+00
      8 -0.605847D-02  0.198157D-01  0.252343D-03  0.216912D+00 -0.411436D+00
      9  0.128813D-03 -0.508503D-03  0.855444D-02  0.102433D-01 -0.105914D-01
     10  0.109194D-01 -0.267185D-03 -0.183773D-03  0.266407D-01  0.176828D-01
     11  0.359308D-01 -0.904982D-03  0.307536D-03 -0.201790D-01 -0.133996D-01
     12 -0.602715D-03  0.174932D-03 -0.163454D-02 -0.130692D-02 -0.101922D-02
     13 -0.187141D+00  0.262108D-02 -0.148703D-02  0.109944D-01 -0.359834D-01
     14 -0.215570D-01 -0.552800D+00  0.109825D-01 -0.300747D-03  0.914722D-03
     15 -0.181879D-02  0.679332D-02 -0.107019D+00 -0.451515D-03  0.182798D-03
     16  0.190580D-01 -0.492564D-03 -0.498361D-03  0.341034D-05 -0.134761D-04
     17 -0.244620D-01  0.576325D-03 -0.259254D-02  0.000000D+00  0.249062D-05
     18  0.503018D-03  0.457325D-03  0.271764D-01 -0.314307D-04  0.124200D-03
     19  0.000000D+00 -0.121528D-05 -0.706692D-04  0.357818D-04  0.565783D-05
     20  0.000000D+00 -0.357259D-05 -0.207748D-03  0.412993D-05  0.000000D+00
     21  0.241848D-04  0.104318D-03  0.606611D-02  0.482864D-03  0.763505D-04
     22  0.778848D-02 -0.254831D-01 -0.760019D-03 -0.161920D+00 -0.999008D-01
     23 -0.392934D-02  0.128542D-01 -0.362812D-03 -0.950161D-01 -0.299542D+00
     24 -0.130894D-03  0.502127D-03  0.246660D-01 -0.252198D-02 -0.736276D-02
     25 -0.250767D+00  0.118561D+00 -0.729796D-02 -0.566955D-02  0.185448D-01
     26  0.119985D+00 -0.213426D+00  0.662158D-02 -0.665420D-02  0.217695D-01
     27 -0.774928D-02  0.754648D-02 -0.906274D-01  0.173752D-03 -0.501702D-03
                6             7             8             9            10 
      6  0.189999D+00
      7  0.109039D-01  0.617535D+00
      8 -0.135802D-01  0.780892D-01  0.876797D+00
      9 -0.512876D-01 -0.354810D-01 -0.135739D-01  0.681137D-01
     10 -0.241865D-02 -0.366455D+00 -0.294326D+00  0.262289D-01  0.938700D+00
     11  0.185329D-02 -0.246955D+00 -0.491996D+00  0.253520D-01  0.913851D-01
     12 -0.260464D-02  0.232786D-01  0.267982D-01 -0.551976D-01 -0.254168D-01
     13  0.167540D-02 -0.911523D-02  0.689066D-02  0.263089D-03 -0.459925D+00
     14 -0.294111D-03 -0.299796D-01  0.226699D-01  0.800407D-03  0.101078D+00
     15 -0.328663D-02  0.250597D-02 -0.811078D-03  0.113859D-01 -0.378767D-02
     16 -0.774050D-03 -0.246306D-05 -0.877665D-05 -0.165013D-03 -0.542054D-02
     17  0.143058D-03 -0.772981D-05 -0.275437D-04 -0.517860D-03  0.695374D-02
     18  0.713387D-02  0.915532D-04  0.326232D-03  0.613361D-02 -0.110735D-03
     19  0.506572D-03  0.217220D-01 -0.164858D-01 -0.157994D-02 -0.144460D+00
     20  0.584684D-04  0.108918D-01 -0.827098D-02 -0.865608D-03  0.775056D-01
     21  0.683602D-02 -0.176285D-02  0.150427D-02  0.270979D-02  0.525810D-02
     22 -0.275604D-02  0.227086D-01  0.149853D-01  0.431037D-03  0.180588D-05
     23 -0.704432D-02 -0.114402D-01 -0.754499D-02 -0.338247D-03 -0.131163D-04
     24 -0.715160D-01 -0.926216D-03 -0.753188D-03  0.398307D-02  0.403184D-03
     25 -0.123215D-02  0.000000D+00  0.200778D-05 -0.691738D-04  0.000000D+00
     26 -0.158666D-03  0.237933D-05 -0.705597D-05  0.243099D-03  0.000000D+00
     27  0.222805D-01  0.548545D-04 -0.162673D-03  0.560455D-02  0.274563D-04
               11            12            13            14            15 
     11  0.949073D+00
     12 -0.211882D-01  0.192919D+00
     13  0.735099D-01  0.282225D-02  0.894398D+00
     14 -0.207813D+00 -0.786615D-03  0.524032D-01  0.939845D+00
     15  0.952684D-03 -0.996736D-01  0.188148D-01  0.464934D-02  0.235355D+00
     16 -0.178438D-01 -0.256177D-02 -0.276520D+00 -0.125579D+00 -0.162329D-01
     17  0.228802D-01  0.676998D-03 -0.126406D+00 -0.214465D+00 -0.127726D-01
     18 -0.274967D-03  0.218978D-01 -0.197225D-01 -0.152653D-01 -0.947852D-01
     19  0.841561D-01  0.399458D-02  0.742762D-02  0.244408D-01  0.103795D-02
     20 -0.257840D+00 -0.459544D-02  0.371434D-02  0.122193D-01 -0.165518D-03
     21 -0.718446D-02 -0.683009D-01 -0.250996D-03 -0.727673D-03  0.240416D-01
     22  0.000000D+00  0.255663D-04  0.000000D+00  0.138370D-05  0.794778D-04
     23 -0.207394D-05 -0.185690D-03  0.105836D-05 -0.418218D-05 -0.240218D-03
     24  0.637515D-04  0.570798D-02 -0.291223D-04  0.115078D-03  0.660994D-02
     25 -0.400257D-05 -0.232751D-03  0.198817D-01 -0.507408D-03 -0.147254D-03
     26  0.215023D-05  0.125036D-03  0.232492D-01 -0.565960D-03  0.141128D-02
     27  0.118429D-03  0.688669D-02 -0.208581D-02  0.526444D-03  0.273718D-01
               16            17            18            19            20 
     16  0.262925D+00
     17  0.143924D+00  0.191063D+00
     18  0.187922D-01  0.145250D-01  0.524781D-01
     19 -0.281891D-05 -0.884657D-05  0.104780D-03  0.115278D+00
     20 -0.828681D-05 -0.260064D-04  0.308024D-03 -0.921067D-01  0.253920D+00
     21  0.241970D-03  0.759372D-03 -0.899413D-02 -0.399328D-02  0.546782D-02
     22  0.000000D+00  0.000000D+00  0.000000D+00  0.000000D+00  0.000000D+00
     23  0.000000D+00  0.000000D+00  0.000000D+00  0.000000D+00  0.000000D+00
     24  0.000000D+00  0.000000D+00  0.000000D+00  0.000000D+00  0.000000D+00
     25 -0.404867D-04  0.748263D-05  0.373137D-03  0.000000D+00  0.000000D+00
     26  0.217499D-04 -0.401975D-05 -0.200453D-03  0.000000D+00  0.000000D+00
     27  0.119793D-02 -0.221398D-03 -0.110405D-01  0.000000D+00  0.000000D+00
               21            22            23            24            25 
     21  0.376415D-01
     22  0.000000D+00  0.131420D+00
     23  0.000000D+00  0.110402D+00  0.294224D+00
     24  0.000000D+00  0.309103D-02  0.783562D-02  0.397854D-01
     25  0.000000D+00  0.137072D-05 -0.414295D-05  0.113999D-03  0.236596D+00
     26  0.000000D+00 -0.481716D-05  0.145597D-04 -0.400629D-03 -0.136599D+00
     27  0.000000D+00 -0.111058D-03  0.335667D-03 -0.923635D-02  0.849215D-02
               26            27 
     26  0.192217D+00
     27 -0.764125D-02  0.487607D-01
 Leave Link  716 at Tue Dec 15 16:14:40 2015, MaxMem=    33554432 cpu:         0.0
 (Enter /home/Applications/g09/g09/l103.exe)

 GradGradGradGradGradGradGradGradGradGradGradGradGradGradGradGradGradGrad
 Berny optimization.
 Search for a local minimum.
 Step number   1 out of a maximum of    2
 All quantities printed in internal units (Hartrees-Bohrs-Radians)
 Second derivative matrix not updated -- first step.
 ITU=  0
     Eigenvalues ---    0.02140   0.03457   0.06908   0.07342   0.07869
     Eigenvalues ---    0.09115   0.13261   0.15830   0.16790   0.24325
     Eigenvalues ---    0.26588   0.30635   0.42049   0.43067   0.62984
     Eigenvalues ---    0.83459   1.17406   1.41716   1.46323   1.63316
     Eigenvalues ---    1.78883
 Quadratic step=5.324D-01 exceeds max=3.000D-01 adjusted using Lamda=-2.444D-01.
 Angle between NR and scaled steps=  20.24 degrees.
 Angle between quadratic step and forces=  28.32 degrees.
 Linear search not attempted -- first point.
 TrRot= -0.013401  0.000030  0.002461 -1.755611  0.000483  1.756182
 Variable       Old X    -DE/DX   Delta X   Delta X   Delta X     New X
                                 (Linear)    (Quad)   (Total)
    X1        1.77795   0.08809   0.00000   0.10233   0.08971   1.86766
    Y1       -1.28765  -0.07598   0.00000  -0.06381  -0.06270  -1.35034
    Z1       -0.01460   0.00162   0.00000   0.00132   0.00331  -0.01129
    X2       -0.71299  -0.00840   0.00000  -0.01308  -0.02527  -0.73826
    Y2       -2.04903  -0.08743   0.00000  -0.06101  -0.06139  -2.11042
    Z2       -0.01232  -0.00318   0.00000  -0.00171  -0.00032  -0.01264
    X3       -2.11916  -0.18965   0.00000  -0.18407  -0.19752  -2.31668
    Y3        0.07970  -0.04552   0.00000  -0.01070  -0.01202   0.06768
    Z3        0.06323   0.01218   0.00000   0.00837   0.01066   0.07388
    X4       -0.65629   0.00365   0.00000  -0.02921  -0.04381  -0.70010
    Y4        2.01918   0.16602   0.00000   0.09906   0.09872   2.11791
    Z4       -0.06177  -0.00410   0.00000   0.00263   0.00603  -0.05573
    X5        1.84264   0.07416   0.00000   0.08618   0.07204   1.91468
    Y5        1.25962   0.05275   0.00000   0.04370   0.04485   1.30448
    Z5       -0.05867   0.00414   0.00000   0.00810   0.01136  -0.04731
    X6        3.42642   0.01610   0.00000   0.08188   0.06702   3.49344
    Y6        2.49654   0.00986   0.00000   0.04296   0.04496   2.54150
    Z6        0.08837  -0.00307   0.00000  -0.01074  -0.00676   0.08161
    X7       -1.61457   0.01261   0.00000   0.01609   0.00044  -1.61413
    Y7        3.93917  -0.02408   0.00000   0.01315   0.01227   3.95144
    Z7       -0.00718  -0.00455   0.00000  -0.01703  -0.01284  -0.02001
    X8       -1.63966  -0.00331   0.00000  -0.01373  -0.02488  -1.66455
    Y8       -3.88396   0.00497   0.00000  -0.02560  -0.02647  -3.91044
    Z8       -0.06787  -0.00157   0.00000  -0.00781  -0.00735  -0.07522
    X9        3.33944   0.00675   0.00000   0.07417   0.06228   3.40172
    Y9       -2.61607  -0.00059   0.00000  -0.04019  -0.03823  -2.65430
    Z9        0.06229  -0.00145   0.00000  -0.00558  -0.00408   0.05821
         Item               Value     Threshold  Converged?
 Maximum Force            0.189653     0.000450     NO 
 RMS     Force            0.059799     0.000300     NO 
 Maximum Displacement     0.197519     0.001800     NO 
 RMS     Displacement     0.057189     0.001200     NO 
 Predicted change in Energy=-5.203614D-02
 GradGradGradGradGradGradGradGradGradGradGradGradGradGradGradGradGradGrad

 Leave Link  103 at Tue Dec 15 16:14:40 2015, MaxMem=    33554432 cpu:         0.0
 (Enter /home/Applications/g09/g09/l9999.exe)
 1\1\GINC-DUSTIN-DESKTOP\Force\RAM1-FC\STO-3G\C4H4O1\DUSTIN\15-Dec-2015
 \0\\#P AM1(Input,print) CIS(Singlets,NStates=15) pop(full) force\\AM1-
 Reparam Input\\0,1\C,0.940853,-0.681394,-0.007728\C,-0.3773,-1.084301,
 -0.006521\O,-1.121411,0.042173,0.033458\C,-0.347292,1.068506,-0.032685
 \C,0.975082,0.666563,-0.031045\H,1.813182,1.321113,0.046766\H,-0.85439
 4,2.084519,-0.003797\H,-0.867672,-2.055305,-0.035913\H,1.767155,-1.384
 362,0.032962\\Version=ES64L-G09RevD.01\State=1-A\HF=0.0353204\RMSD=8.3
 41e-09\RMSF=5.980e-02\Dipole=0.1451146,0.0844989,-0.0257509\PG=C01 [X(
 C4H4O1)]\\@


 THE BEST WAY TO CONVINCE A FOOL THAT HE IS WRONG 
 IS TO LET HIM HAVE HIS OWN WAY.

                                         JOSH BILLINGS
 Job cpu time:       0 days  0 hours  0 minutes  0.5 seconds.
 File lengths (MBytes):  RWF=      7 Int=      0 D2E=      0 Chk=      2 Scr=      1
 Normal termination of Gaussian 09 at Tue Dec 15 16:14:40 2015.
