 Entering Gaussian System, Link 0=g09
 Input=FuranAM1_74.com
 Output=FuranAM1_74.log
 Initial command:
 /home/Applications/g09/g09/l1.exe "/home/Applications/g09/scratch/Gau-6205.inp" -scrdir="/home/Applications/g09/scratch/"
 Entering Link 1 = /home/Applications/g09/g09/l1.exe PID=      6207.
  
 Copyright (c) 1988,1990,1992,1993,1995,1998,2003,2009,2013,
            Gaussian, Inc.  All Rights Reserved.
  
 This is part of the Gaussian(R) 09 program.  It is based on
 the Gaussian(R) 03 system (copyright 2003, Gaussian, Inc.),
 the Gaussian(R) 98 system (copyright 1998, Gaussian, Inc.),
 the Gaussian(R) 94 system (copyright 1995, Gaussian, Inc.),
 the Gaussian 92(TM) system (copyright 1992, Gaussian, Inc.),
 the Gaussian 90(TM) system (copyright 1990, Gaussian, Inc.),
 the Gaussian 88(TM) system (copyright 1988, Gaussian, Inc.),
 the Gaussian 86(TM) system (copyright 1986, Carnegie Mellon
 University), and the Gaussian 82(TM) system (copyright 1983,
 Carnegie Mellon University). Gaussian is a federally registered
 trademark of Gaussian, Inc.
  
 This software contains proprietary and confidential information,
 including trade secrets, belonging to Gaussian, Inc.
  
 This software is provided under written license and may be
 used, copied, transmitted, or stored only in accord with that
 written license.
  
 The following legend is applicable only to US Government
 contracts under FAR:
  
                    RESTRICTED RIGHTS LEGEND
  
 Use, reproduction and disclosure by the US Government is
 subject to restrictions as set forth in subparagraphs (a)
 and (c) of the Commercial Computer Software - Restricted
 Rights clause in FAR 52.227-19.
  
 Gaussian, Inc.
 340 Quinnipiac St., Bldg. 40, Wallingford CT 06492
  
  
 ---------------------------------------------------------------
 Warning -- This program may not be used in any manner that
 competes with the business of Gaussian, Inc. or will provide
 assistance to any competitor of Gaussian, Inc.  The licensee
 of this program is prohibited from giving any competitor of
 Gaussian, Inc. access to this program.  By using this program,
 the user acknowledges that Gaussian, Inc. is engaged in the
 business of creating and licensing software in the field of
 computational chemistry and represents and warrants to the
 licensee that it is not a competitor of Gaussian, Inc. and that
 it will not use this program in any manner prohibited above.
 ---------------------------------------------------------------
  

 Cite this work as:
 Gaussian 09, Revision D.01,
 M. J. Frisch, G. W. Trucks, H. B. Schlegel, G. E. Scuseria, 
 M. A. Robb, J. R. Cheeseman, G. Scalmani, V. Barone, B. Mennucci, 
 G. A. Petersson, H. Nakatsuji, M. Caricato, X. Li, H. P. Hratchian, 
 A. F. Izmaylov, J. Bloino, G. Zheng, J. L. Sonnenberg, M. Hada, 
 M. Ehara, K. Toyota, R. Fukuda, J. Hasegawa, M. Ishida, T. Nakajima, 
 Y. Honda, O. Kitao, H. Nakai, T. Vreven, J. A. Montgomery, Jr., 
 J. E. Peralta, F. Ogliaro, M. Bearpark, J. J. Heyd, E. Brothers, 
 K. N. Kudin, V. N. Staroverov, T. Keith, R. Kobayashi, J. Normand, 
 K. Raghavachari, A. Rendell, J. C. Burant, S. S. Iyengar, J. Tomasi, 
 M. Cossi, N. Rega, J. M. Millam, M. Klene, J. E. Knox, J. B. Cross, 
 V. Bakken, C. Adamo, J. Jaramillo, R. Gomperts, R. E. Stratmann, 
 O. Yazyev, A. J. Austin, R. Cammi, C. Pomelli, J. W. Ochterski, 
 R. L. Martin, K. Morokuma, V. G. Zakrzewski, G. A. Voth, 
 P. Salvador, J. J. Dannenberg, S. Dapprich, A. D. Daniels, 
 O. Farkas, J. B. Foresman, J. V. Ortiz, J. Cioslowski, 
 and D. J. Fox, Gaussian, Inc., Wallingford CT, 2013.
 
 ******************************************
 Gaussian 09:  ES64L-G09RevD.01 24-Apr-2013
                15-Dec-2015 
 ******************************************
 ------------------------------------------------------------
 #P AM1(Input,print) CIS(Singlets,NStates=15) pop(full) force
 ------------------------------------------------------------
 1/10=7,30=1,38=1/1,3;
 2/12=2,17=6,18=5,40=1/2;
 3/5=2,16=1,25=1,41=700000,71=1,135=100,136=1/1,2,8,3;
 4/35=1/1;
 5/5=2,35=1,38=5/2;
 8/6=1,10=1,108=15/1;
 9/15=2,41=15,42=1,48=1,49=10/14;
 10/5=4/2;
 6/7=3,18=1/1;
 7/12=6,13=5,29=1/1,2,3,16;
 1/10=7,30=1/3;
 99//99;
 Leave Link    1 at Tue Dec 15 16:25:41 2015, MaxMem=           0 cpu:         0.0
 (Enter /home/Applications/g09/g09/l101.exe)
 -----------------
 AM1-Reparam Input
 -----------------
 Symbolic Z-matrix:
 Charge =  0 Multiplicity = 1
 6                     0.95099  -0.70373  -0.03953 
 6                    -0.39206  -1.07117  -0.03814 
 8                    -1.17825  -0.03723  -0.00474 
 6                    -0.31222   1.09285   0.00305 
 6                     0.996     0.70052   0.04937 
 1                     1.83788   1.34498  -0.01978 
 1                    -0.87133   2.05059   0.04889 
 1                    -0.82193  -2.0309    0.00302 
 1                     1.84511  -1.3596    0.04577 
 
 NAtoms=      9 NQM=        9 NQMF=       0 NMMI=      0 NMMIF=      0
                NMic=       0 NMicF=      0.
                    Isotopes and Nuclear Properties:
 (Nuclear quadrupole moments (NQMom) in fm**2, nuclear magnetic moments (NMagM)
  in nuclear magnetons)

  Atom         1           2           3           4           5           6           7           8           9
 IAtWgt=          12          12          16          12          12           1           1           1           1
 AtmWgt=  12.0000000  12.0000000  15.9949146  12.0000000  12.0000000   1.0078250   1.0078250   1.0078250   1.0078250
 NucSpn=           0           0           0           0           0           1           1           1           1
 AtZEff=   0.0000000   0.0000000   0.0000000   0.0000000   0.0000000   0.0000000   0.0000000   0.0000000   0.0000000
 NQMom=    0.0000000   0.0000000   0.0000000   0.0000000   0.0000000   0.0000000   0.0000000   0.0000000   0.0000000
 NMagM=    0.0000000   0.0000000   0.0000000   0.0000000   0.0000000   2.7928460   2.7928460   2.7928460   2.7928460
 AtZNuc=   6.0000000   6.0000000   8.0000000   6.0000000   6.0000000   1.0000000   1.0000000   1.0000000   1.0000000
 Leave Link  101 at Tue Dec 15 16:25:41 2015, MaxMem=    33554432 cpu:         0.0
 (Enter /home/Applications/g09/g09/l103.exe)

 GradGradGradGradGradGradGradGradGradGradGradGradGradGradGradGradGradGrad
 Berny optimization.
 Initialization pass.
 Trust Radius=3.00D-01 FncErr=1.00D-07 GrdErr=1.00D-07
 Number of steps in this run=      2 maximum allowed number of steps=      2.
 GradGradGradGradGradGradGradGradGradGradGradGradGradGradGradGradGradGrad

 Leave Link  103 at Tue Dec 15 16:25:41 2015, MaxMem=    33554432 cpu:         0.0
 (Enter /home/Applications/g09/g09/l202.exe)
                          Input orientation:                          
 ---------------------------------------------------------------------
 Center     Atomic      Atomic             Coordinates (Angstroms)
 Number     Number       Type             X           Y           Z
 ---------------------------------------------------------------------
      1          6           0        0.950990   -0.703729   -0.039530
      2          6           0       -0.392062   -1.071166   -0.038143
      3          8           0       -1.178249   -0.037227   -0.004738
      4          6           0       -0.312223    1.092854    0.003046
      5          6           0        0.996000    0.700521    0.049368
      6          1           0        1.837880    1.344979   -0.019777
      7          1           0       -0.871334    2.050590    0.048894
      8          1           0       -0.821929   -2.030903    0.003024
      9          1           0        1.845109   -1.359603    0.045773
 ---------------------------------------------------------------------
                    Distance matrix (angstroms):
                    1          2          3          4          5
     1  C    0.000000
     2  C    1.392408   0.000000
     3  O    2.231388   1.299321   0.000000
     4  C    2.196641   2.165884   1.423778   0.000000
     5  C    1.407781   2.252387   2.296641   1.366572   0.000000
     6  H    2.232525   3.287968   3.317794   2.164955   1.062483
     7  H    3.303779   3.159531   2.110937   1.109939   2.304262
     8  H    2.215049   1.052414   2.025282   3.165068   3.281416
     9  H    1.112158   2.257249   3.300291   3.266566   2.228253
                    6          7          8          9
     6  H    0.000000
     7  H    2.800436   0.000000
     8  H    4.297870   4.082050   0.000000
     9  H    2.705386   4.359873   2.750557   0.000000
 Stoichiometry    C4H4O
 Framework group  C1[X(C4H4O)]
 Deg. of freedom    21
 Full point group                 C1      NOp   1
 Largest Abelian subgroup         C1      NOp   1
 Largest concise Abelian subgroup C1      NOp   1
                         Standard orientation:                         
 ---------------------------------------------------------------------
 Center     Atomic      Atomic             Coordinates (Angstroms)
 Number     Number       Type             X           Y           Z
 ---------------------------------------------------------------------
      1          6           0       -0.257164    1.151475   -0.027852
      2          6           0        0.996723    0.546250   -0.011402
      3          8           0        0.909943   -0.750057    0.005757
      4          6           0       -0.485246   -1.033249   -0.014089
      5          6           0       -1.214787    0.121354    0.032600
      6          1           0       -2.271530    0.189291   -0.054279
      7          1           0       -0.693412   -2.123085    0.015739
      8          1           0        1.950343    0.986965    0.051470
      9          1           0       -0.502104    2.232304    0.065469
 ---------------------------------------------------------------------
 Rotational constants (GHZ):      9.8309962      8.8764624      4.6677570
 Leave Link  202 at Tue Dec 15 16:25:41 2015, MaxMem=    33554432 cpu:         0.0
 (Enter /home/Applications/g09/g09/l301.exe)

 Semi-emprical parameters in input format:
 Method=8 CoreType=1 PeptideFC=0.0114510000 RIJScale=0.5291770000
 ****
 H       
 PQN=1 NValence=1 F0ss=0.4721550000 ZetaOverlap=1.1880780000 U=-0.4188110000
 Beta=-0.2268830000 CoreKO=1.0589200000 KON=0,0,0,1.0589200000 KON=1,0,1,1.0589200000
 KON=0,1,1,1.0589200000 KON=2,1,1,1.0589200000 EISol=-0.4188110042 EHeat=0.0830298228
 Alpha=1.5252600000
 GCore=0.0085280000,1.4001430000,2.2676710000
 GCore=0.0003530000,1.4001430000,3.4015070000
 GCore=-0.0012730000,0.5600570000,3.9684250000
 ****
 C       
 PQN=2,2 NValence=4 F0ss=0.4494440000 F0sp=0.4215150000 F0pp=0.3768030000 F2pp=0.1898720000
 G1sp=0.2679030000
 ZetaOverlap=1.8086650000,1.6851160000
 U=-1.9120180000,-1.4557970000
 Beta=-0.5775440000,-0.2836780000 DDN=0,1,0.8236740000 DDN=1,1,0.7268010000
 CoreKO=1.1124280000 KON=0,0,0,1.1124280000 KON=1,0,1,0.8219700000 KON=0,1,1,1.1124280000
 KON=2,1,1,0.7783930000 EISol=-4.4398989268 EHeat=0.2723305520 Alpha=1.4014060000
 DipHyp=1.6472532266
 GCore=0.0007890000,1.4001430000,3.0235620000
 GCore=0.0031890000,1.4001430000,3.4959930000
 GCore=-0.0013930000,1.4001430000,3.8739390000
 GCore=-0.0000880000,1.4001430000,5.0077740000
 ****
 O       
 PQN=2,2 NValence=6 F0ss=0.5666750000 F0sp=0.5321300000 F0pp=0.4958710000 F2pp=0.2358080000
 G1sp=0.4343770000
 ZetaOverlap=3.1080320000,2.5240390000
 U=-3.5951870000,-2.8760900000
 Beta=-1.0757550000,-1.0757550000 DDN=0,1,0.4988900000 DDN=1,1,0.4852320000
 CoreKO=0.8822960000 KON=0,0,0,0.8822960000 KON=1,0,1,0.5019540000 KON=0,1,1,0.8822960000
 KON=2,1,1,0.5515580000 EISol=-11.6164441184 EHeat=0.0949133088 Alpha=2.3576810000
 DipHyp=0.9977225968
 GCore=0.0195120000,1.4001430000,1.6023330000
 GCore=0.0056550000,1.9602000000,2.7307880000
 ****
 
 Standard basis: VSTO-6G (5D, 7F)
 Ernie: Thresh=  0.10000D-02 Tol=  0.10000D-05 Strict=F.
  NNHCO=     0 NNPyr=     0 NCTC=     0               EPep=         0.000000000
    EC=        68.622984264  ECS=         1.807324711   EG=         0.359481678
   EHC=         0.000000000  EAt=       -31.051283842  AtH=         1.516354808
 EPDDG=         0.000000000  ECC=        70.789790653 EAtT=        32.567638650
 There are    24 symmetry adapted cartesian basis functions of A   symmetry.
 There are    24 symmetry adapted basis functions of A   symmetry.
    24 basis functions,   144 primitive gaussians,    24 cartesian basis functions
    13 alpha electrons       13 beta electrons
       nuclear repulsion energy       103.3574293031 Hartrees.
 IExCor=    0 DFT=F Ex=HF Corr=None ExCW=0 ScaHFX=  1.000000
 ScaDFX=  1.000000  1.000000  1.000000  1.000000 ScalE2=  1.000000  1.000000
 IRadAn=      0 IRanWt=     -1 IRanGd=            0 ICorTp=0 IEmpDi=  4
 Integral buffers will be    131072 words long.
 Regular integral format.
 Two-electron integral symmetry is turned off.
 Leave Link  301 at Tue Dec 15 16:25:41 2015, MaxMem=    33554432 cpu:         0.0
 (Enter /home/Applications/g09/g09/l302.exe)
 Do NDO integrals.
 NPDir=0 NMtPBC=     1 NCelOv=     1 NCel=       1 NClECP=     1 NCelD=      1
         NCelK=      1 NCelE2=     1 NClLst=     1 CellRange=     0.0.
 One-electron integrals computed using PRISM.
 NBasis=    24 RedAO= F EigKep=  0.00D+00  NBF=    24
 NBsUse=    24 1.00D-04 EigRej=  0.00D+00 NBFU=    24
 Leave Link  302 at Tue Dec 15 16:25:41 2015, MaxMem=    33554432 cpu:         0.0
 (Enter /home/Applications/g09/g09/l308.exe)
 Leave Link  308 at Tue Dec 15 16:25:41 2015, MaxMem=    33554432 cpu:         0.0
 (Enter /home/Applications/g09/g09/l303.exe)
 DipDrv:  MaxL=1.
 Leave Link  303 at Tue Dec 15 16:25:41 2015, MaxMem=    33554432 cpu:         0.0
 (Enter /home/Applications/g09/g09/l401.exe)
 Simple Huckel Guess.
 JPrj=0 DoOrth=F DoCkMO=F.
 Leave Link  401 at Tue Dec 15 16:25:41 2015, MaxMem=    33554432 cpu:         0.0
 (Enter /home/Applications/g09/g09/l502.exe)
 Closed shell SCF:
 Using DIIS extrapolation, IDIIS=  1040.
 Overlap will be assumed to be unity.
 Two-electron integral symmetry not used.
 Keep J ints in memory in canonical form, NReq=888082.
 IVT=       79475 IEndB=       79475 NGot=    33554432 MDV=    33473473
 LenX=    33473473 LenY=    33472456
 Requested convergence on RMS density matrix=1.00D-08 within 128 cycles.
 Requested convergence on MAX density matrix=1.00D-06.
 Requested convergence on             energy=1.00D-06.
 No special actions if energy rises.
 FoFCou: FMM=F IPFlag=           0 FMFlag=           0 FMFlg1=           0
         NFxFlg=           0 DoJE=F BraDBF=F KetDBF=F FulRan=T
         wScrn=  0.000000 ICntrl=     600 IOpCl=  2 I1Cent=           0 NGrid=           0
         NMat0=    1 NMatS0=     54 NMatT0=    0 NMatD0=    1 NMtDS0=    0 NMtDT0=    0
 Symmetry not used in FoFCou.

 Cycle   1  Pass 1  IDiag  1:
 E= 0.341202422135893    
 DIIS: error= 7.33D-02 at cycle   1 NSaved=   1.
 NSaved= 1 IEnMin= 1 EnMin= 0.341202422135893     IErMin= 1 ErrMin= 7.33D-02
 ErrMax= 7.33D-02  0.00D+00 EMaxC= 1.00D-01 BMatC= 1.13D-01 BMatP= 1.13D-01
 IDIUse=3 WtCom= 2.67D-01 WtEn= 7.33D-01
 Coeff-Com:  0.100D+01
 Coeff-En:   0.100D+01
 Coeff:      0.100D+01
 GapD=    2.000 DampG=2.000 DampE=0.500 DampFc=1.0000 IDamp=-1.
 RMSDP=1.97D-02 MaxDP=1.64D-01              OVMax= 0.00D+00

 Cycle   2  Pass 1  IDiag  1:
 E= 0.554475479098926E-01 Delta-E=       -0.285754874226 Rises=F Damp=F
 DIIS: error= 1.71D-02 at cycle   2 NSaved=   2.
 NSaved= 2 IEnMin= 2 EnMin= 0.554475479098926E-01 IErMin= 2 ErrMin= 1.71D-02
 ErrMax= 1.71D-02  0.00D+00 EMaxC= 1.00D-01 BMatC= 9.80D-03 BMatP= 1.13D-01
 IDIUse=3 WtCom= 8.29D-01 WtEn= 1.71D-01
 Coeff-Com: -0.358D+00 0.136D+01
 Coeff-En:   0.000D+00 0.100D+01
 Coeff:     -0.297D+00 0.130D+01
 RMSDP=8.33D-03 MaxDP=5.19D-02 DE=-2.86D-01 OVMax= 0.00D+00

 Cycle   3  Pass 1  IDiag  3:
 E= 0.241876043751006E-01 Delta-E=       -0.031259943535 Rises=F Damp=F
 DIIS: error= 3.62D-03 at cycle   3 NSaved=   3.
 NSaved= 3 IEnMin= 3 EnMin= 0.241876043751006E-01 IErMin= 3 ErrMin= 3.62D-03
 ErrMax= 3.62D-03  0.00D+00 EMaxC= 1.00D-01 BMatC= 3.65D-04 BMatP= 9.80D-03
 IDIUse=3 WtCom= 9.64D-01 WtEn= 3.62D-02
 Coeff-Com:  0.128D+00-0.565D+00 0.144D+01
 Coeff-En:   0.000D+00 0.000D+00 0.100D+01
 Coeff:      0.123D+00-0.544D+00 0.142D+01
 Gap=     0.365 Goal=   None    Shift=    0.000
 RMSDP=2.46D-03 MaxDP=1.62D-02 DE=-3.13D-02 OVMax= 2.20D-02

 Cycle   4  Pass 1  IDiag  3:
 E= 0.222430284330812E-01 Delta-E=       -0.001944575942 Rises=F Damp=F
 DIIS: error= 1.01D-03 at cycle   4 NSaved=   4.
 NSaved= 4 IEnMin= 4 EnMin= 0.222430284330812E-01 IErMin= 4 ErrMin= 1.01D-03
 ErrMax= 1.01D-03  0.00D+00 EMaxC= 1.00D-01 BMatC= 2.67D-05 BMatP= 3.65D-04
 IDIUse=3 WtCom= 9.90D-01 WtEn= 1.01D-02
 Coeff-Com:  0.180D-01-0.655D-01-0.164D+00 0.121D+01
 Coeff-En:   0.000D+00 0.000D+00 0.000D+00 0.100D+01
 Coeff:      0.178D-01-0.648D-01-0.162D+00 0.121D+01
 Gap=     0.366 Goal=   None    Shift=    0.000
 RMSDP=7.85D-04 MaxDP=5.54D-03 DE=-1.94D-03 OVMax= 6.69D-03

 Cycle   5  Pass 1  IDiag  3:
 E= 0.220845316102043E-01 Delta-E=       -0.000158496823 Rises=F Damp=F
 DIIS: error= 2.11D-04 at cycle   5 NSaved=   5.
 NSaved= 5 IEnMin= 5 EnMin= 0.220845316102043E-01 IErMin= 5 ErrMin= 2.11D-04
 ErrMax= 2.11D-04  0.00D+00 EMaxC= 1.00D-01 BMatC= 1.57D-06 BMatP= 2.67D-05
 IDIUse=3 WtCom= 9.98D-01 WtEn= 2.11D-03
 Coeff-Com: -0.814D-02 0.326D-01 0.247D-01-0.482D+00 0.143D+01
 Coeff-En:   0.000D+00 0.000D+00 0.000D+00 0.000D+00 0.100D+01
 Coeff:     -0.812D-02 0.325D-01 0.247D-01-0.481D+00 0.143D+01
 Gap=     0.366 Goal=   None    Shift=    0.000
 RMSDP=2.24D-04 MaxDP=1.52D-03 DE=-1.58D-04 OVMax= 1.95D-03

 Cycle   6  Pass 1  IDiag  3:
 E= 0.220730445827400E-01 Delta-E=       -0.000011487027 Rises=F Damp=F
 DIIS: error= 8.52D-05 at cycle   6 NSaved=   6.
 NSaved= 6 IEnMin= 6 EnMin= 0.220730445827400E-01 IErMin= 6 ErrMin= 8.52D-05
 ErrMax= 8.52D-05  0.00D+00 EMaxC= 1.00D-01 BMatC= 1.66D-07 BMatP= 1.57D-06
 IDIUse=1 WtCom= 1.00D+00 WtEn= 0.00D+00
 Coeff-Com:  0.298D-02-0.115D-01 0.189D-02 0.140D+00-0.663D+00 0.153D+01
 Coeff:      0.298D-02-0.115D-01 0.189D-02 0.140D+00-0.663D+00 0.153D+01
 Gap=     0.366 Goal=   None    Shift=    0.000
 RMSDP=9.08D-05 MaxDP=6.85D-04 DE=-1.15D-05 OVMax= 9.52D-04

 Cycle   7  Pass 1  IDiag  3:
 E= 0.220714871984171E-01 Delta-E=       -0.000001557384 Rises=F Damp=F
 DIIS: error= 3.38D-05 at cycle   7 NSaved=   7.
 NSaved= 7 IEnMin= 7 EnMin= 0.220714871984171E-01 IErMin= 7 ErrMin= 3.38D-05
 ErrMax= 3.38D-05  0.00D+00 EMaxC= 1.00D-01 BMatC= 1.83D-08 BMatP= 1.66D-07
 IDIUse=1 WtCom= 1.00D+00 WtEn= 0.00D+00
 Coeff-Com: -0.430D-03 0.106D-02 0.865D-03-0.280D-01 0.175D+00-0.752D+00
 Coeff-Com:  0.160D+01
 Coeff:     -0.430D-03 0.106D-02 0.865D-03-0.280D-01 0.175D+00-0.752D+00
 Coeff:      0.160D+01
 Gap=     0.366 Goal=   None    Shift=    0.000
 RMSDP=3.86D-05 MaxDP=3.21D-04 DE=-1.56D-06 OVMax= 3.64D-04

 Cycle   8  Pass 1  IDiag  3:
 E= 0.220712952777120E-01 Delta-E=       -0.000000191921 Rises=F Damp=F
 DIIS: error= 6.73D-06 at cycle   8 NSaved=   8.
 NSaved= 8 IEnMin= 8 EnMin= 0.220712952777120E-01 IErMin= 8 ErrMin= 6.73D-06
 ErrMax= 6.73D-06  0.00D+00 EMaxC= 1.00D-01 BMatC= 7.95D-10 BMatP= 1.83D-08
 IDIUse=1 WtCom= 1.00D+00 WtEn= 0.00D+00
 Coeff-Com:  0.488D-04 0.187D-03-0.133D-02 0.986D-02-0.577D-01 0.297D+00
 Coeff-Com: -0.808D+00 0.156D+01
 Coeff:      0.488D-04 0.187D-03-0.133D-02 0.986D-02-0.577D-01 0.297D+00
 Coeff:     -0.808D+00 0.156D+01
 Gap=     0.366 Goal=   None    Shift=    0.000
 RMSDP=7.27D-06 MaxDP=6.28D-05 DE=-1.92D-07 OVMax= 7.28D-05

 Cycle   9  Pass 1  IDiag  3:
 E= 0.220712883889007E-01 Delta-E=       -0.000000006889 Rises=F Damp=F
 DIIS: error= 8.75D-07 at cycle   9 NSaved=   9.
 NSaved= 9 IEnMin= 9 EnMin= 0.220712883889007E-01 IErMin= 9 ErrMin= 8.75D-07
 ErrMax= 8.75D-07  0.00D+00 EMaxC= 1.00D-01 BMatC= 3.14D-11 BMatP= 7.95D-10
 IDIUse=1 WtCom= 1.00D+00 WtEn= 0.00D+00
 Coeff-Com:  0.340D-04-0.292D-03 0.589D-03-0.186D-02 0.136D-01-0.944D-01
 Coeff-Com:  0.295D+00-0.703D+00 0.149D+01
 Coeff:      0.340D-04-0.292D-03 0.589D-03-0.186D-02 0.136D-01-0.944D-01
 Coeff:      0.295D+00-0.703D+00 0.149D+01
 Gap=     0.366 Goal=   None    Shift=    0.000
 RMSDP=1.00D-06 MaxDP=7.34D-06 DE=-6.89D-09 OVMax= 1.10D-05

 Cycle  10  Pass 1  IDiag  3:
 E= 0.220712882015874E-01 Delta-E=       -0.000000000187 Rises=F Damp=F
 DIIS: error= 1.47D-07 at cycle  10 NSaved=  10.
 NSaved=10 IEnMin=10 EnMin= 0.220712882015874E-01 IErMin=10 ErrMin= 1.47D-07
 ErrMax= 1.47D-07  0.00D+00 EMaxC= 1.00D-01 BMatC= 1.03D-12 BMatP= 3.14D-11
 IDIUse=1 WtCom= 1.00D+00 WtEn= 0.00D+00
 Coeff-Com: -0.153D-04 0.116D-03-0.226D-03 0.601D-03-0.410D-02 0.302D-01
 Coeff-Com: -0.970D-01 0.238D+00-0.606D+00 0.144D+01
 Coeff:     -0.153D-04 0.116D-03-0.226D-03 0.601D-03-0.410D-02 0.302D-01
 Coeff:     -0.970D-01 0.238D+00-0.606D+00 0.144D+01
 Gap=     0.366 Goal=   None    Shift=    0.000
 RMSDP=1.67D-07 MaxDP=1.05D-06 DE=-1.87D-10 OVMax= 1.61D-06

 Cycle  11  Pass 1  IDiag  3:
 E= 0.220712881957041E-01 Delta-E=       -0.000000000006 Rises=F Damp=F
 DIIS: error= 2.81D-08 at cycle  11 NSaved=  11.
 NSaved=11 IEnMin=11 EnMin= 0.220712881957041E-01 IErMin=11 ErrMin= 2.81D-08
 ErrMax= 2.81D-08  0.00D+00 EMaxC= 1.00D-01 BMatC= 4.05D-14 BMatP= 1.03D-12
 IDIUse=1 WtCom= 1.00D+00 WtEn= 0.00D+00
 Coeff-Com:  0.397D-05-0.324D-04 0.646D-04-0.193D-03 0.123D-02-0.887D-02
 Coeff-Com:  0.282D-01-0.676D-01 0.176D+00-0.526D+00 0.140D+01
 Coeff:      0.397D-05-0.324D-04 0.646D-04-0.193D-03 0.123D-02-0.887D-02
 Coeff:      0.282D-01-0.676D-01 0.176D+00-0.526D+00 0.140D+01
 Gap=     0.366 Goal=   None    Shift=    0.000
 RMSDP=3.11D-08 MaxDP=1.62D-07 DE=-5.88D-12 OVMax= 2.31D-07

 Cycle  12  Pass 1  IDiag  3:
 E= 0.220712881955194E-01 Delta-E=        0.000000000000 Rises=F Damp=F
 DIIS: error= 4.61D-09 at cycle  12 NSaved=  12.
 NSaved=12 IEnMin=12 EnMin= 0.220712881955194E-01 IErMin=12 ErrMin= 4.61D-09
 ErrMax= 4.61D-09  0.00D+00 EMaxC= 1.00D-01 BMatC= 2.40D-15 BMatP= 4.05D-14
 IDIUse=1 WtCom= 1.00D+00 WtEn= 0.00D+00
 Coeff-Com: -0.503D-06 0.481D-05-0.103D-04 0.378D-04-0.210D-03 0.145D-02
 Coeff-Com: -0.446D-02 0.102D-01-0.257D-01 0.894D-01-0.434D+00 0.136D+01
 Coeff:     -0.503D-06 0.481D-05-0.103D-04 0.378D-04-0.210D-03 0.145D-02
 Coeff:     -0.446D-02 0.102D-01-0.257D-01 0.894D-01-0.434D+00 0.136D+01
 Gap=     0.366 Goal=   None    Shift=    0.000
 RMSDP=7.95D-09 MaxDP=4.36D-08 DE=-1.85D-13 OVMax= 4.05D-08

 Cycle  13  Pass 2  IDiag  1:
 SCF Done:  E(RAM1) =  0.220712881955E-01 A.U. after   13 cycles
            NFock= 12  Conv=0.79D-08     -V/T= 1.0013
 KE=-1.654448296039D+01 PE=-1.708495690874D+02 EE= 8.405869403289D+01
 Leave Link  502 at Tue Dec 15 16:25:41 2015, MaxMem=    33554432 cpu:         0.0
 (Enter /home/Applications/g09/g09/l801.exe)
 Range of M.O.s used for correlation:     1    24
 NBasis=    24 NAE=    13 NBE=    13 NFC=     0 NFV=     0
 NROrb=     24 NOA=    13 NOB=    13 NVA=    11 NVB=    11
 Leave Link  801 at Tue Dec 15 16:25:41 2015, MaxMem=    33554432 cpu:         0.0
 (Enter /home/Applications/g09/g09/l914.exe)
 RHF ground state
 MDV=    33554432 DFT=F DoStab=F Mixed=F DoRPA=F DoScal=F NonHer=F
 Making orbital integer symmetry assigments:
 Orbital symmetries:
       Occupied  (A) (A) (A) (A) (A) (A) (A) (A) (A) (A) (A) (A)
                 (A)
       Virtual   (A) (A) (A) (A) (A) (A) (A) (A) (A) (A) (A)
    60 initial guesses have been made.
 Convergence on wavefunction:    0.000001000000000
 Davidson Disk Diagonalization:  ConvIn= 1.00D-06 SkipCon=T Conv= 1.00D-06.
 Max sub-space:   240 roots to seek:    60 dimension of matrix:          286
 Iteration     1 Dimension    60 NMult     0 NNew     60
 CISAX will form    60 AO SS matrices at one time.
 NMat=    60 NSing=    60 JSym2X= 0.
 FoFJK:  IHMeth= 8 ICntrl=       0 DoSepK=F KAlg= 0 I1Cent=   0 FoldK=F
 IRaf=         1 NMat= 120 IRICut=       1 DoRegI=T DoRafI=F ISym2E= 0.
 FoFCou: FMM=F IPFlag=           0 FMFlag=      100000 FMFlg1=           0
         NFxFlg=           0 DoJE=F BraDBF=F KetDBF=F FulRan=T
         wScrn=  0.000000 ICntrl=       0 IOpCl=  0 I1Cent=           0 NGrid=           0
         NMat0=  120 NMatS0=     60 NMatT0=    0 NMatD0=  120 NMtDS0=    0 NMtDT0=    0
 Symmetry not used in FoFCou.
 New state      2 was old state      4
 New state      3 was old state      2
 New state      4 was old state      7
 New state      5 was old state      6
 New state      6 was old state      9
 New state      7 was old state      3
 New state      9 was old state      5
 New state     10 was old state     14
 New state     11 was old state     13
 New state     12 was old state     11
 New state     13 was old state     15
 New state     14 was old state     17
 New state     15 was old state     12
 Excitation Energies [eV] at current iteration:
 Root      1 :     4.293178609276532
 Root      2 :     4.659191989777567
 Root      3 :     4.919268443945119
 Root      4 :     5.732675477946601
 Root      5 :     6.077753440946071
 Root      6 :     6.239811815591563
 Root      7 :     6.363800203291040
 Root      8 :     6.423159850057298
 Root      9 :     6.576885422962476
 Root     10 :     7.034556993063733
 Root     11 :     7.155204792247975
 Root     12 :     7.340078910217128
 Root     13 :     7.404581562364970
 Root     14 :     7.519927666293131
 Root     15 :     7.706846745291319
 Root     16 :     7.794924353141373
 Root     17 :     7.897840372028746
 Root     18 :     8.000513181582061
 Root     19 :     8.151139030888217
 Root     20 :     8.333295506176148
 Root     21 :     8.544519851320931
 Root     22 :     8.636383637235241
 Root     23 :     8.846017976854673
 Root     24 :     9.189278870929247
 Root     25 :     9.240832952377568
 Root     26 :     9.418643307171051
 Root     27 :     9.544932778379613
 Root     28 :     9.571598026463787
 Root     29 :     9.675173044255624
 Root     30 :     9.824035404932815
 Root     31 :     9.906441556583317
 Root     32 :    10.113187914586730
 Root     33 :    10.134813480202170
 Root     34 :    10.164635667802360
 Root     35 :    10.295531872907700
 Root     36 :    10.414231757969700
 Root     37 :    10.605188747289890
 Root     38 :    10.780436748867680
 Root     39 :    10.839996044100000
 Root     40 :    10.958628804027900
 Root     41 :    11.094537707217040
 Root     42 :    11.114034433576090
 Root     43 :    11.222641985652890
 Root     44 :    11.336801478993830
 Root     45 :    11.397487303697230
 Root     46 :    11.532367805162560
 Root     47 :    11.769044492704470
 Root     48 :    11.872527130778010
 Root     49 :    11.989589075455870
 Root     50 :    12.030335085299230
 Root     51 :    12.274710559909480
 Root     52 :    12.504045943403910
 Root     53 :    12.753790996887990
 Root     54 :    12.901775187230490
 Root     55 :    12.936681989072160
 Root     56 :    13.247956181518880
 Root     57 :    13.395713551816100
 Root     58 :    13.512665891750250
 Root     59 :    13.672851820439450
 Root     60 :    13.776136636209650
 Iteration     2 Dimension   120 NMult    60 NNew     60
 CISAX will form    60 AO SS matrices at one time.
 NMat=    60 NSing=    60 JSym2X= 0.
 Root      1 not converged, maximum delta is    0.032952146907483
 Root      2 not converged, maximum delta is    0.031351474945653
 Root      3 not converged, maximum delta is    0.010524730619919
 Root      4 not converged, maximum delta is    0.035976351621924
 Root      5 not converged, maximum delta is    0.040394681737107
 Root      6 not converged, maximum delta is    0.108337910783815
 Root      7 not converged, maximum delta is    0.158738484069606
 Root      8 not converged, maximum delta is    0.122834435313511
 Root      9 not converged, maximum delta is    0.036855049638152
 Root     10 not converged, maximum delta is    0.039851249469620
 Root     11 not converged, maximum delta is    0.053306873082992
 Root     12 not converged, maximum delta is    0.056081364117126
 Root     13 not converged, maximum delta is    0.062086584561823
 Root     14 not converged, maximum delta is    0.074082264802118
 Root     15 not converged, maximum delta is    0.044014186228985
 Excitation Energies [eV] at current iteration:
 Root      1 :     4.200622421644639   Change is   -0.092556187631893
 Root      2 :     4.625108512345208   Change is   -0.034083477432359
 Root      3 :     4.905422566423707   Change is   -0.013845877521412
 Root      4 :     5.641174442814603   Change is   -0.091501035131998
 Root      5 :     5.970206743296369   Change is   -0.107546697649702
 Root      6 :     6.175415183437748   Change is   -0.064396632153815
 Root      7 :     6.226802674371207   Change is   -0.136997528919833
 Root      8 :     6.360973102694696   Change is   -0.062186747362601
 Root      9 :     6.521451367148933   Change is   -0.055434055813543
 Root     10 :     6.965915575839810   Change is   -0.068641417223922
 Root     11 :     7.046618903929075   Change is   -0.108585888318900
 Root     12 :     7.250222284630781   Change is   -0.089856625586347
 Root     13 :     7.308795841344383   Change is   -0.095785721020587
 Root     14 :     7.443719784760073   Change is   -0.076207881533058
 Root     15 :     7.651924213764302   Change is   -0.054922531527016
 Root     16 :     7.709143724369463   Change is   -0.085780628771910
 Root     17 :     7.826953327301307   Change is   -0.070887044727438
 Root     18 :     7.858255337932791   Change is   -0.142257843649270
 Root     19 :     8.053944991749681   Change is   -0.097194039138536
 Root     20 :     8.209250489733567   Change is   -0.124045016442581
 Root     21 :     8.486248693086866   Change is   -0.058271158234066
 Root     22 :     8.521937501620751   Change is   -0.324080475233922
 Root     23 :     8.597961295084339   Change is   -0.038422342150902
 Root     24 :     8.916995244588957   Change is   -0.272283626340290
 Root     25 :     9.106630797312915   Change is   -0.134202155064653
 Root     26 :     9.156390657093592   Change is   -0.388542121286022
 Root     27 :     9.291978232972614   Change is   -0.614463323610704
 Root     28 :     9.374848555855943   Change is   -0.043794751315108
 Root     29 :     9.452773690939797   Change is   -0.118824335523990
 Root     30 :     9.622882688439068   Change is   -0.052290355816556
 Root     31 :     9.664519758385948   Change is   -0.448668156200783
 Root     32 :     9.673575645556275   Change is   -0.621956227351420
 Root     33 :     9.704267753997495   Change is   -0.119767650935320
 Root     34 :     9.754717300221959   Change is   -0.380096179980214
 Root     35 :     9.844429586975624   Change is   -0.569802170994080
 Root     36 :    10.027495583792900   Change is   -0.137140084009461
 Root     37 :    10.106676896184010   Change is   -0.673759852683677
 Root     38 :    10.207094456272290   Change is   -0.398094291017597
 Root     39 :    10.340503469023660   Change is   -0.499492575076339
 Root     40 :    10.642050473480660   Change is   -0.471983960095428
 Root     41 :    10.754238376948480   Change is   -0.582563102045354
 Root     42 :    10.787571681548780   Change is   -0.306966025668266
 Root     43 :    10.850614131844780   Change is   -0.372027853808108
 Root     44 :    10.921044136700480   Change is   -0.037584667327417
 Root     45 :    11.022992451601520   Change is   -0.374494852095716
 Root     46 :    11.243147854717290   Change is   -0.289219950445271
 Root     47 :    11.398072046520530   Change is   -0.370972446183940
 Root     48 :    11.634636306457570   Change is   -0.237890824320433
 Root     49 :    11.670566839498880   Change is   -0.319022235956987
 Root     50 :    11.808804460230690   Change is   -0.221530625068541
 Root     51 :    11.899718565004230   Change is   -0.604327378399678
 Root     52 :    12.113603088591330   Change is   -0.161107471318154
 Root     53 :    12.405507816114650   Change is   -0.348283180773341
 Root     54 :    12.526882417525240   Change is   -0.409799571546926
 Root     55 :    12.723088901447710   Change is   -0.524867280071170
 Root     56 :    12.816751221264480   Change is   -0.578962330551614
 Root     57 :    12.842609317917780   Change is   -0.059165869312715
 Root     58 :    13.026978769156180   Change is   -0.485687122594068
 Root     59 :    13.199986252121150   Change is   -0.472865568318307
 Root     60 :    13.281878525717720   Change is   -0.494258110491932
 Iteration     3 Dimension   135 NMult   120 NNew     15
 CISAX will form    15 AO SS matrices at one time.
 NMat=    15 NSing=    15 JSym2X= 0.
 Root      1 not converged, maximum delta is    0.001208357682775
 Root      2 not converged, maximum delta is    0.000117163900986
 Root      3 not converged, maximum delta is    0.000303996018265
 Root      4 not converged, maximum delta is    0.000162425873338
 Root      5 not converged, maximum delta is    0.000154437643380
 Root      6 not converged, maximum delta is    0.002027178906616
 Root      7 not converged, maximum delta is    0.002202931835370
 Root      8 not converged, maximum delta is    0.000511952817812
 Root      9 not converged, maximum delta is    0.002596782384735
 Root     10 not converged, maximum delta is    0.000345366917008
 Root     11 not converged, maximum delta is    0.000156578671453
 Root     12 not converged, maximum delta is    0.000241008777854
 Root     13 not converged, maximum delta is    0.000287793929176
 Root     14 not converged, maximum delta is    0.000210456790448
 Root     15 not converged, maximum delta is    0.000347930368235
 Excitation Energies [eV] at current iteration:
 Root      1 :     4.200271120003143   Change is   -0.000351301641496
 Root      2 :     4.625105224951561   Change is   -0.000003287393647
 Root      3 :     4.905392078409230   Change is   -0.000030488014477
 Root      4 :     5.641168330993485   Change is   -0.000006111821118
 Root      5 :     5.970200180124172   Change is   -0.000006563172197
 Root      6 :     6.175351555228595   Change is   -0.000063628209153
 Root      7 :     6.226192710934116   Change is   -0.000609963437090
 Root      8 :     6.360938918168832   Change is   -0.000034184525864
 Root      9 :     6.520890507348796   Change is   -0.000560859800138
 Root     10 :     6.965879030508581   Change is   -0.000036545331229
 Root     11 :     7.046616015743296   Change is   -0.000002888185780
 Root     12 :     7.250210205263622   Change is   -0.000012079367159
 Root     13 :     7.308770669301646   Change is   -0.000025172042737
 Root     14 :     7.443703342810666   Change is   -0.000016441949407
 Root     15 :     7.651899291071564   Change is   -0.000024922692739
 Iteration     4 Dimension   143 NMult   135 NNew      8
 CISAX will form     8 AO SS matrices at one time.
 NMat=     8 NSing=     8 JSym2X= 0.
 Root      1 not converged, maximum delta is    0.000048101297471
 Root      2 not converged, maximum delta is    0.000003603642747
 Root      3 not converged, maximum delta is    0.000008818341039
 Root      4 not converged, maximum delta is    0.000004626746729
 Root      5 not converged, maximum delta is    0.000005706513706
 Root      6 not converged, maximum delta is    0.000028099956281
 Root      7 not converged, maximum delta is    0.000092559047163
 Root      8 not converged, maximum delta is    0.000024585031399
 Root      9 not converged, maximum delta is    0.000118472307659
 Root     10 not converged, maximum delta is    0.000012114173510
 Root     11 not converged, maximum delta is    0.000006416779960
 Root     12 not converged, maximum delta is    0.000008866093633
 Root     13 not converged, maximum delta is    0.000015072844380
 Root     14 not converged, maximum delta is    0.000005802222591
 Root     15 not converged, maximum delta is    0.000016524902024
 Excitation Energies [eV] at current iteration:
 Root      1 :     4.200270347806397   Change is   -0.000000772196747
 Root      2 :     4.625105219935019   Change is   -0.000000005016542
 Root      3 :     4.905392043583350   Change is   -0.000000034825879
 Root      4 :     5.641168324229175   Change is   -0.000000006764310
 Root      5 :     5.970200167193906   Change is   -0.000000012930266
 Root      6 :     6.175351297279700   Change is   -0.000000257948895
 Root      7 :     6.226190055743378   Change is   -0.000002655190739
 Root      8 :     6.360938786830282   Change is   -0.000000131338550
 Root      9 :     6.520888040014081   Change is   -0.000002467334715
 Root     10 :     6.965878952830188   Change is   -0.000000077678393
 Root     11 :     7.046615998119615   Change is   -0.000000017623681
 Root     12 :     7.250210183341931   Change is   -0.000000021921691
 Root     13 :     7.308770624472349   Change is   -0.000000044829296
 Root     14 :     7.443703329950766   Change is   -0.000000012859900
 Root     15 :     7.651899226759022   Change is   -0.000000064312543
 Convergence achieved on expansion vectors.
 ***********************************************************************
 Excited states from <AA,BB:AA,BB> singles matrix:
 ***********************************************************************
 
 1PDM for each excited state written to RWF  633
 Ground to excited state transition densities written to RWF  633
 Ground to excited state transition electric dipole moments (Au):
       state          X           Y           Z        Dip. S.      Osc.
         1         0.7438      0.5982      0.0804      0.9176      0.0944
         2         0.0406      0.0765     -0.0394      0.0091      0.0010
         3        -0.2944      0.3108     -0.0056      0.1833      0.0220
         4         0.0212     -0.0266     -0.0520      0.0039      0.0005
         5        -0.0173      0.0530      0.1419      0.0232      0.0034
         6         0.2159     -0.3877     -0.0372      0.1983      0.0300
         7        -0.9338      1.1557      0.0271      2.2084      0.3369
         8        -0.0743     -0.1692     -0.0242      0.0347      0.0054
         9        -0.7014     -0.5274      0.1141      0.7831      0.1251
        10         0.1286     -0.1209      0.0838      0.0382      0.0065
        11        -0.0289      0.0182      0.0290      0.0020      0.0003
        12         0.0037      0.0198      0.0964      0.0097      0.0017
        13        -0.0139      0.0394     -0.0183      0.0021      0.0004
        14         0.0052     -0.0309      0.2062      0.0435      0.0079
        15         0.0246     -0.0035      0.0312      0.0016      0.0003
 Ground to excited state transition velocity dipole moments (Au):
       state          X           Y           Z        Dip. S.      Osc.
         1        -0.0376     -0.0157     -0.0203      0.0021      0.0089
         2        -0.0040     -0.0039      0.0227      0.0005      0.0021
         3         0.0138     -0.0357      0.0038      0.0015      0.0055
         4        -0.0111      0.0098      0.0354      0.0015      0.0047
         5         0.0003     -0.0045     -0.0606      0.0037      0.0112
         6        -0.0568      0.0703      0.0669      0.0127      0.0372
         7         0.2118     -0.2254      0.0267      0.0964      0.2809
         8         0.0157      0.0345      0.1656      0.0289      0.0823
         9         0.1301      0.0920     -0.0656      0.0297      0.0826
        10        -0.0307      0.0315      0.0064      0.0020      0.0051
        11         0.0046      0.0019      0.0024      0.0000      0.0001
        12         0.0040     -0.0046      0.0371      0.0014      0.0035
        13         0.0057     -0.0133      0.0139      0.0004      0.0010
        14        -0.0074      0.0096     -0.0418      0.0019      0.0046
        15        -0.0121      0.0054      0.0359      0.0015      0.0035
 Ground to excited state transition magnetic dipole moments (Au):
       state          X           Y           Z
         1         0.0123     -0.0936      0.6202
         2        -0.3909      0.4728      0.0399
         3        -0.0006      0.0080     -0.0427
         4        -0.0676     -0.3468     -0.0297
         5         0.1795      0.0909      0.0008
         6        -0.1898      0.1024     -0.0121
         7         0.0277      0.0975      0.0639
         8         0.2112     -0.0410     -0.0115
         9        -0.0372     -0.0670     -0.0847
        10         0.3921      1.3436      0.0510
        11        -0.8808      0.2311     -0.0106
        12         1.1092      0.5307      0.0247
        13        -0.3818      0.0520     -0.0468
        14        -0.1714     -0.2855      0.0256
        15         0.0144      0.2304      0.0254
 Ground to excited state transition velocity quadrupole moments (Au):
       state          XX          YY          ZZ          XY          XZ          YZ
         1        -0.4283      0.3746      0.0266     -0.0522     -0.0058     -0.0047
         2        -0.0440      0.0520     -0.0009      0.0017      0.1098      0.1141
         3         0.1748     -0.1915      0.0619      0.1542     -0.0067      0.0018
         4         0.0003     -0.0189      0.0119     -0.0030      0.2116     -0.1083
         5         0.0184     -0.0169      0.0211      0.0149     -0.0413      0.2124
         6        -0.0319     -0.0251      0.0202     -0.0868      0.0694     -0.0227
         7        -0.0231      0.1870     -0.0423      0.3311      0.0851      0.0103
         8        -0.1607      0.1231      0.0078     -0.0078      0.0404      0.0076
         9        -0.5657      0.5625      0.0122      0.0170      0.0010     -0.0048
        10        -0.0652      0.0306      0.0112     -0.0502      0.0751     -0.0009
        11         0.0105      0.0276     -0.0133     -0.0190     -0.0949     -0.2475
        12         0.0110     -0.0022      0.0181      0.0052     -0.1268     -0.1070
        13         0.0583     -0.0452      0.0370      0.0342     -0.2866      0.1675
        14        -0.0371      0.0404      0.0432     -0.0338      0.1089     -0.2806
        15        -0.0066     -0.0428     -0.0240     -0.0001      0.0624      0.1550
 <0|del|b> * <b|rxdel|0> + <0|del|b> * <b|delr+rdel|0>
 Rotatory Strengths (R) in cgs (10**-40 erg-esu-cm/Gauss)
       state          XX          YY          ZZ    R(velocity)    E-M Angle
         1       -23.2791    -31.9485      2.1166    -17.7037      113.97
         2        -0.9610      4.1094     -0.4741      0.8914       87.43
         3        -0.2024     -1.4261     -0.1566     -0.5950      105.82
         4       -11.3073      1.7182     -3.0309     -4.2066      105.78
         5        -2.4823      1.5432     -0.3715     -0.4369       91.90
         6        -6.7024     26.6021     33.6216     17.8404       45.02
         7        11.9747      1.4116    -57.8735    -14.8291      112.77
         8        -9.0801      4.2473      4.8074     -0.0085       90.00
         9        -2.6735      1.7784    -15.1679     -5.3543      106.05
        10        55.2329    -15.6906     45.1132     28.2185       60.51
        11         0.7327     -7.0992     -3.6527     -3.3397      136.56
        12        -2.5707      6.2640      3.9552      2.5495       86.42
        13        -6.1639     -3.1054     -0.0476     -3.1056      116.98
        14        -4.4560      1.1009     -3.2363     -2.1972      100.11
        15         2.2812     -1.4324      4.1260      1.6583       77.15
 1/2[<0|r|b>*<b|rxdel|0> + (<0|rxdel|b>*<b|r|0>)*]
 Rotatory Strengths (R) in cgs (10**-40 erg-esu-cm/Gauss)
       state          XX          YY          ZZ     R(length)
         1        -6.4486     39.5933    -35.2497     -0.7017
         2        11.2302    -25.5728      1.1103     -4.4108
         3        -0.1350     -1.7567     -0.1679     -0.6865
         4         1.0150     -6.5309     -1.0918     -2.2026
         5         2.1937     -3.4091     -0.0787     -0.4314
         6        28.9748     28.0758     -0.3188     18.9106
         7        18.3046    -79.6509     -1.2254    -20.8572
         8        11.0940     -4.9056     -0.1979      1.9968
         9       -18.4618    -24.9748      6.8357    -12.2003
        10       -35.6613    114.8265     -3.0226     25.3808
        11       -17.9778     -2.9784      0.2175     -6.9129
        12        -2.8806     -7.4290     -1.6847     -3.9981
        13        -3.7644     -1.4508     -0.6068     -1.9407
        14         0.6245     -6.2342     -3.7387     -3.1161
        15        -0.2511      0.5754     -0.5611     -0.0789
  1/2[<0|del|b>*<b|r|0> + (<0|r|b>*<b|del|0>)*] (Au)
       state          X           Y           Z        Dip. S.   Osc.(frdel)
         1        -0.0279     -0.0094     -0.0016      0.0390      0.0260
         2        -0.0002     -0.0003     -0.0009      0.0014      0.0009
         3        -0.0041     -0.0111      0.0000      0.0152      0.0101
         4        -0.0002     -0.0003     -0.0018      0.0023      0.0016
         5         0.0000     -0.0002     -0.0086      0.0088      0.0059
         6        -0.0123     -0.0273     -0.0025      0.0420      0.0280
         7        -0.1978     -0.2605      0.0007      0.4576      0.3051
         8        -0.0012     -0.0058     -0.0040      0.0110      0.0073
         9        -0.0913     -0.0485     -0.0075      0.1473      0.0982
        10        -0.0039     -0.0038      0.0005      0.0072      0.0048
        11        -0.0001      0.0000      0.0001      0.0000      0.0000
        12         0.0000     -0.0001      0.0036     -0.0035     -0.0023
        13        -0.0001     -0.0005     -0.0003      0.0009      0.0006
        14         0.0000     -0.0003     -0.0086      0.0089      0.0060
        15        -0.0003      0.0000      0.0011     -0.0008     -0.0005

 Excitation energies and oscillator strengths:
 
 Excited State   1:      Singlet-A      4.2003 eV  295.18 nm  f=0.0944  <S**2>=0.000
      12 -> 15         0.16749
      13 -> 14         0.67501
 This state for optimization and/or second-order correction.
 Total Energy, E(CIS) =  0.176428389964    
 Copying the excited state density for this state as the 1-particle RhoCI density.
 
 Excited State   2:      Singlet-A      4.6251 eV  268.07 nm  f=0.0010  <S**2>=0.000
      13 -> 16         0.68387
      13 -> 22        -0.10644
 
 Excited State   3:      Singlet-A      4.9054 eV  252.75 nm  f=0.0220  <S**2>=0.000
      12 -> 14        -0.35688
      13 -> 15         0.60358
 
 Excited State   4:      Singlet-A      5.6412 eV  219.78 nm  f=0.0005  <S**2>=0.000
      12 -> 18        -0.14766
      13 -> 17        -0.20457
      13 -> 18         0.51179
      13 -> 19        -0.10741
      13 -> 20        -0.12601
      13 -> 21        -0.12718
      13 -> 22         0.23902
      13 -> 23        -0.18323
 
 Excited State   5:      Singlet-A      5.9702 eV  207.67 nm  f=0.0034  <S**2>=0.000
      12 -> 16        -0.24596
      12 -> 17         0.14354
      12 -> 19        -0.12113
      12 -> 20        -0.15859
      12 -> 23         0.10183
      13 -> 17         0.35876
      13 -> 19        -0.31485
      13 -> 20        -0.23805
      13 -> 22         0.14173
      13 -> 23         0.16070
 
 Excited State   6:      Singlet-A      6.1754 eV  200.77 nm  f=0.0300  <S**2>=0.000
       7 -> 16        -0.16077
      12 -> 14        -0.17043
      12 -> 16         0.57673
      12 -> 22        -0.11129
      13 -> 17         0.15185
      13 -> 19        -0.11434
 
 Excited State   7:      Singlet-A      6.2262 eV  199.13 nm  f=0.3369  <S**2>=0.000
      12 -> 14         0.54870
      12 -> 16         0.17927
      13 -> 15         0.32073
 
 Excited State   8:      Singlet-A      6.3609 eV  194.91 nm  f=0.0054  <S**2>=0.000
      12 -> 15         0.14504
      13 -> 17         0.35171
      13 -> 18         0.30331
      13 -> 19         0.43856
      13 -> 20         0.12890
      13 -> 23         0.10699
 
 Excited State   9:      Singlet-A      6.5209 eV  190.13 nm  f=0.1251  <S**2>=0.000
      12 -> 15         0.65449
      13 -> 14        -0.15061
      13 -> 17        -0.10420
 
 Excited State  10:      Singlet-A      6.9659 eV  177.99 nm  f=0.0065  <S**2>=0.000
       9 -> 14         0.11646
      10 -> 14         0.46425
      10 -> 15        -0.25020
      11 -> 14        -0.38231
      11 -> 15         0.13414
      13 -> 22        -0.13266
 
 Excited State  11:      Singlet-A      7.0466 eV  175.95 nm  f=0.0003  <S**2>=0.000
      12 -> 17         0.15784
      12 -> 18         0.30185
      12 -> 19         0.24545
      12 -> 20         0.11270
      13 -> 17         0.16336
      13 -> 18         0.20104
      13 -> 19        -0.24171
      13 -> 20         0.17277
      13 -> 22        -0.29188
      13 -> 23        -0.16762
 
 Excited State  12:      Singlet-A      7.2502 eV  171.01 nm  f=0.0017  <S**2>=0.000
       9 -> 14         0.19431
      10 -> 14         0.18854
      10 -> 15         0.16052
      11 -> 14         0.37623
      11 -> 15         0.30781
      12 -> 17         0.18129
      12 -> 19        -0.12590
      12 -> 22         0.10040
      13 -> 20        -0.12400
      13 -> 22        -0.12203
      13 -> 24         0.15464
 
 Excited State  13:      Singlet-A      7.3088 eV  169.64 nm  f=0.0004  <S**2>=0.000
       9 -> 14        -0.17544
       9 -> 15        -0.10182
      10 -> 14        -0.19984
      11 -> 14        -0.20126
      11 -> 15        -0.12126
      12 -> 17         0.27497
      12 -> 19        -0.16193
      12 -> 22         0.15435
      13 -> 17        -0.24720
      13 -> 19         0.12159
      13 -> 20        -0.17454
      13 -> 22        -0.26528
      13 -> 24         0.15101
 
 Excited State  14:      Singlet-A      7.4437 eV  166.56 nm  f=0.0079  <S**2>=0.000
      11 -> 14        -0.13011
      12 -> 17         0.11093
      12 -> 18         0.11237
      12 -> 19         0.13964
      12 -> 20         0.14365
      12 -> 21        -0.20525
      12 -> 23         0.16244
      13 -> 17         0.10387
      13 -> 18        -0.12875
      13 -> 19         0.19313
      13 -> 20        -0.21086
      13 -> 21         0.26650
      13 -> 22         0.28124
      13 -> 23        -0.25772
 
 Excited State  15:      Singlet-A      7.6519 eV  162.03 nm  f=0.0003  <S**2>=0.000
      10 -> 15        -0.14632
      11 -> 15        -0.19661
      12 -> 17        -0.17619
      12 -> 18         0.22007
      12 -> 19        -0.24437
      12 -> 20        -0.15603
      12 -> 21         0.11189
      13 -> 21         0.28778
      13 -> 22         0.11226
      13 -> 23        -0.18142
      13 -> 24         0.28587
 SavETr:  write IOETrn=   770 NScale= 10 NData=  16 NLR=1 NState=   15 LETran=     280.
 The selected state is a singlet
 CISAX will form     1 AO SS matrices at one time.
 NMat=     1 NSing=     1 JSym2X= 0.
 Leave Link  914 at Tue Dec 15 16:25:41 2015, MaxMem=    33554432 cpu:         0.1
 (Enter /home/Applications/g09/g09/l1002.exe)
 Minotr:  Closed shell wavefunction.
          Computing CIS/TD-HF/TD-KS derivatives.
          Using Z-Vector for PSCF gradient.
          Skipping F1 and S1 gradient terms here.
          IDoAtm=111111111
          Direct CPHF calculation.
          Differentiating once with respect to electric field.
                with respect to dipole field.
          Differentiating once with respect to nuclear coordinates.
          Electric field/nuclear overlap derivatives assumed to be zero.
          Requested convergence is 1.0D-10 RMS, and 1.0D-09 maximum.
          NewPWx=T KeepS1=F KeepF1=F KeepIn=T MapXYZ=F SortEE=F KeepMc=T.
          MDV=      33495423 using IRadAn=       0.
 Keep J ints in memory in canonical form, NReq=871704.
 FoFCou: FMM=F IPFlag=           0 FMFlag=           0 FMFlg1=           0
         NFxFlg=           0 DoJE=F BraDBF=F KetDBF=F FulRan=T
         wScrn=  0.000000 ICntrl=     600 IOpCl=  2 I1Cent=           0 NGrid=           0
         NMat0=    1 NMatS0=     54 NMatT0=    0 NMatD0=    1 NMtDS0=    0 NMtDT0=    0
 Symmetry not used in FoFCou.
          Solving linear equations separately, MaxMat=       0.
          There are     1 degrees of freedom in the 1st order CPHF.  IDoFFX=0 NUNeed=     1.
 LinEq1:  Iter=  0 NonCon=     1 RMS=1.37D-02 Max=1.10D-01 NDo=     1
 AX will form     1 AO Fock derivatives at one time.
 LinEq1:  Iter=  1 NonCon=     1 RMS=3.34D-03 Max=2.74D-02 NDo=     1
 LinEq1:  Iter=  2 NonCon=     1 RMS=5.18D-04 Max=2.84D-03 NDo=     1
 LinEq1:  Iter=  3 NonCon=     1 RMS=6.70D-05 Max=3.02D-04 NDo=     1
 LinEq1:  Iter=  4 NonCon=     1 RMS=8.53D-06 Max=3.98D-05 NDo=     1
 LinEq1:  Iter=  5 NonCon=     1 RMS=1.63D-06 Max=1.19D-05 NDo=     1
 LinEq1:  Iter=  6 NonCon=     1 RMS=2.18D-07 Max=6.37D-07 NDo=     1
 LinEq1:  Iter=  7 NonCon=     1 RMS=2.51D-08 Max=9.12D-08 NDo=     1
 LinEq1:  Iter=  8 NonCon=     1 RMS=2.85D-09 Max=7.03D-09 NDo=     1
 LinEq1:  Iter=  9 NonCon=     1 RMS=3.63D-10 Max=1.16D-09 NDo=     1
 LinEq1:  Iter= 10 NonCon=     0 RMS=4.29D-11 Max=1.34D-10 NDo=     1
 Linear equations converged to 1.000D-10 1.000D-09 after    10 iterations.
 End of Minotr F.D. properties file   721 does not exist.
 End of Minotr F.D. properties file   722 does not exist.
 End of Minotr F.D. properties file   788 does not exist.
 Leave Link 1002 at Tue Dec 15 16:25:41 2015, MaxMem=    33554432 cpu:         0.0
 (Enter /home/Applications/g09/g09/l601.exe)
 Copying SCF densities to generalized density rwf, IOpCl= 0 IROHF=0.

 **********************************************************************

            Population analysis using the SCF density.

 **********************************************************************

 Orbital symmetries:
       Occupied  (A) (A) (A) (A) (A) (A) (A) (A) (A) (A) (A) (A)
                 (A)
       Virtual   (A) (A) (A) (A) (A) (A) (A) (A) (A) (A) (A)
 The electronic state is 1-A.
 Alpha  occ. eigenvalues --   -1.57084  -1.24566  -1.08302  -0.82097  -0.81852
 Alpha  occ. eigenvalues --   -0.68380  -0.60622  -0.56358  -0.52111  -0.49809
 Alpha  occ. eigenvalues --   -0.49046  -0.39841  -0.33765
 Alpha virt. eigenvalues --    0.02820   0.06339   0.09484   0.14015   0.14564
 Alpha virt. eigenvalues --    0.15346   0.18009   0.18291   0.18773   0.20761
 Alpha virt. eigenvalues --    0.22284
     Molecular Orbital Coefficients:
                           1         2         3         4         5
                           O         O         O         O         O
     Eigenvalues --    -1.57084  -1.24566  -1.08302  -0.82097  -0.81852
   1 1   C  1S          0.27422  -0.44487   0.32914  -0.29488  -0.31312
   2        1PX         0.04020   0.06456   0.18234  -0.18068   0.30139
   3        1PY        -0.12259   0.10093   0.02738  -0.11344  -0.07214
   4        1PZ         0.00473  -0.00815   0.00509  -0.00380  -0.01021
   5 2   C  1S          0.39556  -0.04370   0.52064   0.03478   0.38495
   6        1PX        -0.10448   0.14214  -0.00847   0.23051   0.11702
   7        1PY        -0.17165  -0.20252   0.06421  -0.29340   0.04516
   8        1PZ         0.00310   0.00167   0.00379   0.00710   0.00371
   9 3   O  1S          0.65288   0.55451  -0.12722   0.02630  -0.31258
  10        1PX        -0.12742   0.05923   0.21180   0.37701  -0.08766
  11        1PY         0.16092   0.02821   0.26146   0.32816   0.19882
  12        1PZ        -0.00317  -0.00149  -0.00012   0.00343  -0.00108
  13 4   C  1S          0.33110  -0.20547  -0.50032  -0.17065   0.39040
  14        1PX         0.11825   0.18272  -0.01304  -0.32165  -0.12811
  15        1PY         0.12283  -0.12740   0.00210   0.16572  -0.06135
  16        1PZ         0.00393  -0.00230  -0.00728  -0.00104   0.00517
  17 5   C  1S          0.26484  -0.51394  -0.23046   0.39363  -0.16937
  18        1PX         0.12041  -0.09597   0.01718  -0.18740   0.04995
  19        1PY        -0.01949  -0.02415   0.19637  -0.07287  -0.35714
  20        1PZ        -0.00573   0.01135   0.00436  -0.00980   0.00507
  21 6   H  1S          0.05813  -0.16421  -0.09531   0.27296  -0.11710
  22 7   H  1S          0.06862  -0.04590  -0.19357  -0.12790   0.21830
  23 8   H  1S          0.08912  -0.00446   0.22113   0.05908   0.24851
  24 9   H  1S          0.05560  -0.13328   0.12236  -0.16323  -0.20604
                           6         7         8         9        10
                           O         O         O         O         O
     Eigenvalues --    -0.68380  -0.60622  -0.56358  -0.52111  -0.49809
   1 1   C  1S         -0.08855  -0.00886  -0.18785   0.05292   0.03872
   2        1PX         0.01623  -0.00900   0.12704  -0.06186   0.51709
   3        1PY        -0.28710  -0.00019  -0.21381  -0.15622   0.05252
   4        1PZ        -0.00993   0.22223  -0.01313  -0.00322  -0.02283
   5 2   C  1S         -0.09598  -0.01246   0.12820  -0.08741  -0.01921
   6        1PX        -0.32772   0.00056   0.12314   0.13757  -0.46460
   7        1PY        -0.26922   0.00104   0.36848   0.14990   0.14095
   8        1PZ        -0.01719   0.42374   0.00168  -0.01616  -0.01701
   9 3   O  1S         -0.18254   0.00055   0.04790   0.14037   0.15520
  10        1PX        -0.32247  -0.01477  -0.26466   0.40385   0.22032
  11        1PY         0.35876   0.01217  -0.36195  -0.28554  -0.12244
  12        1PZ        -0.02350   0.78166   0.00414  -0.02787   0.03350
  13 4   C  1S         -0.11113  -0.00853  -0.16555   0.03146  -0.07434
  14        1PX         0.13537  -0.00152   0.27811  -0.24349  -0.25886
  15        1PY         0.32407   0.02060   0.28117   0.24616   0.08562
  16        1PZ        -0.00785   0.33815  -0.00081  -0.00393   0.01352
  17 5   C  1S         -0.06168   0.00596   0.17084   0.00018  -0.01080
  18        1PX         0.26433   0.03265  -0.13815   0.54036  -0.22673
  19        1PY         0.00037  -0.00667   0.01212  -0.15578  -0.36471
  20        1PZ        -0.00378   0.20574  -0.00949   0.00309  -0.00310
  21 6   H  1S         -0.19472  -0.02832   0.20053  -0.43289   0.15454
  22 7   H  1S         -0.26294  -0.01284  -0.33149  -0.12899  -0.08412
  23 8   H  1S         -0.30171   0.00797   0.27211   0.08543  -0.32632
  24 9   H  1S         -0.21421   0.00623  -0.27474  -0.07786  -0.02602
                          11        12        13        14        15
                           O         O         O         V         V
     Eigenvalues --    -0.49046  -0.39841  -0.33765   0.02820   0.06339
   1 1   C  1S         -0.01384  -0.02489   0.01663   0.02478  -0.03245
   2        1PX        -0.02806   0.02830  -0.01962  -0.01517   0.00870
   3        1PY         0.54685  -0.01293   0.01306  -0.00063  -0.02888
   4        1PZ         0.01563   0.51877  -0.48835  -0.27623   0.59913
   5 2   C  1S         -0.06691   0.00758   0.00799  -0.01974   0.02333
   6        1PX         0.19286  -0.02008   0.02937  -0.02055   0.01810
   7        1PY        -0.02944   0.00304  -0.00873  -0.00016  -0.00836
   8        1PZ        -0.00237   0.03629  -0.57721   0.57429  -0.38914
   9 3   O  1S         -0.01888  -0.00011  -0.00371   0.00372  -0.00888
  10        1PX        -0.19934   0.00684  -0.01185  -0.00506   0.01234
  11        1PY         0.12235  -0.01078   0.00640   0.00258  -0.01689
  12        1PZ        -0.03528  -0.46643   0.13136  -0.38495   0.04449
  13 4   C  1S          0.06599  -0.01791  -0.01389  -0.02205  -0.00106
  14        1PX         0.01202   0.00639   0.01105  -0.00748   0.01308
  15        1PY         0.42259  -0.01752  -0.00552  -0.00126   0.00806
  16        1PZ        -0.00113   0.30178   0.59003   0.56440   0.35447
  17 5   C  1S         -0.03293   0.03751   0.01370  -0.02246  -0.03147
  18        1PX        -0.02056  -0.00984   0.00086   0.00489   0.02927
  19        1PY        -0.35512   0.00516  -0.00086  -0.02504   0.00206
  20        1PZ         0.01013   0.64523   0.24542  -0.34998  -0.59360
  21 6   H  1S         -0.02862  -0.00221  -0.00884   0.01531   0.04180
  22 7   H  1S         -0.30575   0.00831   0.00786   0.01515   0.00527
  23 8   H  1S          0.09370  -0.01055   0.00156   0.02366  -0.02619
  24 9   H  1S          0.43243  -0.00267  -0.00393  -0.01543   0.04055
                          16        17        18        19        20
                           V         V         V         V         V
     Eigenvalues --     0.09484   0.14015   0.14564   0.15346   0.18009
   1 1   C  1S         -0.01170  -0.31421   0.21695  -0.04809  -0.42813
   2        1PX         0.08888   0.07406   0.39486  -0.03856   0.06641
   3        1PY        -0.01086   0.04098   0.12518   0.40317  -0.15048
   4        1PZ        -0.03706  -0.03914   0.01158   0.01322  -0.05035
   5 2   C  1S          0.21471   0.25354  -0.39097   0.18850  -0.04058
   6        1PX         0.13994   0.07554   0.21777   0.12491  -0.26868
   7        1PY        -0.28074   0.05433   0.04188   0.35466   0.19338
   8        1PZ         0.04352   0.02752  -0.00842   0.01098   0.00553
   9 3   O  1S         -0.22673  -0.03066   0.01501   0.06664   0.04121
  10        1PX         0.43638  -0.01209   0.14719  -0.00063   0.09648
  11        1PY        -0.22423  -0.10205   0.25046   0.15437   0.08644
  12        1PZ         0.00111  -0.00166   0.00259  -0.01084  -0.00608
  13 4   C  1S          0.33275  -0.37083  -0.03788   0.22094   0.20580
  14        1PX         0.47592   0.21626   0.22545  -0.16061  -0.16616
  15        1PY         0.03059   0.17001   0.29367   0.15179   0.19375
  16        1PZ         0.00989  -0.01992  -0.00801   0.02678   0.01007
  17 5   C  1S         -0.08457   0.31907  -0.07987   0.05640  -0.16991
  18        1PX         0.03694   0.14252   0.21970  -0.10988   0.16027
  19        1PY         0.05724  -0.05013   0.10288   0.42799   0.45650
  20        1PZ         0.02331  -0.01403   0.01362  -0.02544   0.02701
  21 6   H  1S          0.17872  -0.14949   0.30343  -0.19528   0.23836
  22 7   H  1S         -0.26372   0.51847   0.35163  -0.06678  -0.01871
  23 8   H  1S         -0.30879  -0.31883   0.12876  -0.39920   0.15519
  24 9   H  1S          0.06738   0.27596  -0.24127  -0.35867   0.45254
                          21        22        23        24
                           V         V         V         V
     Eigenvalues --     0.18291   0.18773   0.20761   0.22284
   1 1   C  1S          0.10191  -0.00909  -0.19526  -0.05616
   2        1PX        -0.40719   0.34620  -0.00969  -0.29422
   3        1PY        -0.08050  -0.19992   0.49615  -0.07191
   4        1PZ        -0.00103  -0.02565  -0.00203   0.00705
   5 2   C  1S          0.23499  -0.09697   0.09420  -0.08887
   6        1PX         0.11249   0.46014  -0.30337  -0.16880
   7        1PY         0.14518   0.15976  -0.08309   0.53428
   8        1PZ         0.00923   0.02344  -0.01042  -0.01226
   9 3   O  1S          0.03826   0.09270  -0.01745   0.05233
  10        1PX        -0.12698  -0.20121  -0.01486   0.28497
  11        1PY        -0.06294   0.18376  -0.07021   0.43421
  12        1PZ        -0.00063  -0.01018   0.00402   0.00039
  13 4   C  1S         -0.09198  -0.02887  -0.11153   0.04503
  14        1PX        -0.18310  -0.12544   0.03430   0.42680
  15        1PY         0.12382  -0.42207  -0.32937  -0.16557
  16        1PZ        -0.02060  -0.00205  -0.00934  -0.00151
  17 5   C  1S         -0.42086   0.13615   0.21214   0.06012
  18        1PX         0.22369   0.25236   0.53071  -0.02195
  19        1PY        -0.21552  -0.01008  -0.00482  -0.29807
  20        1PZ         0.05734  -0.00146  -0.01113  -0.00533
  21 6   H  1S          0.51674   0.10116   0.24415  -0.03306
  22 7   H  1S          0.12805  -0.29495  -0.14539  -0.05988
  23 8   H  1S         -0.28710  -0.29328   0.15283  -0.00256
  24 9   H  1S         -0.07903   0.22134  -0.22163   0.03643
     Density Matrix:
                           1         2         3         4         5
   1 1   C  1S          1.23008
   2        1PX        -0.01578   0.90436
   3        1PY         0.07772  -0.01127   0.99745
   4        1PZ        -0.02002   0.01318   0.00057   1.11655
   5 2   C  1S          0.29702   0.46001  -0.18831  -0.00596   1.23450
   6        1PX        -0.41160  -0.49586   0.24062  -0.02718   0.06486
   7        1PY         0.20945   0.33098  -0.00275   0.00313   0.08149
   8        1PZ        -0.03286   0.00301  -0.00872   0.79077  -0.00210
   9 3   O  1S          0.00280   0.03035   0.02006  -0.00044   0.11602
  10        1PX         0.07078  -0.00195  -0.04130   0.00548   0.01523
  11        1PY        -0.05288  -0.06637   0.03681  -0.00122   0.44920
  12        1PZ         0.01514  -0.00763   0.00040  -0.26693  -0.01366
  13 4   C  1S         -0.03059  -0.01583   0.02158  -0.00229   0.01476
  14        1PX        -0.01092  -0.09589  -0.03587   0.00200   0.03953
  15        1PY        -0.01892   0.01253   0.00379  -0.00648  -0.01906
  16        1PZ        -0.00224   0.00278   0.01140  -0.11344   0.00683
  17 5   C  1S          0.27005  -0.33990  -0.32163   0.03340  -0.02748
  18        1PX         0.28720  -0.22649  -0.32021   0.01135  -0.02316
  19        1PY         0.36700  -0.45645  -0.30486   0.01951   0.00317
  20        1PZ        -0.03133   0.02570   0.01109   0.52173   0.00733
  21 6   H  1S         -0.04600   0.03984   0.04842  -0.01023   0.05282
  22 7   H  1S          0.04926  -0.03945  -0.04937   0.00023   0.04867
  23 8   H  1S         -0.05926  -0.07907   0.03880   0.00483   0.60901
  24 9   H  1S          0.57375  -0.15174   0.76792   0.03990  -0.05978
                           6         7         8         9        10
   6        1PX         0.98766
   7        1PY         0.01800   0.82854
   8        1PZ        -0.00886   0.00709   1.02998
   9 3   O  1S         -0.01932  -0.28814   0.00444   1.85619
  10        1PX         0.16786  -0.00848  -0.00203   0.20179   1.28048
  11        1PY        -0.07327  -0.79508   0.01062  -0.22063  -0.08814
  12        1PZ        -0.00709   0.01494   0.47771   0.00796  -0.00996
  13 4   C  1S          0.02872  -0.03676   0.01002   0.08680  -0.39180
  14        1PX         0.00751   0.04613  -0.00496   0.25150  -0.78425
  15        1PY         0.00852   0.01273   0.00174   0.05404  -0.20028
  16        1PZ         0.01316  -0.00171  -0.37274   0.00299  -0.01717
  17 5   C  1S          0.02347  -0.00057  -0.00232  -0.00221   0.05838
  18        1PX         0.01719  -0.03063   0.00502  -0.02227   0.06144
  19        1PY         0.03823  -0.06764   0.01246  -0.02527  -0.05836
  20        1PZ        -0.00248  -0.00130  -0.06214  -0.00143  -0.00214
  21 6   H  1S         -0.05598   0.03174   0.00438   0.02346  -0.09798
  22 7   H  1S         -0.01641  -0.08227  -0.00433  -0.04185   0.08636
  23 8   H  1S          0.68992   0.27839   0.02826  -0.04172   0.00939
  24 9   H  1S          0.06713  -0.01542   0.01439   0.01953  -0.02839
                          11        12        13        14        15
  11        1PY         1.22758
  12        1PZ         0.01064   1.69909
  13 4   C  1S         -0.06694  -0.01121   1.26984
  14        1PX        -0.11934  -0.01733  -0.07190   0.77936
  15        1PY         0.08948  -0.00273  -0.07903  -0.01877   0.98779
  16        1PZ         0.00159   0.40366  -0.01815   0.00781  -0.00873
  17 5   C  1S         -0.04721  -0.01319   0.30317  -0.24519   0.37157
  18        1PX        -0.02822   0.00115   0.25669  -0.05104   0.29101
  19        1PY        -0.01221  -0.00567  -0.46006   0.38288  -0.41082
  20        1PZ        -0.00347  -0.21688  -0.03299   0.01478  -0.02324
  21 6   H  1S          0.00893   0.00505  -0.05954  -0.00056  -0.06473
  22 7   H  1S         -0.00852   0.00537   0.60404  -0.12538  -0.73550
  23 8   H  1S         -0.07731   0.00518   0.05687   0.11114   0.03657
  24 9   H  1S          0.08730  -0.00958   0.05870  -0.03013   0.04907
                          16        17        18        19        20
  16        1PZ         1.10782
  17 5   C  1S          0.04854   1.21367
  18        1PX         0.00496  -0.08364   0.99111
  19        1PY        -0.01670   0.02319   0.00625   0.91199
  20        1PZ         0.81803   0.02806   0.00688  -0.00343   1.03882
  21 6   H  1S         -0.01972   0.58824  -0.76867   0.05966  -0.03715
  22 7   H  1S          0.01579  -0.06012  -0.04866   0.09695   0.01232
  23 8   H  1S         -0.00460   0.04264   0.03508   0.04849  -0.00584
  24 9   H  1S         -0.00182  -0.04429  -0.04324  -0.04753   0.01098
                          21        22        23        24
  21 6   H  1S          0.83751
  22 7   H  1S          0.01219   0.80963
  23 8   H  1S         -0.01026  -0.02611   0.81984
  24 9   H  1S         -0.00637  -0.02114   0.00812   0.84018
    Full Mulliken population analysis:
                           1         2         3         4         5
   1 1   C  1S          1.23008
   2        1PX         0.00000   0.90436
   3        1PY         0.00000   0.00000   0.99745
   4        1PZ         0.00000   0.00000   0.00000   1.11655
   5 2   C  1S          0.00000   0.00000   0.00000   0.00000   1.23450
   6        1PX         0.00000   0.00000   0.00000   0.00000   0.00000
   7        1PY         0.00000   0.00000   0.00000   0.00000   0.00000
   8        1PZ         0.00000   0.00000   0.00000   0.00000   0.00000
   9 3   O  1S          0.00000   0.00000   0.00000   0.00000   0.00000
  10        1PX         0.00000   0.00000   0.00000   0.00000   0.00000
  11        1PY         0.00000   0.00000   0.00000   0.00000   0.00000
  12        1PZ         0.00000   0.00000   0.00000   0.00000   0.00000
  13 4   C  1S          0.00000   0.00000   0.00000   0.00000   0.00000
  14        1PX         0.00000   0.00000   0.00000   0.00000   0.00000
  15        1PY         0.00000   0.00000   0.00000   0.00000   0.00000
  16        1PZ         0.00000   0.00000   0.00000   0.00000   0.00000
  17 5   C  1S          0.00000   0.00000   0.00000   0.00000   0.00000
  18        1PX         0.00000   0.00000   0.00000   0.00000   0.00000
  19        1PY         0.00000   0.00000   0.00000   0.00000   0.00000
  20        1PZ         0.00000   0.00000   0.00000   0.00000   0.00000
  21 6   H  1S          0.00000   0.00000   0.00000   0.00000   0.00000
  22 7   H  1S          0.00000   0.00000   0.00000   0.00000   0.00000
  23 8   H  1S          0.00000   0.00000   0.00000   0.00000   0.00000
  24 9   H  1S          0.00000   0.00000   0.00000   0.00000   0.00000
                           6         7         8         9        10
   6        1PX         0.98766
   7        1PY         0.00000   0.82854
   8        1PZ         0.00000   0.00000   1.02998
   9 3   O  1S          0.00000   0.00000   0.00000   1.85619
  10        1PX         0.00000   0.00000   0.00000   0.00000   1.28048
  11        1PY         0.00000   0.00000   0.00000   0.00000   0.00000
  12        1PZ         0.00000   0.00000   0.00000   0.00000   0.00000
  13 4   C  1S          0.00000   0.00000   0.00000   0.00000   0.00000
  14        1PX         0.00000   0.00000   0.00000   0.00000   0.00000
  15        1PY         0.00000   0.00000   0.00000   0.00000   0.00000
  16        1PZ         0.00000   0.00000   0.00000   0.00000   0.00000
  17 5   C  1S          0.00000   0.00000   0.00000   0.00000   0.00000
  18        1PX         0.00000   0.00000   0.00000   0.00000   0.00000
  19        1PY         0.00000   0.00000   0.00000   0.00000   0.00000
  20        1PZ         0.00000   0.00000   0.00000   0.00000   0.00000
  21 6   H  1S          0.00000   0.00000   0.00000   0.00000   0.00000
  22 7   H  1S          0.00000   0.00000   0.00000   0.00000   0.00000
  23 8   H  1S          0.00000   0.00000   0.00000   0.00000   0.00000
  24 9   H  1S          0.00000   0.00000   0.00000   0.00000   0.00000
                          11        12        13        14        15
  11        1PY         1.22758
  12        1PZ         0.00000   1.69909
  13 4   C  1S          0.00000   0.00000   1.26984
  14        1PX         0.00000   0.00000   0.00000   0.77936
  15        1PY         0.00000   0.00000   0.00000   0.00000   0.98779
  16        1PZ         0.00000   0.00000   0.00000   0.00000   0.00000
  17 5   C  1S          0.00000   0.00000   0.00000   0.00000   0.00000
  18        1PX         0.00000   0.00000   0.00000   0.00000   0.00000
  19        1PY         0.00000   0.00000   0.00000   0.00000   0.00000
  20        1PZ         0.00000   0.00000   0.00000   0.00000   0.00000
  21 6   H  1S          0.00000   0.00000   0.00000   0.00000   0.00000
  22 7   H  1S          0.00000   0.00000   0.00000   0.00000   0.00000
  23 8   H  1S          0.00000   0.00000   0.00000   0.00000   0.00000
  24 9   H  1S          0.00000   0.00000   0.00000   0.00000   0.00000
                          16        17        18        19        20
  16        1PZ         1.10782
  17 5   C  1S          0.00000   1.21367
  18        1PX         0.00000   0.00000   0.99111
  19        1PY         0.00000   0.00000   0.00000   0.91199
  20        1PZ         0.00000   0.00000   0.00000   0.00000   1.03882
  21 6   H  1S          0.00000   0.00000   0.00000   0.00000   0.00000
  22 7   H  1S          0.00000   0.00000   0.00000   0.00000   0.00000
  23 8   H  1S          0.00000   0.00000   0.00000   0.00000   0.00000
  24 9   H  1S          0.00000   0.00000   0.00000   0.00000   0.00000
                          21        22        23        24
  21 6   H  1S          0.83751
  22 7   H  1S          0.00000   0.80963
  23 8   H  1S          0.00000   0.00000   0.81984
  24 9   H  1S          0.00000   0.00000   0.00000   0.84018
     Gross orbital populations:
                           1
   1 1   C  1S          1.23008
   2        1PX         0.90436
   3        1PY         0.99745
   4        1PZ         1.11655
   5 2   C  1S          1.23450
   6        1PX         0.98766
   7        1PY         0.82854
   8        1PZ         1.02998
   9 3   O  1S          1.85619
  10        1PX         1.28048
  11        1PY         1.22758
  12        1PZ         1.69909
  13 4   C  1S          1.26984
  14        1PX         0.77936
  15        1PY         0.98779
  16        1PZ         1.10782
  17 5   C  1S          1.21367
  18        1PX         0.99111
  19        1PY         0.91199
  20        1PZ         1.03882
  21 6   H  1S          0.83751
  22 7   H  1S          0.80963
  23 8   H  1S          0.81984
  24 9   H  1S          0.84018
          Condensed to atoms (all electrons):
               1          2          3          4          5          6
     1  C    4.248433   0.000000   0.000000   0.000000   0.000000   0.000000
     2  C    0.000000   4.080671   0.000000   0.000000   0.000000   0.000000
     3  O    0.000000   0.000000   6.063332   0.000000   0.000000   0.000000
     4  C    0.000000   0.000000   0.000000   4.144805   0.000000   0.000000
     5  C    0.000000   0.000000   0.000000   0.000000   4.155590   0.000000
     6  H    0.000000   0.000000   0.000000   0.000000   0.000000   0.837513
     7  H    0.000000   0.000000   0.000000   0.000000   0.000000   0.000000
     8  H    0.000000   0.000000   0.000000   0.000000   0.000000   0.000000
     9  H    0.000000   0.000000   0.000000   0.000000   0.000000   0.000000
               7          8          9
     1  C    0.000000   0.000000   0.000000
     2  C    0.000000   0.000000   0.000000
     3  O    0.000000   0.000000   0.000000
     4  C    0.000000   0.000000   0.000000
     5  C    0.000000   0.000000   0.000000
     6  H    0.000000   0.000000   0.000000
     7  H    0.809634   0.000000   0.000000
     8  H    0.000000   0.819841   0.000000
     9  H    0.000000   0.000000   0.840181
 Mulliken charges:
               1
     1  C   -0.248433
     2  C   -0.080671
     3  O   -0.063332
     4  C   -0.144805
     5  C   -0.155590
     6  H    0.162487
     7  H    0.190366
     8  H    0.180159
     9  H    0.159819
 Sum of Mulliken charges =   0.00000
 Mulliken charges with hydrogens summed into heavy atoms:
               1
     1  C   -0.088613
     2  C    0.099489
     3  O   -0.063332
     4  C    0.045560
     5  C    0.006897
 Charge=              0.0000 electrons
 Dipole moment (field-independent basis, Debye):
    X=             -0.2814    Y=              0.1713    Z=              0.1191  Tot=              0.3503
 N-N= 1.033574293031D+02 E-N=-1.708495689984D+02  KE=-1.654448296039D+01
 Orbital energies and kinetic energies (alpha):
                                 1                 2
   1         O                -1.570839         -1.312394
   2         O                -1.245656         -1.061600
   3         O                -1.083024         -0.947088
   4         O                -0.820972         -0.701939
   5         O                -0.818519         -0.727084
   6         O                -0.683800         -0.600794
   7         O                -0.606222         -0.488266
   8         O                -0.563579         -0.505271
   9         O                -0.521107         -0.438631
  10         O                -0.498089         -0.406509
  11         O                -0.490462         -0.427853
  12         O                -0.398411         -0.348179
  13         O                -0.337651         -0.306633
  14         V                 0.028202         -0.194499
  15         V                 0.063391         -0.191943
  16         V                 0.094844         -0.188953
  17         V                 0.140150         -0.249478
  18         V                 0.145643         -0.186465
  19         V                 0.153458         -0.179784
  20         V                 0.180095         -0.174254
  21         V                 0.182905         -0.189946
  22         V                 0.187729         -0.133149
  23         V                 0.207606         -0.121920
  24         V                 0.222841         -0.041786
 Total kinetic energy from orbitals=-1.654448296039D+01
 Leave Link  601 at Tue Dec 15 16:25:41 2015, MaxMem=    33554432 cpu:         0.0
 (Enter /home/Applications/g09/g09/l701.exe)
 Compute integral first derivatives.
 ... and contract with generalized density number  6.
 Leave Link  701 at Tue Dec 15 16:25:41 2015, MaxMem=    33554432 cpu:         0.0
 (Enter /home/Applications/g09/g09/l702.exe)
 L702 exits ... SP integral derivatives will be done elsewhere.
 Leave Link  702 at Tue Dec 15 16:25:41 2015, MaxMem=    33554432 cpu:         0.0
 (Enter /home/Applications/g09/g09/l703.exe)
 Compute integral first derivatives, UseDBF=F ICtDFT=           0.
 Integral derivatives from FoFJK, PRISM(SPDF).
 Calling FoFJK, ICntrl=  10005127 FMM=F ISym2X=0 I1Cent= 0 IOpClX= 0 NMat=1 NMatS=1 NMatT=0.
 FoFJK:  IHMeth= 8 ICntrl=10005127 DoSepK=F KAlg= 0 I1Cent=   0 FoldK=F
 IRaf=         0 NMat=   1 IRICut=       1 DoRegI=T DoRafI=F ISym2E= 0.
 FoFCou: FMM=F IPFlag=           0 FMFlag=      100000 FMFlg1=         800
         NFxFlg=           0 DoJE=F BraDBF=F KetDBF=F FulRan=T
         wScrn=  0.000000 ICntrl=10005127 IOpCl=  0 I1Cent=           0 NGrid=           0
         NMat0=    1 NMatS0=      1 NMatT0=    0 NMatD0=    1 NMtDS0=    0 NMtDT0=    0
 Symmetry not used in FoFCou.
 Leave Link  703 at Tue Dec 15 16:25:41 2015, MaxMem=    33554432 cpu:         0.0
 (Enter /home/Applications/g09/g09/l716.exe)
 Dipole        =-6.64426218D-02 3.00265347D-01 8.31685914D-02
 ***** Axes restored to original set *****
 -------------------------------------------------------------------
 Center     Atomic                   Forces (Hartrees/Bohr)
 Number     Number              X              Y              Z
 -------------------------------------------------------------------
      1        6           0.087948172   -0.006720809    0.013205405
      2        6           0.024236760   -0.082445605   -0.003535472
      3        8          -0.093087644    0.064338009   -0.001314738
      4        6          -0.055032894    0.069899758    0.007854533
      5        6           0.038825064   -0.017001521   -0.014543148
      6        1           0.017146455    0.009159345    0.004556467
      7        1           0.009412488   -0.014403316   -0.001513206
      8        1          -0.014773567   -0.028627017    0.000886695
      9        1          -0.014674834    0.005801156   -0.005596536
 -------------------------------------------------------------------
 Cartesian Forces:  Max     0.093087644 RMS     0.038566033
 Z-matrix is all fixed cartesians, so copy forces.
 Force constants in Cartesian coordinates: 
                1             2             3             4             5 
      1  0.837082D+00
      2 -0.215375D-01  0.788766D+00
      3  0.176687D-01  0.135750D-01  0.194320D+00
      4 -0.448703D+00 -0.856941D-01 -0.223216D-02  0.939721D+00
      5 -0.619754D-01 -0.200680D+00 -0.450638D-03 -0.645066D-01  0.100475D+01
      6  0.601257D-02  0.128120D-02 -0.925723D-01 -0.173231D-01  0.885602D-03
      7 -0.812816D-02  0.296837D-01  0.128438D-02 -0.355464D+00  0.234514D+00
      8 -0.618212D-02  0.226150D-01  0.362487D-03  0.278148D+00 -0.467324D+00
      9  0.517468D-03 -0.831050D-03  0.103372D-01  0.135372D-01 -0.126015D-01
     10  0.102450D-01 -0.373615D-03  0.667527D-03  0.238962D-01  0.181646D-01
     11  0.346174D-01 -0.128338D-02  0.280079D-02 -0.182982D-01 -0.139344D-01
     12  0.379598D-02 -0.114478D-03 -0.293715D-02 -0.128354D-02 -0.749618D-03
     13 -0.169061D+00  0.198096D-02 -0.180767D-02  0.937739D-02 -0.342875D-01
     14 -0.207409D-01 -0.441106D+00 -0.289319D-01 -0.299572D-03  0.109303D-02
     15 -0.131799D-02 -0.272900D-01 -0.840042D-01 -0.656403D-04  0.153273D-03
     16  0.176054D-01 -0.539862D-03 -0.386051D-03  0.123379D-04 -0.425820D-04
     17 -0.234714D-01  0.587275D-03  0.260713D-02 -0.622967D-05  0.215005D-04
     18 -0.440657D-02 -0.109951D-02  0.195991D-01  0.921583D-04 -0.318067D-03
     19  0.220586D-04  0.252127D-04 -0.409433D-03  0.151209D-05 -0.178430D-05
     20  0.303817D-04  0.347260D-04 -0.563920D-03 -0.150189D-05  0.177227D-05
     21 -0.365653D-03 -0.417937D-03  0.678695D-02  0.498133D-04 -0.587809D-04
     22  0.736316D-02 -0.269082D-01  0.145789D-02 -0.164335D+00 -0.108330D+00
     23 -0.331139D-02  0.121050D-01  0.333331D-03 -0.103206D+00 -0.346349D+00
     24 -0.313089D-03  0.123120D-02  0.229943D-01  0.715116D-02  0.133329D-01
     25 -0.246426D+00  0.103363D+00 -0.162432D-01 -0.450733D-02  0.164651D-01
     26  0.102571D+00 -0.181038D+00  0.102677D-01 -0.613496D-02  0.224209D-01
     27 -0.215914D-01  0.136655D-01 -0.745241D-01  0.741111D-04 -0.193230D-03
                6             7             8             9            10 
      6  0.184716D+00
      7  0.108064D-01  0.576188D+00
      8 -0.121538D-01 -0.113573D+00  0.736585D+00
      9 -0.476371D-01 -0.111117D-01  0.140231D-01  0.540251D-01
     10 -0.669267D-04 -0.247512D+00 -0.167892D+00  0.125859D-02  0.869634D+00
     11  0.370645D-03 -0.124009D+00 -0.295976D+00  0.315158D-03 -0.561384D-01
     12 -0.256284D-02  0.190011D-03 -0.137009D-02 -0.436307D-01  0.101706D-01
     13 -0.372542D-02 -0.819453D-02  0.628847D-02 -0.112873D-02 -0.487240D+00
     14 -0.127514D-03 -0.272924D-01  0.209274D-01 -0.221275D-02  0.104747D+00
     15  0.905915D-03  0.207672D-03 -0.147216D-03  0.535351D-02 -0.161909D-01
     16  0.666386D-03  0.000000D+00  0.000000D+00 -0.142159D-04 -0.545802D-02
     17 -0.336472D-03 -0.205806D-04  0.111195D-04  0.675414D-03  0.693035D-02
     18  0.497758D-02 -0.186545D-03  0.100788D-03  0.612204D-02 -0.186101D-02
     19  0.908142D-04  0.194132D-01 -0.148693D-01 -0.113308D-02 -0.163606D+00
     20 -0.902015D-04  0.113474D-01 -0.868972D-02 -0.910598D-03  0.945462D-01
     21  0.299172D-02 -0.298677D-03  0.193043D-03  0.520399D-02  0.615335D-02
     22  0.620039D-02  0.236980D-01  0.180770D-01 -0.177961D-02  0.689287D-05
     23  0.111226D-01 -0.106546D-01 -0.813345D-02  0.987058D-03  0.166310D-05
     24 -0.713926D-01 -0.938929D-03 -0.857031D-03  0.442879D-02  0.110748D-03
     25 -0.266116D-02 -0.119213D-05  0.380678D-05 -0.145883D-03  0.335332D-04
     26 -0.952048D-03  0.453628D-05 -0.144855D-04  0.555112D-03  0.142434D-04
     27  0.205734D-01  0.473739D-04 -0.151277D-03  0.579722D-02 -0.241970D-03
               11            12            13            14            15 
     11  0.766494D+00
     12  0.806734D-02  0.187863D+00
     13  0.810281D-01 -0.203285D-01  0.912879D+00
     14 -0.211684D+00  0.385546D-02  0.470989D-01  0.831808D+00
     15  0.464374D-02 -0.102409D+00 -0.625958D-04  0.991467D-02  0.212158D+00
     16 -0.179124D-01  0.243286D-02 -0.281279D+00 -0.127217D+00  0.162051D-01
     17  0.230553D-01 -0.455745D-03 -0.129094D+00 -0.214102D+00  0.106059D-01
     18 -0.320967D-02  0.253737D-01  0.227094D-01  0.156211D-01 -0.858089D-01
     19  0.100683D+00  0.523104D-02  0.722584D-02  0.242303D-01  0.115187D-02
     20 -0.266685D+00 -0.906838D-02  0.421779D-02  0.139756D-01 -0.749771D-03
     21 -0.125807D-01 -0.728397D-01  0.112542D-04  0.354522D-02  0.297091D-01
     22 -0.813375D-05  0.413976D-03 -0.126068D-05  0.435098D-05 -0.680906D-04
     23 -0.196250D-05  0.998838D-04  0.499817D-05 -0.172502D-04  0.269957D-03
     24 -0.130685D-03  0.665137D-02  0.103360D-03 -0.356726D-03  0.558258D-02
     25  0.383281D-04 -0.622416D-03  0.162938D-01 -0.531161D-03  0.140605D-03
     26  0.162801D-04 -0.264375D-03  0.227625D-01 -0.894161D-03  0.259946D-02
     27 -0.276569D-03  0.449125D-02  0.422886D-02 -0.130753D-02  0.185128D-01
               16            17            18            19            20 
     16  0.268989D+00
     17  0.145658D+00  0.190357D+00
     18 -0.179767D-01 -0.123998D-01  0.475181D-01
     19 -0.149465D-05  0.710128D-04  0.643668D-03  0.136945D+00
     20 -0.205862D-05  0.978073D-04  0.886537D-03 -0.110138D+00  0.261265D+00
     21  0.247761D-04 -0.117714D-02 -0.106697D-01 -0.557487D-02  0.104963D-01
     22  0.000000D+00  0.000000D+00  0.000000D+00  0.000000D+00  0.000000D+00
     23  0.000000D+00  0.000000D+00  0.000000D+00  0.000000D+00  0.000000D+00
     24  0.000000D+00  0.000000D+00  0.000000D+00  0.000000D+00  0.000000D+00
     25  0.131947D-03 -0.666230D-04  0.985583D-03  0.000000D+00  0.000000D+00
     26  0.560455D-04 -0.282985D-04  0.418632D-03  0.000000D+00  0.000000D+00
     27 -0.952111D-03  0.480741D-03 -0.711181D-02  0.000000D+00  0.000000D+00
               21            22            23            24            25 
     21  0.388177D-01
     22  0.000000D+00  0.133270D+00
     23  0.000000D+00  0.117155D+00  0.342436D+00
     24  0.000000D+00 -0.632925D-02 -0.123978D-01  0.403189D-01
     25  0.000000D+00 -0.263447D-05  0.104448D-04  0.215994D-03  0.234478D+00
     26  0.000000D+00  0.100247D-04 -0.397446D-04 -0.821898D-03 -0.119283D+00
     27  0.000000D+00  0.104691D-03 -0.415066D-03 -0.858335D-02  0.183304D-01
               26            27 
     26  0.159578D+00
     27 -0.118026D-01  0.408446D-01
 Leave Link  716 at Tue Dec 15 16:25:41 2015, MaxMem=    33554432 cpu:         0.0
 (Enter /home/Applications/g09/g09/l103.exe)

 GradGradGradGradGradGradGradGradGradGradGradGradGradGradGradGradGradGrad
 Berny optimization.
 Search for a local minimum.
 Step number   1 out of a maximum of    2
 All quantities printed in internal units (Hartrees-Bohrs-Radians)
 Second derivative matrix not updated -- first step.
 ITU=  0
     Eigenvalues ---    0.01842   0.02963   0.06946   0.07340   0.07737
     Eigenvalues ---    0.08313   0.12912   0.14196   0.16017   0.24155
     Eigenvalues ---    0.25578   0.29425   0.38435   0.42822   0.64015
     Eigenvalues ---    0.81907   1.01964   1.30556   1.46312   1.50805
     Eigenvalues ---    1.69805
 Quadratic step=3.676D-01 exceeds max=3.000D-01 adjusted using Lamda=-4.568D-02.
 Angle between NR and scaled steps=  12.32 degrees.
 Angle between quadratic step and forces=  37.98 degrees.
 Linear search not attempted -- first point.
 TrRot= -0.008194  0.005521 -0.002795 -0.935424 -0.001965  0.935520
 Variable       Old X    -DE/DX   Delta X   Delta X   Delta X     New X
                                 (Linear)    (Quad)   (Total)
    X1        1.79711   0.08795   0.00000   0.11351   0.10549   1.90260
    Y1       -1.32986  -0.00672   0.00000  -0.02983  -0.02418  -1.35404
    Z1       -0.07470   0.01321   0.00000   0.03667   0.03826  -0.03645
    X2       -0.74089   0.02424   0.00000  -0.00295  -0.01087  -0.75176
    Y2       -2.02421  -0.08245   0.00000  -0.07807  -0.07272  -2.09693
    Z2       -0.07208  -0.00354   0.00000   0.00736   0.00703  -0.06505
    X3       -2.22657  -0.09309   0.00000  -0.11803  -0.12618  -2.35275
    Y3       -0.07035   0.06434   0.00000   0.04138   0.04663  -0.02372
    Z3       -0.00895  -0.00131   0.00000  -0.02584  -0.03132  -0.04028
    X4       -0.59002  -0.05503   0.00000  -0.06114  -0.06957  -0.65958
    Y4        2.06519   0.06990   0.00000   0.08900   0.09450   2.15969
    Z4        0.00576   0.00785   0.00000   0.02239   0.01543   0.02119
    X5        1.88217   0.03883   0.00000   0.04779   0.03942   1.92159
    Y5        1.32379  -0.01700   0.00000   0.00916   0.01494   1.33873
    Z5        0.09329  -0.01454   0.00000  -0.04940  -0.05205   0.04124
    X6        3.47309   0.01715   0.00000   0.09143   0.08303   3.55612
    Y6        2.54164   0.00916   0.00000   0.02305   0.02886   2.57050
    Z6       -0.03737   0.00456   0.00000   0.00775   0.00505  -0.03232
    X7       -1.64658   0.00941   0.00000  -0.00736  -0.01607  -1.66266
    Y7        3.87505  -0.01440   0.00000   0.04993   0.05549   3.93054
    Z7        0.09240  -0.00151   0.00000   0.03292   0.02199   0.11439
    X8       -1.55322  -0.01477   0.00000  -0.04352  -0.05134  -1.60456
    Y8       -3.83785  -0.02863   0.00000  -0.13216  -0.12678  -3.96463
    Z8        0.00571   0.00089   0.00000  -0.00244  -0.00082   0.00489
    X9        3.48675  -0.01467   0.00000   0.05413   0.04609   3.53284
    Y9       -2.56928   0.00580   0.00000  -0.02271  -0.01672  -2.58600
    Z9        0.08650  -0.00560   0.00000  -0.00899  -0.00356   0.08294
         Item               Value     Threshold  Converged?
 Maximum Force            0.093088     0.000450     NO 
 RMS     Force            0.038566     0.000300     NO 
 Maximum Displacement     0.126784     0.001800     NO 
 RMS     Displacement     0.057382     0.001200     NO 
 Predicted change in Energy=-2.575302D-02
 GradGradGradGradGradGradGradGradGradGradGradGradGradGradGradGradGradGrad

 Leave Link  103 at Tue Dec 15 16:25:41 2015, MaxMem=    33554432 cpu:         0.0
 (Enter /home/Applications/g09/g09/l9999.exe)
 1\1\GINC-DUSTIN-DESKTOP\Force\RAM1-FC\STO-3G\C4H4O1\DUSTIN\15-Dec-2015
 \0\\#P AM1(Input,print) CIS(Singlets,NStates=15) pop(full) force\\AM1-
 Reparam Input\\0,1\C,0.95099,-0.703729,-0.03953\C,-0.392062,-1.071166,
 -0.038143\O,-1.178249,-0.037227,-0.004738\C,-0.312223,1.092854,0.00304
 6\C,0.996,0.700521,0.049368\H,1.83788,1.344979,-0.019777\H,-0.871334,2
 .05059,0.048894\H,-0.821929,-2.030903,0.003024\H,1.845109,-1.359603,0.
 045773\\Version=ES64L-G09RevD.01\State=1-A\HF=0.0220713\RMSD=7.948e-09
 \RMSF=3.857e-02\Dipole=0.246858,-0.1844102,0.0809008\PG=C01 [X(C4H4O1)
 ]\\@


 IT MATTERS NOT HOW DEEP YOU PLOW,
 BUT HOW LONG YOU STAY IN THE FURROW.
 Job cpu time:       0 days  0 hours  0 minutes  0.5 seconds.
 File lengths (MBytes):  RWF=      7 Int=      0 D2E=      0 Chk=      2 Scr=      1
 Normal termination of Gaussian 09 at Tue Dec 15 16:25:41 2015.
