 Entering Gaussian System, Link 0=g09
 Input=FuranAM1_55.com
 Output=FuranAM1_55.log
 Initial command:
 /home/Applications/g09/g09/l1.exe "/home/Applications/g09/scratch/Gau-6008.inp" -scrdir="/home/Applications/g09/scratch/"
 Entering Link 1 = /home/Applications/g09/g09/l1.exe PID=      6010.
  
 Copyright (c) 1988,1990,1992,1993,1995,1998,2003,2009,2013,
            Gaussian, Inc.  All Rights Reserved.
  
 This is part of the Gaussian(R) 09 program.  It is based on
 the Gaussian(R) 03 system (copyright 2003, Gaussian, Inc.),
 the Gaussian(R) 98 system (copyright 1998, Gaussian, Inc.),
 the Gaussian(R) 94 system (copyright 1995, Gaussian, Inc.),
 the Gaussian 92(TM) system (copyright 1992, Gaussian, Inc.),
 the Gaussian 90(TM) system (copyright 1990, Gaussian, Inc.),
 the Gaussian 88(TM) system (copyright 1988, Gaussian, Inc.),
 the Gaussian 86(TM) system (copyright 1986, Carnegie Mellon
 University), and the Gaussian 82(TM) system (copyright 1983,
 Carnegie Mellon University). Gaussian is a federally registered
 trademark of Gaussian, Inc.
  
 This software contains proprietary and confidential information,
 including trade secrets, belonging to Gaussian, Inc.
  
 This software is provided under written license and may be
 used, copied, transmitted, or stored only in accord with that
 written license.
  
 The following legend is applicable only to US Government
 contracts under FAR:
  
                    RESTRICTED RIGHTS LEGEND
  
 Use, reproduction and disclosure by the US Government is
 subject to restrictions as set forth in subparagraphs (a)
 and (c) of the Commercial Computer Software - Restricted
 Rights clause in FAR 52.227-19.
  
 Gaussian, Inc.
 340 Quinnipiac St., Bldg. 40, Wallingford CT 06492
  
  
 ---------------------------------------------------------------
 Warning -- This program may not be used in any manner that
 competes with the business of Gaussian, Inc. or will provide
 assistance to any competitor of Gaussian, Inc.  The licensee
 of this program is prohibited from giving any competitor of
 Gaussian, Inc. access to this program.  By using this program,
 the user acknowledges that Gaussian, Inc. is engaged in the
 business of creating and licensing software in the field of
 computational chemistry and represents and warrants to the
 licensee that it is not a competitor of Gaussian, Inc. and that
 it will not use this program in any manner prohibited above.
 ---------------------------------------------------------------
  

 Cite this work as:
 Gaussian 09, Revision D.01,
 M. J. Frisch, G. W. Trucks, H. B. Schlegel, G. E. Scuseria, 
 M. A. Robb, J. R. Cheeseman, G. Scalmani, V. Barone, B. Mennucci, 
 G. A. Petersson, H. Nakatsuji, M. Caricato, X. Li, H. P. Hratchian, 
 A. F. Izmaylov, J. Bloino, G. Zheng, J. L. Sonnenberg, M. Hada, 
 M. Ehara, K. Toyota, R. Fukuda, J. Hasegawa, M. Ishida, T. Nakajima, 
 Y. Honda, O. Kitao, H. Nakai, T. Vreven, J. A. Montgomery, Jr., 
 J. E. Peralta, F. Ogliaro, M. Bearpark, J. J. Heyd, E. Brothers, 
 K. N. Kudin, V. N. Staroverov, T. Keith, R. Kobayashi, J. Normand, 
 K. Raghavachari, A. Rendell, J. C. Burant, S. S. Iyengar, J. Tomasi, 
 M. Cossi, N. Rega, J. M. Millam, M. Klene, J. E. Knox, J. B. Cross, 
 V. Bakken, C. Adamo, J. Jaramillo, R. Gomperts, R. E. Stratmann, 
 O. Yazyev, A. J. Austin, R. Cammi, C. Pomelli, J. W. Ochterski, 
 R. L. Martin, K. Morokuma, V. G. Zakrzewski, G. A. Voth, 
 P. Salvador, J. J. Dannenberg, S. Dapprich, A. D. Daniels, 
 O. Farkas, J. B. Foresman, J. V. Ortiz, J. Cioslowski, 
 and D. J. Fox, Gaussian, Inc., Wallingford CT, 2013.
 
 ******************************************
 Gaussian 09:  ES64L-G09RevD.01 24-Apr-2013
                15-Dec-2015 
 ******************************************
 ------------------------------------------------------------
 #P AM1(Input,print) CIS(Singlets,NStates=15) pop(full) force
 ------------------------------------------------------------
 1/10=7,30=1,38=1/1,3;
 2/12=2,17=6,18=5,40=1/2;
 3/5=2,16=1,25=1,41=700000,71=1,135=100,136=1/1,2,8,3;
 4/35=1/1;
 5/5=2,35=1,38=5/2;
 8/6=1,10=1,108=15/1;
 9/15=2,41=15,42=1,48=1,49=10/14;
 10/5=4/2;
 6/7=3,18=1/1;
 7/12=6,13=5,29=1/1,2,3,16;
 1/10=7,30=1/3;
 99//99;
 Leave Link    1 at Tue Dec 15 16:21:25 2015, MaxMem=           0 cpu:         0.0
 (Enter /home/Applications/g09/g09/l101.exe)
 -----------------
 AM1-Reparam Input
 -----------------
 Symbolic Z-matrix:
 Charge =  0 Multiplicity = 1
 6                     0.96684  -0.71442  -0.04053 
 6                    -0.30028  -1.05484  -0.01561 
 8                    -1.1943   -0.02554   0.04956 
 6                    -0.31334   1.09123   0.03613 
 6                     0.96918   0.67804   0.0259 
 1                     1.82848   1.37199  -0.03587 
 1                    -0.82522   2.01658  -0.01504 
 1                    -0.80644  -2.06643   0.02038 
 1                     1.82674  -1.41156   0.03151 
 
 NAtoms=      9 NQM=        9 NQMF=       0 NMMI=      0 NMMIF=      0
                NMic=       0 NMicF=      0.
                    Isotopes and Nuclear Properties:
 (Nuclear quadrupole moments (NQMom) in fm**2, nuclear magnetic moments (NMagM)
  in nuclear magnetons)

  Atom         1           2           3           4           5           6           7           8           9
 IAtWgt=          12          12          16          12          12           1           1           1           1
 AtmWgt=  12.0000000  12.0000000  15.9949146  12.0000000  12.0000000   1.0078250   1.0078250   1.0078250   1.0078250
 NucSpn=           0           0           0           0           0           1           1           1           1
 AtZEff=   0.0000000   0.0000000   0.0000000   0.0000000   0.0000000   0.0000000   0.0000000   0.0000000   0.0000000
 NQMom=    0.0000000   0.0000000   0.0000000   0.0000000   0.0000000   0.0000000   0.0000000   0.0000000   0.0000000
 NMagM=    0.0000000   0.0000000   0.0000000   0.0000000   0.0000000   2.7928460   2.7928460   2.7928460   2.7928460
 AtZNuc=   6.0000000   6.0000000   8.0000000   6.0000000   6.0000000   1.0000000   1.0000000   1.0000000   1.0000000
 Leave Link  101 at Tue Dec 15 16:21:25 2015, MaxMem=    33554432 cpu:         0.0
 (Enter /home/Applications/g09/g09/l103.exe)

 GradGradGradGradGradGradGradGradGradGradGradGradGradGradGradGradGradGrad
 Berny optimization.
 Initialization pass.
 Trust Radius=3.00D-01 FncErr=1.00D-07 GrdErr=1.00D-07
 Number of steps in this run=      2 maximum allowed number of steps=      2.
 GradGradGradGradGradGradGradGradGradGradGradGradGradGradGradGradGradGrad

 Leave Link  103 at Tue Dec 15 16:21:25 2015, MaxMem=    33554432 cpu:         0.0
 (Enter /home/Applications/g09/g09/l202.exe)
                          Input orientation:                          
 ---------------------------------------------------------------------
 Center     Atomic      Atomic             Coordinates (Angstroms)
 Number     Number       Type             X           Y           Z
 ---------------------------------------------------------------------
      1          6           0        0.966835   -0.714424   -0.040529
      2          6           0       -0.300282   -1.054842   -0.015614
      3          8           0       -1.194296   -0.025544    0.049556
      4          6           0       -0.313342    1.091231    0.036134
      5          6           0        0.969176    0.678037    0.025901
      6          1           0        1.828476    1.371994   -0.035872
      7          1           0       -0.825216    2.016575   -0.015039
      8          1           0       -0.806443   -2.066431    0.020383
      9          1           0        1.826736   -1.411564    0.031511
 ---------------------------------------------------------------------
                    Distance matrix (angstroms):
                    1          2          3          4          5
     1  C    0.000000
     2  C    1.312285   0.000000
     3  O    2.270057   1.364904   0.000000
     4  C    2.214751   2.146737   1.422479   0.000000
     5  C    1.394047   2.148515   2.275126   1.347474   0.000000
     6  H    2.257341   3.228243   3.331300   2.161341   1.106250
     7  H    3.266566   3.115952   2.076209   1.058723   2.239018
     8  H    2.230728   1.131727   2.077619   3.195970   3.268785
     9  H    1.109335   2.157238   3.323855   3.293014   2.258733
                    6          7          8          9
     6  H    0.000000
     7  H    2.730934   0.000000
     8  H    4.332289   4.083203   0.000000
     9  H    2.784374   4.334415   2.713412   0.000000
 Stoichiometry    C4H4O
 Framework group  C1[X(C4H4O)]
 Deg. of freedom    21
 Full point group                 C1      NOp   1
 Largest Abelian subgroup         C1      NOp   1
 Largest concise Abelian subgroup C1      NOp   1
                         Standard orientation:                         
 ---------------------------------------------------------------------
 Center     Atomic      Atomic             Coordinates (Angstroms)
 Number     Number       Type             X           Y           Z
 ---------------------------------------------------------------------
      1          6           0       -1.158379    0.268987    0.024399
      2          6           0       -0.594766   -0.916088    0.019218
      3          8           0        0.769663   -0.928633   -0.014536
      4          6           0        1.047387    0.466421   -0.002715
      5          6           0       -0.099143    1.174056   -0.022885
      6          1           0       -0.130116    2.278516    0.031869
      7          1           0        2.082167    0.677807    0.071047
      8          1           0       -1.035090   -1.957870   -0.020945
      9          1           0       -2.244857    0.470356   -0.073788
 ---------------------------------------------------------------------
 Rotational constants (GHZ):      9.7895076      9.0735614      4.7116954
 Leave Link  202 at Tue Dec 15 16:21:25 2015, MaxMem=    33554432 cpu:         0.0
 (Enter /home/Applications/g09/g09/l301.exe)

 Semi-emprical parameters in input format:
 Method=8 CoreType=1 PeptideFC=0.0114510000 RIJScale=0.5291770000
 ****
 H       
 PQN=1 NValence=1 F0ss=0.4721550000 ZetaOverlap=1.1880780000 U=-0.4188110000
 Beta=-0.2268830000 CoreKO=1.0589200000 KON=0,0,0,1.0589200000 KON=1,0,1,1.0589200000
 KON=0,1,1,1.0589200000 KON=2,1,1,1.0589200000 EISol=-0.4188110042 EHeat=0.0830298228
 Alpha=1.5252600000
 GCore=0.0085280000,1.4001430000,2.2676710000
 GCore=0.0003530000,1.4001430000,3.4015070000
 GCore=-0.0012730000,0.5600570000,3.9684250000
 ****
 C       
 PQN=2,2 NValence=4 F0ss=0.4494440000 F0sp=0.4215150000 F0pp=0.3768030000 F2pp=0.1898720000
 G1sp=0.2679030000
 ZetaOverlap=1.8086650000,1.6851160000
 U=-1.9120180000,-1.4557970000
 Beta=-0.5775440000,-0.2836780000 DDN=0,1,0.8236740000 DDN=1,1,0.7268010000
 CoreKO=1.1124280000 KON=0,0,0,1.1124280000 KON=1,0,1,0.8219700000 KON=0,1,1,1.1124280000
 KON=2,1,1,0.7783930000 EISol=-4.4398989268 EHeat=0.2723305520 Alpha=1.4014060000
 DipHyp=1.6472532266
 GCore=0.0007890000,1.4001430000,3.0235620000
 GCore=0.0031890000,1.4001430000,3.4959930000
 GCore=-0.0013930000,1.4001430000,3.8739390000
 GCore=-0.0000880000,1.4001430000,5.0077740000
 ****
 O       
 PQN=2,2 NValence=6 F0ss=0.5666750000 F0sp=0.5321300000 F0pp=0.4958710000 F2pp=0.2358080000
 G1sp=0.4343770000
 ZetaOverlap=3.1080320000,2.5240390000
 U=-3.5951870000,-2.8760900000
 Beta=-1.0757550000,-1.0757550000 DDN=0,1,0.4988900000 DDN=1,1,0.4852320000
 CoreKO=0.8822960000 KON=0,0,0,0.8822960000 KON=1,0,1,0.5019540000 KON=0,1,1,0.8822960000
 KON=2,1,1,0.5515580000 EISol=-11.6164441184 EHeat=0.0949133088 Alpha=2.3576810000
 DipHyp=0.9977225968
 GCore=0.0195120000,1.4001430000,1.6023330000
 GCore=0.0056550000,1.9602000000,2.7307880000
 ****
 
 Standard basis: VSTO-6G (5D, 7F)
 Ernie: Thresh=  0.10000D-02 Tol=  0.10000D-05 Strict=F.
  NNHCO=     0 NNPyr=     0 NCTC=     0               EPep=         0.000000000
    EC=        68.705864442  ECS=         1.824017463   EG=         0.342334605
   EHC=         0.000000000  EAt=       -31.051283842  AtH=         1.516354808
 EPDDG=         0.000000000  ECC=        70.872216510 EAtT=        32.567638650
 There are    24 symmetry adapted cartesian basis functions of A   symmetry.
 There are    24 symmetry adapted basis functions of A   symmetry.
    24 basis functions,   144 primitive gaussians,    24 cartesian basis functions
    13 alpha electrons       13 beta electrons
       nuclear repulsion energy       103.4398551603 Hartrees.
 IExCor=    0 DFT=F Ex=HF Corr=None ExCW=0 ScaHFX=  1.000000
 ScaDFX=  1.000000  1.000000  1.000000  1.000000 ScalE2=  1.000000  1.000000
 IRadAn=      0 IRanWt=     -1 IRanGd=            0 ICorTp=0 IEmpDi=  4
 Integral buffers will be    131072 words long.
 Regular integral format.
 Two-electron integral symmetry is turned off.
 Leave Link  301 at Tue Dec 15 16:21:25 2015, MaxMem=    33554432 cpu:         0.0
 (Enter /home/Applications/g09/g09/l302.exe)
 Do NDO integrals.
 NPDir=0 NMtPBC=     1 NCelOv=     1 NCel=       1 NClECP=     1 NCelD=      1
         NCelK=      1 NCelE2=     1 NClLst=     1 CellRange=     0.0.
 One-electron integrals computed using PRISM.
 NBasis=    24 RedAO= F EigKep=  0.00D+00  NBF=    24
 NBsUse=    24 1.00D-04 EigRej=  0.00D+00 NBFU=    24
 Leave Link  302 at Tue Dec 15 16:21:25 2015, MaxMem=    33554432 cpu:         0.0
 (Enter /home/Applications/g09/g09/l308.exe)
 Leave Link  308 at Tue Dec 15 16:21:25 2015, MaxMem=    33554432 cpu:         0.0
 (Enter /home/Applications/g09/g09/l303.exe)
 DipDrv:  MaxL=1.
 Leave Link  303 at Tue Dec 15 16:21:25 2015, MaxMem=    33554432 cpu:         0.0
 (Enter /home/Applications/g09/g09/l401.exe)
 Simple Huckel Guess.
 JPrj=0 DoOrth=F DoCkMO=F.
 Leave Link  401 at Tue Dec 15 16:21:25 2015, MaxMem=    33554432 cpu:         0.0
 (Enter /home/Applications/g09/g09/l502.exe)
 Closed shell SCF:
 Using DIIS extrapolation, IDIIS=  1040.
 Overlap will be assumed to be unity.
 Two-electron integral symmetry not used.
 Keep J ints in memory in canonical form, NReq=888082.
 IVT=       79475 IEndB=       79475 NGot=    33554432 MDV=    33473473
 LenX=    33473473 LenY=    33472456
 Requested convergence on RMS density matrix=1.00D-08 within 128 cycles.
 Requested convergence on MAX density matrix=1.00D-06.
 Requested convergence on             energy=1.00D-06.
 No special actions if energy rises.
 FoFCou: FMM=F IPFlag=           0 FMFlag=           0 FMFlg1=           0
         NFxFlg=           0 DoJE=F BraDBF=F KetDBF=F FulRan=T
         wScrn=  0.000000 ICntrl=     600 IOpCl=  2 I1Cent=           0 NGrid=           0
         NMat0=    1 NMatS0=     54 NMatT0=    0 NMatD0=    1 NMtDS0=    0 NMtDT0=    0
 Symmetry not used in FoFCou.

 Cycle   1  Pass 1  IDiag  1:
 E= 0.348185386192810    
 DIIS: error= 6.95D-02 at cycle   1 NSaved=   1.
 NSaved= 1 IEnMin= 1 EnMin= 0.348185386192810     IErMin= 1 ErrMin= 6.95D-02
 ErrMax= 6.95D-02  0.00D+00 EMaxC= 1.00D-01 BMatC= 1.13D-01 BMatP= 1.13D-01
 IDIUse=3 WtCom= 3.05D-01 WtEn= 6.95D-01
 Coeff-Com:  0.100D+01
 Coeff-En:   0.100D+01
 Coeff:      0.100D+01
 GapD=    2.000 DampG=2.000 DampE=0.500 DampFc=1.0000 IDamp=-1.
 RMSDP=2.00D-02 MaxDP=1.61D-01              OVMax= 0.00D+00

 Cycle   2  Pass 1  IDiag  1:
 E= 0.580755488626181E-01 Delta-E=       -0.290109837330 Rises=F Damp=F
 DIIS: error= 1.64D-02 at cycle   2 NSaved=   2.
 NSaved= 2 IEnMin= 2 EnMin= 0.580755488626181E-01 IErMin= 2 ErrMin= 1.64D-02
 ErrMax= 1.64D-02  0.00D+00 EMaxC= 1.00D-01 BMatC= 9.63D-03 BMatP= 1.13D-01
 IDIUse=3 WtCom= 8.36D-01 WtEn= 1.64D-01
 Coeff-Com: -0.358D+00 0.136D+01
 Coeff-En:   0.000D+00 0.100D+01
 Coeff:     -0.299D+00 0.130D+01
 RMSDP=8.27D-03 MaxDP=5.47D-02 DE=-2.90D-01 OVMax= 0.00D+00

 Cycle   3  Pass 1  IDiag  3:
 E= 0.276560921292202E-01 Delta-E=       -0.030419456733 Rises=F Damp=F
 DIIS: error= 3.63D-03 at cycle   3 NSaved=   3.
 NSaved= 3 IEnMin= 3 EnMin= 0.276560921292202E-01 IErMin= 3 ErrMin= 3.63D-03
 ErrMax= 3.63D-03  0.00D+00 EMaxC= 1.00D-01 BMatC= 3.22D-04 BMatP= 9.63D-03
 IDIUse=3 WtCom= 9.64D-01 WtEn= 3.63D-02
 Coeff-Com:  0.147D+00-0.620D+00 0.147D+01
 Coeff-En:   0.000D+00 0.000D+00 0.100D+01
 Coeff:      0.142D+00-0.597D+00 0.146D+01
 Gap=     0.377 Goal=   None    Shift=    0.000
 RMSDP=2.33D-03 MaxDP=1.54D-02 DE=-3.04D-02 OVMax= 2.68D-02

 Cycle   4  Pass 1  IDiag  3:
 E= 0.259366998657526E-01 Delta-E=       -0.001719392263 Rises=F Damp=F
 DIIS: error= 9.75D-04 at cycle   4 NSaved=   4.
 NSaved= 4 IEnMin= 4 EnMin= 0.259366998657526E-01 IErMin= 4 ErrMin= 9.75D-04
 ErrMax= 9.75D-04  0.00D+00 EMaxC= 1.00D-01 BMatC= 2.31D-05 BMatP= 3.22D-04
 IDIUse=3 WtCom= 9.90D-01 WtEn= 9.75D-03
 Coeff-Com:  0.175D-01-0.723D-01-0.107D+00 0.116D+01
 Coeff-En:   0.000D+00 0.000D+00 0.000D+00 0.100D+01
 Coeff:      0.173D-01-0.716D-01-0.106D+00 0.116D+01
 Gap=     0.377 Goal=   None    Shift=    0.000
 RMSDP=6.98D-04 MaxDP=5.41D-03 DE=-1.72D-03 OVMax= 8.06D-03

 Cycle   5  Pass 1  IDiag  3:
 E= 0.258020965165144E-01 Delta-E=       -0.000134603349 Rises=F Damp=F
 DIIS: error= 1.96D-04 at cycle   5 NSaved=   5.
 NSaved= 5 IEnMin= 5 EnMin= 0.258020965165144E-01 IErMin= 5 ErrMin= 1.96D-04
 ErrMax= 1.96D-04  0.00D+00 EMaxC= 1.00D-01 BMatC= 1.72D-06 BMatP= 2.31D-05
 IDIUse=3 WtCom= 9.98D-01 WtEn= 1.96D-03
 Coeff-Com: -0.833D-02 0.361D-01-0.606D-02-0.452D+00 0.143D+01
 Coeff-En:   0.000D+00 0.000D+00 0.000D+00 0.000D+00 0.100D+01
 Coeff:     -0.832D-02 0.360D-01-0.605D-02-0.451D+00 0.143D+01
 Gap=     0.377 Goal=   None    Shift=    0.000
 RMSDP=2.40D-04 MaxDP=1.65D-03 DE=-1.35D-04 OVMax= 2.75D-03

 Cycle   6  Pass 1  IDiag  3:
 E= 0.257890999843653E-01 Delta-E=       -0.000012996532 Rises=F Damp=F
 DIIS: error= 9.92D-05 at cycle   6 NSaved=   6.
 NSaved= 6 IEnMin= 6 EnMin= 0.257890999843653E-01 IErMin= 6 ErrMin= 9.92D-05
 ErrMax= 9.92D-05  0.00D+00 EMaxC= 1.00D-01 BMatC= 1.76D-07 BMatP= 1.72D-06
 IDIUse=1 WtCom= 1.00D+00 WtEn= 0.00D+00
 Coeff-Com:  0.225D-02-0.907D-02 0.983D-02 0.102D+00-0.599D+00 0.149D+01
 Coeff:      0.225D-02-0.907D-02 0.983D-02 0.102D+00-0.599D+00 0.149D+01
 Gap=     0.377 Goal=   None    Shift=    0.000
 RMSDP=9.29D-05 MaxDP=8.01D-04 DE=-1.30D-05 OVMax= 1.21D-03

 Cycle   7  Pass 1  IDiag  3:
 E= 0.257874888369400E-01 Delta-E=       -0.000001611147 Rises=F Damp=F
 DIIS: error= 3.51D-05 at cycle   7 NSaved=   7.
 NSaved= 7 IEnMin= 7 EnMin= 0.257874888369400E-01 IErMin= 7 ErrMin= 3.51D-05
 ErrMax= 3.51D-05  0.00D+00 EMaxC= 1.00D-01 BMatC= 1.61D-08 BMatP= 1.76D-07
 IDIUse=1 WtCom= 1.00D+00 WtEn= 0.00D+00
 Coeff-Com: -0.284D-03 0.555D-03-0.942D-03-0.195D-01 0.161D+00-0.708D+00
 Coeff-Com:  0.157D+01
 Coeff:     -0.284D-03 0.555D-03-0.942D-03-0.195D-01 0.161D+00-0.708D+00
 Coeff:      0.157D+01
 Gap=     0.377 Goal=   None    Shift=    0.000
 RMSDP=3.39D-05 MaxDP=3.22D-04 DE=-1.61D-06 OVMax= 4.03D-04

 Cycle   8  Pass 1  IDiag  3:
 E= 0.257873335118717E-01 Delta-E=       -0.000000155325 Rises=F Damp=F
 DIIS: error= 6.05D-06 at cycle   8 NSaved=   8.
 NSaved= 8 IEnMin= 8 EnMin= 0.257873335118717E-01 IErMin= 8 ErrMin= 6.05D-06
 ErrMax= 6.05D-06  0.00D+00 EMaxC= 1.00D-01 BMatC= 6.09D-10 BMatP= 1.61D-08
 IDIUse=1 WtCom= 1.00D+00 WtEn= 0.00D+00
 Coeff-Com:  0.308D-04 0.221D-03-0.664D-03 0.881D-02-0.614D-01 0.296D+00
 Coeff-Com: -0.792D+00 0.155D+01
 Coeff:      0.308D-04 0.221D-03-0.664D-03 0.881D-02-0.614D-01 0.296D+00
 Coeff:     -0.792D+00 0.155D+01
 Gap=     0.377 Goal=   None    Shift=    0.000
 RMSDP=5.57D-06 MaxDP=5.26D-05 DE=-1.55D-07 OVMax= 6.65D-05

 Cycle   9  Pass 1  IDiag  3:
 E= 0.257873288166053E-01 Delta-E=       -0.000000004695 Rises=F Damp=F
 DIIS: error= 7.79D-07 at cycle   9 NSaved=   9.
 NSaved= 9 IEnMin= 9 EnMin= 0.257873288166053E-01 IErMin= 9 ErrMin= 7.79D-07
 ErrMax= 7.79D-07  0.00D+00 EMaxC= 1.00D-01 BMatC= 2.31D-11 BMatP= 6.09D-10
 IDIUse=1 WtCom= 1.00D+00 WtEn= 0.00D+00
 Coeff-Com:  0.241D-04-0.243D-03 0.464D-03-0.254D-02 0.182D-01-0.100D+00
 Coeff-Com:  0.291D+00-0.678D+00 0.147D+01
 Coeff:      0.241D-04-0.243D-03 0.464D-03-0.254D-02 0.182D-01-0.100D+00
 Coeff:      0.291D+00-0.678D+00 0.147D+01
 Gap=     0.377 Goal=   None    Shift=    0.000
 RMSDP=8.53D-07 MaxDP=6.37D-06 DE=-4.70D-09 OVMax= 9.62D-06

 Cycle  10  Pass 1  IDiag  3:
 E= 0.257873286754489E-01 Delta-E=       -0.000000000141 Rises=F Damp=F
 DIIS: error= 1.44D-07 at cycle  10 NSaved=  10.
 NSaved=10 IEnMin=10 EnMin= 0.257873286754489E-01 IErMin=10 ErrMin= 1.44D-07
 ErrMax= 1.44D-07  0.00D+00 EMaxC= 1.00D-01 BMatC= 9.71D-13 BMatP= 2.31D-11
 IDIUse=1 WtCom= 1.00D+00 WtEn= 0.00D+00
 Coeff-Com: -0.149D-04 0.124D-03-0.240D-03 0.108D-02-0.718D-02 0.408D-01
 Coeff-Com: -0.120D+00 0.286D+00-0.734D+00 0.153D+01
 Coeff:     -0.149D-04 0.124D-03-0.240D-03 0.108D-02-0.718D-02 0.408D-01
 Coeff:     -0.120D+00 0.286D+00-0.734D+00 0.153D+01
 Gap=     0.377 Goal=   None    Shift=    0.000
 RMSDP=1.71D-07 MaxDP=1.12D-06 DE=-1.41D-10 OVMax= 1.13D-06

 Cycle  11  Pass 1  IDiag  3:
 E= 0.257873286693950E-01 Delta-E=       -0.000000000006 Rises=F Damp=F
 DIIS: error= 2.27D-08 at cycle  11 NSaved=  11.
 NSaved=11 IEnMin=11 EnMin= 0.257873286693950E-01 IErMin=11 ErrMin= 2.27D-08
 ErrMax= 2.27D-08  0.00D+00 EMaxC= 1.00D-01 BMatC= 3.75D-14 BMatP= 9.71D-13
 IDIUse=1 WtCom= 1.00D+00 WtEn= 0.00D+00
 Coeff-Com:  0.422D-05-0.344D-04 0.650D-04-0.277D-03 0.180D-02-0.105D-01
 Coeff-Com:  0.312D-01-0.745D-01 0.200D+00-0.528D+00 0.138D+01
 Coeff:      0.422D-05-0.344D-04 0.650D-04-0.277D-03 0.180D-02-0.105D-01
 Coeff:      0.312D-01-0.745D-01 0.200D+00-0.528D+00 0.138D+01
 Gap=     0.377 Goal=   None    Shift=    0.000
 RMSDP=3.51D-08 MaxDP=2.53D-07 DE=-6.05D-12 OVMax= 3.35D-07

 Cycle  12  Pass 1  IDiag  3:
 E= 0.257873286691819E-01 Delta-E=        0.000000000000 Rises=F Damp=F
 DIIS: error= 6.45D-09 at cycle  12 NSaved=  12.
 NSaved=12 IEnMin=12 EnMin= 0.257873286691819E-01 IErMin=12 ErrMin= 6.45D-09
 ErrMax= 6.45D-09  0.00D+00 EMaxC= 1.00D-01 BMatC= 3.49D-15 BMatP= 3.75D-14
 IDIUse=1 WtCom= 1.00D+00 WtEn= 0.00D+00
 Coeff-Com: -0.910D-06 0.752D-05-0.132D-04 0.539D-04-0.346D-03 0.216D-02
 Coeff-Com: -0.641D-02 0.151D-01-0.425D-01 0.133D+00-0.625D+00 0.152D+01
 Coeff:     -0.910D-06 0.752D-05-0.132D-04 0.539D-04-0.346D-03 0.216D-02
 Coeff:     -0.641D-02 0.151D-01-0.425D-01 0.133D+00-0.625D+00 0.152D+01
 Gap=     0.377 Goal=   None    Shift=    0.000
 RMSDP=1.31D-08 MaxDP=7.55D-08 DE=-2.13D-13 OVMax= 1.49D-07

 Cycle  13  Pass 1  IDiag  3:
 E= 0.257873286690824E-01 Delta-E=        0.000000000000 Rises=F Damp=F
 DIIS: error= 2.10D-09 at cycle  13 NSaved=  13.
 NSaved=13 IEnMin=13 EnMin= 0.257873286690824E-01 IErMin=13 ErrMin= 2.10D-09
 ErrMax= 2.10D-09  0.00D+00 EMaxC= 1.00D-01 BMatC= 1.90D-16 BMatP= 3.49D-15
 IDIUse=1 WtCom= 1.00D+00 WtEn= 0.00D+00
 Coeff-Com:  0.100D-06-0.806D-06 0.105D-05-0.338D-05 0.183D-04-0.166D-03
 Coeff-Com:  0.492D-03-0.103D-02 0.344D-02-0.173D-01 0.160D+00-0.611D+00
 Coeff-Com:  0.147D+01
 Coeff:      0.100D-06-0.806D-06 0.105D-05-0.338D-05 0.183D-04-0.166D-03
 Coeff:      0.492D-03-0.103D-02 0.344D-02-0.173D-01 0.160D+00-0.611D+00
 Coeff:      0.147D+01
 Gap=     0.377 Goal=   None    Shift=    0.000
 RMSDP=2.96D-09 MaxDP=2.16D-08 DE=-9.95D-14 OVMax= 3.05D-08

 Cycle  14  Pass 2  IDiag  1:
 SCF Done:  E(RAM1) =  0.257873286691E-01 A.U. after   14 cycles
            NFock= 13  Conv=0.30D-08     -V/T= 1.0016
 KE=-1.653025933852D+01 PE=-1.710455006379D+02 EE= 8.416169214485D+01
 Leave Link  502 at Tue Dec 15 16:21:25 2015, MaxMem=    33554432 cpu:         0.0
 (Enter /home/Applications/g09/g09/l801.exe)
 Range of M.O.s used for correlation:     1    24
 NBasis=    24 NAE=    13 NBE=    13 NFC=     0 NFV=     0
 NROrb=     24 NOA=    13 NOB=    13 NVA=    11 NVB=    11
 Leave Link  801 at Tue Dec 15 16:21:25 2015, MaxMem=    33554432 cpu:         0.0
 (Enter /home/Applications/g09/g09/l914.exe)
 RHF ground state
 MDV=    33554432 DFT=F DoStab=F Mixed=F DoRPA=F DoScal=F NonHer=F
 Making orbital integer symmetry assigments:
 Orbital symmetries:
       Occupied  (A) (A) (A) (A) (A) (A) (A) (A) (A) (A) (A) (A)
                 (A)
       Virtual   (A) (A) (A) (A) (A) (A) (A) (A) (A) (A) (A)
    60 initial guesses have been made.
 Convergence on wavefunction:    0.000001000000000
 Davidson Disk Diagonalization:  ConvIn= 1.00D-06 SkipCon=T Conv= 1.00D-06.
 Max sub-space:   240 roots to seek:    60 dimension of matrix:          286
 Iteration     1 Dimension    60 NMult     0 NNew     60
 CISAX will form    60 AO SS matrices at one time.
 NMat=    60 NSing=    60 JSym2X= 0.
 FoFJK:  IHMeth= 8 ICntrl=       0 DoSepK=F KAlg= 0 I1Cent=   0 FoldK=F
 IRaf=         1 NMat= 120 IRICut=       1 DoRegI=T DoRafI=F ISym2E= 0.
 FoFCou: FMM=F IPFlag=           0 FMFlag=      100000 FMFlg1=           0
         NFxFlg=           0 DoJE=F BraDBF=F KetDBF=F FulRan=T
         wScrn=  0.000000 ICntrl=       0 IOpCl=  0 I1Cent=           0 NGrid=           0
         NMat0=  120 NMatS0=     60 NMatT0=    0 NMatD0=  120 NMtDS0=    0 NMtDT0=    0
 Symmetry not used in FoFCou.
 New state      3 was old state      4
 New state      4 was old state      7
 New state      5 was old state      8
 New state      6 was old state      9
 New state      7 was old state      3
 New state      8 was old state      6
 New state      9 was old state      5
 New state     10 was old state     14
 New state     11 was old state     10
 New state     12 was old state     16
 New state     13 was old state     21
 New state     14 was old state     13
 New state     15 was old state     11
 Excitation Energies [eV] at current iteration:
 Root      1 :     4.492843198401127
 Root      2 :     5.194814692489651
 Root      3 :     5.276895329564261
 Root      4 :     6.088000669146230
 Root      5 :     6.248545830134090
 Root      6 :     6.330065089669013
 Root      7 :     6.511794694977429
 Root      8 :     6.571534072342807
 Root      9 :     6.796802090870298
 Root     10 :     7.246714524495538
 Root     11 :     7.333751960550976
 Root     12 :     7.463558815197455
 Root     13 :     7.614470850325437
 Root     14 :     7.684937536219093
 Root     15 :     7.743985704326473
 Root     16 :     7.808764337719905
 Root     17 :     7.904223340592961
 Root     18 :     8.171131221577436
 Root     19 :     8.230708432352703
 Root     20 :     8.278512921189083
 Root     21 :     8.768682135002951
 Root     22 :     8.932622371538253
 Root     23 :     9.206510677009470
 Root     24 :     9.243405482159012
 Root     25 :     9.437736448554288
 Root     26 :     9.545729865012284
 Root     27 :     9.649389015357757
 Root     28 :     9.751210878629450
 Root     29 :     9.828497532973039
 Root     30 :     9.883659344221758
 Root     31 :     9.992888853913016
 Root     32 :    10.063946326761060
 Root     33 :    10.175453171752020
 Root     34 :    10.183571600288690
 Root     35 :    10.234831647058480
 Root     36 :    10.399769300471490
 Root     37 :    10.591828178913750
 Root     38 :    10.611391774659640
 Root     39 :    10.679383429583050
 Root     40 :    10.720725381658610
 Root     41 :    10.898886513470200
 Root     42 :    11.190174506694610
 Root     43 :    11.209636474043250
 Root     44 :    11.348128949783120
 Root     45 :    11.438146381371250
 Root     46 :    11.670119751696750
 Root     47 :    11.807514701983270
 Root     48 :    11.884786315471650
 Root     49 :    11.987362291541170
 Root     50 :    12.090443514980870
 Root     51 :    12.176928707570750
 Root     52 :    12.648677495289170
 Root     53 :    12.846307853578090
 Root     54 :    12.887010592513610
 Root     55 :    13.045174805299210
 Root     56 :    13.129260525647550
 Root     57 :    13.307376451081030
 Root     58 :    13.387504852885210
 Root     59 :    13.469698841453700
 Root     60 :    13.692920043809320
 Iteration     2 Dimension   120 NMult    60 NNew     60
 CISAX will form    60 AO SS matrices at one time.
 NMat=    60 NSing=    60 JSym2X= 0.
 Root      1 not converged, maximum delta is    0.033464926789880
 Root      2 not converged, maximum delta is    0.035262103180371
 Root      3 not converged, maximum delta is    0.027522903398993
 Root      4 not converged, maximum delta is    0.055740112528259
 Root      5 not converged, maximum delta is    0.077389427394620
 Root      6 not converged, maximum delta is    0.082274390470029
 Root      7 not converged, maximum delta is    0.045039900680245
 Root      8 not converged, maximum delta is    0.087037258235903
 Root      9 not converged, maximum delta is    0.045434728749054
 Root     10 not converged, maximum delta is    0.097874494684034
 Root     11 not converged, maximum delta is    0.088126373654199
 Root     12 not converged, maximum delta is    0.113871390898174
 Root     13 not converged, maximum delta is    0.250456087509153
 Root     14 not converged, maximum delta is    0.279673468131129
 Root     15 not converged, maximum delta is    0.151363295087722
 Excitation Energies [eV] at current iteration:
 Root      1 :     4.407724477437496   Change is   -0.085118720963631
 Root      2 :     5.174143911966807   Change is   -0.020670780522844
 Root      3 :     5.252358396947185   Change is   -0.024536932617076
 Root      4 :     5.995386342047535   Change is   -0.092614327098696
 Root      5 :     6.114744717528703   Change is   -0.133801112605388
 Root      6 :     6.209177528575442   Change is   -0.120887561093570
 Root      7 :     6.375805250492010   Change is   -0.135989444485419
 Root      8 :     6.487536391686489   Change is   -0.083997680656318
 Root      9 :     6.739357426511751   Change is   -0.057444664358548
 Root     10 :     7.091377461847266   Change is   -0.155337062648273
 Root     11 :     7.223293094975981   Change is   -0.110458865574995
 Root     12 :     7.400390151690855   Change is   -0.063168663506600
 Root     13 :     7.497461439162433   Change is   -0.117009411163005
 Root     14 :     7.557232673306181   Change is   -0.127704862912912
 Root     15 :     7.642596469824262   Change is   -0.101389234502211
 Root     16 :     7.699731297810569   Change is   -0.109033039909335
 Root     17 :     7.834768872364574   Change is   -0.069454468228387
 Root     18 :     7.978470442088152   Change is   -0.192660779489284
 Root     19 :     8.102683216316697   Change is   -0.175829704872386
 Root     20 :     8.149021231057390   Change is   -0.081687201295313
 Root     21 :     8.694844509181626   Change is   -0.073837625821326
 Root     22 :     8.868489158455949   Change is   -0.338021518553521
 Root     23 :     8.906595295531803   Change is   -0.026027076006450
 Root     24 :     9.024205980484460   Change is   -0.219199501674552
 Root     25 :     9.102357867197616   Change is   -0.335378581356672
 Root     26 :     9.253415561835105   Change is   -0.575081971137933
 Root     27 :     9.426377634669585   Change is   -0.637568692091480
 Root     28 :     9.465657360546251   Change is   -0.080072504466033
 Root     29 :     9.515249174824577   Change is   -0.660203996927440
 Root     30 :     9.547564022890230   Change is   -0.101824992467528
 Root     31 :     9.664871972586504   Change is   -0.328016881326512
 Root     32 :     9.724220468902548   Change is   -0.026990409726903
 Root     33 :     9.779035873696701   Change is   -0.455795773361781
 Root     34 :     9.793194900627457   Change is   -0.798633278286294
 Root     35 :     9.844150888331491   Change is   -0.039508455890268
 Root     36 :     9.897975653384698   Change is   -0.501793647086795
 Root     37 :    10.033906648683050   Change is   -0.149664951605639
 Root     38 :    10.258807019941470   Change is   -0.461918361717139
 Root     39 :    10.279881524075460   Change is   -0.331510250584177
 Root     40 :    10.441756576211910   Change is   -0.457129937258282
 Root     41 :    10.591082738717980   Change is   -0.088300690865072
 Root     42 :    10.667587904228610   Change is   -0.680541045554504
 Root     43 :    10.827161821062550   Change is   -0.382474652980705
 Root     44 :    10.859735780175400   Change is   -0.330438726519213
 Root     45 :    11.025844119667570   Change is   -0.412302261703676
 Root     46 :    11.292477792894130   Change is   -0.377641958802623
 Root     47 :    11.422310361156710   Change is   -0.385204340826563
 Root     48 :    11.566160473813450   Change is   -0.318625841658192
 Root     49 :    11.629623523905110   Change is   -0.460819991075762
 Root     50 :    11.713370841773320   Change is   -0.273991449767852
 Root     51 :    11.862600022155690   Change is   -0.314328685415060
 Root     52 :    11.973654662338040   Change is   -0.913355930175575
 Root     53 :    12.318938785080710   Change is   -0.329738710208458
 Root     54 :    12.458744901026890   Change is   -0.586429904272318
 Root     55 :    12.555225652187400   Change is   -0.752150798893630
 Root     56 :    12.738823420018200   Change is   -0.390437105629351
 Root     57 :    12.798622906427240   Change is   -0.047684947150845
 Root     58 :    12.878943948097470   Change is   -0.508560904787742
 Root     59 :    12.915163262257320   Change is   -0.554535579196380
 Root     60 :    13.062472316103390
 Iteration     3 Dimension   135 NMult   120 NNew     15
 CISAX will form    15 AO SS matrices at one time.
 NMat=    15 NSing=    15 JSym2X= 0.
 Root      1 not converged, maximum delta is    0.001762513395259
 Root      2 not converged, maximum delta is    0.000205120765810
 Root      3 not converged, maximum delta is    0.000270113253927
 Root      4 not converged, maximum delta is    0.000105844268349
 Root      5 not converged, maximum delta is    0.000270847679574
 Root      6 not converged, maximum delta is    0.000124224385047
 Root      7 not converged, maximum delta is    0.001155944910662
 Root      8 not converged, maximum delta is    0.000298155193316
 Root      9 not converged, maximum delta is    0.001956790088267
 Root     10 not converged, maximum delta is    0.000254118420440
 Root     11 not converged, maximum delta is    0.000688238414668
 Root     12 not converged, maximum delta is    0.000206925569508
 Root     13 not converged, maximum delta is    0.000278561705548
 Root     14 not converged, maximum delta is    0.000195297629570
 Root     15 not converged, maximum delta is    0.000286888523050
 Excitation Energies [eV] at current iteration:
 Root      1 :     4.407410794845311   Change is   -0.000313682592184
 Root      2 :     5.174127132320564   Change is   -0.000016779646243
 Root      3 :     5.252333436615285   Change is   -0.000024960331900
 Root      4 :     5.995381423324312   Change is   -0.000004918723223
 Root      5 :     6.114728913148676   Change is   -0.000015804380026
 Root      6 :     6.209172280289936   Change is   -0.000005248285507
 Root      7 :     6.375414576172542   Change is   -0.000390674319467
 Root      8 :     6.487516184123015   Change is   -0.000020207563474
 Root      9 :     6.738927368986298   Change is   -0.000430057525453
 Root     10 :     7.091360496064990   Change is   -0.000016965782275
 Root     11 :     7.223207537165883   Change is   -0.000085557810098
 Root     12 :     7.400376549185784   Change is   -0.000013602505071
 Root     13 :     7.497443484307570   Change is   -0.000017954854863
 Root     14 :     7.557223032044354   Change is   -0.000009641261827
 Root     15 :     7.642581518758943   Change is   -0.000014951065320
 Iteration     4 Dimension   143 NMult   135 NNew      8
 CISAX will form     8 AO SS matrices at one time.
 NMat=     8 NSing=     8 JSym2X= 0.
 Root      1 not converged, maximum delta is    0.000051966189048
 Root      2 not converged, maximum delta is    0.000007618627948
 Root      3 not converged, maximum delta is    0.000010793962147
 Root      4 not converged, maximum delta is    0.000007569560458
 Root      5 not converged, maximum delta is    0.000013667174127
 Root      6 not converged, maximum delta is    0.000009442770633
 Root      7 not converged, maximum delta is    0.000069543852409
 Root      8 not converged, maximum delta is    0.000015032973553
 Root      9 not converged, maximum delta is    0.000044621521055
 Root     10 not converged, maximum delta is    0.000014266989348
 Root     11 not converged, maximum delta is    0.000058860680633
 Root     12 not converged, maximum delta is    0.000032532059539
 Root     13 not converged, maximum delta is    0.000008415243279
 Root     14 not converged, maximum delta is    0.000014934273398
 Root     15 not converged, maximum delta is    0.000021378521142
 Excitation Energies [eV] at current iteration:
 Root      1 :     4.407410055264380   Change is   -0.000000739580931
 Root      2 :     5.174127104306842   Change is   -0.000000028013722
 Root      3 :     5.252333390300094   Change is   -0.000000046315192
 Root      4 :     5.995381409881351   Change is   -0.000000013442960
 Root      5 :     6.114728865114525   Change is   -0.000000048034151
 Root      6 :     6.209172251120105   Change is   -0.000000029169831
 Root      7 :     6.375413297984620   Change is   -0.000001278187922
 Root      8 :     6.487516145813153   Change is   -0.000000038309863
 Root      9 :     6.738926538099807   Change is   -0.000000830886491
 Root     10 :     7.091360450202748   Change is   -0.000000045862243
 Root     11 :     7.223207119973818   Change is   -0.000000417192065
 Root     12 :     7.400376440529038   Change is   -0.000000108656746
 Root     13 :     7.497443465848787   Change is   -0.000000018458783
 Root     14 :     7.557222980560437   Change is   -0.000000051483917
 Root     15 :     7.642581375118104   Change is   -0.000000143640839
 Convergence achieved on expansion vectors.
 ***********************************************************************
 Excited states from <AA,BB:AA,BB> singles matrix:
 ***********************************************************************
 
 1PDM for each excited state written to RWF  633
 Ground to excited state transition densities written to RWF  633
 Ground to excited state transition electric dipole moments (Au):
       state          X           Y           Z        Dip. S.      Osc.
         1        -0.7304     -0.5572     -0.0192      0.8444      0.0912
         2        -0.1185      0.1573      0.0221      0.0393      0.0050
         3         0.1042     -0.1087      0.0308      0.0236      0.0030
         4         0.0261     -0.0348      0.1442      0.0227      0.0033
         5        -0.0706      0.0611     -0.0405      0.0103      0.0016
         6         0.0693      0.0572      0.0198      0.0085      0.0013
         7        -0.9666      1.1899     -0.0128      2.3505      0.3671
         8        -0.0743      0.2623      0.0213      0.0747      0.0119
         9         0.7386      0.3100     -0.0780      0.6477      0.1069
        10         0.0470      0.0243      0.0218      0.0033      0.0006
        11        -0.0882      0.0983      0.0643      0.0216      0.0038
        12        -0.0045     -0.0035     -0.1012      0.0103      0.0019
        13         0.0837     -0.0380     -0.0572      0.0117      0.0022
        14         0.0295      0.0015      0.0796      0.0072      0.0013
        15        -0.0898      0.0040     -0.0535      0.0109      0.0020
 Ground to excited state transition velocity dipole moments (Au):
       state          X           Y           Z        Dip. S.      Osc.
         1         0.0438      0.0299      0.0145      0.0030      0.0125
         2         0.0110     -0.0011     -0.0104      0.0002      0.0008
         3        -0.0097     -0.0008     -0.0203      0.0005      0.0018
         4        -0.0053      0.0059     -0.0969      0.0095      0.0286
         5         0.0230     -0.0191      0.0720      0.0061      0.0180
         6        -0.0096     -0.0077     -0.0474      0.0024      0.0070
         7         0.1974     -0.2436      0.0250      0.0989      0.2815
         8         0.0154     -0.0598     -0.1495      0.0262      0.0731
         9        -0.1484     -0.0528      0.0465      0.0270      0.0726
        10        -0.0111     -0.0049     -0.0351      0.0014      0.0035
        11         0.0216     -0.0208      0.0242      0.0015      0.0037
        12        -0.0029     -0.0009     -0.0114      0.0001      0.0003
        13        -0.0258      0.0150      0.0334      0.0020      0.0048
        14        -0.0041      0.0025      0.0210      0.0005      0.0011
        15         0.0179     -0.0035     -0.0215      0.0008      0.0019
 Ground to excited state transition magnetic dipole moments (Au):
       state          X           Y           Z
         1         0.0294      0.0273     -0.7225
         2        -0.3723      0.3393     -0.0008
         3        -0.3479      0.2969     -0.0354
         4         0.2529      0.1467      0.0061
         5        -0.0131      0.0875      0.0114
         6         0.0908      0.1754      0.0005
         7        -0.0086      0.0244      0.0376
         8        -0.0054     -0.2456     -0.0055
         9         0.0892      0.0450      0.0397
        10        -0.6340      0.3949     -0.0235
        11         0.7983     -0.1965      0.0363
        12        -1.2789     -1.2136     -0.0608
        13         0.4039     -0.0699     -0.0410
        14        -0.1503      0.3446      0.0156
        15         0.1324     -0.0565     -0.0771
 Ground to excited state transition velocity quadrupole moments (Au):
       state          XX          YY          ZZ          XY          XZ          YZ
         1         0.4198     -0.4181      0.0105     -0.0488      0.0050     -0.0029
         2        -0.0506      0.0162      0.0504      0.0853      0.0756      0.0641
         3         0.0701     -0.0116     -0.0566     -0.0996      0.0634      0.0697
         4         0.0117     -0.0177      0.0087      0.0022     -0.2327      0.1847
         5        -0.0004      0.0235     -0.0086      0.0272     -0.0745     -0.1465
         6         0.0287     -0.0434      0.0101      0.0023     -0.0717      0.0704
         7         0.2170     -0.0410     -0.0517      0.3554      0.0209      0.0607
         8         0.1535     -0.1217     -0.0058      0.0580     -0.0056     -0.0489
         9         0.5146     -0.5309      0.0138     -0.1239      0.0182      0.0010
        10         0.0754     -0.0438     -0.0277     -0.0247     -0.0928     -0.1713
        11         0.0221      0.0546     -0.0181      0.0337     -0.0696     -0.0695
        12         0.0578     -0.0510     -0.0066     -0.0119      0.0058     -0.0049
        13         0.0387     -0.0572     -0.0068     -0.0436     -0.0638      0.2563
        14         0.0333     -0.0337     -0.0311     -0.0030     -0.0920      0.2416
        15         0.0813     -0.0002      0.0089      0.0033     -0.3681      0.0777
 <0|del|b> * <b|rxdel|0> + <0|del|b> * <b|delr+rdel|0>
 Rotatory Strengths (R) in cgs (10**-40 erg-esu-cm/Gauss)
       state          XX          YY          ZZ    R(velocity)    E-M Angle
         1       -22.9621    -18.7958      5.1948    -12.1877      102.14
         2        -2.1472     -4.6239     -9.7085     -5.4932      125.58
         3         4.6722      2.5582      6.8811      4.7038       68.12
         4         2.3084     -4.3586     -1.4007     -1.1503       92.17
         5        -0.5016     -7.5530      4.4350     -1.2065       99.52
         6        -3.1593     -2.2547     -1.5426     -2.3189      103.42
         7        13.5153      3.5178    -37.2887     -6.7519      117.84
         8         9.6574     12.8423     23.2662     15.2553       67.16
         9        -7.6061     -8.2340    -23.4490    -13.0964      141.22
        10        -0.9488     12.0368      4.9407      5.3429       77.72
        11         5.7681     21.0483     32.3266     19.7143       45.55
        12         2.4519      5.5319      6.1301      4.7047       74.89
        13        -3.7436    -21.7256     -7.4497    -10.9730      134.09
        14         1.7285      0.0203      2.8540      1.5342       77.12
        15         0.6205      6.9149      3.1112      3.5488       23.35
 1/2[<0|r|b>*<b|rxdel|0> + (<0|rxdel|b>*<b|r|0>)*]
 Rotatory Strengths (R) in cgs (10**-40 erg-esu-cm/Gauss)
       state          XX          YY          ZZ     R(length)
         1        15.1856     10.7668     -9.8215      5.3770
         2       -31.2059    -37.7350      0.0119    -22.9763
         3        25.6387     22.8242      0.7723     16.4117
         4        -4.6611      3.6151     -0.6268     -0.5576
         5        -0.6521     -3.7777      0.3281     -1.3672
         6        -4.4506     -7.0966     -0.0066     -3.8513
         7        -5.8952    -20.5533      0.3403     -8.7028
         8        -0.2834     45.5480      0.0833     15.1160
         9       -46.5930     -9.8558      2.1900    -18.0863
        10        21.0631     -6.7909      0.3614      4.8779
        11        49.7749     13.6675     -1.6517     20.5969
        12        -4.0572     -2.9837     -4.3488     -3.7966
        13       -23.9116     -1.8815     -1.6594     -9.1508
        14         3.1356     -0.3544     -0.8753      0.6353
        15         8.4060      0.1604     -2.9199      1.8822
  1/2[<0|del|b>*<b|r|0> + (<0|r|b>*<b|del|0>)*] (Au)
       state          X           Y           Z        Dip. S.   Osc.(frdel)
         1        -0.0320     -0.0167     -0.0003      0.0490      0.0326
         2        -0.0013     -0.0002     -0.0002      0.0017      0.0011
         3        -0.0010      0.0001     -0.0006      0.0015      0.0010
         4        -0.0001     -0.0002     -0.0140      0.0143      0.0095
         5        -0.0016     -0.0012     -0.0029      0.0057      0.0038
         6        -0.0007     -0.0004     -0.0009      0.0020      0.0014
         7        -0.1908     -0.2898     -0.0003      0.4810      0.3206
         8        -0.0011     -0.0157     -0.0032      0.0200      0.0133
         9        -0.1096     -0.0164     -0.0036      0.1296      0.0864
        10        -0.0005     -0.0001     -0.0008      0.0014      0.0009
        11        -0.0019     -0.0020      0.0016      0.0024      0.0016
        12         0.0000      0.0000      0.0012     -0.0012     -0.0008
        13        -0.0022     -0.0006     -0.0019      0.0046      0.0031
        14        -0.0001      0.0000      0.0017     -0.0016     -0.0010
        15        -0.0016      0.0000      0.0012      0.0005      0.0003

 Excitation energies and oscillator strengths:
 
 Excited State   1:      Singlet-A      4.4074 eV  281.31 nm  f=0.0912  <S**2>=0.000
      12 -> 15         0.16206
      13 -> 14         0.67982
 This state for optimization and/or second-order correction.
 Total Energy, E(CIS) =  0.187756674949    
 Copying the excited state density for this state as the 1-particle RhoCI density.
 
 Excited State   2:      Singlet-A      5.1741 eV  239.62 nm  f=0.0050  <S**2>=0.000
      12 -> 14        -0.28558
      13 -> 15         0.43743
      13 -> 16         0.45295
 
 Excited State   3:      Singlet-A      5.2523 eV  236.06 nm  f=0.0030  <S**2>=0.000
      12 -> 14         0.30504
      13 -> 15        -0.36126
      13 -> 16         0.50536
 
 Excited State   4:      Singlet-A      5.9954 eV  206.80 nm  f=0.0033  <S**2>=0.000
      12 -> 16         0.13986
      12 -> 19         0.10386
      12 -> 22         0.18685
      13 -> 18         0.55353
      13 -> 21        -0.14768
      13 -> 23        -0.19915
      13 -> 24        -0.15248
 
 Excited State   5:      Singlet-A      6.1147 eV  202.76 nm  f=0.0016  <S**2>=0.000
      12 -> 18         0.20720
      12 -> 24        -0.11547
      13 -> 18        -0.12385
      13 -> 19         0.45286
      13 -> 22         0.40814
 
 Excited State   6:      Singlet-A      6.2092 eV  199.68 nm  f=0.0013  <S**2>=0.000
       7 -> 16        -0.20050
      12 -> 15         0.11735
      12 -> 16         0.61021
      12 -> 21         0.11110
      13 -> 18        -0.11633
 
 Excited State   7:      Singlet-A      6.3754 eV  194.47 nm  f=0.3671  <S**2>=0.000
       9 -> 16        -0.10147
      12 -> 14         0.52104
      13 -> 15         0.39128
 
 Excited State   8:      Singlet-A      6.4875 eV  191.11 nm  f=0.0119  <S**2>=0.000
      11 -> 14         0.10432
      12 -> 15         0.12470
      12 -> 19        -0.10747
      13 -> 17         0.59394
      13 -> 18         0.11581
      13 -> 22         0.12567
      13 -> 23         0.13540
      13 -> 24         0.10677
 
 Excited State   9:      Singlet-A      6.7389 eV  183.98 nm  f=0.1069  <S**2>=0.000
      12 -> 15         0.65258
      12 -> 16        -0.10799
      13 -> 14        -0.14622
      13 -> 17        -0.11765
 
 Excited State  10:      Singlet-A      7.0914 eV  174.84 nm  f=0.0006  <S**2>=0.000
      12 -> 17         0.29268
      12 -> 18         0.38909
      12 -> 19        -0.17998
      13 -> 19        -0.35425
      13 -> 22         0.20470
 
 Excited State  11:      Singlet-A      7.2232 eV  171.65 nm  f=0.0038  <S**2>=0.000
       9 -> 15         0.16264
      10 -> 14         0.28396
      11 -> 14         0.52879
      11 -> 15        -0.23254
 
 Excited State  12:      Singlet-A      7.4004 eV  167.54 nm  f=0.0019  <S**2>=0.000
       9 -> 14         0.51885
       9 -> 15         0.11189
      10 -> 14         0.18593
      10 -> 15         0.21737
      11 -> 15         0.21197
      12 -> 19        -0.12158
      12 -> 22        -0.10320
      13 -> 20        -0.12636
      13 -> 24         0.15103
 
 Excited State  13:      Singlet-A      7.4974 eV  165.37 nm  f=0.0022  <S**2>=0.000
      11 -> 14        -0.10885
      12 -> 17        -0.10120
      12 -> 18         0.34900
      12 -> 19         0.11560
      13 -> 16         0.10012
      13 -> 17         0.14190
      13 -> 18        -0.15685
      13 -> 20        -0.14849
      13 -> 21        -0.28663
      13 -> 22        -0.29863
      13 -> 24        -0.15874
 
 Excited State  14:      Singlet-A      7.5572 eV  164.06 nm  f=0.0013  <S**2>=0.000
       9 -> 14         0.21157
      10 -> 14        -0.10607
      11 -> 14         0.13983
      11 -> 15         0.12275
      12 -> 19         0.28741
      12 -> 21         0.10247
      12 -> 22         0.16983
      13 -> 18        -0.22095
      13 -> 19        -0.17407
      13 -> 20         0.24847
      13 -> 22         0.20946
      13 -> 24        -0.21845
 
 Excited State  15:      Singlet-A      7.6426 eV  162.23 nm  f=0.0020  <S**2>=0.000
       8 -> 14        -0.11431
      10 -> 14         0.35044
      10 -> 15         0.15444
      11 -> 14        -0.23291
      11 -> 15        -0.10027
      12 -> 17         0.24741
      12 -> 18        -0.10032
      12 -> 20         0.18937
      12 -> 22         0.11450
      12 -> 23         0.12320
      13 -> 17         0.19090
      13 -> 18        -0.13704
      13 -> 20         0.15107
      13 -> 21         0.10311
      13 -> 23        -0.14170
      13 -> 24        -0.11403
 SavETr:  write IOETrn=   770 NScale= 10 NData=  16 NLR=1 NState=   15 LETran=     280.
 The selected state is a singlet
 CISAX will form     1 AO SS matrices at one time.
 NMat=     1 NSing=     1 JSym2X= 0.
 Leave Link  914 at Tue Dec 15 16:21:25 2015, MaxMem=    33554432 cpu:         0.1
 (Enter /home/Applications/g09/g09/l1002.exe)
 Minotr:  Closed shell wavefunction.
          Computing CIS/TD-HF/TD-KS derivatives.
          Using Z-Vector for PSCF gradient.
          Skipping F1 and S1 gradient terms here.
          IDoAtm=111111111
          Direct CPHF calculation.
          Differentiating once with respect to electric field.
                with respect to dipole field.
          Differentiating once with respect to nuclear coordinates.
          Electric field/nuclear overlap derivatives assumed to be zero.
          Requested convergence is 1.0D-10 RMS, and 1.0D-09 maximum.
          NewPWx=T KeepS1=F KeepF1=F KeepIn=T MapXYZ=F SortEE=F KeepMc=T.
          MDV=      33495423 using IRadAn=       0.
 Keep J ints in memory in canonical form, NReq=871704.
 FoFCou: FMM=F IPFlag=           0 FMFlag=           0 FMFlg1=           0
         NFxFlg=           0 DoJE=F BraDBF=F KetDBF=F FulRan=T
         wScrn=  0.000000 ICntrl=     600 IOpCl=  2 I1Cent=           0 NGrid=           0
         NMat0=    1 NMatS0=     54 NMatT0=    0 NMatD0=    1 NMtDS0=    0 NMtDT0=    0
 Symmetry not used in FoFCou.
          Solving linear equations separately, MaxMat=       0.
          There are     1 degrees of freedom in the 1st order CPHF.  IDoFFX=0 NUNeed=     1.
 LinEq1:  Iter=  0 NonCon=     1 RMS=1.12D-02 Max=8.40D-02 NDo=     1
 AX will form     1 AO Fock derivatives at one time.
 LinEq1:  Iter=  1 NonCon=     1 RMS=2.51D-03 Max=2.13D-02 NDo=     1
 LinEq1:  Iter=  2 NonCon=     1 RMS=4.14D-04 Max=2.89D-03 NDo=     1
 LinEq1:  Iter=  3 NonCon=     1 RMS=4.94D-05 Max=2.26D-04 NDo=     1
 LinEq1:  Iter=  4 NonCon=     1 RMS=4.86D-06 Max=2.10D-05 NDo=     1
 LinEq1:  Iter=  5 NonCon=     1 RMS=6.03D-07 Max=4.18D-06 NDo=     1
 LinEq1:  Iter=  6 NonCon=     1 RMS=8.34D-08 Max=3.34D-07 NDo=     1
 LinEq1:  Iter=  7 NonCon=     1 RMS=1.33D-08 Max=8.82D-08 NDo=     1
 LinEq1:  Iter=  8 NonCon=     1 RMS=1.63D-09 Max=5.46D-09 NDo=     1
 LinEq1:  Iter=  9 NonCon=     1 RMS=2.00D-10 Max=6.58D-10 NDo=     1
 LinEq1:  Iter= 10 NonCon=     0 RMS=1.81D-11 Max=5.82D-11 NDo=     1
 Linear equations converged to 1.000D-10 1.000D-09 after    10 iterations.
 End of Minotr F.D. properties file   721 does not exist.
 End of Minotr F.D. properties file   722 does not exist.
 End of Minotr F.D. properties file   788 does not exist.
 Leave Link 1002 at Tue Dec 15 16:21:25 2015, MaxMem=    33554432 cpu:         0.0
 (Enter /home/Applications/g09/g09/l601.exe)
 Copying SCF densities to generalized density rwf, IOpCl= 0 IROHF=0.

 **********************************************************************

            Population analysis using the SCF density.

 **********************************************************************

 Orbital symmetries:
       Occupied  (A) (A) (A) (A) (A) (A) (A) (A) (A) (A) (A) (A)
                 (A)
       Virtual   (A) (A) (A) (A) (A) (A) (A) (A) (A) (A) (A)
 The electronic state is 1-A.
 Alpha  occ. eigenvalues --   -1.55943  -1.25180  -1.09123  -0.81863  -0.80987
 Alpha  occ. eigenvalues --   -0.67994  -0.59458  -0.54940  -0.51692  -0.50536
 Alpha  occ. eigenvalues --   -0.49474  -0.40495  -0.34933
 Alpha virt. eigenvalues --    0.02816   0.06871   0.10268   0.13830   0.14067
 Alpha virt. eigenvalues --    0.14798   0.17630   0.18088   0.18653   0.20589
 Alpha virt. eigenvalues --    0.21807
     Molecular Orbital Coefficients:
                           1         2         3         4         5
                           O         O         O         O         O
     Eigenvalues --    -1.55943  -1.25180  -1.09123  -0.81863  -0.80987
   1 1   C  1S          0.31822  -0.45284  -0.30423  -0.11248   0.38478
   2        1PX         0.13458  -0.08885   0.04217  -0.02691  -0.15849
   3        1PY        -0.04426  -0.02990   0.20325  -0.36818   0.03162
   4        1PZ        -0.00452   0.00645   0.00287   0.00944  -0.00826
   5 2   C  1S          0.39422  -0.09788  -0.49432   0.31110  -0.27113
   6        1PX         0.14081   0.21036   0.05779  -0.17384  -0.24146
   7        1PY         0.11405  -0.15861  -0.01604   0.01498   0.25260
   8        1PZ        -0.00492  -0.00254   0.00341   0.00524   0.00576
   9 3   O  1S          0.59612   0.63607   0.00900  -0.27819   0.14330
  10        1PX        -0.13663  -0.01102   0.22042   0.01331   0.43936
  11        1PY         0.14498  -0.00817   0.18315   0.24940   0.24481
  12        1PZ         0.00439   0.00188  -0.00132   0.00799  -0.00538
  13 4   C  1S          0.35823  -0.10261   0.52704   0.41281  -0.00438
  14        1PX        -0.13302   0.10855  -0.01669   0.16636   0.15038
  15        1PY        -0.10815  -0.19878   0.04887  -0.05223  -0.32127
  16        1PZ        -0.00014  -0.00081   0.00076   0.00852  -0.00027
  17 5   C  1S          0.31128  -0.44068   0.31310  -0.36662  -0.21346
  18        1PX         0.01748   0.05100   0.21346   0.26834  -0.23526
  19        1PY        -0.13569   0.08173   0.01486  -0.12887  -0.09967
  20        1PZ         0.00454  -0.00663   0.00349  -0.00383  -0.00260
  21 6   H  1S          0.06578  -0.13337   0.12432  -0.23120  -0.13972
  22 7   H  1S          0.08077  -0.01804   0.21182   0.27298   0.04107
  23 8   H  1S          0.08160  -0.01539  -0.18854   0.16346  -0.18954
  24 9   H  1S          0.06669  -0.13651  -0.11851  -0.07267   0.25048
                           6         7         8         9        10
                           O         O         O         O         O
     Eigenvalues --    -0.67994  -0.59458  -0.54940  -0.51692  -0.50536
   1 1   C  1S         -0.08415   0.01400  -0.17343  -0.06462  -0.01000
   2        1PX         0.30639   0.02235   0.18456  -0.11972   0.53687
   3        1PY        -0.00779   0.01037  -0.21359   0.21380   0.00448
   4        1PZ         0.00504   0.26106   0.03402  -0.01840   0.00733
   5 2   C  1S         -0.09359   0.00385   0.12301   0.10070   0.07981
   6        1PX         0.23761   0.03060  -0.41323   0.16155  -0.00369
   7        1PY         0.30015   0.01775  -0.07004  -0.19516   0.15641
   8        1PZ         0.00205   0.40879   0.03144  -0.02172  -0.02557
   9 3   O  1S         -0.18121  -0.00508   0.07019  -0.20090   0.00652
  10        1PX        -0.25976  -0.00380   0.43639  -0.24856   0.10114
  11        1PY         0.37118  -0.01478   0.17956   0.50447  -0.16154
  12        1PZ         0.00282   0.75311   0.01809  -0.00321  -0.07609
  13 4   C  1S         -0.09985  -0.00689  -0.13940   0.00067  -0.06120
  14        1PX        -0.32524   0.03376  -0.26742   0.17479   0.44578
  15        1PY        -0.20786  -0.00143  -0.21737  -0.37702  -0.01297
  16        1PZ        -0.01084   0.36215  -0.00693   0.00258  -0.00121
  17 5   C  1S         -0.07574  -0.00774   0.16788   0.02510   0.03085
  18        1PX        -0.03344  -0.02952   0.06497  -0.28926  -0.38316
  19        1PY        -0.30294   0.01441   0.16398   0.34506   0.01829
  20        1PZ        -0.00212   0.24385   0.01295  -0.00222   0.00754
  21 6   H  1S         -0.22233   0.01304   0.21538   0.29809   0.04962
  22 7   H  1S         -0.27476   0.03386  -0.31472   0.07836   0.31510
  23 8   H  1S         -0.26828  -0.02502   0.23539   0.15875  -0.06108
  24 9   H  1S         -0.22572  -0.01860  -0.26609   0.08781  -0.42624
                          11        12        13        14        15
                           O         O         O         V         V
     Eigenvalues --    -0.49474  -0.40495  -0.34933   0.02816   0.06871
   1 1   C  1S          0.00218   0.02177  -0.01594  -0.02568   0.03528
   2        1PX        -0.11481  -0.02699   0.00964  -0.00042  -0.03902
   3        1PY        -0.42855   0.02949  -0.01959  -0.01728   0.00992
   4        1PZ         0.01620   0.56223  -0.39606  -0.27792   0.60873
   5 2   C  1S          0.01064  -0.00714  -0.00974   0.01035  -0.03610
   6        1PX         0.05196   0.00228  -0.02059  -0.00392  -0.03537
   7        1PY         0.48541  -0.02281   0.01422  -0.01136   0.01587
   8        1PZ         0.00271   0.15292  -0.56798   0.54215  -0.43177
   9 3   O  1S          0.04492   0.00043   0.00497   0.00236   0.01870
  10        1PX        -0.12307  -0.02069   0.00833  -0.00306  -0.03400
  11        1PY         0.03586   0.01188  -0.00001   0.00441   0.03030
  12        1PZ        -0.03165  -0.54669   0.03183  -0.35127   0.04292
  13 4   C  1S         -0.07495   0.00737  -0.00981  -0.01572  -0.02242
  14        1PX         0.07528  -0.02276  -0.03002  -0.02779  -0.01929
  15        1PY         0.08727   0.00064  -0.00082  -0.00905   0.02469
  16        1PZ        -0.00882   0.18240   0.60997   0.58734   0.33812
  17 5   C  1S         -0.02929  -0.02074  -0.00700   0.02387   0.02091
  18        1PX         0.20661   0.01246   0.01037  -0.01398  -0.00101
  19        1PY         0.45801  -0.00929  -0.00260  -0.00202   0.02058
  20        1PZ         0.00262   0.56888   0.38034  -0.39521  -0.55709
  21 6   H  1S          0.34991  -0.00418   0.00845  -0.01214  -0.03420
  22 7   H  1S          0.01714  -0.00623  -0.00211   0.02306   0.02785
  23 8   H  1S         -0.38665   0.01172   0.00360  -0.01395   0.03392
  24 9   H  1S          0.02167   0.00956   0.00353   0.01739  -0.05452
                          16        17        18        19        20
                           V         V         V         V         V
     Eigenvalues --     0.10268   0.13830   0.14067   0.14798   0.17630
   1 1   C  1S          0.07736   0.18941  -0.28450  -0.08480   0.14007
   2        1PX        -0.01244   0.24604   0.21428   0.12680   0.10263
   3        1PY         0.04538   0.11199   0.18474  -0.34743   0.34636
   4        1PZ        -0.06380  -0.00521   0.04126   0.02955  -0.00334
   5 2   C  1S         -0.26727  -0.20984   0.30629  -0.27147   0.20156
   6        1PX        -0.27075   0.34529   0.20649   0.09383  -0.10660
   7        1PY         0.15357   0.27583   0.15238  -0.02378  -0.19003
   8        1PZ         0.05416   0.01397  -0.02667  -0.00703  -0.00647
   9 3   O  1S          0.21161  -0.05224  -0.03087  -0.02448   0.04944
  10        1PX        -0.25067   0.12885   0.32761  -0.06346   0.07544
  11        1PY         0.43675  -0.06372   0.17721  -0.09401   0.20746
  12        1PZ         0.00935  -0.01450  -0.00314   0.00541   0.00025
  13 4   C  1S         -0.27895   0.15788  -0.29925  -0.29844  -0.17602
  14        1PX         0.02500   0.16268   0.17230  -0.13954   0.01311
  15        1PY         0.45352   0.04289   0.07104  -0.29202   0.20205
  16        1PZ        -0.03522   0.03410   0.00777  -0.02141   0.01108
  17 5   C  1S          0.05729  -0.28549   0.22965   0.07827  -0.33654
  18        1PX         0.04471   0.21523   0.25200   0.09570   0.30385
  19        1PY         0.07524   0.05803   0.08679  -0.36084  -0.29459
  20        1PZ         0.05069  -0.03557  -0.00332  -0.00144  -0.03234
  21 6   H  1S         -0.18092   0.21155  -0.28821   0.29875   0.49840
  22 7   H  1S          0.20843  -0.32711   0.07635   0.45688   0.08645
  23 8   H  1S          0.35388   0.53435  -0.03713   0.22031  -0.28884
  24 9   H  1S         -0.13324   0.06118   0.44591   0.26880  -0.07571
                          21        22        23        24
                           V         V         V         V
     Eigenvalues --     0.18088   0.18653   0.20589   0.21807
   1 1   C  1S         -0.31528   0.27610   0.21567   0.15617
   2        1PX         0.29082   0.12418   0.51601   0.01925
   3        1PY        -0.17188  -0.29783   0.08245  -0.35778
   4        1PZ         0.04797  -0.00388  -0.00125   0.00591
   5 2   C  1S         -0.05936  -0.18959  -0.12247  -0.01449
   6        1PX        -0.27438   0.04508  -0.16504   0.47488
   7        1PY        -0.04866  -0.43593  -0.23517  -0.30933
   8        1PZ        -0.01273  -0.00197  -0.00205  -0.01477
   9 3   O  1S          0.09217   0.02272   0.00620  -0.03017
  10        1PX        -0.17209  -0.11262  -0.13697   0.36759
  11        1PY         0.09074   0.12743  -0.09562   0.24156
  12        1PZ         0.00850  -0.00118   0.00517  -0.00468
  13 4   C  1S          0.21177  -0.10021   0.07712  -0.00726
  14        1PX         0.13452   0.50312  -0.31657  -0.23698
  15        1PY         0.28076  -0.10077  -0.11908   0.39693
  16        1PZ         0.01425   0.02167  -0.01284  -0.00479
  17 5   C  1S         -0.08761   0.25294  -0.23202  -0.10288
  18        1PX        -0.34980   0.31254   0.14723  -0.29885
  19        1PY        -0.15850  -0.05640   0.48082   0.08081
  20        1PZ        -0.01992   0.00314  -0.00826  -0.00087
  21 6   H  1S          0.17556  -0.12075  -0.18619  -0.00558
  22 7   H  1S         -0.29856  -0.28898   0.18988   0.09015
  23 8   H  1S         -0.06932  -0.15116  -0.11500  -0.04462
  24 9   H  1S          0.48387  -0.05093   0.20898  -0.02831
     Density Matrix:
                           1         2         3         4         5
   1 1   C  1S          1.20390
   2        1PX        -0.08766   0.99725
   3        1PY         0.03041  -0.01276   0.91431
   4        1PZ         0.01513  -0.00212   0.01150   1.08636
   5 2   C  1S          0.32031   0.19857  -0.49261   0.00962   1.24062
   6        1PX        -0.19839   0.03062   0.31010   0.00729  -0.07701
   7        1PY         0.41405   0.24023  -0.47658  -0.01125  -0.06807
   8        1PZ         0.02864  -0.01364   0.01293   0.83801   0.00437
   9 3   O  1S          0.00260  -0.02277  -0.02504   0.00103   0.09838
  10        1PX         0.04467   0.04318  -0.06356  -0.00278  -0.43389
  11        1PY        -0.06593  -0.04514  -0.00462   0.00214   0.00825
  12        1PZ        -0.01272   0.00053  -0.00783  -0.24727   0.01573
  13 4   C  1S         -0.02958  -0.02393   0.01018   0.00494   0.01391
  14        1PX         0.02271   0.01054   0.01956   0.00005   0.01655
  15        1PY         0.00574  -0.03644  -0.08053   0.00326  -0.04367
  16        1PZ         0.00058   0.00881   0.00022  -0.08980  -0.00648
  17 5   C  1S          0.27455   0.32593   0.34701  -0.02267  -0.02499
  18        1PX        -0.37792  -0.31412  -0.46203   0.01687  -0.00608
  19        1PY        -0.26591  -0.30343  -0.20857   0.01123   0.01569
  20        1PZ         0.02111   0.00275   0.01916   0.46673  -0.00881
  21 6   H  1S         -0.04386  -0.04559  -0.04675   0.00527   0.05697
  22 7   H  1S          0.04885   0.04800   0.04240  -0.00481   0.04621
  23 8   H  1S         -0.05982  -0.03391   0.08709  -0.00450   0.57994
  24 9   H  1S          0.57463  -0.76476   0.15582  -0.03947  -0.05803
                           6         7         8         9        10
   6        1PX         0.82667
   7        1PY         0.02349   0.99332
   8        1PZ         0.01088  -0.00604   1.03065
   9 3   O  1S          0.25911   0.00335  -0.00766   1.87636
  10        1PX        -0.81306  -0.01921   0.02055   0.19121   1.21235
  11        1PY         0.04868   0.14492  -0.00378  -0.21358  -0.06573
  12        1PZ         0.02661  -0.00357   0.41734  -0.00723   0.01941
  13 4   C  1S          0.03787  -0.02593   0.00616   0.08391   0.07937
  14        1PX         0.00648   0.00462   0.01073  -0.04825   0.08367
  15        1PY         0.03303   0.00634   0.00110  -0.23997  -0.14665
  16        1PZ        -0.00474   0.00672  -0.34150  -0.00235   0.00046
  17 5   C  1S         -0.00119  -0.01517  -0.00229  -0.00235   0.05299
  18        1PX        -0.06956   0.03328   0.00626   0.02428  -0.02198
  19        1PY        -0.02876   0.00015   0.00604   0.02098  -0.02902
  20        1PZ        -0.00887  -0.00222  -0.05821   0.00403  -0.00662
  21 6   H  1S         -0.02629   0.05193  -0.00433   0.02265  -0.00973
  22 7   H  1S          0.08134   0.01147  -0.00808  -0.03376   0.00364
  23 8   H  1S         -0.28268  -0.71309  -0.01562  -0.03970   0.08120
  24 9   H  1S         -0.00286  -0.05911  -0.01449   0.02173  -0.09966
                          11        12        13        14        15
  11        1PY         1.25801
  12        1PZ        -0.00548   1.74862
  13 4   C  1S          0.39363  -0.00259   1.25204
  14        1PX        -0.19113  -0.01108   0.07455   0.98966
  15        1PY        -0.79582  -0.01227   0.06467  -0.00886   0.79986
  16        1PZ        -0.01019   0.38542  -0.00080  -0.00862   0.00199
  17 5   C  1S         -0.05818   0.00991   0.31159  -0.38293   0.24759
  18        1PX        -0.05248  -0.00158   0.45515  -0.40998   0.36980
  19        1PY         0.06012   0.00003  -0.25979   0.29728  -0.05032
  20        1PZ         0.00441  -0.23137  -0.00179  -0.03628   0.00067
  21 6   H  1S          0.10469  -0.00276  -0.05829   0.06157  -0.00138
  22 7   H  1S         -0.08207  -0.00080   0.61093   0.73135   0.14216
  23 8   H  1S         -0.01785  -0.00471   0.05354  -0.03237  -0.10158
  24 9   H  1S          0.03006   0.01032   0.05732  -0.05108   0.03312
                          16        17        18        19        20
  16        1PZ         1.07362
  17 5   C  1S         -0.02685   1.21201
  18        1PX        -0.00364  -0.02030   0.91094
  19        1PY        -0.00039   0.08260   0.00371   0.99999
  20        1PZ         0.84788  -0.01306   0.00622   0.00044   1.05618
  21 6   H  1S          0.01184   0.56890  -0.04030   0.78530   0.02155
  22 7   H  1S          0.03430  -0.06078  -0.08585   0.04854   0.00548
  23 8   H  1S          0.00349   0.05374  -0.05673  -0.04268   0.00682
  24 9   H  1S          0.00265  -0.04450   0.04768   0.03849  -0.00731
                          21        22        23        24
  21 6   H  1S          0.84076
  22 7   H  1S          0.00790   0.81875
  23 8   H  1S         -0.01665  -0.02193   0.82335
  24 9   H  1S         -0.01020  -0.01758   0.00127   0.83442
    Full Mulliken population analysis:
                           1         2         3         4         5
   1 1   C  1S          1.20390
   2        1PX         0.00000   0.99725
   3        1PY         0.00000   0.00000   0.91431
   4        1PZ         0.00000   0.00000   0.00000   1.08636
   5 2   C  1S          0.00000   0.00000   0.00000   0.00000   1.24062
   6        1PX         0.00000   0.00000   0.00000   0.00000   0.00000
   7        1PY         0.00000   0.00000   0.00000   0.00000   0.00000
   8        1PZ         0.00000   0.00000   0.00000   0.00000   0.00000
   9 3   O  1S          0.00000   0.00000   0.00000   0.00000   0.00000
  10        1PX         0.00000   0.00000   0.00000   0.00000   0.00000
  11        1PY         0.00000   0.00000   0.00000   0.00000   0.00000
  12        1PZ         0.00000   0.00000   0.00000   0.00000   0.00000
  13 4   C  1S          0.00000   0.00000   0.00000   0.00000   0.00000
  14        1PX         0.00000   0.00000   0.00000   0.00000   0.00000
  15        1PY         0.00000   0.00000   0.00000   0.00000   0.00000
  16        1PZ         0.00000   0.00000   0.00000   0.00000   0.00000
  17 5   C  1S          0.00000   0.00000   0.00000   0.00000   0.00000
  18        1PX         0.00000   0.00000   0.00000   0.00000   0.00000
  19        1PY         0.00000   0.00000   0.00000   0.00000   0.00000
  20        1PZ         0.00000   0.00000   0.00000   0.00000   0.00000
  21 6   H  1S          0.00000   0.00000   0.00000   0.00000   0.00000
  22 7   H  1S          0.00000   0.00000   0.00000   0.00000   0.00000
  23 8   H  1S          0.00000   0.00000   0.00000   0.00000   0.00000
  24 9   H  1S          0.00000   0.00000   0.00000   0.00000   0.00000
                           6         7         8         9        10
   6        1PX         0.82667
   7        1PY         0.00000   0.99332
   8        1PZ         0.00000   0.00000   1.03065
   9 3   O  1S          0.00000   0.00000   0.00000   1.87636
  10        1PX         0.00000   0.00000   0.00000   0.00000   1.21235
  11        1PY         0.00000   0.00000   0.00000   0.00000   0.00000
  12        1PZ         0.00000   0.00000   0.00000   0.00000   0.00000
  13 4   C  1S          0.00000   0.00000   0.00000   0.00000   0.00000
  14        1PX         0.00000   0.00000   0.00000   0.00000   0.00000
  15        1PY         0.00000   0.00000   0.00000   0.00000   0.00000
  16        1PZ         0.00000   0.00000   0.00000   0.00000   0.00000
  17 5   C  1S          0.00000   0.00000   0.00000   0.00000   0.00000
  18        1PX         0.00000   0.00000   0.00000   0.00000   0.00000
  19        1PY         0.00000   0.00000   0.00000   0.00000   0.00000
  20        1PZ         0.00000   0.00000   0.00000   0.00000   0.00000
  21 6   H  1S          0.00000   0.00000   0.00000   0.00000   0.00000
  22 7   H  1S          0.00000   0.00000   0.00000   0.00000   0.00000
  23 8   H  1S          0.00000   0.00000   0.00000   0.00000   0.00000
  24 9   H  1S          0.00000   0.00000   0.00000   0.00000   0.00000
                          11        12        13        14        15
  11        1PY         1.25801
  12        1PZ         0.00000   1.74862
  13 4   C  1S          0.00000   0.00000   1.25204
  14        1PX         0.00000   0.00000   0.00000   0.98966
  15        1PY         0.00000   0.00000   0.00000   0.00000   0.79986
  16        1PZ         0.00000   0.00000   0.00000   0.00000   0.00000
  17 5   C  1S          0.00000   0.00000   0.00000   0.00000   0.00000
  18        1PX         0.00000   0.00000   0.00000   0.00000   0.00000
  19        1PY         0.00000   0.00000   0.00000   0.00000   0.00000
  20        1PZ         0.00000   0.00000   0.00000   0.00000   0.00000
  21 6   H  1S          0.00000   0.00000   0.00000   0.00000   0.00000
  22 7   H  1S          0.00000   0.00000   0.00000   0.00000   0.00000
  23 8   H  1S          0.00000   0.00000   0.00000   0.00000   0.00000
  24 9   H  1S          0.00000   0.00000   0.00000   0.00000   0.00000
                          16        17        18        19        20
  16        1PZ         1.07362
  17 5   C  1S          0.00000   1.21201
  18        1PX         0.00000   0.00000   0.91094
  19        1PY         0.00000   0.00000   0.00000   0.99999
  20        1PZ         0.00000   0.00000   0.00000   0.00000   1.05618
  21 6   H  1S          0.00000   0.00000   0.00000   0.00000   0.00000
  22 7   H  1S          0.00000   0.00000   0.00000   0.00000   0.00000
  23 8   H  1S          0.00000   0.00000   0.00000   0.00000   0.00000
  24 9   H  1S          0.00000   0.00000   0.00000   0.00000   0.00000
                          21        22        23        24
  21 6   H  1S          0.84076
  22 7   H  1S          0.00000   0.81875
  23 8   H  1S          0.00000   0.00000   0.82335
  24 9   H  1S          0.00000   0.00000   0.00000   0.83442
     Gross orbital populations:
                           1
   1 1   C  1S          1.20390
   2        1PX         0.99725
   3        1PY         0.91431
   4        1PZ         1.08636
   5 2   C  1S          1.24062
   6        1PX         0.82667
   7        1PY         0.99332
   8        1PZ         1.03065
   9 3   O  1S          1.87636
  10        1PX         1.21235
  11        1PY         1.25801
  12        1PZ         1.74862
  13 4   C  1S          1.25204
  14        1PX         0.98966
  15        1PY         0.79986
  16        1PZ         1.07362
  17 5   C  1S          1.21201
  18        1PX         0.91094
  19        1PY         0.99999
  20        1PZ         1.05618
  21 6   H  1S          0.84076
  22 7   H  1S          0.81875
  23 8   H  1S          0.82335
  24 9   H  1S          0.83442
          Condensed to atoms (all electrons):
               1          2          3          4          5          6
     1  C    4.201812   0.000000   0.000000   0.000000   0.000000   0.000000
     2  C    0.000000   4.091257   0.000000   0.000000   0.000000   0.000000
     3  O    0.000000   0.000000   6.095346   0.000000   0.000000   0.000000
     4  C    0.000000   0.000000   0.000000   4.115183   0.000000   0.000000
     5  C    0.000000   0.000000   0.000000   0.000000   4.179120   0.000000
     6  H    0.000000   0.000000   0.000000   0.000000   0.000000   0.840757
     7  H    0.000000   0.000000   0.000000   0.000000   0.000000   0.000000
     8  H    0.000000   0.000000   0.000000   0.000000   0.000000   0.000000
     9  H    0.000000   0.000000   0.000000   0.000000   0.000000   0.000000
               7          8          9
     1  C    0.000000   0.000000   0.000000
     2  C    0.000000   0.000000   0.000000
     3  O    0.000000   0.000000   0.000000
     4  C    0.000000   0.000000   0.000000
     5  C    0.000000   0.000000   0.000000
     6  H    0.000000   0.000000   0.000000
     7  H    0.818749   0.000000   0.000000
     8  H    0.000000   0.823354   0.000000
     9  H    0.000000   0.000000   0.834421
 Mulliken charges:
               1
     1  C   -0.201812
     2  C   -0.091257
     3  O   -0.095346
     4  C   -0.115183
     5  C   -0.179120
     6  H    0.159243
     7  H    0.181251
     8  H    0.176646
     9  H    0.165579
 Sum of Mulliken charges =   0.00000
 Mulliken charges with hydrogens summed into heavy atoms:
               1
     1  C   -0.036234
     2  C    0.085389
     3  O   -0.095346
     4  C    0.066068
     5  C   -0.019877
 Charge=              0.0000 electrons
 Dipole moment (field-independent basis, Debye):
    X=             -0.4361    Y=              0.4264    Z=              0.0003  Tot=              0.6099
 N-N= 1.034398551603D+02 E-N=-1.710455006423D+02  KE=-1.653025933852D+01
 Orbital energies and kinetic energies (alpha):
                                 1                 2
   1         O                -1.559427         -1.319693
   2         O                -1.251804         -1.053222
   3         O                -1.091235         -0.954323
   4         O                -0.818629         -0.723891
   5         O                -0.809872         -0.694379
   6         O                -0.679939         -0.602178
   7         O                -0.594581         -0.484847
   8         O                -0.549398         -0.488161
   9         O                -0.516919         -0.424884
  10         O                -0.505365         -0.435630
  11         O                -0.494743         -0.423820
  12         O                -0.404951         -0.347287
  13         O                -0.349325         -0.312815
  14         V                 0.028156         -0.198247
  15         V                 0.068712         -0.186970
  16         V                 0.102684         -0.190692
  17         V                 0.138304         -0.222226
  18         V                 0.140670         -0.197960
  19         V                 0.147975         -0.207656
  20         V                 0.176304         -0.184208
  21         V                 0.180881         -0.178033
  22         V                 0.186526         -0.124171
  23         V                 0.205890         -0.114682
  24         V                 0.218073         -0.056897
 Total kinetic energy from orbitals=-1.653025933852D+01
 Leave Link  601 at Tue Dec 15 16:21:25 2015, MaxMem=    33554432 cpu:         0.0
 (Enter /home/Applications/g09/g09/l701.exe)
 Compute integral first derivatives.
 ... and contract with generalized density number  6.
 Leave Link  701 at Tue Dec 15 16:21:25 2015, MaxMem=    33554432 cpu:         0.0
 (Enter /home/Applications/g09/g09/l702.exe)
 L702 exits ... SP integral derivatives will be done elsewhere.
 Leave Link  702 at Tue Dec 15 16:21:25 2015, MaxMem=    33554432 cpu:         0.0
 (Enter /home/Applications/g09/g09/l703.exe)
 Compute integral first derivatives, UseDBF=F ICtDFT=           0.
 Integral derivatives from FoFJK, PRISM(SPDF).
 Calling FoFJK, ICntrl=  10005127 FMM=F ISym2X=0 I1Cent= 0 IOpClX= 0 NMat=1 NMatS=1 NMatT=0.
 FoFJK:  IHMeth= 8 ICntrl=10005127 DoSepK=F KAlg= 0 I1Cent=   0 FoldK=F
 IRaf=         0 NMat=   1 IRICut=       1 DoRegI=T DoRafI=F ISym2E= 0.
 FoFCou: FMM=F IPFlag=           0 FMFlag=      100000 FMFlg1=         800
         NFxFlg=           0 DoJE=F BraDBF=F KetDBF=F FulRan=T
         wScrn=  0.000000 ICntrl=10005127 IOpCl=  0 I1Cent=           0 NGrid=           0
         NMat0=    1 NMatS0=      1 NMatT0=    0 NMatD0=    1 NMtDS0=    0 NMtDT0=    0
 Symmetry not used in FoFCou.
 Leave Link  703 at Tue Dec 15 16:21:25 2015, MaxMem=    33554432 cpu:         0.0
 (Enter /home/Applications/g09/g09/l716.exe)
 Dipole        =-2.98752495D-01 1.96694038D-01 1.40221559D-02
 ***** Axes restored to original set *****
 -------------------------------------------------------------------
 Center     Atomic                   Forces (Hartrees/Bohr)
 Number     Number              X              Y              Z
 -------------------------------------------------------------------
      1        6           0.153978145    0.007746992    0.008683735
      2        6          -0.148027814   -0.126032869    0.002610089
      3        8          -0.028408982    0.021052142    0.001266992
      4        6          -0.087172977    0.036472039    0.000966940
      5        6           0.118326010    0.020841391   -0.009400132
      6        1          -0.004269637   -0.009813946    0.004006951
      7        1          -0.008166107    0.019798742    0.000304080
      8        1           0.009901096    0.019552886   -0.002474383
      9        1          -0.006159734    0.010382625   -0.005964272
 -------------------------------------------------------------------
 Cartesian Forces:  Max     0.153978145 RMS     0.056963629
 Z-matrix is all fixed cartesians, so copy forces.
 Force constants in Cartesian coordinates: 
                1             2             3             4             5 
      1  0.992759D+00
      2  0.141343D-02  0.850922D+00
      3  0.186336D-02  0.848174D-02  0.235373D+00
      4 -0.608886D+00 -0.122935D+00  0.751442D-02  0.103851D+01
      5 -0.983528D-01 -0.227975D+00  0.423308D-03  0.121455D-01  0.820887D+00
      6  0.154113D-01  0.232249D-02 -0.115881D+00 -0.309642D-01  0.864111D-02
      7 -0.759606D-02  0.284170D-01  0.186482D-02 -0.312589D+00  0.170425D+00
      8 -0.664754D-02  0.248043D-01  0.786581D-03  0.214128D+00 -0.339858D+00
      9  0.818112D-03 -0.173286D-02  0.901296D-02  0.187477D-01 -0.153260D-01
     10  0.114188D-01 -0.192874D-05 -0.397701D-03  0.213189D-01  0.185335D-01
     11  0.353827D-01 -0.268073D-04 -0.666238D-03 -0.168293D-01 -0.146464D-01
     12  0.304929D-02  0.658911D-04 -0.227469D-02 -0.167273D-02 -0.123451D-02
     13 -0.174601D+00  0.139917D-01  0.259464D-03  0.984400D-02 -0.368775D-01
     14 -0.135069D-01 -0.465016D+00 -0.206604D-01 -0.136848D-04  0.385127D-04
     15  0.400889D-03 -0.222028D-01 -0.955617D-01 -0.174751D-03  0.552443D-03
     16  0.178383D-01 -0.294154D-04 -0.120391D-04  0.197557D-04 -0.290379D-04
     17 -0.224066D-01 -0.534446D-04  0.190988D-02 -0.855745D-05  0.125782D-04
     18 -0.357327D-02 -0.100958D-02  0.212881D-01  0.178679D-03 -0.262632D-03
     19 -0.186715D-05 -0.120552D-04  0.252758D-03 -0.436164D-05  0.228733D-05
     20 -0.432234D-05 -0.279071D-04  0.585121D-03  0.506595D-05 -0.265668D-05
     21 -0.594827D-04 -0.384048D-03  0.805225D-02  0.135234D-03 -0.709195D-04
     22  0.701680D-02 -0.260187D-01  0.135925D-02 -0.143150D+00 -0.845183D-01
     23 -0.351292D-02  0.131057D-01  0.406541D-03 -0.802980D-01 -0.261489D+00
     24 -0.555961D-04  0.244195D-02  0.305373D-01  0.572592D-02  0.726070D-02
     25 -0.237948D+00  0.105175D+00 -0.127043D-01 -0.506427D-02  0.186714D-01
     26  0.107635D+00 -0.195733D+00  0.873342D-02 -0.619396D-02  0.230323D-01
     27 -0.178546D-01  0.120172D-01 -0.905467D-01  0.509711D-03  0.164759D-04
                6             7             8             9            10 
      6  0.209032D+00
      7  0.162450D-01  0.539705D+00
      8 -0.164886D-01 -0.456409D-01  0.603413D+00
      9 -0.492149D-01 -0.212611D-01  0.131748D-01  0.522676D-01
     10 -0.267043D-03 -0.250607D+00 -0.169673D+00  0.179423D-02  0.924587D+00
     11  0.422094D-03 -0.127452D+00 -0.292412D+00  0.109041D-02 -0.891015D-01
     12 -0.270410D-02  0.387198D-02  0.387110D-02 -0.419363D-01  0.129087D-02
     13 -0.320057D-02 -0.879878D-02  0.694260D-02 -0.237948D-03 -0.520499D+00
     14 -0.159411D-03 -0.272933D-01  0.215211D-01 -0.167931D-03  0.119321D+00
     15  0.930753D-03  0.115232D-03  0.105351D-03  0.442433D-02  0.516177D-02
     16  0.607977D-03  0.156067D-05  0.000000D+00  0.165161D-03 -0.575887D-02
     17 -0.263354D-03  0.336916D-05  0.162746D-05  0.356548D-03  0.717506D-02
     18  0.549882D-02  0.595590D-04  0.287698D-04  0.630294D-02  0.495046D-03
     19 -0.959600D-04  0.204230D-01 -0.160953D-01  0.125725D-02 -0.180478D+00
     20  0.111455D-03  0.112953D-01 -0.889787D-02  0.102569D-02  0.113746D+00
     21  0.297528D-02 -0.374265D-04  0.101288D-03  0.597116D-02 -0.822407D-02
     22  0.471003D-02  0.194629D-01  0.169830D-01 -0.123363D-02  0.134949D-04
     23  0.572998D-02 -0.977773D-02 -0.854292D-02  0.794640D-03  0.000000D+00
     24 -0.767845D-01 -0.110161D-02 -0.127242D-02  0.498461D-02  0.186792D-03
     25 -0.244661D-02 -0.148099D-05  0.186722D-05 -0.498076D-04  0.487805D-05
     26 -0.315805D-03  0.233308D-04 -0.294152D-04  0.784641D-03  0.189483D-05
     27  0.261478D-01  0.243452D-03 -0.306943D-03  0.818759D-02 -0.398901D-04
               11            12            13            14            15 
     11  0.829605D+00
     12 -0.147525D-01  0.202359D+00
     13  0.962286D-01 -0.918778D-03  0.907986D+00
     14 -0.224889D+00 -0.821659D-05  0.261584D-02  0.850318D+00
     15 -0.109933D-02 -0.107886D+00 -0.156258D-01  0.115263D-01  0.222433D+00
     16 -0.179288D-01  0.217098D-02 -0.240141D+00 -0.107239D+00  0.114294D-01
     17  0.222803D-01 -0.383839D-03 -0.109901D+00 -0.196340D+00  0.765266D-02
     18  0.895455D-03  0.258876D-01  0.154036D-01  0.980873D-02 -0.850438D-01
     19  0.119676D+00 -0.742817D-02  0.841480D-02  0.261565D-01 -0.152131D-02
     20 -0.319923D+00  0.127009D-01  0.468748D-02  0.145268D-01  0.918919D-03
     21  0.144656D-01 -0.829556D-01  0.590483D-03  0.104442D-02  0.318339D-01
     22 -0.707700D-05  0.296900D-03  0.302369D-05 -0.444437D-05  0.930534D-04
     23  0.000000D+00 -0.232006D-05  0.770565D-05 -0.113262D-04  0.237140D-03
     24 -0.979570D-04  0.410958D-02  0.259061D-03 -0.380781D-03  0.797255D-02
     25  0.314950D-04 -0.660348D-03  0.177925D-01 -0.357104D-04  0.121527D-03
     26  0.122339D-04 -0.256506D-03  0.223052D-01 -0.147669D-03  0.230929D-02
     27 -0.257549D-03  0.539997D-02  0.347045D-02 -0.100275D-02  0.208967D-01
               16            17            18            19            20 
     16  0.227942D+00
     17  0.125205D+00  0.174165D+00
     18 -0.131770D-01 -0.900128D-02  0.455821D-01
     19 -0.949036D-05 -0.204877D-04 -0.362176D-03  0.151656D+00
     20 -0.219696D-04 -0.474280D-04 -0.838416D-03 -0.129707D+00  0.314372D+00
     21 -0.302339D-03 -0.652688D-03 -0.115380D-01  0.789761D-02 -0.145037D-01
     22  0.000000D+00  0.000000D+00  0.000000D+00  0.000000D+00  0.000000D+00
     23  0.000000D+00  0.000000D+00  0.000000D+00  0.000000D+00  0.000000D+00
     24  0.000000D+00  0.000000D+00  0.000000D+00  0.000000D+00  0.000000D+00
     25  0.107866D-03 -0.467237D-04  0.975590D-03  0.000000D+00  0.000000D+00
     26  0.418995D-04 -0.181494D-04  0.378958D-03  0.000000D+00  0.000000D+00
     27 -0.882071D-03  0.382081D-03 -0.797785D-02  0.000000D+00  0.000000D+00
               21            22            23            24            25 
     21  0.456610D-01
     22  0.000000D+00  0.116653D+00
     23  0.000000D+00  0.935789D-01  0.256972D+00
     24  0.000000D+00 -0.508687D-02 -0.681245D-02  0.410661D-01
     25  0.000000D+00  0.000000D+00  0.215065D-05  0.723040D-04  0.225107D+00
     26  0.000000D+00 -0.132945D-04 -0.338801D-04 -0.113904D-02 -0.123800D+00
     27  0.000000D+00 -0.138726D-03 -0.353533D-03 -0.118857D-01  0.146917D-01
               26            27 
     26  0.172918D+00
     27 -0.104950D-01  0.497782D-01
 Leave Link  716 at Tue Dec 15 16:21:25 2015, MaxMem=    33554432 cpu:         0.0
 (Enter /home/Applications/g09/g09/l103.exe)

 GradGradGradGradGradGradGradGradGradGradGradGradGradGradGradGradGradGrad
 Berny optimization.
 Search for a local minimum.
 Step number   1 out of a maximum of    2
 All quantities printed in internal units (Hartrees-Bohrs-Radians)
 Second derivative matrix not updated -- first step.
 ITU=  0
     Eigenvalues ---    0.02192   0.02858   0.06797   0.07284   0.07585
     Eigenvalues ---    0.08784   0.13126   0.14803   0.16476   0.22918
     Eigenvalues ---    0.25967   0.32824   0.42396   0.43067   0.62175
     Eigenvalues ---    0.77780   1.03489   1.27857   1.39593   1.61277
     Eigenvalues ---    1.76131
 Quadratic step=4.398D-01 exceeds max=3.000D-01 adjusted using Lamda=-1.081D-01.
 Angle between NR and scaled steps=  14.92 degrees.
 Angle between quadratic step and forces=  37.55 degrees.
 Linear search not attempted -- first point.
 TrRot= -0.003732 -0.003709  0.000854 -1.373367 -0.001614  1.373287
 Variable       Old X    -DE/DX   Delta X   Delta X   Delta X     New X
                                 (Linear)    (Quad)   (Total)
    X1        1.82705   0.15398   0.00000   0.10218   0.09835   1.92540
    Y1       -1.35007   0.00775   0.00000  -0.01789  -0.02184  -1.37190
    Z1       -0.07659   0.00868   0.00000   0.02348   0.02711  -0.04948
    X2       -0.56745  -0.14803   0.00000  -0.10090  -0.10480  -0.67225
    Y2       -1.99336  -0.12603   0.00000  -0.12640  -0.13008  -2.12344
    Z2       -0.02951   0.00261   0.00000   0.00775   0.01174  -0.01776
    X3       -2.25689  -0.02841   0.00000  -0.06274  -0.06651  -2.32340
    Y3       -0.04827   0.02105   0.00000   0.00566   0.00229  -0.04598
    Z3        0.09365   0.00127   0.00000  -0.00019   0.00000   0.09364
    X4       -0.59213  -0.08717   0.00000  -0.05729  -0.06087  -0.65301
    Y4        2.06213   0.03647   0.00000   0.05697   0.05341   2.11554
    Z4        0.06828   0.00097   0.00000  -0.00269  -0.00539   0.06289
    X5        1.83148   0.11833   0.00000   0.11333   0.10970   1.94117
    Y5        1.28130   0.02084   0.00000   0.04556   0.04174   1.32304
    Z5        0.04895  -0.00940   0.00000  -0.01898  -0.01961   0.02933
    X6        3.45532  -0.00427   0.00000   0.07564   0.07214   3.52746
    Y6        2.59269  -0.00981   0.00000   0.01435   0.01026   2.60295
    Z6       -0.06779   0.00401   0.00000   0.00843   0.00628  -0.06151
    X7       -1.55943  -0.00817   0.00000  -0.05616  -0.05957  -1.61900
    Y7        3.81077   0.01980   0.00000   0.08813   0.08452   3.89529
    Z7       -0.02842   0.00030   0.00000   0.00927   0.00344  -0.02498
    X8       -1.52396   0.00990   0.00000  -0.04787  -0.05192  -1.57588
    Y8       -3.90499   0.01955   0.00000  -0.04664  -0.05018  -3.95517
    Z8        0.03852  -0.00247   0.00000  -0.01545  -0.00884   0.02967
    X9        3.45203  -0.00616   0.00000   0.06744   0.06348   3.51552
    Y9       -2.66747   0.01038   0.00000   0.01381   0.00989  -2.65758
    Z9        0.05955  -0.00596   0.00000  -0.02089  -0.01473   0.04482
         Item               Value     Threshold  Converged?
 Maximum Force            0.153978     0.000450     NO 
 RMS     Force            0.056964     0.000300     NO 
 Maximum Displacement     0.130082     0.001800     NO 
 RMS     Displacement     0.057668     0.001200     NO 
 Predicted change in Energy=-4.011441D-02
 GradGradGradGradGradGradGradGradGradGradGradGradGradGradGradGradGradGrad

 Leave Link  103 at Tue Dec 15 16:21:25 2015, MaxMem=    33554432 cpu:         0.0
 (Enter /home/Applications/g09/g09/l9999.exe)
 1\1\GINC-DUSTIN-DESKTOP\Force\RAM1-FC\STO-3G\C4H4O1\DUSTIN\15-Dec-2015
 \0\\#P AM1(Input,print) CIS(Singlets,NStates=15) pop(full) force\\AM1-
 Reparam Input\\0,1\C,0.966835,-0.714424,-0.040529\C,-0.300282,-1.05484
 2,-0.015614\O,-1.194296,-0.025544,0.049556\C,-0.313342,1.091231,0.0361
 34\C,0.969176,0.678037,0.025901\H,1.828476,1.371994,-0.035872\H,-0.825
 216,2.016575,-0.015039\H,-0.806443,-2.066431,0.020383\H,1.826736,-1.41
 1564,0.031511\\Version=ES64L-G09RevD.01\State=1-A\HF=0.0257873\RMSD=2.
 957e-09\RMSF=5.696e-02\Dipole=0.3431769,-0.0994154,-0.0220094\PG=C01 [
 X(C4H4O1)]\\@


 I HAVE NOT FAILED, I HAVE ONLY DISCOVERED 10,000
 WAYS THAT DIDN'T WORK.  -- THOMAS A. EDISON
 Job cpu time:       0 days  0 hours  0 minutes  0.5 seconds.
 File lengths (MBytes):  RWF=      7 Int=      0 D2E=      0 Chk=      2 Scr=      1
 Normal termination of Gaussian 09 at Tue Dec 15 16:21:25 2015.
