 Entering Gaussian System, Link 0=g09
 Input=FuranAM1_68P0.com
 Output=FuranAM1_68P0.log
 Initial command:
 /home/Applications/g09/g09/l1.exe "/home/Applications/g09/scratch/Gau-10787.inp" -scrdir="/home/Applications/g09/scratch/"
 Entering Link 1 = /home/Applications/g09/g09/l1.exe PID=     10789.
  
 Copyright (c) 1988,1990,1992,1993,1995,1998,2003,2009,2013,
            Gaussian, Inc.  All Rights Reserved.
  
 This is part of the Gaussian(R) 09 program.  It is based on
 the Gaussian(R) 03 system (copyright 2003, Gaussian, Inc.),
 the Gaussian(R) 98 system (copyright 1998, Gaussian, Inc.),
 the Gaussian(R) 94 system (copyright 1995, Gaussian, Inc.),
 the Gaussian 92(TM) system (copyright 1992, Gaussian, Inc.),
 the Gaussian 90(TM) system (copyright 1990, Gaussian, Inc.),
 the Gaussian 88(TM) system (copyright 1988, Gaussian, Inc.),
 the Gaussian 86(TM) system (copyright 1986, Carnegie Mellon
 University), and the Gaussian 82(TM) system (copyright 1983,
 Carnegie Mellon University). Gaussian is a federally registered
 trademark of Gaussian, Inc.
  
 This software contains proprietary and confidential information,
 including trade secrets, belonging to Gaussian, Inc.
  
 This software is provided under written license and may be
 used, copied, transmitted, or stored only in accord with that
 written license.
  
 The following legend is applicable only to US Government
 contracts under FAR:
  
                    RESTRICTED RIGHTS LEGEND
  
 Use, reproduction and disclosure by the US Government is
 subject to restrictions as set forth in subparagraphs (a)
 and (c) of the Commercial Computer Software - Restricted
 Rights clause in FAR 52.227-19.
  
 Gaussian, Inc.
 340 Quinnipiac St., Bldg. 40, Wallingford CT 06492
  
  
 ---------------------------------------------------------------
 Warning -- This program may not be used in any manner that
 competes with the business of Gaussian, Inc. or will provide
 assistance to any competitor of Gaussian, Inc.  The licensee
 of this program is prohibited from giving any competitor of
 Gaussian, Inc. access to this program.  By using this program,
 the user acknowledges that Gaussian, Inc. is engaged in the
 business of creating and licensing software in the field of
 computational chemistry and represents and warrants to the
 licensee that it is not a competitor of Gaussian, Inc. and that
 it will not use this program in any manner prohibited above.
 ---------------------------------------------------------------
  

 Cite this work as:
 Gaussian 09, Revision D.01,
 M. J. Frisch, G. W. Trucks, H. B. Schlegel, G. E. Scuseria, 
 M. A. Robb, J. R. Cheeseman, G. Scalmani, V. Barone, B. Mennucci, 
 G. A. Petersson, H. Nakatsuji, M. Caricato, X. Li, H. P. Hratchian, 
 A. F. Izmaylov, J. Bloino, G. Zheng, J. L. Sonnenberg, M. Hada, 
 M. Ehara, K. Toyota, R. Fukuda, J. Hasegawa, M. Ishida, T. Nakajima, 
 Y. Honda, O. Kitao, H. Nakai, T. Vreven, J. A. Montgomery, Jr., 
 J. E. Peralta, F. Ogliaro, M. Bearpark, J. J. Heyd, E. Brothers, 
 K. N. Kudin, V. N. Staroverov, T. Keith, R. Kobayashi, J. Normand, 
 K. Raghavachari, A. Rendell, J. C. Burant, S. S. Iyengar, J. Tomasi, 
 M. Cossi, N. Rega, J. M. Millam, M. Klene, J. E. Knox, J. B. Cross, 
 V. Bakken, C. Adamo, J. Jaramillo, R. Gomperts, R. E. Stratmann, 
 O. Yazyev, A. J. Austin, R. Cammi, C. Pomelli, J. W. Ochterski, 
 R. L. Martin, K. Morokuma, V. G. Zakrzewski, G. A. Voth, 
 P. Salvador, J. J. Dannenberg, S. Dapprich, A. D. Daniels, 
 O. Farkas, J. B. Foresman, J. V. Ortiz, J. Cioslowski, 
 and D. J. Fox, Gaussian, Inc., Wallingford CT, 2013.
 
 ******************************************
 Gaussian 09:  ES64L-G09RevD.01 24-Apr-2013
                15-Dec-2015 
 ******************************************
 ------------------------------------------------------------
 #P AM1(Input,print) CIS(Singlets,NStates=15) pop(full) force
 ------------------------------------------------------------
 1/10=7,30=1,38=1/1,3;
 2/12=2,17=6,18=5,40=1/2;
 3/5=2,16=1,25=1,41=700000,71=1,135=100,136=1/1,2,8,3;
 4/35=1/1;
 5/5=2,35=1,38=5/2;
 8/6=1,10=1,108=15/1;
 9/15=2,41=15,42=1,48=1,49=10/14;
 10/5=4/2;
 6/7=3,18=1/1;
 7/12=6,13=5,29=1/1,2,3,16;
 1/10=7,30=1/3;
 99//99;
 Leave Link    1 at Tue Dec 15 17:09:03 2015, MaxMem=           0 cpu:         0.0
 (Enter /home/Applications/g09/g09/l101.exe)
 -----------------
 AM1-Reparam Input
 -----------------
 Symbolic Z-matrix:
 Charge =  0 Multiplicity = 1
 6                     0.96207  -0.72927  -0.02043 
 6                    -0.34529  -1.08187   0.03796 
 8                    -1.15909   0.00484   0.02815 
 6                    -0.37095   1.09304  -0.04875 
 6                     0.95265   0.73289  -0.04322 
 1                     1.82568   1.39427  -0.0407 
 1                    -0.87056   2.04096   0.04129 
 1                    -0.83828  -1.99932   0.01331 
 1                     1.77943  -1.40958  -0.04891 
 
 NAtoms=      9 NQM=        9 NQMF=       0 NMMI=      0 NMMIF=      0
                NMic=       0 NMicF=      0.
                    Isotopes and Nuclear Properties:
 (Nuclear quadrupole moments (NQMom) in fm**2, nuclear magnetic moments (NMagM)
  in nuclear magnetons)

  Atom         1           2           3           4           5           6           7           8           9
 IAtWgt=          12          12          16          12          12           1           1           1           1
 AtmWgt=  12.0000000  12.0000000  15.9949146  12.0000000  12.0000000   1.0078250   1.0078250   1.0078250   1.0078250
 NucSpn=           0           0           0           0           0           1           1           1           1
 AtZEff=   0.0000000   0.0000000   0.0000000   0.0000000   0.0000000   0.0000000   0.0000000   0.0000000   0.0000000
 NQMom=    0.0000000   0.0000000   0.0000000   0.0000000   0.0000000   0.0000000   0.0000000   0.0000000   0.0000000
 NMagM=    0.0000000   0.0000000   0.0000000   0.0000000   0.0000000   2.7928460   2.7928460   2.7928460   2.7928460
 AtZNuc=   6.0000000   6.0000000   8.0000000   6.0000000   6.0000000   1.0000000   1.0000000   1.0000000   1.0000000
 Leave Link  101 at Tue Dec 15 17:09:04 2015, MaxMem=    33554432 cpu:         0.0
 (Enter /home/Applications/g09/g09/l103.exe)

 GradGradGradGradGradGradGradGradGradGradGradGradGradGradGradGradGradGrad
 Berny optimization.
 Initialization pass.
 Trust Radius=3.00D-01 FncErr=1.00D-07 GrdErr=1.00D-07
 Number of steps in this run=      2 maximum allowed number of steps=      2.
 GradGradGradGradGradGradGradGradGradGradGradGradGradGradGradGradGradGrad

 Leave Link  103 at Tue Dec 15 17:09:04 2015, MaxMem=    33554432 cpu:         0.0
 (Enter /home/Applications/g09/g09/l202.exe)
                          Input orientation:                          
 ---------------------------------------------------------------------
 Center     Atomic      Atomic             Coordinates (Angstroms)
 Number     Number       Type             X           Y           Z
 ---------------------------------------------------------------------
      1          6           0        0.962065   -0.729274   -0.020429
      2          6           0       -0.345294   -1.081865    0.037957
      3          8           0       -1.159094    0.004844    0.028147
      4          6           0       -0.370954    1.093042   -0.048751
      5          6           0        0.952650    0.732887   -0.043223
      6          1           0        1.825681    1.394267   -0.040703
      7          1           0       -0.870558    2.040962    0.041294
      8          1           0       -0.838278   -1.999324    0.013307
      9          1           0        1.779427   -1.409575   -0.048907
 ---------------------------------------------------------------------
                    Distance matrix (angstroms):
                    1          2          3          4          5
     1  C    0.000000
     2  C    1.355329   0.000000
     3  O    2.245129   1.357683   0.000000
     4  C    2.258003   2.176786   1.345828   0.000000
     5  C    1.462369   2.232616   2.234861   1.371740   0.000000
     6  H    2.292525   3.294017   3.293041   2.217207   1.095268
     7  H    3.322126   3.166696   2.056502   1.075297   2.245505
     8  H    2.203497   1.041812   2.029737   3.128094   3.267353
     9  H    1.063814   2.151599   3.262120   3.299580   2.296462
                    6          7          8          9
     6  H    0.000000
     7  H    2.773922   0.000000
     8  H    4.314633   4.040512   0.000000
     9  H    2.804235   4.351639   2.684037   0.000000
 Stoichiometry    C4H4O
 Framework group  C1[X(C4H4O)]
 Deg. of freedom    21
 Full point group                 C1      NOp   1
 Largest Abelian subgroup         C1      NOp   1
 Largest concise Abelian subgroup C1      NOp   1
                         Standard orientation:                         
 ---------------------------------------------------------------------
 Center     Atomic      Atomic             Coordinates (Angstroms)
 Number     Number       Type             X           Y           Z
 ---------------------------------------------------------------------
      1          6           0        0.910887    0.802540   -0.001698
      2          6           0        0.997376   -0.549908    0.016192
      3          8           0       -0.229411   -1.131440    0.005287
      4          6           0       -1.140191   -0.141281   -0.031029
      5          6           0       -0.524155    1.083897    0.002240
      6          1           0       -0.998771    2.070282    0.039637
      7          1           0       -2.167242   -0.445418    0.063473
      8          1           0        1.798177   -1.214087   -0.038172
      9          1           0        1.739618    1.469259   -0.021473
 ---------------------------------------------------------------------
 Rotational constants (GHZ):      9.4933856      9.2241458      4.6802538
 Leave Link  202 at Tue Dec 15 17:09:04 2015, MaxMem=    33554432 cpu:         0.0
 (Enter /home/Applications/g09/g09/l301.exe)

 Semi-emprical parameters in input format:
 Method=8 CoreType=1 PeptideFC=0.0106250000 RIJScale=0.5404210000
 ****
 H       
 PQN=1 NValence=1 F0ss=0.4721550000 ZetaOverlap=1.0856700000 U=-0.4188110000
 Beta=-0.2268830000 CoreKO=1.0354420000 KON=0,0,0,1.0458670000 KON=1,0,1,1.0589200000
 KON=0,1,1,1.0589200000 KON=2,1,1,1.0697690000 EISol=-0.4188110042 EHeat=0.0830298228
 Alpha=1.4609850000
 GCore=0.0085280000,1.5127750000,2.2676710000
 GCore=0.0003530000,1.4368830000,3.4779940000
 GCore=-0.0013010000,0.5600570000,3.5861320000
 ****
 C       
 PQN=2,2 NValence=4 F0ss=0.4494440000 F0sp=0.4261420000 F0pp=0.3388090000 F2pp=0.1878900000
 G1sp=0.2701540000
 ZetaOverlap=1.8086650000,1.3781170000
 U=-1.7687090000,-1.4557970000
 Beta=-0.5453250000,-0.3336900000 DDN=0,1,0.7474020000 DDN=1,1,0.7268010000
 CoreKO=1.0227200000 KON=0,0,0,1.1124280000 KON=1,0,1,0.8473510000 KON=0,1,1,1.1124280000
 KON=2,1,1,0.8516400000 EISol=-4.4398989268 EHeat=0.2723305520 Alpha=1.2756240000
 DipHyp=1.4947180026
 GCore=0.0007890000,1.3361580000,2.6678360000
 GCore=0.0028980000,1.4001430000,3.2840710000
 GCore=-0.0015090000,1.3827320000,3.8739390000
 GCore=-0.0001030000,1.4001430000,4.6088130000
 ****
 O       
 PQN=2,2 NValence=6 F0ss=0.5666750000 F0sp=0.5321300000 F0pp=0.4958710000 F2pp=0.2358080000
 G1sp=0.4216980000
 ZetaOverlap=2.6354490000,2.5240390000
 U=-3.5951870000,-2.0345890000
 Beta=-1.1573400000,-1.2994290000 DDN=0,1,0.4953610000 DDN=1,1,0.4852320000
 CoreKO=0.8515990000 KON=0,0,0,0.8822960000 KON=1,0,1,0.5019540000 KON=0,1,1,0.8671530000
 KON=2,1,1,0.5515580000 EISol=-11.6164441184 EHeat=0.0949133088 Alpha=2.4031680000
 DipHyp=0.9906650029
 GCore=0.0204720000,1.2640290000,1.6023330000
 GCore=0.0051530000,1.9602000000,2.7307880000
 ****
 
 Standard basis: VSTO-6G (5D, 7F)
 Ernie: Thresh=  0.10000D-02 Tol=  0.10000D-05 Strict=F.
  NNHCO=     0 NNPyr=     0 NCTC=     0               EPep=         0.000000000
    EC=        70.089829058  ECS=         2.521515066   EG=         0.372557739
   EHC=         0.000000000  EAt=       -31.051283842  AtH=         1.516354808
 EPDDG=         0.000000000  ECC=        72.983901862 EAtT=        32.567638650
 There are    24 symmetry adapted cartesian basis functions of A   symmetry.
 There are    24 symmetry adapted basis functions of A   symmetry.
    24 basis functions,   144 primitive gaussians,    24 cartesian basis functions
    13 alpha electrons       13 beta electrons
       nuclear repulsion energy       105.5515405126 Hartrees.
 IExCor=    0 DFT=F Ex=HF Corr=None ExCW=0 ScaHFX=  1.000000
 ScaDFX=  1.000000  1.000000  1.000000  1.000000 ScalE2=  1.000000  1.000000
 IRadAn=      0 IRanWt=     -1 IRanGd=            0 ICorTp=0 IEmpDi=  4
 Integral buffers will be    131072 words long.
 Regular integral format.
 Two-electron integral symmetry is turned off.
 Leave Link  301 at Tue Dec 15 17:09:04 2015, MaxMem=    33554432 cpu:         0.0
 (Enter /home/Applications/g09/g09/l302.exe)
 Do NDO integrals.
 NPDir=0 NMtPBC=     1 NCelOv=     1 NCel=       1 NClECP=     1 NCelD=      1
         NCelK=      1 NCelE2=     1 NClLst=     1 CellRange=     0.0.
 One-electron integrals computed using PRISM.
 NBasis=    24 RedAO= F EigKep=  0.00D+00  NBF=    24
 NBsUse=    24 1.00D-04 EigRej=  0.00D+00 NBFU=    24
 Leave Link  302 at Tue Dec 15 17:09:04 2015, MaxMem=    33554432 cpu:         0.0
 (Enter /home/Applications/g09/g09/l308.exe)
 Leave Link  308 at Tue Dec 15 17:09:04 2015, MaxMem=    33554432 cpu:         0.0
 (Enter /home/Applications/g09/g09/l303.exe)
 DipDrv:  MaxL=1.
 Leave Link  303 at Tue Dec 15 17:09:04 2015, MaxMem=    33554432 cpu:         0.0
 (Enter /home/Applications/g09/g09/l401.exe)
 Simple Huckel Guess.
 JPrj=0 DoOrth=F DoCkMO=F.
 Leave Link  401 at Tue Dec 15 17:09:04 2015, MaxMem=    33554432 cpu:         0.0
 (Enter /home/Applications/g09/g09/l502.exe)
 Closed shell SCF:
 Using DIIS extrapolation, IDIIS=  1040.
 Overlap will be assumed to be unity.
 Two-electron integral symmetry not used.
 Keep J ints in memory in canonical form, NReq=888082.
 IVT=       79475 IEndB=       79475 NGot=    33554432 MDV=    33473473
 LenX=    33473473 LenY=    33472456
 Requested convergence on RMS density matrix=1.00D-08 within 128 cycles.
 Requested convergence on MAX density matrix=1.00D-06.
 Requested convergence on             energy=1.00D-06.
 No special actions if energy rises.
 FoFCou: FMM=F IPFlag=           0 FMFlag=           0 FMFlg1=           0
         NFxFlg=           0 DoJE=F BraDBF=F KetDBF=F FulRan=T
         wScrn=  0.000000 ICntrl=     600 IOpCl=  2 I1Cent=           0 NGrid=           0
         NMat0=    1 NMatS0=     54 NMatT0=    0 NMatD0=    1 NMtDS0=    0 NMtDT0=    0
 Symmetry not used in FoFCou.

 Cycle   1  Pass 1  IDiag  1:
 E=  4.10967446707304    
 DIIS: error= 1.37D-01 at cycle   1 NSaved=   1.
 NSaved= 1 IEnMin= 1 EnMin=  4.10967446707304     IErMin= 1 ErrMin= 1.37D-01
 ErrMax= 1.37D-01  0.00D+00 EMaxC= 1.00D-01 BMatC= 4.89D-01 BMatP= 4.89D-01
 IDIUse=3 WtCom= 0.00D+00 WtEn= 1.00D+00
 Coeff-Com:  0.100D+01
 Coeff-En:   0.100D+01
 Coeff:      0.100D+01
 GapD=    2.000 DampG=2.000 DampE=0.250 DampFc=0.5000 IDamp=-1.
 Damping current iteration by 5.00D-01
 RMSDP=6.46D-02 MaxDP=6.96D-01              OVMax= 0.00D+00

 Cycle   2  Pass 1  IDiag  1:
 E=  3.11242667421863     Delta-E=       -0.997247792854 Rises=F Damp=T
 DIIS: error= 7.59D-02 at cycle   2 NSaved=   2.
 NSaved= 2 IEnMin= 2 EnMin=  3.11242667421863     IErMin= 2 ErrMin= 7.59D-02
 ErrMax= 7.59D-02  0.00D+00 EMaxC= 1.00D-01 BMatC= 1.70D-01 BMatP= 4.89D-01
 IDIUse=3 WtCom= 2.41D-01 WtEn= 7.59D-01
 Coeff-Com: -0.116D+01 0.216D+01
 Coeff-En:   0.000D+00 0.100D+01
 Coeff:     -0.280D+00 0.128D+01
 RMSDP=3.69D-02 MaxDP=3.73D-01 DE=-9.97D-01 OVMax= 0.00D+00

 Cycle   3  Pass 1  IDiag  1:
 E=  1.84423808305463     Delta-E=       -1.268188591164 Rises=F Damp=F
 DIIS: error= 1.55D-02 at cycle   3 NSaved=   3.
 NSaved= 3 IEnMin= 3 EnMin=  1.84423808305463     IErMin= 3 ErrMin= 1.55D-02
 ErrMax= 1.55D-02  0.00D+00 EMaxC= 1.00D-01 BMatC= 1.23D-02 BMatP= 1.70D-01
 IDIUse=3 WtCom= 8.45D-01 WtEn= 1.55D-01
 Coeff-Com:  0.373D+00-0.820D+00 0.145D+01
 Coeff-En:   0.000D+00 0.000D+00 0.100D+01
 Coeff:      0.315D+00-0.693D+00 0.138D+01
 RMSDP=1.05D-02 MaxDP=5.82D-02 DE=-1.27D+00 OVMax= 0.00D+00

 Cycle   4  Pass 1  IDiag  3:
 E=  1.79532862395904     Delta-E=       -0.048909459096 Rises=F Damp=F
 DIIS: error= 4.64D-03 at cycle   4 NSaved=   4.
 NSaved= 4 IEnMin= 4 EnMin=  1.79532862395904     IErMin= 4 ErrMin= 4.64D-03
 ErrMax= 4.64D-03  0.00D+00 EMaxC= 1.00D-01 BMatC= 1.06D-03 BMatP= 1.23D-02
 IDIUse=3 WtCom= 9.54D-01 WtEn= 4.64D-02
 Coeff-Com: -0.683D-01 0.132D+00-0.443D+00 0.138D+01
 Coeff-En:   0.000D+00 0.000D+00 0.000D+00 0.100D+01
 Coeff:     -0.651D-01 0.126D+00-0.422D+00 0.136D+01
 Gap=     0.404 Goal=   None    Shift=    0.000
 RMSDP=3.92D-03 MaxDP=2.20D-02 DE=-4.89D-02 OVMax= 4.10D-02

 Cycle   5  Pass 1  IDiag  3:
 E=  1.79047444524743     Delta-E=       -0.004854178712 Rises=F Damp=F
 DIIS: error= 1.20D-03 at cycle   5 NSaved=   5.
 NSaved= 5 IEnMin= 5 EnMin=  1.79047444524743     IErMin= 5 ErrMin= 1.20D-03
 ErrMax= 1.20D-03  0.00D+00 EMaxC= 1.00D-01 BMatC= 4.72D-05 BMatP= 1.06D-03
 IDIUse=3 WtCom= 9.88D-01 WtEn= 1.20D-02
 Coeff-Com:  0.195D-01-0.355D-01 0.140D+00-0.588D+00 0.146D+01
 Coeff-En:   0.000D+00 0.000D+00 0.000D+00 0.000D+00 0.100D+01
 Coeff:      0.193D-01-0.350D-01 0.138D+00-0.581D+00 0.146D+01
 Gap=     0.405 Goal=   None    Shift=    0.000
 RMSDP=9.09D-04 MaxDP=4.65D-03 DE=-4.85D-03 OVMax= 7.76D-03

 Cycle   6  Pass 1  IDiag  3:
 E=  1.79023850587680     Delta-E=       -0.000235939371 Rises=F Damp=F
 DIIS: error= 1.99D-04 at cycle   6 NSaved=   6.
 NSaved= 6 IEnMin= 6 EnMin=  1.79023850587680     IErMin= 6 ErrMin= 1.99D-04
 ErrMax= 1.99D-04  0.00D+00 EMaxC= 1.00D-01 BMatC= 1.71D-06 BMatP= 4.72D-05
 IDIUse=3 WtCom= 9.98D-01 WtEn= 1.99D-03
 Coeff-Com: -0.147D-02 0.290D-02-0.269D-01 0.135D+00-0.496D+00 0.139D+01
 Coeff-En:   0.000D+00 0.000D+00 0.000D+00 0.000D+00 0.000D+00 0.100D+01
 Coeff:     -0.146D-02 0.290D-02-0.268D-01 0.135D+00-0.495D+00 0.139D+01
 Gap=     0.406 Goal=   None    Shift=    0.000
 RMSDP=1.72D-04 MaxDP=1.12D-03 DE=-2.36D-04 OVMax= 1.16D-03

 Cycle   7  Pass 1  IDiag  3:
 E=  1.79023074129125     Delta-E=       -0.000007764586 Rises=F Damp=F
 DIIS: error= 3.07D-05 at cycle   7 NSaved=   7.
 NSaved= 7 IEnMin= 7 EnMin=  1.79023074129125     IErMin= 7 ErrMin= 3.07D-05
 ErrMax= 3.07D-05  0.00D+00 EMaxC= 1.00D-01 BMatC= 4.12D-08 BMatP= 1.71D-06
 IDIUse=1 WtCom= 1.00D+00 WtEn= 0.00D+00
 Coeff-Com:  0.124D-03-0.257D-03 0.834D-02-0.459D-01 0.190D+00-0.615D+00
 Coeff-Com:  0.146D+01
 Coeff:      0.124D-03-0.257D-03 0.834D-02-0.459D-01 0.190D+00-0.615D+00
 Coeff:      0.146D+01
 Gap=     0.405 Goal=   None    Shift=    0.000
 RMSDP=2.35D-05 MaxDP=1.84D-04 DE=-7.76D-06 OVMax= 2.06D-04

 Cycle   8  Pass 1  IDiag  3:
 E=  1.79023057015256     Delta-E=       -0.000000171139 Rises=F Damp=F
 DIIS: error= 5.17D-06 at cycle   8 NSaved=   8.
 NSaved= 8 IEnMin= 8 EnMin=  1.79023057015256     IErMin= 8 ErrMin= 5.17D-06
 ErrMax= 5.17D-06  0.00D+00 EMaxC= 1.00D-01 BMatC= 8.24D-10 BMatP= 4.12D-08
 IDIUse=1 WtCom= 1.00D+00 WtEn= 0.00D+00
 Coeff-Com:  0.138D-04-0.518D-04-0.139D-02 0.886D-02-0.424D-01 0.146D+00
 Coeff-Com: -0.422D+00 0.131D+01
 Coeff:      0.138D-04-0.518D-04-0.139D-02 0.886D-02-0.424D-01 0.146D+00
 Coeff:     -0.422D+00 0.131D+01
 Gap=     0.405 Goal=   None    Shift=    0.000
 RMSDP=3.13D-06 MaxDP=2.76D-05 DE=-1.71D-07 OVMax= 2.26D-05

 Cycle   9  Pass 1  IDiag  3:
 E=  1.79023056701098     Delta-E=       -0.000000003142 Rises=F Damp=F
 DIIS: error= 7.98D-07 at cycle   9 NSaved=   9.
 NSaved= 9 IEnMin= 9 EnMin=  1.79023056701098     IErMin= 9 ErrMin= 7.98D-07
 ErrMax= 7.98D-07  0.00D+00 EMaxC= 1.00D-01 BMatC= 2.09D-11 BMatP= 8.24D-10
 IDIUse=1 WtCom= 1.00D+00 WtEn= 0.00D+00
 Coeff-Com:  0.471D-05-0.272D-05 0.141D-03-0.932D-03 0.509D-02-0.176D-01
 Coeff-Com:  0.533D-01-0.254D+00 0.121D+01
 Coeff:      0.471D-05-0.272D-05 0.141D-03-0.932D-03 0.509D-02-0.176D-01
 Coeff:      0.533D-01-0.254D+00 0.121D+01
 Gap=     0.405 Goal=   None    Shift=    0.000
 RMSDP=5.00D-07 MaxDP=3.56D-06 DE=-3.14D-09 OVMax= 2.69D-06

 Cycle  10  Pass 1  IDiag  3:
 E=  1.79023056692036     Delta-E=       -0.000000000091 Rises=F Damp=F
 DIIS: error= 2.30D-07 at cycle  10 NSaved=  10.
 NSaved=10 IEnMin=10 EnMin=  1.79023056692036     IErMin=10 ErrMin= 2.30D-07
 ErrMax= 2.30D-07  0.00D+00 EMaxC= 1.00D-01 BMatC= 1.92D-12 BMatP= 2.09D-11
 IDIUse=1 WtCom= 1.00D+00 WtEn= 0.00D+00
 Coeff-Com:  0.111D-06-0.149D-05-0.270D-04 0.187D-03-0.115D-02 0.384D-02
 Coeff-Com: -0.120D-01 0.710D-01-0.539D+00 0.148D+01
 Coeff:      0.111D-06-0.149D-05-0.270D-04 0.187D-03-0.115D-02 0.384D-02
 Coeff:     -0.120D-01 0.710D-01-0.539D+00 0.148D+01
 Gap=     0.405 Goal=   None    Shift=    0.000
 RMSDP=1.95D-07 MaxDP=1.65D-06 DE=-9.06D-11 OVMax= 1.60D-06

 Cycle  11  Pass 1  IDiag  3:
 E=  1.79023056690939     Delta-E=       -0.000000000011 Rises=F Damp=F
 DIIS: error= 9.79D-08 at cycle  11 NSaved=  11.
 NSaved=11 IEnMin=11 EnMin=  1.79023056690939     IErMin=11 ErrMin= 9.79D-08
 ErrMax= 9.79D-08  0.00D+00 EMaxC= 1.00D-01 BMatC= 1.98D-13 BMatP= 1.92D-12
 IDIUse=1 WtCom= 1.00D+00 WtEn= 0.00D+00
 Coeff-Com: -0.777D-06 0.162D-05 0.244D-05-0.222D-04 0.217D-03-0.637D-03
 Coeff-Com:  0.232D-02-0.226D-01 0.245D+00-0.967D+00 0.174D+01
 Coeff:     -0.777D-06 0.162D-05 0.244D-05-0.222D-04 0.217D-03-0.637D-03
 Coeff:      0.232D-02-0.226D-01 0.245D+00-0.967D+00 0.174D+01
 Gap=     0.405 Goal=   None    Shift=    0.000
 RMSDP=8.62D-08 MaxDP=7.87D-07 DE=-1.10D-11 OVMax= 8.92D-07

 Cycle  12  Pass 1  IDiag  3:
 E=  1.79023056690768     Delta-E=       -0.000000000002 Rises=F Damp=F
 DIIS: error= 1.60D-08 at cycle  12 NSaved=  12.
 NSaved=12 IEnMin=12 EnMin=  1.79023056690768     IErMin=12 ErrMin= 1.60D-08
 ErrMax= 1.60D-08  0.00D+00 EMaxC= 1.00D-01 BMatC= 6.82D-15 BMatP= 1.98D-13
 IDIUse=1 WtCom= 1.00D+00 WtEn= 0.00D+00
 Coeff-Com:  0.440D-07-0.877D-07-0.233D-06 0.179D-06-0.282D-04 0.340D-04
 Coeff-Com: -0.210D-03 0.562D-02-0.784D-01 0.344D+00-0.757D+00 0.149D+01
 Coeff:      0.440D-07-0.877D-07-0.233D-06 0.179D-06-0.282D-04 0.340D-04
 Coeff:     -0.210D-03 0.562D-02-0.784D-01 0.344D+00-0.757D+00 0.149D+01
 Gap=     0.405 Goal=   None    Shift=    0.000
 RMSDP=1.45D-08 MaxDP=1.42D-07 DE=-1.71D-12 OVMax= 1.61D-07

 Cycle  13  Pass 1  IDiag  3:
 E=  1.79023056690775     Delta-E=        0.000000000000 Rises=F Damp=F
 DIIS: error= 2.49D-09 at cycle  13 NSaved=  13.
 NSaved=13 IEnMin=12 EnMin=  1.79023056690768     IErMin=13 ErrMin= 2.49D-09
 ErrMax= 2.49D-09  0.00D+00 EMaxC= 1.00D-01 BMatC= 2.15D-16 BMatP= 6.82D-15
 IDIUse=1 WtCom= 1.00D+00 WtEn= 0.00D+00
 Coeff-Com:  0.128D-07-0.215D-07 0.568D-07 0.344D-06 0.686D-05-0.788D-06
 Coeff-Com:  0.323D-04-0.170D-02 0.253D-01-0.114D+00 0.260D+00-0.610D+00
 Coeff-Com:  0.144D+01
 Coeff:      0.128D-07-0.215D-07 0.568D-07 0.344D-06 0.686D-05-0.788D-06
 Coeff:      0.323D-04-0.170D-02 0.253D-01-0.114D+00 0.260D+00-0.610D+00
 Coeff:      0.144D+01
 Gap=     0.405 Goal=   None    Shift=    0.000
 RMSDP=2.29D-09 MaxDP=1.73D-08 DE= 7.11D-14 OVMax= 1.93D-08

 Cycle  14  Pass 2  IDiag  1:
 SCF Done:  E(RAM1) =   1.79023056691     A.U. after   14 cycles
            NFock= 13  Conv=0.23D-08     -V/T= 1.1143
 KE=-1.565668702005D+01 PE=-1.704432717433D+02 EE= 8.233864881770D+01
 Leave Link  502 at Tue Dec 15 17:09:04 2015, MaxMem=    33554432 cpu:         0.0
 (Enter /home/Applications/g09/g09/l801.exe)
 Range of M.O.s used for correlation:     1    24
 NBasis=    24 NAE=    13 NBE=    13 NFC=     0 NFV=     0
 NROrb=     24 NOA=    13 NOB=    13 NVA=    11 NVB=    11
 Leave Link  801 at Tue Dec 15 17:09:04 2015, MaxMem=    33554432 cpu:         0.0
 (Enter /home/Applications/g09/g09/l914.exe)
 RHF ground state
 MDV=    33554432 DFT=F DoStab=F Mixed=F DoRPA=F DoScal=F NonHer=F
 Making orbital integer symmetry assigments:
 Orbital symmetries:
       Occupied  (A) (A) (A) (A) (A) (A) (A) (A) (A) (A) (A) (A)
                 (A)
       Virtual   (A) (A) (A) (A) (A) (A) (A) (A) (A) (A) (A)
    60 initial guesses have been made.
 Convergence on wavefunction:    0.000001000000000
 Davidson Disk Diagonalization:  ConvIn= 1.00D-06 SkipCon=T Conv= 1.00D-06.
 Max sub-space:   240 roots to seek:    60 dimension of matrix:          286
 Iteration     1 Dimension    60 NMult     0 NNew     60
 CISAX will form    60 AO SS matrices at one time.
 NMat=    60 NSing=    60 JSym2X= 0.
 FoFJK:  IHMeth= 8 ICntrl=       0 DoSepK=F KAlg= 0 I1Cent=   0 FoldK=F
 IRaf=         1 NMat= 120 IRICut=       1 DoRegI=T DoRafI=F ISym2E= 0.
 FoFCou: FMM=F IPFlag=           0 FMFlag=      100000 FMFlg1=           0
         NFxFlg=           0 DoJE=F BraDBF=F KetDBF=F FulRan=T
         wScrn=  0.000000 ICntrl=       0 IOpCl=  0 I1Cent=           0 NGrid=           0
         NMat0=  120 NMatS0=     60 NMatT0=    0 NMatD0=  120 NMtDS0=    0 NMtDT0=    0
 Symmetry not used in FoFCou.
 New state      5 was old state      8
 New state      6 was old state      7
 New state      7 was old state      6
 New state      8 was old state      5
 New state     10 was old state     11
 New state     11 was old state     13
 New state     12 was old state     10
 New state     13 was old state     12
 New state     14 was old state     17
 New state     15 was old state     14
 Excitation Energies [eV] at current iteration:
 Root      1 :     5.470243082848636
 Root      2 :     6.760770292552935
 Root      3 :     6.837862621218198
 Root      4 :     7.508379267753503
 Root      5 :     8.193734235612624
 Root      6 :     8.345624941016760
 Root      7 :     9.012343158386644
 Root      8 :     9.093050186274393
 Root      9 :     9.522887781963911
 Root     10 :    10.145747806555890
 Root     11 :    10.303760399737090
 Root     12 :    10.438878458015810
 Root     13 :    10.548905170240060
 Root     14 :    10.578891298727020
 Root     15 :    10.595789745653840
 Root     16 :    10.840367060786580
 Root     17 :    11.197896940820660
 Root     18 :    11.244733105605510
 Root     19 :    11.452662210130480
 Root     20 :    11.862140419782580
 Root     21 :    11.993354976886270
 Root     22 :    12.176670440264680
 Root     23 :    12.387404709689130
 Root     24 :    12.501250382694040
 Root     25 :    12.792989217538370
 Root     26 :    12.891955456275710
 Root     27 :    13.312288160233590
 Root     28 :    13.374836700724040
 Root     29 :    13.435547978958100
 Root     30 :    13.459150318408180
 Root     31 :    13.790371244920280
 Root     32 :    13.888307966831360
 Root     33 :    13.963514485462290
 Root     34 :    13.975792772796480
 Root     35 :    14.073625489531180
 Root     36 :    14.421306437551140
 Root     37 :    14.653756805978470
 Root     38 :    14.739062712385690
 Root     39 :    14.874219486958510
 Root     40 :    15.116007265543500
 Root     41 :    15.203438248085820
 Root     42 :    15.239846513104920
 Root     43 :    15.282304404720750
 Root     44 :    15.530021526603610
 Root     45 :    15.650374728805170
 Root     46 :    15.755383323412300
 Root     47 :    15.955117222465360
 Root     48 :    16.258844588518120
 Root     49 :    16.594208698386410
 Root     50 :    16.656642139302430
 Root     51 :    16.846574241394140
 Root     52 :    17.057069062174220
 Root     53 :    17.232699860945170
 Root     54 :    17.248043365936730
 Root     55 :    17.462849781903440
 Root     56 :    17.693301124723820
 Root     57 :    17.856079472055030
 Root     58 :    17.896361411467590
 Root     59 :    18.226511601845990
 Root     60 :    18.455568933309720
 Iteration     2 Dimension   120 NMult    60 NNew     60
 CISAX will form    60 AO SS matrices at one time.
 NMat=    60 NSing=    60 JSym2X= 0.
 Root      1 not converged, maximum delta is    0.021133696057510
 Root      2 not converged, maximum delta is    0.031424989617887
 Root      3 not converged, maximum delta is    0.026334504686150
 Root      4 not converged, maximum delta is    0.017375464685573
 Root      5 not converged, maximum delta is    0.033375180837863
 Root      6 not converged, maximum delta is    0.015945456263508
 Root      7 not converged, maximum delta is    0.019413676321923
 Root      8 not converged, maximum delta is    0.021756654974688
 Root      9 not converged, maximum delta is    0.023130315929495
 Root     10 not converged, maximum delta is    0.080040536672116
 Root     11 not converged, maximum delta is    0.028176154518977
 Root     12 not converged, maximum delta is    0.182685982456271
 New state     13 was old state     14
 Root     13 not converged, maximum delta is    0.159638017823096
 New state     14 was old state     13
 Root     14 not converged, maximum delta is    0.128469308378242
 Root     15 not converged, maximum delta is    0.087641386469834
 Excitation Energies [eV] at current iteration:
 Root      1 :     5.384925552807991   Change is   -0.085317530040645
 Root      2 :     6.725844616311266   Change is   -0.034925676241669
 Root      3 :     6.803526133550839   Change is   -0.034336487667360
 Root      4 :     7.494514307178846   Change is   -0.013864960574656
 Root      5 :     8.163365432478026   Change is   -0.030368803134599
 Root      6 :     8.333087776507449   Change is   -0.012537164509310
 Root      7 :     8.997003963801488   Change is   -0.015339194585156
 Root      8 :     9.064293322570885   Change is   -0.028756863703507
 Root      9 :     9.498960172645319   Change is   -0.023927609318592
 Root     10 :     9.871014440681286   Change is   -0.274733365874608
 Root     11 :    10.257120659655730   Change is   -0.046639740081362
 Root     12 :    10.363716569907670   Change is   -0.075161888108134
 Root     13 :    10.465555594251620   Change is   -0.113335704475404
 Root     14 :    10.496530046261740   Change is   -0.052375123978321
 Root     15 :    10.552751118709860   Change is   -0.043038626943987
 Root     16 :    10.825181366603490   Change is   -0.015185694183095
 Root     17 :    10.970285048753590   Change is   -0.274448056851925
 Root     18 :    11.204370769116330   Change is    0.006473828295661
 Root     19 :    11.282864409887050   Change is   -0.169797800243434
 Root     20 :    11.648119144859600   Change is   -0.214021274922976
 Root     21 :    11.953686866740140   Change is   -0.039668110146130
 Root     22 :    12.010803851722490   Change is   -0.165866588542192
 Root     23 :    12.048652815925900   Change is   -0.338751893763237
 Root     24 :    12.342925314040570   Change is   -0.158325068653471
 Root     25 :    12.574795226795950   Change is   -0.218193990742418
 Root     26 :    12.633561341504950   Change is   -0.258394114770758
 Root     27 :    13.173605995872830   Change is   -0.201230704851205
 Root     28 :    13.238953104943840   Change is   -0.220197213464347
 Root     29 :    13.283018437906980   Change is   -0.029269722326601
 Root     30 :    13.319949597679330   Change is   -0.115598381278772
 Root     31 :    13.607720545050640   Change is   -0.182650699869642
 Root     32 :    13.654170091510350   Change is   -0.234137875321005
 Root     33 :    13.743230801495660   Change is   -0.220283683966635
 Root     34 :    13.769869908658440   Change is   -0.205922864138045
 Root     35 :    13.913004787848130   Change is   -0.160620701683051
 Root     36 :    14.284278352017090   Change is   -0.137028085534054
 Root     37 :    14.361644329505370   Change is   -0.292112476473098
 Root     38 :    14.553754220338480   Change is   -0.185308492047211
 Root     39 :    14.707907554971700   Change is   -0.495530693114113
 Root     40 :    14.811426554810680   Change is   -0.062792932147833
 Root     41 :    14.936230796139850   Change is   -0.179776469403648
 Root     42 :    15.067022892254000   Change is   -0.172823620850919
 Root     43 :    15.162209604490490   Change is   -0.120094800230267
 Root     44 :    15.415305673318680   Change is   -0.114715853284931
 Root     45 :    15.540076144612420   Change is   -0.215307178799875
 Root     46 :    15.637389571069290   Change is   -0.012985157735881
 Root     47 :    15.735478067525340   Change is   -0.219639154940021
 Root     48 :    15.921689737602180   Change is   -0.337154850915932
 Root     49 :    16.310515066942430   Change is   -0.283693631443980
 Root     50 :    16.350430717499460   Change is   -0.306211421802973
 Root     51 :    16.589742691565520   Change is   -0.467326370608707
 Root     52 :    16.660589097434850   Change is   -0.587454268501881
 Root     53 :    16.681311353491260   Change is   -0.165262887902876
 Root     54 :    16.742867577281990   Change is   -0.719982204621453
 Root     55 :    17.078135179147000   Change is   -0.154564681798162
 Root     56 :    17.368474190642980   Change is   -0.487605281412050
 Root     57 :    17.452541466623500   Change is   -0.240759658100315
 Root     58 :    17.486983466410310
 Root     59 :    17.671604832718790   Change is   -0.224756578748798
 Root     60 :    17.726323892797990
 Iteration     3 Dimension   135 NMult   120 NNew     15
 CISAX will form    15 AO SS matrices at one time.
 NMat=    15 NSing=    15 JSym2X= 0.
 Root      1 not converged, maximum delta is    0.001211571474168
 Root      2 not converged, maximum delta is    0.000118455873637
 Root      3 not converged, maximum delta is    0.000039454898927
 Root      4 not converged, maximum delta is    0.000071945953010
 Root      5 not converged, maximum delta is    0.000043353172791
 Root      6 not converged, maximum delta is    0.000194797782672
 Root      7 not converged, maximum delta is    0.000240995157764
 Root      8 not converged, maximum delta is    0.000543525971611
 Root      9 not converged, maximum delta is    0.000070387009371
 Root     10 not converged, maximum delta is    0.002914029191646
 Root     11 not converged, maximum delta is    0.000107625131354
 Root     12 not converged, maximum delta is    0.001832605827295
 Root     13 not converged, maximum delta is    0.001564703923512
 Root     14 not converged, maximum delta is    0.000980614060954
 Root     15 not converged, maximum delta is    0.000264598901695
 Excitation Energies [eV] at current iteration:
 Root      1 :     5.384518307396540   Change is   -0.000407245411451
 Root      2 :     6.725841152674452   Change is   -0.000003463636815
 Root      3 :     6.803525655062808   Change is   -0.000000478488031
 Root      4 :     7.494513029507984   Change is   -0.000001277670862
 Root      5 :     8.163364858117024   Change is   -0.000000574361000
 Root      6 :     8.333082555979157   Change is   -0.000005220528294
 Root      7 :     8.996995595892528   Change is   -0.000008367908961
 Root      8 :     9.064216829863994   Change is   -0.000076492706890
 Root      9 :     9.498958864161811   Change is   -0.000001308483508
 Root     10 :     9.869561806286061   Change is   -0.001452634395225
 Root     11 :    10.257116166696720   Change is   -0.000004492959004
 Root     12 :    10.363345326811350   Change is   -0.000371243096320
 Root     13 :    10.465140142954450   Change is   -0.000415451297169
 Root     14 :    10.496508995619590   Change is   -0.000021050642150
 Root     15 :    10.552734282156660   Change is   -0.000016836553198
 Iteration     4 Dimension   143 NMult   135 NNew      8
 CISAX will form     8 AO SS matrices at one time.
 NMat=     8 NSing=     8 JSym2X= 0.
 Root      1 not converged, maximum delta is    0.000047322237566
 Root      2 not converged, maximum delta is    0.000006057730147
 Root      3 not converged, maximum delta is    0.000001190513481
 Root      4 not converged, maximum delta is    0.000002376966707
 Root      5 not converged, maximum delta is    0.000001904075694
 Root      6 not converged, maximum delta is    0.000012336236508
 Root      7 not converged, maximum delta is    0.000010799781535
 Root      8 not converged, maximum delta is    0.000028190574731
 Root      9 not converged, maximum delta is    0.000002815856397
 Root     10 not converged, maximum delta is    0.000192507091695
 Root     11 not converged, maximum delta is    0.000016818102552
 Root     12 not converged, maximum delta is    0.000195068038635
 Root     13 not converged, maximum delta is    0.000138784726362
 Root     14 not converged, maximum delta is    0.000031047156599
 Root     15 not converged, maximum delta is    0.000012324355108
 Excitation Energies [eV] at current iteration:
 Root      1 :     5.384517637240914   Change is   -0.000000670155626
 Root      2 :     6.725841146013750   Change is   -0.000000006660701
 Root      3 :     6.803525654521478   Change is   -0.000000000541331
 Root      4 :     7.494513028170459   Change is   -0.000000001337525
 Root      5 :     8.163364856997491   Change is   -0.000000001119533
 Root      6 :     8.333082536637196   Change is   -0.000000019341961
 Root      7 :     8.996995571074981   Change is   -0.000000024817546
 Root      8 :     9.064216588518248   Change is   -0.000000241345748
 Root      9 :     9.498958862512863   Change is   -0.000000001648947
 Root     10 :     9.869559582055018   Change is   -0.000002224231041
 Root     11 :    10.257116152158980   Change is   -0.000000014537745
 Root     12 :    10.363342916023180   Change is   -0.000002410788170
 Root     13 :    10.465137024407520   Change is   -0.000003118546934
 Root     14 :    10.496508866462220   Change is   -0.000000129157371
 Root     15 :    10.552734245342610   Change is   -0.000000036814049
 Convergence achieved on expansion vectors.
 ***********************************************************************
 Excited states from <AA,BB:AA,BB> singles matrix:
 ***********************************************************************
 
 1PDM for each excited state written to RWF  633
 Ground to excited state transition densities written to RWF  633
 Ground to excited state transition electric dipole moments (Au):
       state          X           Y           Z        Dip. S.      Osc.
         1        -1.6133      0.3333      0.0068      2.7139      0.3580
         2         0.1139     -0.0277      0.2143      0.0597      0.0098
         3         0.0088     -0.0117      0.0176      0.0005      0.0001
         4        -0.0196      0.0202      0.0158      0.0010      0.0002
         5         0.0012      0.0135     -0.0028      0.0002      0.0000
         6        -0.0979      0.0121      0.1761      0.0407      0.0083
         7        -0.0856      0.0099     -0.2041      0.0491      0.0108
         8         0.1591      0.6968      0.0108      0.5110      0.1135
         9         0.0053      0.0163      0.0247      0.0009      0.0002
        10        -0.0262     -0.0688     -0.0004      0.0054      0.0013
        11        -0.0081      0.0320      0.2240      0.0513      0.0129
        12        -0.6965      0.0180     -0.0192      0.4859      0.1234
        13         0.8051     -0.2882     -0.0919      0.7397      0.1897
        14        -0.0371      0.0859     -0.5248      0.2842      0.0731
        15         0.0032     -0.0630     -0.2338      0.0586      0.0152
 Ground to excited state transition velocity dipole moments (Au):
       state          X           Y           Z        Dip. S.      Osc.
         1         0.1831     -0.0402     -0.0117      0.0353      0.1188
         2        -0.0185      0.0061     -0.1860      0.0350      0.0943
         3        -0.0012     -0.0044     -0.0216      0.0005      0.0013
         4         0.0041     -0.0055     -0.0045      0.0001      0.0002
         5        -0.0004     -0.0052      0.0003      0.0000      0.0001
         6         0.0158     -0.0020     -0.0265      0.0010      0.0021
         7         0.0081     -0.0015      0.0082      0.0001      0.0003
         8        -0.0532     -0.2256     -0.0013      0.0537      0.1075
         9        -0.0013     -0.0075      0.0020      0.0001      0.0001
        10         0.0596     -0.0130     -0.0029      0.0037      0.0069
        11         0.0019     -0.0073      0.0307      0.0010      0.0018
        12         0.0976     -0.0271     -0.0129      0.0104      0.0183
        13        -0.1336      0.0141     -0.0143      0.0183      0.0317
        14         0.0081     -0.0090     -0.1014      0.0104      0.0180
        15        -0.0017      0.0119     -0.0121      0.0003      0.0005
 Ground to excited state transition magnetic dipole moments (Au):
       state          X           Y           Z
         1         0.0090     -0.0021     -0.5379
         2        -0.2115      0.0296      0.0294
         3         0.0171      0.2546     -0.0003
         4        -0.2594     -0.8347     -0.0130
         5         0.1904      0.6369      0.0044
         6        -0.9006      0.2800     -0.0450
         7         0.5134     -0.1248     -0.0239
         8        -0.0119     -0.0008     -0.0052
         9        -0.0878     -0.1911      0.0022
        10        -0.0306      0.0030     -0.0691
        11         0.0748      0.1929      0.0024
        12         0.0238     -0.0201     -0.1914
        13        -0.0242     -0.0304      0.2050
        14        -0.0437     -0.0680     -0.0210
        15         0.0208      0.4167     -0.0099
 Ground to excited state transition velocity quadrupole moments (Au):
       state          XX          YY          ZZ          XY          XZ          YZ
         1         0.1262     -0.1315     -0.0020      0.2934     -0.0016     -0.0220
         2        -0.0107      0.0207     -0.0001     -0.0392     -0.0162     -0.1320
         3        -0.0187      0.0013     -0.0040      0.0020     -0.2298      0.0303
         4        -0.0194     -0.0303     -0.0010      0.0090     -0.1980      0.0475
         5        -0.0082     -0.0204      0.0035      0.0021     -0.4566      0.1007
         6         0.0098     -0.0083      0.0015      0.0274      0.0252      0.0952
         7         0.0096     -0.0094      0.0005      0.0174      0.0531      0.2208
         8         0.2078     -0.2949      0.0309     -0.1211     -0.0110      0.0056
         9        -0.0010     -0.0165     -0.0064     -0.0024     -0.0470     -0.0088
        10         0.0541      0.0090      0.0076      0.0527      0.0038     -0.0036
        11        -0.0352     -0.0603     -0.0039      0.0038     -0.1710      0.0795
        12        -0.3033     -0.2669     -0.0785      0.2013      0.0487     -0.0126
        13        -0.4263     -0.1065     -0.0691     -0.1592      0.0556     -0.0097
        14         0.1274      0.0347      0.0241     -0.0024      0.0514     -0.0489
        15        -0.1571     -0.0441     -0.0312      0.0142     -0.3768      0.0015
 <0|del|b> * <b|rxdel|0> + <0|del|b> * <b|delr+rdel|0>
 Rotatory Strengths (R) in cgs (10**-40 erg-esu-cm/Gauss)
       state          XX          YY          ZZ    R(velocity)    E-M Angle
         1         5.1422     13.1106     10.4217      9.5582       85.45
         2         3.0246     -9.1526      2.2241     -1.3013       91.94
         3        -3.0913     -0.0111     -0.1322     -1.0782      101.70
         4         4.4872     -0.9858      5.6298      3.0437       60.09
         5        -6.7516     -0.1351     -1.1556     -2.6808      167.03
         6        -0.0530    -12.4701    -18.8709    -10.4647      117.74
         7         0.2370      6.0172      2.6603      2.9715       47.39
         8        -2.2961      0.1975      3.8122      0.5712       74.43
         9         1.0928      0.1399      1.9132      1.0486       20.11
        10         0.0557     -1.6413     -1.6533     -1.0796      111.08
        11        -2.3221      0.2352     -0.1588     -0.7486      100.54
        12         1.6122      5.7094      2.5879      3.3032       74.37
        13        -1.7157     -0.6096      2.1068     -0.0728       90.24
        14         3.1618      1.0348      0.1750      1.4572       73.75
        15         8.5783      0.2310      0.4035      3.0709       44.84
 1/2[<0|r|b>*<b|rxdel|0> + (<0|rxdel|b>*<b|r|0>)*]
 Rotatory Strengths (R) in cgs (10**-40 erg-esu-cm/Gauss)
       state          XX          YY          ZZ     R(length)
         1        10.3018      0.4874      2.6011      4.4635
         2        17.0355      0.5795     -4.4520      4.3877
         3        -0.1059      2.1101      0.0037      0.6693
         4        -3.6027     11.9462      0.1457      2.8298
         5        -0.1671     -6.1030      0.0087     -2.0871
         6       -62.3398     -2.3908      5.6057    -19.7083
         7        31.0792      0.8720     -3.4473      9.5013
         8         1.3332      0.3724      0.0399      0.5818
         9         0.3276      2.2037     -0.0393      0.8307
        10        -0.5663      0.1472     -0.0208     -0.1466
        11         0.4278     -4.3694     -0.3808     -1.4408
        12        11.7448      0.2561     -2.5990      3.1339
        13        13.7973     -6.2019     13.3164      6.9706
        14        -1.1471      4.1298     -7.7887     -1.6020
        15        -0.0476     18.5671     -1.6350      5.6282
  1/2[<0|del|b>*<b|r|0> + (<0|r|b>*<b|del|0>)*] (Au)
       state          X           Y           Z        Dip. S.   Osc.(frdel)
         1        -0.2953     -0.0134     -0.0001      0.3088      0.2059
         2        -0.0021     -0.0002     -0.0399      0.0421      0.0281
         3         0.0000      0.0001     -0.0004      0.0003      0.0002
         4        -0.0001     -0.0001     -0.0001      0.0003      0.0002
         5         0.0000     -0.0001      0.0000      0.0001      0.0000
         6        -0.0015      0.0000     -0.0047      0.0062      0.0042
         7        -0.0007      0.0000     -0.0017      0.0024      0.0016
         8        -0.0085     -0.1572      0.0000      0.1657      0.1104
         9         0.0000     -0.0001      0.0000      0.0001      0.0001
        10        -0.0016      0.0009      0.0000      0.0007      0.0004
        11         0.0000     -0.0002      0.0069     -0.0066     -0.0044
        12        -0.0680     -0.0005      0.0002      0.0682      0.0455
        13        -0.1076     -0.0041      0.0013      0.1103      0.0736
        14        -0.0003     -0.0008      0.0532     -0.0521     -0.0348
        15         0.0000     -0.0008      0.0028     -0.0021     -0.0014

 Excitation energies and oscillator strengths:
 
 Excited State   1:      Singlet-A      5.3845 eV  230.26 nm  f=0.3580  <S**2>=0.000
      13 -> 14         0.69311
 This state for optimization and/or second-order correction.
 Total Energy, E(CIS) =   1.98810795767    
 Copying the excited state density for this state as the 1-particle RhoCI density.
 
 Excited State   2:      Singlet-A      6.7258 eV  184.34 nm  f=0.0098  <S**2>=0.000
      13 -> 15         0.59543
      13 -> 16         0.32375
      13 -> 17        -0.16026
 
 Excited State   3:      Singlet-A      6.8035 eV  182.24 nm  f=0.0001  <S**2>=0.000
      13 -> 15        -0.31467
      13 -> 16         0.58603
      13 -> 18        -0.15683
      13 -> 19         0.13822
 
 Excited State   4:      Singlet-A      7.4945 eV  165.43 nm  f=0.0002  <S**2>=0.000
      12 -> 14         0.69998
 
 Excited State   5:      Singlet-A      8.1634 eV  151.88 nm  f=0.0000  <S**2>=0.000
      13 -> 16         0.11951
      13 -> 17         0.12501
      13 -> 18         0.62520
      13 -> 21        -0.23138
 
 Excited State   6:      Singlet-A      8.3331 eV  148.79 nm  f=0.0083  <S**2>=0.000
      10 -> 14         0.69400
 
 Excited State   7:      Singlet-A      8.9970 eV  137.81 nm  f=0.0108  <S**2>=0.000
      11 -> 16         0.12389
      13 -> 15         0.12170
      13 -> 17         0.65421
      13 -> 18        -0.11957
 
 Excited State   8:      Singlet-A      9.0642 eV  136.78 nm  f=0.1135  <S**2>=0.000
      11 -> 14         0.68272
 
 Excited State   9:      Singlet-A      9.4990 eV  130.52 nm  f=0.0002  <S**2>=0.000
      11 -> 15        -0.10232
      13 -> 16        -0.10559
      13 -> 19         0.67600
 
 Excited State  10:      Singlet-A      9.8696 eV  125.62 nm  f=0.0013  <S**2>=0.000
       8 -> 15         0.11218
       9 -> 16        -0.11537
      10 -> 15        -0.22361
      10 -> 16        -0.13955
      10 -> 17         0.23252
      12 -> 15         0.17114
      12 -> 16        -0.33791
      12 -> 18         0.36544
 
 Excited State  11:      Singlet-A     10.2571 eV  120.88 nm  f=0.0129  <S**2>=0.000
      13 -> 18         0.23799
      13 -> 20        -0.35924
      13 -> 21         0.54715
 
 Excited State  12:      Singlet-A     10.3633 eV  119.64 nm  f=0.1234  <S**2>=0.000
      10 -> 15         0.27330
      11 -> 15        -0.10259
      12 -> 15         0.58634
      12 -> 17        -0.13168
 
 Excited State  13:      Singlet-A     10.4651 eV  118.47 nm  f=0.1897  <S**2>=0.000
      10 -> 15        -0.15555
      10 -> 16        -0.36495
      10 -> 17         0.11433
      12 -> 16         0.50406
      12 -> 18         0.10042
      12 -> 19         0.10792
 
 Excited State  14:      Singlet-A     10.4965 eV  118.12 nm  f=0.0731  <S**2>=0.000
      11 -> 15        -0.31839
      13 -> 20         0.50412
      13 -> 21         0.31050
 
 Excited State  15:      Singlet-A     10.5527 eV  117.49 nm  f=0.0152  <S**2>=0.000
      11 -> 15         0.50677
      11 -> 16         0.30577
      13 -> 20         0.22898
      13 -> 21         0.19431
 SavETr:  write IOETrn=   770 NScale= 10 NData=  16 NLR=1 NState=   15 LETran=     280.
 The selected state is a singlet
 CISAX will form     1 AO SS matrices at one time.
 NMat=     1 NSing=     1 JSym2X= 0.
 Leave Link  914 at Tue Dec 15 17:09:04 2015, MaxMem=    33554432 cpu:         0.1
 (Enter /home/Applications/g09/g09/l1002.exe)
 Minotr:  Closed shell wavefunction.
          Computing CIS/TD-HF/TD-KS derivatives.
          Using Z-Vector for PSCF gradient.
          Skipping F1 and S1 gradient terms here.
          IDoAtm=111111111
          Direct CPHF calculation.
          Differentiating once with respect to electric field.
                with respect to dipole field.
          Differentiating once with respect to nuclear coordinates.
          Electric field/nuclear overlap derivatives assumed to be zero.
          Requested convergence is 1.0D-10 RMS, and 1.0D-09 maximum.
          NewPWx=T KeepS1=F KeepF1=F KeepIn=T MapXYZ=F SortEE=F KeepMc=T.
          MDV=      33495423 using IRadAn=       0.
 Keep J ints in memory in canonical form, NReq=871704.
 FoFCou: FMM=F IPFlag=           0 FMFlag=           0 FMFlg1=           0
         NFxFlg=           0 DoJE=F BraDBF=F KetDBF=F FulRan=T
         wScrn=  0.000000 ICntrl=     600 IOpCl=  2 I1Cent=           0 NGrid=           0
         NMat0=    1 NMatS0=     54 NMatT0=    0 NMatD0=    1 NMtDS0=    0 NMtDT0=    0
 Symmetry not used in FoFCou.
          Solving linear equations separately, MaxMat=       0.
          There are     1 degrees of freedom in the 1st order CPHF.  IDoFFX=0 NUNeed=     1.
 LinEq1:  Iter=  0 NonCon=     1 RMS=6.28D-03 Max=4.32D-02 NDo=     1
 AX will form     1 AO Fock derivatives at one time.
 LinEq1:  Iter=  1 NonCon=     1 RMS=5.39D-04 Max=1.79D-03 NDo=     1
 LinEq1:  Iter=  2 NonCon=     1 RMS=6.27D-05 Max=2.63D-04 NDo=     1
 LinEq1:  Iter=  3 NonCon=     1 RMS=6.82D-06 Max=2.85D-05 NDo=     1
 LinEq1:  Iter=  4 NonCon=     1 RMS=1.10D-06 Max=5.79D-06 NDo=     1
 LinEq1:  Iter=  5 NonCon=     1 RMS=1.15D-07 Max=3.24D-07 NDo=     1
 LinEq1:  Iter=  6 NonCon=     1 RMS=1.56D-08 Max=6.55D-08 NDo=     1
 LinEq1:  Iter=  7 NonCon=     1 RMS=2.50D-09 Max=1.05D-08 NDo=     1
 LinEq1:  Iter=  8 NonCon=     1 RMS=3.86D-10 Max=1.64D-09 NDo=     1
 LinEq1:  Iter=  9 NonCon=     0 RMS=4.79D-11 Max=1.94D-10 NDo=     1
 Linear equations converged to 1.000D-10 1.000D-09 after     9 iterations.
 End of Minotr F.D. properties file   721 does not exist.
 End of Minotr F.D. properties file   722 does not exist.
 End of Minotr F.D. properties file   788 does not exist.
 Leave Link 1002 at Tue Dec 15 17:09:04 2015, MaxMem=    33554432 cpu:         0.0
 (Enter /home/Applications/g09/g09/l601.exe)
 Copying SCF densities to generalized density rwf, IOpCl= 0 IROHF=0.

 **********************************************************************

            Population analysis using the SCF density.

 **********************************************************************

 Orbital symmetries:
       Occupied  (A) (A) (A) (A) (A) (A) (A) (A) (A) (A) (A) (A)
                 (A)
       Virtual   (A) (A) (A) (A) (A) (A) (A) (A) (A) (A) (A)
 The electronic state is 1-A.
 Alpha  occ. eigenvalues --   -2.00061  -1.26113  -1.00933  -0.90289  -0.84722
 Alpha  occ. eigenvalues --   -0.76876  -0.74517  -0.63664  -0.61832  -0.52801
 Alpha  occ. eigenvalues --   -0.52473  -0.50138  -0.36715
 Alpha virt. eigenvalues --    0.03830   0.11275   0.11704   0.19747   0.20341
 Alpha virt. eigenvalues --    0.22616   0.25305   0.26447   0.29568   0.37582
 Alpha virt. eigenvalues --    0.42845
     Molecular Orbital Coefficients:
                           1         2         3         4         5
                           O         O         O         O         O
     Eigenvalues --    -2.00061  -1.26113  -1.00933  -0.90289  -0.84722
   1 1   C  1S          0.07942   0.46098   0.24093  -0.26072  -0.17342
   2        1PX        -0.07490  -0.19371   0.18693  -0.22018   0.13445
   3        1PY        -0.09133  -0.10620  -0.18366   0.01622  -0.37493
   4        1PZ         0.00021   0.00103  -0.00499  -0.00185   0.00077
   5 2   C  1S          0.23200   0.24477   0.50341   0.13965   0.36586
   6        1PX        -0.25431  -0.09140   0.06718  -0.25446   0.11201
   7        1PY        -0.07062   0.33169  -0.04597  -0.46927  -0.12653
   8        1PZ        -0.00343  -0.00460  -0.01710  -0.00064  -0.00978
   9 3   O  1S          0.83611  -0.29242   0.00884  -0.01144  -0.23959
  10        1PX         0.01163   0.03503   0.23363   0.30135   0.01056
  11        1PY         0.06486   0.16288  -0.05454  -0.04839   0.12584
  12        1PZ        -0.00068  -0.00068  -0.00388   0.00589   0.00005
  13 4   C  1S          0.23487   0.22150  -0.49813  -0.12891   0.39296
  14        1PX         0.21238   0.21013   0.04274  -0.03566  -0.13777
  15        1PY        -0.16391   0.26502   0.00514   0.52401  -0.09183
  16        1PZ         0.00903   0.00660  -0.03024  -0.00781   0.02433
  17 5   C  1S          0.08013   0.44713  -0.25611   0.24770  -0.17258
  18        1PX         0.03396   0.15031   0.22223  -0.20385  -0.26886
  19        1PY        -0.11416  -0.16783   0.10306   0.04036  -0.30371
  20        1PZ         0.00019  -0.00180  -0.00590  -0.00345   0.00172
  21 6   H  1S          0.00323   0.12137  -0.12467   0.17683  -0.15903
  22 7   H  1S          0.04824   0.01263  -0.25663  -0.08654   0.27601
  23 8   H  1S          0.05148   0.02311   0.28277   0.08830   0.27297
  24 9   H  1S          0.00392   0.13236   0.13179  -0.20458  -0.15071
                           6         7         8         9        10
                           O         O         O         O         O
     Eigenvalues --    -0.76876  -0.74517  -0.63664  -0.61832  -0.52801
   1 1   C  1S         -0.21219  -0.01210  -0.12159  -0.07137  -0.11075
   2        1PX        -0.19067  -0.02051  -0.01763   0.24135  -0.28951
   3        1PY        -0.17101  -0.03041   0.09266  -0.30755  -0.42573
   4        1PZ        -0.03907   0.38423   0.02872   0.00744  -0.00609
   5 2   C  1S         -0.08028   0.01535  -0.08584  -0.13757   0.09664
   6        1PX        -0.40648  -0.08154   0.54403   0.19502   0.12698
   7        1PY         0.06691   0.02164  -0.22989   0.44754   0.28267
   8        1PZ        -0.05167   0.56505   0.03718   0.02287  -0.07878
   9 3   O  1S         -0.21153  -0.02419  -0.01475   0.27179   0.02275
  10        1PX         0.03528   0.01926  -0.16615  -0.02565  -0.08644
  11        1PY         0.20697   0.02260   0.04142  -0.11634  -0.01053
  12        1PZ        -0.03151   0.24087   0.00835   0.00662  -0.01142
  13 4   C  1S         -0.09471  -0.04816   0.08925  -0.12652  -0.12553
  14        1PX         0.41479   0.01072   0.60299   0.04316  -0.05475
  15        1PY        -0.12827  -0.01323  -0.03438   0.50425  -0.25466
  16        1PZ        -0.08156   0.55707   0.04101  -0.01707   0.04038
  17 5   C  1S         -0.23692  -0.03975   0.13236  -0.06504   0.11455
  18        1PX         0.13267   0.02787  -0.03153  -0.34349  -0.03029
  19        1PY        -0.22969  -0.01590  -0.04320  -0.21918   0.43226
  20        1PZ        -0.04951   0.38039   0.02894  -0.01145   0.03892
  21 6   H  1S         -0.27878  -0.03122   0.05669  -0.07400   0.35996
  22 7   H  1S         -0.26898  -0.01321  -0.30653  -0.16061  -0.01065
  23 8   H  1S         -0.25612  -0.04890   0.30672  -0.13882   0.03271
  24 9   H  1S         -0.26547  -0.03125  -0.03776  -0.05270  -0.42946
                          11        12        13        14        15
                           O         O         O         V         V
     Eigenvalues --    -0.52473  -0.50138  -0.36715   0.03830   0.11275
   1 1   C  1S          0.00277  -0.05574   0.00150  -0.00682  -0.13156
   2        1PX         0.03506   0.46964   0.00742   0.00506   0.11253
   3        1PY         0.03261   0.03093   0.01775   0.01880   0.10076
   4        1PZ        -0.22802   0.00347   0.58270   0.67531  -0.02351
   5 2   C  1S         -0.02556   0.12408  -0.01044   0.00171  -0.01891
   6        1PX        -0.02381  -0.30657  -0.00629  -0.00562   0.00380
   7        1PY        -0.00885   0.03802  -0.00361   0.01388   0.13455
   8        1PZ        -0.66054   0.00774  -0.36411  -0.22329   0.01312
   9 3   O  1S          0.00101  -0.13346   0.00204   0.00089   0.02484
  10        1PX         0.01012   0.03218   0.00575   0.00112   0.06352
  11        1PY         0.00550   0.18724  -0.00526   0.00863   0.12127
  12        1PZ         0.00871  -0.00600  -0.21501  -0.00198  -0.00974
  13 4   C  1S         -0.02155   0.09481   0.00943   0.00044  -0.08385
  14        1PX         0.02349   0.27148  -0.01048   0.01580   0.40242
  15        1PY         0.04047  -0.13511   0.00679   0.01573   0.30279
  16        1PZ         0.67575  -0.01186  -0.34723   0.21613  -0.02801
  17 5   C  1S         -0.02012  -0.03393   0.00217  -0.01156  -0.16524
  18        1PX        -0.00426  -0.43646  -0.00266   0.00561   0.21450
  19        1PY        -0.03735   0.32289  -0.03360   0.03480   0.30008
  20        1PZ         0.21003   0.00861   0.59909  -0.66627   0.03605
  21 6   H  1S         -0.03297   0.34367  -0.00924  -0.01208  -0.08867
  22 7   H  1S         -0.00677  -0.11982  -0.00412   0.02074   0.67823
  23 8   H  1S         -0.01093  -0.12504   0.00186   0.01271   0.11563
  24 9   H  1S          0.03768   0.25568   0.00940  -0.01104  -0.11785
                          16        17        18        19        20
                           V         V         V         V         V
     Eigenvalues --     0.11704   0.19747   0.20341   0.22616   0.25305
   1 1   C  1S         -0.11210  -0.03945  -0.13699   0.02700   0.25014
   2        1PX        -0.14237  -0.02088   0.55612  -0.02767   0.32548
   3        1PY         0.37180  -0.30484   0.06069   0.48906  -0.05960
   4        1PZ        -0.01541   0.01236  -0.00414  -0.00439  -0.00166
   5 2   C  1S         -0.06681  -0.36257  -0.03846   0.36504  -0.15333
   6        1PX        -0.27356  -0.16319  -0.08966   0.14840  -0.16311
   7        1PY         0.42430  -0.06842   0.04293   0.13409  -0.09265
   8        1PZ         0.01250   0.00404  -0.00131  -0.00273   0.00641
   9 3   O  1S          0.01650  -0.02697   0.00725   0.00046  -0.04747
  10        1PX        -0.04212  -0.00144   0.01765   0.01318  -0.03653
  11        1PY         0.09165  -0.01642   0.01152  -0.00623  -0.18909
  12        1PZ         0.01089   0.00264   0.01133  -0.00786  -0.01428
  13 4   C  1S          0.02058  -0.36258   0.17082  -0.32436  -0.22714
  14        1PX        -0.12751   0.07942  -0.13780   0.07046   0.08353
  15        1PY        -0.00152  -0.15067   0.06529  -0.17611  -0.22023
  16        1PZ        -0.00262  -0.00502   0.00277  -0.00223   0.00094
  17 5   C  1S         -0.07833   0.01348   0.09560  -0.01579   0.51983
  18        1PX        -0.18066   0.02125   0.52905  -0.22109  -0.21202
  19        1PY         0.01875  -0.40894  -0.16712  -0.40984   0.04434
  20        1PZ         0.00974  -0.02198  -0.00464  -0.01247  -0.00178
  21 6   H  1S         -0.09772   0.41612   0.31767   0.24958  -0.41834
  22 7   H  1S         -0.18177   0.25707  -0.17647   0.18526   0.12217
  23 8   H  1S          0.67576   0.29987   0.08417  -0.22232   0.11338
  24 9   H  1S         -0.05902   0.28830  -0.38433  -0.28509  -0.32039
                          21        22        23        24
                           V         V         V         V
     Eigenvalues --     0.26447   0.29568   0.37582   0.42845
   1 1   C  1S          0.64750   0.00525   0.10712  -0.01893
   2        1PX        -0.04298   0.00248   0.05072  -0.02416
   3        1PY         0.00209   0.00048  -0.00940   0.02669
   4        1PZ         0.00015   0.03638  -0.00025  -0.00009
   5 2   C  1S         -0.24363   0.00189  -0.17710  -0.18912
   6        1PX        -0.06369   0.00363   0.19882   0.16370
   7        1PY        -0.19916  -0.00752  -0.07677   0.17349
   8        1PZ         0.00232  -0.22427   0.00427  -0.00151
   9 3   O  1S         -0.01150  -0.00093   0.12643  -0.00288
  10        1PX        -0.00439  -0.02106   0.18023   0.87979
  11        1PY        -0.04617   0.01649   0.87166  -0.18086
  12        1PZ         0.00250   0.94498  -0.01416   0.02327
  13 4   C  1S          0.14650  -0.00642  -0.17539   0.19715
  14        1PX         0.06360   0.00800  -0.21451   0.08867
  15        1PY         0.12003  -0.00692  -0.00400  -0.22384
  16        1PZ         0.00075  -0.22982  -0.00306   0.00401
  17 5   C  1S         -0.46674   0.00928   0.10585   0.01689
  18        1PX        -0.16590  -0.00808  -0.05266  -0.03169
  19        1PY         0.02611   0.00210   0.01133  -0.01532
  20        1PZ         0.00352   0.03496  -0.00158  -0.00117
  21 6   H  1S          0.20944  -0.00869  -0.06374   0.00205
  22 7   H  1S         -0.02199   0.00959  -0.02565  -0.00077
  23 8   H  1S          0.07921  -0.00614  -0.02428  -0.00104
  24 9   H  1S         -0.37002  -0.00398  -0.06619  -0.00135
     Density Matrix:
                           1         2         3         4         5
   1 1   C  1S          0.91067
   2        1PX         0.03100   1.09125
   3        1PY         0.10643   0.07105   1.02222
   4        1PZ        -0.00004  -0.00011   0.00290   1.08330
   5 2   C  1S          0.34418   0.12074  -0.53051   0.00589   1.15797
   6        1PX         0.02179   0.11086  -0.05507   0.00326  -0.21870
   7        1PY         0.45721   0.10661  -0.54214   0.00417  -0.16947
   8        1PZ        -0.00151   0.00097   0.00288   0.31878   0.01263
   9 3   O  1S          0.02154   0.00689  -0.03816   0.00118   0.00734
  10        1PX         0.03018   0.00247  -0.04531   0.00212   0.37081
  11        1PY         0.01540   0.00675  -0.09455  -0.00409   0.17011
  12        1PZ         0.00149  -0.00024  -0.00226  -0.06630   0.00667
  13 4   C  1S         -0.01271  -0.01056   0.03554   0.00323   0.00080
  14        1PX        -0.03269   0.01055   0.01028  -0.00925   0.00782
  15        1PY         0.04225  -0.01409  -0.00288  -0.00465  -0.05958
  16        1PZ        -0.00274   0.00105  -0.00170  -0.27645  -0.00199
  17 5   C  1S          0.28916  -0.48011   0.16903   0.00700  -0.01219
  18        1PX         0.50566  -0.57195   0.23202  -0.00124   0.02501
  19        1PY        -0.03132   0.05506   0.10232  -0.02720   0.02808
  20        1PZ        -0.00349   0.00634   0.00968   0.89972  -0.00221
  21 6   H  1S          0.01288  -0.03295   0.00997   0.00281   0.07959
  22 7   H  1S          0.07265  -0.06624   0.00886  -0.00820   0.05621
  23 8   H  1S          0.08676   0.00831  -0.12343   0.00122   0.54526
  24 9   H  1S          0.54208   0.61698   0.53152  -0.00596   0.07285
                           6         7         8         9        10
   6        1PX         1.54285
   7        1PY         0.09503   1.38574
   8        1PZ         0.00893  -0.00663   1.79885
   9 3   O  1S         -0.06507  -0.01813  -0.00127   1.95990
  10        1PX        -0.39677  -0.27305  -0.00783  -0.04624   0.37078
  11        1PY        -0.30720   0.03119   0.00056  -0.25055  -0.01747
  12        1PZ        -0.00197  -0.00276   0.42329   0.00429   0.00491
  13 4   C  1S         -0.02974  -0.05137   0.00493   0.00903  -0.28540
  14        1PX        -0.00079  -0.01950   0.00339   0.05457  -0.13037
  15        1PY         0.03022   0.02432  -0.00193  -0.04237   0.34326
  16        1PZ         0.00270  -0.00142  -0.00571   0.00126  -0.01277
  17 5   C  1S          0.04694   0.03007   0.00000   0.02214  -0.02210
  18        1PX         0.00810   0.00962   0.00161  -0.02185   0.00219
  19        1PY        -0.01515  -0.00362   0.00794  -0.03298   0.00534
  20        1PZ        -0.00612   0.00303  -0.28293  -0.00167   0.00217
  21 6   H  1S         -0.01927   0.06513  -0.00075   0.00647  -0.02326
  22 7   H  1S         -0.05966  -0.01785  -0.00247   0.00612  -0.07968
  23 8   H  1S          0.60505  -0.46239  -0.02203   0.00580   0.06527
  24 9   H  1S         -0.04660   0.01451  -0.00066   0.00699   0.03135
                          11        12        13        14        15
  11        1PY         0.29143
  12        1PZ        -0.00310   0.21130
  13 4   C  1S          0.30160  -0.01836   1.16792
  14        1PX         0.37539  -0.00876   0.13231   1.45264
  15        1PY        -0.22805   0.01903  -0.24344  -0.11822   1.47402
  16        1PZ         0.01808   0.43440  -0.01621   0.01832   0.00632
  17 5   C  1S          0.02744  -0.00219   0.34589   0.15460   0.43575
  18        1PX        -0.04815   0.00259  -0.31915  -0.00562  -0.33946
  19        1PY        -0.09768   0.00328  -0.43328  -0.16437  -0.42201
  20        1PZ         0.00102  -0.06825  -0.01769  -0.00269  -0.01293
  21 6   H  1S          0.02237  -0.00358   0.06961   0.04879  -0.00865
  22 7   H  1S         -0.02843   0.00759   0.54147  -0.73709  -0.18749
  23 8   H  1S         -0.05466  -0.00560   0.05616   0.04661  -0.03713
  24 9   H  1S          0.01406   0.00007   0.07823   0.04110   0.05470
                          16        17        18        19        20
  16        1PZ         1.79923
  17 5   C  1S         -0.00064   0.91443
  18        1PX         0.00181   0.01193   1.03154
  19        1PY        -0.00211   0.10931  -0.08164   1.08448
  20        1PZ         0.30589   0.00398  -0.00341  -0.00555   1.10556
  21 6   H  1S         -0.00065   0.53505  -0.35521   0.73651   0.01712
  22 7   H  1S          0.03652   0.08653  -0.05724  -0.10771  -0.00361
  23 8   H  1S          0.00278   0.07453   0.06594  -0.01811   0.00406
  24 9   H  1S          0.00055   0.01008   0.03194  -0.00343  -0.00154
                          21        22        23        24
  21 6   H  1S          0.84615
  22 7   H  1S         -0.00071   0.71765
  23 8   H  1S          0.01931   0.02084   0.72723
  24 9   H  1S         -0.00773   0.01931   0.00034   0.85287
    Full Mulliken population analysis:
                           1         2         3         4         5
   1 1   C  1S          0.91067
   2        1PX         0.00000   1.09125
   3        1PY         0.00000   0.00000   1.02222
   4        1PZ         0.00000   0.00000   0.00000   1.08330
   5 2   C  1S          0.00000   0.00000   0.00000   0.00000   1.15797
   6        1PX         0.00000   0.00000   0.00000   0.00000   0.00000
   7        1PY         0.00000   0.00000   0.00000   0.00000   0.00000
   8        1PZ         0.00000   0.00000   0.00000   0.00000   0.00000
   9 3   O  1S          0.00000   0.00000   0.00000   0.00000   0.00000
  10        1PX         0.00000   0.00000   0.00000   0.00000   0.00000
  11        1PY         0.00000   0.00000   0.00000   0.00000   0.00000
  12        1PZ         0.00000   0.00000   0.00000   0.00000   0.00000
  13 4   C  1S          0.00000   0.00000   0.00000   0.00000   0.00000
  14        1PX         0.00000   0.00000   0.00000   0.00000   0.00000
  15        1PY         0.00000   0.00000   0.00000   0.00000   0.00000
  16        1PZ         0.00000   0.00000   0.00000   0.00000   0.00000
  17 5   C  1S          0.00000   0.00000   0.00000   0.00000   0.00000
  18        1PX         0.00000   0.00000   0.00000   0.00000   0.00000
  19        1PY         0.00000   0.00000   0.00000   0.00000   0.00000
  20        1PZ         0.00000   0.00000   0.00000   0.00000   0.00000
  21 6   H  1S          0.00000   0.00000   0.00000   0.00000   0.00000
  22 7   H  1S          0.00000   0.00000   0.00000   0.00000   0.00000
  23 8   H  1S          0.00000   0.00000   0.00000   0.00000   0.00000
  24 9   H  1S          0.00000   0.00000   0.00000   0.00000   0.00000
                           6         7         8         9        10
   6        1PX         1.54285
   7        1PY         0.00000   1.38574
   8        1PZ         0.00000   0.00000   1.79885
   9 3   O  1S          0.00000   0.00000   0.00000   1.95990
  10        1PX         0.00000   0.00000   0.00000   0.00000   0.37078
  11        1PY         0.00000   0.00000   0.00000   0.00000   0.00000
  12        1PZ         0.00000   0.00000   0.00000   0.00000   0.00000
  13 4   C  1S          0.00000   0.00000   0.00000   0.00000   0.00000
  14        1PX         0.00000   0.00000   0.00000   0.00000   0.00000
  15        1PY         0.00000   0.00000   0.00000   0.00000   0.00000
  16        1PZ         0.00000   0.00000   0.00000   0.00000   0.00000
  17 5   C  1S          0.00000   0.00000   0.00000   0.00000   0.00000
  18        1PX         0.00000   0.00000   0.00000   0.00000   0.00000
  19        1PY         0.00000   0.00000   0.00000   0.00000   0.00000
  20        1PZ         0.00000   0.00000   0.00000   0.00000   0.00000
  21 6   H  1S          0.00000   0.00000   0.00000   0.00000   0.00000
  22 7   H  1S          0.00000   0.00000   0.00000   0.00000   0.00000
  23 8   H  1S          0.00000   0.00000   0.00000   0.00000   0.00000
  24 9   H  1S          0.00000   0.00000   0.00000   0.00000   0.00000
                          11        12        13        14        15
  11        1PY         0.29143
  12        1PZ         0.00000   0.21130
  13 4   C  1S          0.00000   0.00000   1.16792
  14        1PX         0.00000   0.00000   0.00000   1.45264
  15        1PY         0.00000   0.00000   0.00000   0.00000   1.47402
  16        1PZ         0.00000   0.00000   0.00000   0.00000   0.00000
  17 5   C  1S          0.00000   0.00000   0.00000   0.00000   0.00000
  18        1PX         0.00000   0.00000   0.00000   0.00000   0.00000
  19        1PY         0.00000   0.00000   0.00000   0.00000   0.00000
  20        1PZ         0.00000   0.00000   0.00000   0.00000   0.00000
  21 6   H  1S          0.00000   0.00000   0.00000   0.00000   0.00000
  22 7   H  1S          0.00000   0.00000   0.00000   0.00000   0.00000
  23 8   H  1S          0.00000   0.00000   0.00000   0.00000   0.00000
  24 9   H  1S          0.00000   0.00000   0.00000   0.00000   0.00000
                          16        17        18        19        20
  16        1PZ         1.79923
  17 5   C  1S          0.00000   0.91443
  18        1PX         0.00000   0.00000   1.03154
  19        1PY         0.00000   0.00000   0.00000   1.08448
  20        1PZ         0.00000   0.00000   0.00000   0.00000   1.10556
  21 6   H  1S          0.00000   0.00000   0.00000   0.00000   0.00000
  22 7   H  1S          0.00000   0.00000   0.00000   0.00000   0.00000
  23 8   H  1S          0.00000   0.00000   0.00000   0.00000   0.00000
  24 9   H  1S          0.00000   0.00000   0.00000   0.00000   0.00000
                          21        22        23        24
  21 6   H  1S          0.84615
  22 7   H  1S          0.00000   0.71765
  23 8   H  1S          0.00000   0.00000   0.72723
  24 9   H  1S          0.00000   0.00000   0.00000   0.85287
     Gross orbital populations:
                           1
   1 1   C  1S          0.91067
   2        1PX         1.09125
   3        1PY         1.02222
   4        1PZ         1.08330
   5 2   C  1S          1.15797
   6        1PX         1.54285
   7        1PY         1.38574
   8        1PZ         1.79885
   9 3   O  1S          1.95990
  10        1PX         0.37078
  11        1PY         0.29143
  12        1PZ         0.21130
  13 4   C  1S          1.16792
  14        1PX         1.45264
  15        1PY         1.47402
  16        1PZ         1.79923
  17 5   C  1S          0.91443
  18        1PX         1.03154
  19        1PY         1.08448
  20        1PZ         1.10556
  21 6   H  1S          0.84615
  22 7   H  1S          0.71765
  23 8   H  1S          0.72723
  24 9   H  1S          0.85287
          Condensed to atoms (all electrons):
               1          2          3          4          5          6
     1  C    4.107446   0.000000   0.000000   0.000000   0.000000   0.000000
     2  C    0.000000   5.885405   0.000000   0.000000   0.000000   0.000000
     3  O    0.000000   0.000000   2.833415   0.000000   0.000000   0.000000
     4  C    0.000000   0.000000   0.000000   5.893810   0.000000   0.000000
     5  C    0.000000   0.000000   0.000000   0.000000   4.136017   0.000000
     6  H    0.000000   0.000000   0.000000   0.000000   0.000000   0.846150
     7  H    0.000000   0.000000   0.000000   0.000000   0.000000   0.000000
     8  H    0.000000   0.000000   0.000000   0.000000   0.000000   0.000000
     9  H    0.000000   0.000000   0.000000   0.000000   0.000000   0.000000
               7          8          9
     1  C    0.000000   0.000000   0.000000
     2  C    0.000000   0.000000   0.000000
     3  O    0.000000   0.000000   0.000000
     4  C    0.000000   0.000000   0.000000
     5  C    0.000000   0.000000   0.000000
     6  H    0.000000   0.000000   0.000000
     7  H    0.717649   0.000000   0.000000
     8  H    0.000000   0.727234   0.000000
     9  H    0.000000   0.000000   0.852874
 Mulliken charges:
               1
     1  C   -0.107446
     2  C   -1.885405
     3  O    3.166585
     4  C   -1.893810
     5  C   -0.136017
     6  H    0.153850
     7  H    0.282351
     8  H    0.272766
     9  H    0.147126
 Sum of Mulliken charges =   0.00000
 Mulliken charges with hydrogens summed into heavy atoms:
               1
     1  C    0.039680
     2  C   -1.612639
     3  O    3.166585
     4  C   -1.611459
     5  C    0.017833
 Charge=              0.0000 electrons
 Dipole moment (field-independent basis, Debye):
    X=             -2.0880    Y=            -10.3127    Z=              0.2534  Tot=             10.5250
 N-N= 1.055515405126D+02 E-N=-1.704432717419D+02  KE=-1.565668702005D+01
 Orbital energies and kinetic energies (alpha):
                                 1                 2
   1         O                -2.000609         -1.382743
   2         O                -1.261127         -1.040336
   3         O                -1.009329         -0.875464
   4         O                -0.902890         -0.602905
   5         O                -0.847218         -0.702931
   6         O                -0.768763         -0.598898
   7         O                -0.745165         -0.540235
   8         O                -0.636639         -0.380949
   9         O                -0.618315         -0.327739
  10         O                -0.528013         -0.443753
  11         O                -0.524728         -0.328367
  12         O                -0.501379         -0.339390
  13         O                -0.367153         -0.264634
  14         V                 0.038304         -0.165936
  15         V                 0.112745         -0.168118
  16         V                 0.117035         -0.169203
  17         V                 0.197468         -0.159035
  18         V                 0.203412         -0.114535
  19         V                 0.226162         -0.098934
  20         V                 0.253054         -0.113099
  21         V                 0.264471         -0.132035
  22         V                 0.295683          0.494283
  23         V                 0.375817          0.511219
  24         V                 0.428450          0.594516
 Total kinetic energy from orbitals=-1.565668702005D+01
 Leave Link  601 at Tue Dec 15 17:09:04 2015, MaxMem=    33554432 cpu:         0.0
 (Enter /home/Applications/g09/g09/l701.exe)
 Compute integral first derivatives.
 ... and contract with generalized density number  6.
 Leave Link  701 at Tue Dec 15 17:09:04 2015, MaxMem=    33554432 cpu:         0.0
 (Enter /home/Applications/g09/g09/l702.exe)
 L702 exits ... SP integral derivatives will be done elsewhere.
 Leave Link  702 at Tue Dec 15 17:09:04 2015, MaxMem=    33554432 cpu:         0.0
 (Enter /home/Applications/g09/g09/l703.exe)
 Compute integral first derivatives, UseDBF=F ICtDFT=           0.
 Integral derivatives from FoFJK, PRISM(SPDF).
 Calling FoFJK, ICntrl=  10005127 FMM=F ISym2X=0 I1Cent= 0 IOpClX= 0 NMat=1 NMatS=1 NMatT=0.
 FoFJK:  IHMeth= 8 ICntrl=10005127 DoSepK=F KAlg= 0 I1Cent=   0 FoldK=F
 IRaf=         0 NMat=   1 IRICut=       1 DoRegI=T DoRafI=F ISym2E= 0.
 FoFCou: FMM=F IPFlag=           0 FMFlag=      100000 FMFlg1=         800
         NFxFlg=           0 DoJE=F BraDBF=F KetDBF=F FulRan=T
         wScrn=  0.000000 ICntrl=10005127 IOpCl=  0 I1Cent=           0 NGrid=           0
         NMat0=    1 NMatS0=      1 NMatT0=    0 NMatD0=    1 NMtDS0=    0 NMtDT0=    0
 Symmetry not used in FoFCou.
 Leave Link  703 at Tue Dec 15 17:09:04 2015, MaxMem=    33554432 cpu:         0.0
 (Enter /home/Applications/g09/g09/l716.exe)
 Dipole        =-8.94316635D-01-4.40630774D+00 9.88080162D-02
 ***** Axes restored to original set *****
 -------------------------------------------------------------------
 Center     Atomic                   Forces (Hartrees/Bohr)
 Number     Number              X              Y              Z
 -------------------------------------------------------------------
      1        6           0.150068149    0.004457160   -0.003177630
      2        6          -0.189996580   -0.073168425    0.013497289
      3        8          -0.016456427   -0.005064518   -0.002109269
      4        6          -0.170634013    0.097372089    0.000426567
      5        6           0.152067644    0.021771845   -0.006238007
      6        1           0.047730636    0.036130905    0.002605595
      7        1          -0.014735895    0.081603242   -0.000011026
      8        1          -0.030185192   -0.111305614   -0.000006340
      9        1           0.072141678   -0.051796684   -0.004987178
 -------------------------------------------------------------------
 Cartesian Forces:  Max     0.189996580 RMS     0.076594107
 Z-matrix is all fixed cartesians, so copy forces.
 Force constants in Cartesian coordinates: 
                1             2             3             4             5 
      1  0.919148D+00
      2 -0.445655D-01  0.767804D+00
      3 -0.285114D-01 -0.583317D-02  0.195762D+00
      4 -0.513446D+00 -0.100176D+00  0.211415D-01  0.965196D+00
      5 -0.791306D-01 -0.212184D+00  0.584582D-02  0.295606D-01  0.922602D+00
      6  0.177550D-01  0.500877D-02 -0.103682D+00 -0.153229D-01 -0.269105D-02
      7 -0.794265D-02  0.293695D-01 -0.532039D-03 -0.295244D+00  0.172350D+00
      8 -0.593957D-02  0.219776D-01 -0.490744D-03  0.215443D+00 -0.377733D+00
      9  0.933265D-03 -0.150490D-02  0.830098D-02 -0.243166D-02  0.637924D-02
     10  0.915811D-02  0.592980D-04  0.224527D-03  0.247794D-01  0.185336D-01
     11  0.336618D-01  0.234084D-03  0.130811D-02 -0.179347D-01 -0.134127D-01
     12 -0.825331D-03 -0.985414D-04 -0.111707D-02  0.107215D-03  0.122608D-03
     13 -0.160948D+00  0.134577D-01  0.135924D-02  0.919554D-02 -0.340341D-01
     14 -0.985850D-02 -0.366618D+00  0.451363D-02  0.408993D-04 -0.193049D-03
     15  0.176981D-02  0.400033D-02 -0.733957D-01 -0.677390D-03  0.215388D-02
     16  0.168832D-01  0.109655D-03  0.604810D-04 -0.181549D-05  0.000000D+00
     17 -0.222887D-01 -0.145682D-03 -0.138733D-03  0.192349D-05  0.000000D+00
     18  0.686357D-03  0.245395D-03  0.154578D-01  0.124136D-03  0.487176D-04
     19  0.000000D+00 -0.336659D-05 -0.215950D-03  0.294557D-04  0.284134D-04
     20  0.000000D+00 -0.108983D-04 -0.699070D-03 -0.561077D-05 -0.541223D-05
     21  0.000000D+00  0.960491D-04  0.616107D-02  0.222497D-03  0.214624D-03
     22  0.723106D-02 -0.269255D-01 -0.686674D-03 -0.185406D+00 -0.126421D+00
     23 -0.390929D-02  0.144223D-01 -0.439574D-03 -0.120726D+00 -0.342130D+00
     24  0.884849D-03  0.170236D-02  0.300937D-01 -0.489266D-02 -0.989817D-02
     25 -0.270084D+00  0.128674D+00  0.716026D-02 -0.510335D-02  0.191135D-01
     26  0.132030D+00 -0.225480D+00 -0.406627D-02 -0.620391D-02  0.230553D-01
     27  0.730702D-02 -0.361628D-02 -0.775813D-01  0.172919D-02 -0.217567D-02
                6             7             8             9            10 
      6  0.201149D+00
      7  0.160829D-02  0.564025D+00
      8  0.263920D-02  0.879782D-02  0.752057D+00
      9 -0.493373D-01 -0.211444D-01 -0.260217D-01  0.610539D-01
     10 -0.253696D-02 -0.296831D+00 -0.224886D+00  0.250070D-01  0.918869D+00
     11  0.190677D-02 -0.180581D+00 -0.400128D+00  0.242333D-01  0.237148D-02
     12 -0.608317D-03  0.191580D-01  0.224687D-01 -0.491593D-01 -0.309715D-01
     13  0.381945D-03 -0.806502D-02  0.582198D-02 -0.295481D-03 -0.483292D+00
     14 -0.205115D-03 -0.295810D-01  0.214004D-01 -0.348561D-03  0.949581D-01
     15 -0.143134D-02  0.240685D-02 -0.116510D-02  0.759345D-02 -0.691438D-02
     16 -0.449546D-04  0.000000D+00 -0.148754D-05 -0.241645D-04 -0.472530D-02
     17  0.476289D-04  0.000000D+00  0.000000D+00  0.789282D-05  0.624018D-02
     18  0.307380D-02  0.792159D-04  0.387826D-03  0.630009D-02 -0.715172D-03
     19  0.703979D-03  0.217260D-01 -0.159714D-01 -0.334028D-02 -0.167952D+00
     20 -0.134095D-03  0.116424D-01 -0.858398D-02 -0.214821D-02  0.102726D+00
     21  0.531759D-02 -0.201800D-02  0.174998D-02  0.408144D-02  0.156895D-01
     22 -0.369750D-02  0.223221D-01  0.167254D-01  0.100729D-02 -0.604893D-05
     23 -0.688663D-02 -0.119999D-01 -0.899228D-02 -0.657911D-03 -0.257320D-05
     24 -0.800620D-01  0.202302D-03  0.190692D-03  0.434184D-02  0.216748D-03
     25  0.115305D-02  0.101312D-04  0.101903D-04  0.288394D-03  0.000000D+00
     26  0.314534D-03  0.213605D-05  0.214851D-05  0.608044D-04  0.000000D+00
     27  0.255806D-01  0.239754D-03  0.241153D-03  0.682481D-02  0.000000D+00
               11            12            13            14            15 
     11  0.902788D+00
     12 -0.256297D-02  0.190175D+00
     13  0.716771D-01 -0.908714D-03  0.874452D+00
     14 -0.206245D+00  0.477472D-03  0.299644D-01  0.733015D+00
     15  0.343814D-02 -0.971436D-01  0.940766D-03 -0.630116D-02  0.186433D+00
     16 -0.173680D-01 -0.135569D-03 -0.256752D+00 -0.111453D+00 -0.843005D-03
     17  0.229346D-01  0.868428D-04 -0.112667D+00 -0.194990D+00  0.839491D-04
     18 -0.225727D-02  0.241746D-01 -0.116384D-02  0.517034D-03 -0.720895D-01
     19  0.108177D+00  0.135625D-01  0.700932D-02  0.258064D-01  0.302862D-02
     20 -0.306170D+00 -0.204848D-01  0.367939D-02  0.135074D-01 -0.958439D-03
     21 -0.263264D-01 -0.747879D-01  0.156786D-03  0.988992D-03  0.268936D-01
     22 -0.583489D-05 -0.144567D-03  0.170500D-04  0.669136D-05  0.422186D-03
     23 -0.248215D-05 -0.614985D-04 -0.167081D-04 -0.655718D-05 -0.413721D-03
     24  0.209078D-03  0.518019D-02  0.280878D-03  0.110232D-03  0.695500D-02
     25  0.246283D-05  0.157979D-03  0.183824D-01  0.116286D-03 -0.133465D-03
     26  0.000000D+00  0.522458D-04  0.221174D-01  0.129354D-03 -0.837881D-03
     27  0.512299D-04  0.328614D-02 -0.751582D-03  0.247475D-03  0.161852D-01
               16            17            18            19            20 
     16  0.244594D+00
     17  0.128717D+00  0.172200D+00
     18  0.876465D-03  0.162824D-05  0.380375D-01
     19 -0.134521D-05  0.000000D+00  0.350718D-03  0.139189D+00
     20 -0.435469D-05  0.142236D-05  0.113534D-02 -0.118037D+00  0.301261D+00
     21  0.383789D-04 -0.125356D-04 -0.100060D-01 -0.140896D-01  0.232893D-01
     22  0.000000D+00  0.000000D+00  0.000000D+00  0.000000D+00  0.000000D+00
     23  0.000000D+00  0.000000D+00  0.000000D+00  0.000000D+00  0.000000D+00
     24  0.000000D+00  0.000000D+00  0.000000D+00  0.000000D+00  0.000000D+00
     25  0.347903D-05 -0.368599D-05 -0.237881D-03  0.000000D+00  0.000000D+00
     26  0.115056D-05 -0.121901D-05 -0.786707D-04  0.000000D+00  0.000000D+00
     27  0.723680D-04 -0.766730D-04 -0.494821D-02  0.000000D+00  0.000000D+00
               21            22            23            24            25 
     21  0.423402D-01
     22  0.000000D+00  0.155871D+00
     23  0.000000D+00  0.136626D+00  0.336703D+00
     24  0.000000D+00  0.378580D-02  0.778657D-02  0.448010D-01
     25  0.000000D+00 -0.290105D-04  0.284288D-04 -0.477913D-03  0.256821D+00
     26  0.000000D+00 -0.611652D-05  0.599387D-05 -0.100762D-03 -0.147941D+00
     27  0.000000D+00 -0.686531D-03  0.672765D-03 -0.113098D-01 -0.791043D-02
               26            27 
     26  0.202288D+00
     27  0.465600D-02  0.419625D-01
 Leave Link  716 at Tue Dec 15 17:09:04 2015, MaxMem=    33554432 cpu:         0.0
 (Enter /home/Applications/g09/g09/l103.exe)

 GradGradGradGradGradGradGradGradGradGradGradGradGradGradGradGradGradGrad
 Berny optimization.
 Search for a local minimum.
 Step number   1 out of a maximum of    2
 All quantities printed in internal units (Hartrees-Bohrs-Radians)
 Second derivative matrix not updated -- first step.
 ITU=  0
     Eigenvalues ---    0.01698   0.03231   0.07024   0.07710   0.07933
     Eigenvalues ---    0.08505   0.12882   0.13700   0.16652   0.24661
     Eigenvalues ---    0.26159   0.30581   0.37176   0.45523   0.64056
     Eigenvalues ---    0.84944   1.09365   1.33976   1.43603   1.54647
     Eigenvalues ---    1.63474
 Quadratic step=1.345D+00 exceeds max=3.000D-01 adjusted using Lamda=-7.660D-01.
 Angle between NR and scaled steps=  21.71 degrees.
 Angle between quadratic step and forces=  22.25 degrees.
 Linear search not attempted -- first point.
 TrRot= -0.005900  0.002114  0.000037 -1.520889 -0.000203  1.520793
 Variable       Old X    -DE/DX   Delta X   Delta X   Delta X     New X
                                 (Linear)    (Quad)   (Total)
    X1        1.81804   0.15007   0.00000   0.08532   0.07928   1.89732
    Y1       -1.37813   0.00446   0.00000  -0.01892  -0.01700  -1.39513
    Z1       -0.03861  -0.00318   0.00000  -0.00017   0.00017  -0.03844
    X2       -0.65251  -0.19000   0.00000  -0.09734  -0.10344  -0.75595
    Y2       -2.04443  -0.07317   0.00000  -0.06425  -0.06204  -2.10647
    Z2        0.07173   0.01350   0.00000   0.00877   0.00923   0.08096
    X3       -2.19037  -0.01646   0.00000  -0.02903  -0.03493  -2.22530
    Y3        0.00915  -0.00506   0.00000  -0.00151   0.00083   0.00998
    Z3        0.05319  -0.00211   0.00000  -0.00195  -0.00194   0.05125
    X4       -0.70100  -0.17063   0.00000  -0.08703  -0.09272  -0.79373
    Y4        2.06555   0.09737   0.00000   0.07110   0.07327   2.13882
    Z4       -0.09213   0.00043   0.00000   0.00094   0.00054  -0.09159
    X5        1.80025   0.15207   0.00000   0.08804   0.08228   1.88253
    Y5        1.38496   0.02177   0.00000   0.03289   0.03481   1.41976
    Z5       -0.08168  -0.00624   0.00000  -0.00636  -0.00659  -0.08827
    X6        3.45004   0.04773   0.00000   0.06941   0.06377   3.51381
    Y6        2.63478   0.03613   0.00000   0.04633   0.04809   2.68288
    Z6       -0.07692   0.00261   0.00000   0.00298   0.00251  -0.07441
    X7       -1.64512  -0.01474   0.00000  -0.02572  -0.03124  -1.67636
    Y7        3.85686   0.08160   0.00000   0.10096   0.10325   3.96011
    Z7        0.07803  -0.00001   0.00000   0.00144   0.00066   0.07869
    X8       -1.58412  -0.03019   0.00000  -0.03953  -0.04581  -1.62992
    Y8       -3.77817  -0.11131   0.00000  -0.12731  -0.12504  -3.90321
    Z8        0.02515  -0.00001   0.00000   0.00023   0.00104   0.02619
    X9        3.36263   0.07214   0.00000   0.08898   0.08281   3.44544
    Y9       -2.66371  -0.05180   0.00000  -0.05793  -0.05617  -2.71988
    Z9       -0.09242  -0.00499   0.00000  -0.00624  -0.00562  -0.09804
         Item               Value     Threshold  Converged?
 Maximum Force            0.189997     0.000450     NO 
 RMS     Force            0.076594     0.000300     NO 
 Maximum Displacement     0.125037     0.001800     NO 
 RMS     Displacement     0.057807     0.001200     NO 
 Predicted change in Energy=-9.012483D-02
 GradGradGradGradGradGradGradGradGradGradGradGradGradGradGradGradGradGrad

 Leave Link  103 at Tue Dec 15 17:09:04 2015, MaxMem=    33554432 cpu:         0.0
 (Enter /home/Applications/g09/g09/l9999.exe)
 1\1\GINC-DUSTIN-DESKTOP\Force\RAM1-FC\STO-3G\C4H4O1\DUSTIN\15-Dec-2015
 \0\\#P AM1(Input,print) CIS(Singlets,NStates=15) pop(full) force\\AM1-
 Reparam Input\\0,1\C,0.962065,-0.729274,-0.020429\C,-0.345294,-1.08186
 5,0.037957\O,-1.159094,0.004844,0.028147\C,-0.370954,1.093042,-0.04875
 1\C,0.95265,0.732887,-0.043223\H,1.825681,1.394267,-0.040703\H,-0.8705
 58,2.040962,0.041294\H,-0.838278,-1.999324,0.013307\H,1.779427,-1.4095
 75,-0.048907\\Version=ES64L-G09RevD.01\State=1-A\HF=1.7902306\RMSD=2.2
 90e-09\RMSF=7.659e-02\Dipole=-4.4920639,0.0045433,0.2155326\PG=C01 [X(
 C4H4O1)]\\@


 IN THE WOODS WE RETURN TO REASON AND FAITH.

                                 -- EMERSON
 Job cpu time:       0 days  0 hours  0 minutes  0.7 seconds.
 File lengths (MBytes):  RWF=      7 Int=      0 D2E=      0 Chk=      2 Scr=      1
 Normal termination of Gaussian 09 at Tue Dec 15 17:09:04 2015.
