 Entering Gaussian System, Link 0=g09
 Input=FuranDFT_92.com
 Output=FuranDFT_92.log
 Initial command:
 /home/Applications/g09/g09/l1.exe "/home/Applications/g09/scratch/Gau-6445.inp" -scrdir="/home/Applications/g09/scratch/"
 Entering Link 1 = /home/Applications/g09/g09/l1.exe PID=      6447.
  
 Copyright (c) 1988,1990,1992,1993,1995,1998,2003,2009,2013,
            Gaussian, Inc.  All Rights Reserved.
  
 This is part of the Gaussian(R) 09 program.  It is based on
 the Gaussian(R) 03 system (copyright 2003, Gaussian, Inc.),
 the Gaussian(R) 98 system (copyright 1998, Gaussian, Inc.),
 the Gaussian(R) 94 system (copyright 1995, Gaussian, Inc.),
 the Gaussian 92(TM) system (copyright 1992, Gaussian, Inc.),
 the Gaussian 90(TM) system (copyright 1990, Gaussian, Inc.),
 the Gaussian 88(TM) system (copyright 1988, Gaussian, Inc.),
 the Gaussian 86(TM) system (copyright 1986, Carnegie Mellon
 University), and the Gaussian 82(TM) system (copyright 1983,
 Carnegie Mellon University). Gaussian is a federally registered
 trademark of Gaussian, Inc.
  
 This software contains proprietary and confidential information,
 including trade secrets, belonging to Gaussian, Inc.
  
 This software is provided under written license and may be
 used, copied, transmitted, or stored only in accord with that
 written license.
  
 The following legend is applicable only to US Government
 contracts under FAR:
  
                    RESTRICTED RIGHTS LEGEND
  
 Use, reproduction and disclosure by the US Government is
 subject to restrictions as set forth in subparagraphs (a)
 and (c) of the Commercial Computer Software - Restricted
 Rights clause in FAR 52.227-19.
  
 Gaussian, Inc.
 340 Quinnipiac St., Bldg. 40, Wallingford CT 06492
  
  
 ---------------------------------------------------------------
 Warning -- This program may not be used in any manner that
 competes with the business of Gaussian, Inc. or will provide
 assistance to any competitor of Gaussian, Inc.  The licensee
 of this program is prohibited from giving any competitor of
 Gaussian, Inc. access to this program.  By using this program,
 the user acknowledges that Gaussian, Inc. is engaged in the
 business of creating and licensing software in the field of
 computational chemistry and represents and warrants to the
 licensee that it is not a competitor of Gaussian, Inc. and that
 it will not use this program in any manner prohibited above.
 ---------------------------------------------------------------
  

 Cite this work as:
 Gaussian 09, Revision D.01,
 M. J. Frisch, G. W. Trucks, H. B. Schlegel, G. E. Scuseria, 
 M. A. Robb, J. R. Cheeseman, G. Scalmani, V. Barone, B. Mennucci, 
 G. A. Petersson, H. Nakatsuji, M. Caricato, X. Li, H. P. Hratchian, 
 A. F. Izmaylov, J. Bloino, G. Zheng, J. L. Sonnenberg, M. Hada, 
 M. Ehara, K. Toyota, R. Fukuda, J. Hasegawa, M. Ishida, T. Nakajima, 
 Y. Honda, O. Kitao, H. Nakai, T. Vreven, J. A. Montgomery, Jr., 
 J. E. Peralta, F. Ogliaro, M. Bearpark, J. J. Heyd, E. Brothers, 
 K. N. Kudin, V. N. Staroverov, T. Keith, R. Kobayashi, J. Normand, 
 K. Raghavachari, A. Rendell, J. C. Burant, S. S. Iyengar, J. Tomasi, 
 M. Cossi, N. Rega, J. M. Millam, M. Klene, J. E. Knox, J. B. Cross, 
 V. Bakken, C. Adamo, J. Jaramillo, R. Gomperts, R. E. Stratmann, 
 O. Yazyev, A. J. Austin, R. Cammi, C. Pomelli, J. W. Ochterski, 
 R. L. Martin, K. Morokuma, V. G. Zakrzewski, G. A. Voth, 
 P. Salvador, J. J. Dannenberg, S. Dapprich, A. D. Daniels, 
 O. Farkas, J. B. Foresman, J. V. Ortiz, J. Cioslowski, 
 and D. J. Fox, Gaussian, Inc., Wallingford CT, 2013.
 
 ******************************************
 Gaussian 09:  ES64L-G09RevD.01 24-Apr-2013
                15-Dec-2015 
 ******************************************
 -------------------------------------------------------
 #P B3LYP/3-21G CIS(Singlets,NStates=15) pop(full) force
 -------------------------------------------------------
 1/10=7,30=1,38=1/1,3;
 2/12=2,17=6,18=5,40=1/2;
 3/5=5,11=9,16=1,25=1,30=1,71=1,74=-5/1,2,8,3;
 4//1;
 5/5=2,38=5/2;
 8/6=1,10=1,108=15/1;
 9/15=2,41=15,42=1,48=1/14;
 10/5=4/2;
 6/7=3,18=1/1;
 7/12=6,13=5,29=1/1,2,3,16;
 1/10=7,30=1/3;
 99//99;
 Leave Link    1 at Tue Dec 15 16:29:41 2015, MaxMem=           0 cpu:         0.0
 (Enter /home/Applications/g09/g09/l101.exe)
 --------
 FuranDFT
 --------
 Symbolic Z-matrix:
 Charge =  0 Multiplicity = 1
 6                     0.93625  -0.76012   0.02058 
 6                    -0.33667  -1.09574   0.03102 
 8                    -1.16824   0.01502  -0.03689 
 6                    -0.31699   1.09328  -0.03885 
 6                     0.95318   0.68447  -0.04035 
 1                     1.8306    1.41662   0.04143 
 1                    -0.84773   2.03666   0.02685 
 1                    -0.82294  -2.09164  -0.04079 
 1                     1.84472  -1.39425  -0.04328 
 
 NAtoms=      9 NQM=        9 NQMF=       0 NMMI=      0 NMMIF=      0
                NMic=       0 NMicF=      0.
                    Isotopes and Nuclear Properties:
 (Nuclear quadrupole moments (NQMom) in fm**2, nuclear magnetic moments (NMagM)
  in nuclear magnetons)

  Atom         1           2           3           4           5           6           7           8           9
 IAtWgt=          12          12          16          12          12           1           1           1           1
 AtmWgt=  12.0000000  12.0000000  15.9949146  12.0000000  12.0000000   1.0078250   1.0078250   1.0078250   1.0078250
 NucSpn=           0           0           0           0           0           1           1           1           1
 AtZEff=   0.0000000   0.0000000   0.0000000   0.0000000   0.0000000   0.0000000   0.0000000   0.0000000   0.0000000
 NQMom=    0.0000000   0.0000000   0.0000000   0.0000000   0.0000000   0.0000000   0.0000000   0.0000000   0.0000000
 NMagM=    0.0000000   0.0000000   0.0000000   0.0000000   0.0000000   2.7928460   2.7928460   2.7928460   2.7928460
 AtZNuc=   6.0000000   6.0000000   8.0000000   6.0000000   6.0000000   1.0000000   1.0000000   1.0000000   1.0000000
 Leave Link  101 at Tue Dec 15 16:29:41 2015, MaxMem=    33554432 cpu:         0.0
 (Enter /home/Applications/g09/g09/l103.exe)

 GradGradGradGradGradGradGradGradGradGradGradGradGradGradGradGradGradGrad
 Berny optimization.
 Initialization pass.
 Trust Radius=3.00D-01 FncErr=1.00D-07 GrdErr=1.00D-07
 Number of steps in this run=      2 maximum allowed number of steps=      2.
 GradGradGradGradGradGradGradGradGradGradGradGradGradGradGradGradGradGrad

 Leave Link  103 at Tue Dec 15 16:29:41 2015, MaxMem=    33554432 cpu:         0.0
 (Enter /home/Applications/g09/g09/l202.exe)
                          Input orientation:                          
 ---------------------------------------------------------------------
 Center     Atomic      Atomic             Coordinates (Angstroms)
 Number     Number       Type             X           Y           Z
 ---------------------------------------------------------------------
      1          6           0        0.936245   -0.760121    0.020578
      2          6           0       -0.336674   -1.095742    0.031018
      3          8           0       -1.168240    0.015020   -0.036888
      4          6           0       -0.316987    1.093283   -0.038850
      5          6           0        0.953176    0.684474   -0.040354
      6          1           0        1.830604    1.416615    0.041430
      7          1           0       -0.847731    2.036664    0.026851
      8          1           0       -0.822943   -2.091639   -0.040789
      9          1           0        1.844717   -1.394254   -0.043283
 ---------------------------------------------------------------------
                    Distance matrix (angstroms):
                    1          2          3          4          5
     1  C    0.000000
     2  C    1.316462   0.000000
     3  O    2.243436   1.389210   0.000000
     4  C    2.238131   2.190228   1.373786   0.000000
     5  C    1.445979   2.199540   2.224542   1.334332   0.000000
     6  H    2.353400   3.318002   3.311143   2.173278   1.145687
     7  H    3.317321   3.173825   2.047885   1.084423   2.253042
     8  H    2.207136   1.110597   2.134773   3.224860   3.295664
     9  H    1.109741   2.202975   3.326260   3.295576   2.261850
                    6          7          8          9
     6  H    0.000000
     7  H    2.749209   0.000000
     8  H    4.399536   4.128931   0.000000
     9  H    2.812181   4.361811   2.757311   0.000000
 Stoichiometry    C4H4O
 Framework group  C1[X(C4H4O)]
 Deg. of freedom    21
 Full point group                 C1      NOp   1
 Largest Abelian subgroup         C1      NOp   1
 Largest concise Abelian subgroup C1      NOp   1
                         Standard orientation:                         
 ---------------------------------------------------------------------
 Center     Atomic      Atomic             Coordinates (Angstroms)
 Number     Number       Type             X           Y           Z
 ---------------------------------------------------------------------
      1          6           0        0.891225    0.800723    0.015921
      2          6           0        1.016608   -0.509661    0.031629
      3          8           0       -0.214954   -1.150807   -0.014098
      4          6           0       -1.141199   -0.136255   -0.007561
      5          6           0       -0.532356    1.050949   -0.024795
      6          1           0       -1.111574    2.035757    0.060398
      7          1           0       -2.156911   -0.506916    0.075583
      8          1           0        1.919511   -1.151118   -0.050373
      9          1           0        1.662937    1.594196   -0.063994
 ---------------------------------------------------------------------
 Rotational constants (GHZ):      9.4919000      9.2358265      4.6844359
 Leave Link  202 at Tue Dec 15 16:29:41 2015, MaxMem=    33554432 cpu:         0.0
 (Enter /home/Applications/g09/g09/l301.exe)
 Standard basis: 3-21G (6D, 7F)
 Ernie: Thresh=  0.10000D-02 Tol=  0.10000D-05 Strict=F.
 There are    53 symmetry adapted cartesian basis functions of A   symmetry.
 There are    53 symmetry adapted basis functions of A   symmetry.
    53 basis functions,    87 primitive gaussians,    53 cartesian basis functions
    18 alpha electrons       18 beta electrons
       nuclear repulsion energy       160.5991998920 Hartrees.
 IExCor=  402 DFT=T Ex+Corr=B3LYP ExCW=0 ScaHFX=  0.200000
 ScaDFX=  0.800000  0.720000  1.000000  0.810000 ScalE2=  1.000000  1.000000
 IRadAn=      0 IRanWt=     -1 IRanGd=            0 ICorTp=0 IEmpDi=  4
 NAtoms=    9 NActive=    9 NUniq=    9 SFac= 1.00D+00 NAtFMM=   60 NAOKFM=F Big=F
 Integral buffers will be    131072 words long.
 Regular integral format.
 Two-electron integral symmetry is turned on.
 Leave Link  301 at Tue Dec 15 16:29:41 2015, MaxMem=    33554432 cpu:         0.0
 (Enter /home/Applications/g09/g09/l302.exe)
 NPDir=0 NMtPBC=     1 NCelOv=     1 NCel=       1 NClECP=     1 NCelD=      1
         NCelK=      1 NCelE2=     1 NClLst=     1 CellRange=     0.0.
 One-electron integrals computed using PRISM.
 NBasis=    53 RedAO= T EigKep=  3.21D-03  NBF=    53
 NBsUse=    53 1.00D-06 EigRej= -1.00D+00 NBFU=    53
 Precomputing XC quadrature grid using
 IXCGrd= 4 IRadAn=           0 IRanWt=          -1 IRanGd=           0 AccXCQ= 0.00D+00.
 Generated NRdTot=       0 NPtTot=           0 NUsed=           0 NTot=          32
 NSgBfM=    53    53    53    53    53 MxSgAt=     9 MxSgA2=     9.
 Leave Link  302 at Tue Dec 15 16:29:41 2015, MaxMem=    33554432 cpu:         0.2
 (Enter /home/Applications/g09/g09/l308.exe)
 Leave Link  308 at Tue Dec 15 16:29:42 2015, MaxMem=    33554432 cpu:         0.0
 (Enter /home/Applications/g09/g09/l303.exe)
 DipDrv:  MaxL=1.
 Leave Link  303 at Tue Dec 15 16:29:42 2015, MaxMem=    33554432 cpu:         0.0
 (Enter /home/Applications/g09/g09/l401.exe)
 ExpMin= 1.83D-01 ExpMax= 3.22D+02 ExpMxC= 3.22D+02 IAcc=1 IRadAn=         1 AccDes= 0.00D+00
 Harris functional with IExCor=  402 and IRadAn=       1 diagonalized for initial guess.
 HarFok:  IExCor=  402 AccDes= 0.00D+00 IRadAn=         1 IDoV= 1 UseB2=F ITyADJ=14
 ICtDFT=  3500011 ScaDFX=  1.000000  1.000000  1.000000  1.000000
 FoFCou: FMM=F IPFlag=           0 FMFlag=      100000 FMFlg1=           0
         NFxFlg=           0 DoJE=T BraDBF=F KetDBF=T FulRan=T
         wScrn=  0.000000 ICntrl=     500 IOpCl=  0 I1Cent=   200000004 NGrid=           0
         NMat0=    1 NMatS0=      1 NMatT0=    0 NMatD0=    1 NMtDS0=    0 NMtDT0=    0
 Petite list used in FoFCou.
 Harris En= -228.729076753755    
 JPrj=0 DoOrth=F DoCkMO=F.
 Leave Link  401 at Tue Dec 15 16:29:42 2015, MaxMem=    33554432 cpu:         0.3
 (Enter /home/Applications/g09/g09/l502.exe)
 Closed shell SCF:
 Using DIIS extrapolation, IDIIS=  1040.
 Integral symmetry usage will be decided dynamically.
 Keep R1 ints in memory in canonical form, NReq=1925595.
 IVT=       27707 IEndB=       27707 NGot=    33554432 MDV=    32502130
 LenX=    32502130 LenY=    32498880
 Requested convergence on RMS density matrix=1.00D-08 within 128 cycles.
 Requested convergence on MAX density matrix=1.00D-06.
 Requested convergence on             energy=1.00D-06.
 No special actions if energy rises.
 FoFCou: FMM=F IPFlag=           0 FMFlag=           0 FMFlg1=           0
         NFxFlg=           0 DoJE=F BraDBF=F KetDBF=F FulRan=T
         wScrn=  0.000000 ICntrl=     600 IOpCl=  0 I1Cent=           0 NGrid=           0
         NMat0=    1 NMatS0=   1431 NMatT0=    0 NMatD0=    1 NMtDS0=    0 NMtDT0=    0
 Symmetry not used in FoFCou.
 Integral accuracy reduced to 1.0D-05 until final iterations.

 Cycle   1  Pass 0  IDiag  1:
 E= -228.664971635502    
 DIIS: error= 3.47D-02 at cycle   1 NSaved=   1.
 NSaved= 1 IEnMin= 1 EnMin= -228.664971635502     IErMin= 1 ErrMin= 3.47D-02
 ErrMax= 3.47D-02  0.00D+00 EMaxC= 1.00D-01 BMatC= 7.36D-02 BMatP= 7.36D-02
 IDIUse=3 WtCom= 6.53D-01 WtEn= 3.47D-01
 Coeff-Com:  0.100D+01
 Coeff-En:   0.100D+01
 Coeff:      0.100D+01
 Gap=     0.241 Goal=   None    Shift=    0.000
 GapD=    0.241 DampG=1.000 DampE=0.500 DampFc=0.5000 IDamp=-1.
 Damping current iteration by 5.00D-01
 RMSDP=1.16D-02 MaxDP=1.09D-01              OVMax= 1.80D-01

 Cycle   2  Pass 0  IDiag  1:
 E= -228.695192994617     Delta-E=       -0.030221359115 Rises=F Damp=T
 DIIS: error= 1.32D-02 at cycle   2 NSaved=   2.
 NSaved= 2 IEnMin= 2 EnMin= -228.695192994617     IErMin= 2 ErrMin= 1.32D-02
 ErrMax= 1.32D-02  0.00D+00 EMaxC= 1.00D-01 BMatC= 8.13D-03 BMatP= 7.36D-02
 IDIUse=3 WtCom= 8.68D-01 WtEn= 1.32D-01
 Coeff-Com:  0.107D+00 0.893D+00
 Coeff-En:   0.191D+00 0.809D+00
 Coeff:      0.118D+00 0.882D+00
 Gap=     0.256 Goal=   None    Shift=    0.000
 RMSDP=4.27D-03 MaxDP=3.48D-02 DE=-3.02D-02 OVMax= 1.56D-01

 Cycle   3  Pass 0  IDiag  1:
 E= -228.731935877221     Delta-E=       -0.036742882604 Rises=F Damp=F
 DIIS: error= 1.99D-02 at cycle   3 NSaved=   3.
 NSaved= 3 IEnMin= 3 EnMin= -228.731935877221     IErMin= 2 ErrMin= 1.32D-02
 ErrMax= 1.99D-02  0.00D+00 EMaxC= 1.00D-01 BMatC= 1.12D-02 BMatP= 8.13D-03
 IDIUse=2 WtCom= 0.00D+00 WtEn= 1.00D+00
 Coeff-En:   0.000D+00 0.000D+00 0.100D+01
 Coeff:      0.000D+00 0.000D+00 0.100D+01
 Gap=     0.247 Goal=   None    Shift=    0.000
 RMSDP=5.81D-03 MaxDP=4.58D-02 DE=-3.67D-02 OVMax= 1.24D-01

 Cycle   4  Pass 0  IDiag  1:
 E= -228.701764472784     Delta-E=        0.030171404438 Rises=F Damp=F
 DIIS: error= 4.05D-02 at cycle   4 NSaved=   4.
 NSaved= 4 IEnMin= 3 EnMin= -228.731935877221     IErMin= 2 ErrMin= 1.32D-02
 ErrMax= 4.05D-02  0.00D+00 EMaxC= 1.00D-01 BMatC= 4.50D-02 BMatP= 8.13D-03
 IDIUse=2 WtCom= 0.00D+00 WtEn= 1.00D+00
 Coeff-En:   0.000D+00 0.000D+00 0.751D+00 0.249D+00
 Coeff:      0.000D+00 0.000D+00 0.751D+00 0.249D+00
 Gap=     0.258 Goal=   None    Shift=    0.000
 RMSDP=2.90D-03 MaxDP=2.29D-02 DE= 3.02D-02 OVMax= 6.71D-02

 Cycle   5  Pass 0  IDiag  1:
 E= -228.739717314526     Delta-E=       -0.037952841742 Rises=F Damp=F
 DIIS: error= 9.68D-03 at cycle   5 NSaved=   5.
 NSaved= 5 IEnMin= 5 EnMin= -228.739717314526     IErMin= 5 ErrMin= 9.68D-03
 ErrMax= 9.68D-03  0.00D+00 EMaxC= 1.00D-01 BMatC= 2.59D-03 BMatP= 8.13D-03
 IDIUse=3 WtCom= 9.03D-01 WtEn= 9.68D-02
 Coeff-Com: -0.803D-02 0.265D-01 0.235D+00-0.976D-01 0.844D+00
 Coeff-En:   0.000D+00 0.000D+00 0.232D+00 0.000D+00 0.768D+00
 Coeff:     -0.725D-02 0.239D-01 0.235D+00-0.881D-01 0.837D+00
 Gap=     0.262 Goal=   None    Shift=    0.000
 RMSDP=1.01D-03 MaxDP=7.77D-03 DE=-3.80D-02 OVMax= 2.20D-02

 Cycle   6  Pass 0  IDiag  1:
 E= -228.742047555058     Delta-E=       -0.002330240532 Rises=F Damp=F
 DIIS: error= 5.44D-04 at cycle   6 NSaved=   6.
 NSaved= 6 IEnMin= 6 EnMin= -228.742047555058     IErMin= 6 ErrMin= 5.44D-04
 ErrMax= 5.44D-04  0.00D+00 EMaxC= 1.00D-01 BMatC= 9.92D-06 BMatP= 2.59D-03
 IDIUse=3 WtCom= 9.95D-01 WtEn= 5.44D-03
 Coeff-Com: -0.492D-02 0.111D-01 0.489D-01-0.434D-01 0.300D+00 0.688D+00
 Coeff-En:   0.000D+00 0.000D+00 0.000D+00 0.000D+00 0.000D+00 0.100D+01
 Coeff:     -0.490D-02 0.110D-01 0.487D-01-0.431D-01 0.298D+00 0.690D+00
 Gap=     0.263 Goal=   None    Shift=    0.000
 RMSDP=6.78D-05 MaxDP=5.33D-04 DE=-2.33D-03 OVMax= 1.32D-03

 Cycle   7  Pass 0  IDiag  1:
 E= -228.742057381593     Delta-E=       -0.000009826535 Rises=F Damp=F
 DIIS: error= 9.10D-05 at cycle   7 NSaved=   7.
 NSaved= 7 IEnMin= 7 EnMin= -228.742057381593     IErMin= 7 ErrMin= 9.10D-05
 ErrMax= 9.10D-05  0.00D+00 EMaxC= 1.00D-01 BMatC= 2.25D-07 BMatP= 9.92D-06
 IDIUse=1 WtCom= 1.00D+00 WtEn= 0.00D+00
 Coeff-Com: -0.202D-02 0.401D-02 0.169D-01-0.175D-01 0.123D+00 0.405D+00
 Coeff-Com:  0.470D+00
 Coeff:     -0.202D-02 0.401D-02 0.169D-01-0.175D-01 0.123D+00 0.405D+00
 Coeff:      0.470D+00
 Gap=     0.263 Goal=   None    Shift=    0.000
 RMSDP=9.57D-06 MaxDP=9.91D-05 DE=-9.83D-06 OVMax= 2.85D-04

 Initial convergence to 1.0D-05 achieved.  Increase integral accuracy.
 Cycle   8  Pass 1  IDiag  1:
 E= -228.742091655186     Delta-E=       -0.000034273593 Rises=F Damp=F
 DIIS: error= 1.66D-05 at cycle   1 NSaved=   1.
 NSaved= 1 IEnMin= 1 EnMin= -228.742091655186     IErMin= 1 ErrMin= 1.66D-05
 ErrMax= 1.66D-05  0.00D+00 EMaxC= 1.00D-01 BMatC= 1.86D-08 BMatP= 1.86D-08
 IDIUse=1 WtCom= 1.00D+00 WtEn= 0.00D+00
 Coeff-Com:  0.100D+01
 Coeff:      0.100D+01
 Gap=     0.263 Goal=   None    Shift=    0.000
 RMSDP=9.57D-06 MaxDP=9.91D-05 DE=-3.43D-05 OVMax= 1.03D-04

 Cycle   9  Pass 1  IDiag  1:
 E= -228.742091651957     Delta-E=        0.000000003230 Rises=F Damp=F
 DIIS: error= 2.20D-05 at cycle   2 NSaved=   2.
 NSaved= 2 IEnMin= 1 EnMin= -228.742091655186     IErMin= 1 ErrMin= 1.66D-05
 ErrMax= 2.20D-05  0.00D+00 EMaxC= 1.00D-01 BMatC= 2.56D-08 BMatP= 1.86D-08
 IDIUse=1 WtCom= 1.00D+00 WtEn= 0.00D+00
 Coeff-Com:  0.546D+00 0.454D+00
 Coeff:      0.546D+00 0.454D+00
 Gap=     0.263 Goal=   None    Shift=    0.000
 RMSDP=3.29D-06 MaxDP=4.01D-05 DE= 3.23D-09 OVMax= 8.42D-05

 Cycle  10  Pass 1  IDiag  1:
 E= -228.742091675971     Delta-E=       -0.000000024014 Rises=F Damp=F
 DIIS: error= 4.03D-06 at cycle   3 NSaved=   3.
 NSaved= 3 IEnMin= 3 EnMin= -228.742091675971     IErMin= 3 ErrMin= 4.03D-06
 ErrMax= 4.03D-06  0.00D+00 EMaxC= 1.00D-01 BMatC= 9.27D-10 BMatP= 1.86D-08
 IDIUse=1 WtCom= 1.00D+00 WtEn= 0.00D+00
 Coeff-Com: -0.405D-02 0.152D+00 0.852D+00
 Coeff:     -0.405D-02 0.152D+00 0.852D+00
 Gap=     0.263 Goal=   None    Shift=    0.000
 RMSDP=8.06D-07 MaxDP=8.22D-06 DE=-2.40D-08 OVMax= 1.73D-05

 Cycle  11  Pass 1  IDiag  1:
 E= -228.742091676683     Delta-E=       -0.000000000711 Rises=F Damp=F
 DIIS: error= 3.39D-06 at cycle   4 NSaved=   4.
 NSaved= 4 IEnMin= 4 EnMin= -228.742091676683     IErMin= 4 ErrMin= 3.39D-06
 ErrMax= 3.39D-06  0.00D+00 EMaxC= 1.00D-01 BMatC= 3.11D-10 BMatP= 9.27D-10
 IDIUse=1 WtCom= 1.00D+00 WtEn= 0.00D+00
 Coeff-Com: -0.211D-01 0.904D-01 0.574D+00 0.356D+00
 Coeff:     -0.211D-01 0.904D-01 0.574D+00 0.356D+00
 Gap=     0.263 Goal=   None    Shift=    0.000
 RMSDP=3.00D-07 MaxDP=3.06D-06 DE=-7.11D-10 OVMax= 5.88D-06

 Cycle  12  Pass 1  IDiag  1:
 E= -228.742091676938     Delta-E=       -0.000000000256 Rises=F Damp=F
 DIIS: error= 2.17D-07 at cycle   5 NSaved=   5.
 NSaved= 5 IEnMin= 5 EnMin= -228.742091676938     IErMin= 5 ErrMin= 2.17D-07
 ErrMax= 2.17D-07  0.00D+00 EMaxC= 1.00D-01 BMatC= 3.14D-12 BMatP= 3.11D-10
 IDIUse=1 WtCom= 1.00D+00 WtEn= 0.00D+00
 Coeff-Com: -0.103D-01 0.351D-01 0.223D+00 0.151D+00 0.601D+00
 Coeff:     -0.103D-01 0.351D-01 0.223D+00 0.151D+00 0.601D+00
 Gap=     0.263 Goal=   None    Shift=    0.000
 RMSDP=4.78D-08 MaxDP=4.64D-07 DE=-2.56D-10 OVMax= 9.17D-07

 Cycle  13  Pass 1  IDiag  1:
 E= -228.742091676939     Delta-E=       -0.000000000001 Rises=F Damp=F
 DIIS: error= 9.83D-08 at cycle   6 NSaved=   6.
 NSaved= 6 IEnMin= 6 EnMin= -228.742091676939     IErMin= 6 ErrMin= 9.83D-08
 ErrMax= 9.83D-08  0.00D+00 EMaxC= 1.00D-01 BMatC= 4.61D-13 BMatP= 3.14D-12
 IDIUse=1 WtCom= 1.00D+00 WtEn= 0.00D+00
 Coeff-Com: -0.167D-02 0.522D-02 0.283D-01 0.155D-01 0.276D+00 0.677D+00
 Coeff:     -0.167D-02 0.522D-02 0.283D-01 0.155D-01 0.276D+00 0.677D+00
 Gap=     0.263 Goal=   None    Shift=    0.000
 RMSDP=1.69D-08 MaxDP=2.04D-07 DE=-9.66D-13 OVMax= 4.92D-07

 Cycle  14  Pass 1  IDiag  1:
 E= -228.742091676939     Delta-E=        0.000000000000 Rises=F Damp=F
 DIIS: error= 4.32D-08 at cycle   7 NSaved=   7.
 NSaved= 7 IEnMin= 7 EnMin= -228.742091676939     IErMin= 7 ErrMin= 4.32D-08
 ErrMax= 4.32D-08  0.00D+00 EMaxC= 1.00D-01 BMatC= 9.13D-14 BMatP= 4.61D-13
 IDIUse=1 WtCom= 1.00D+00 WtEn= 0.00D+00
 Coeff-Com:  0.239D-03-0.127D-02-0.113D-01-0.106D-01 0.906D-01 0.413D+00
 Coeff-Com:  0.520D+00
 Coeff:      0.239D-03-0.127D-02-0.113D-01-0.106D-01 0.906D-01 0.413D+00
 Coeff:      0.520D+00
 Gap=     0.263 Goal=   None    Shift=    0.000
 RMSDP=5.81D-09 MaxDP=5.19D-08 DE=-5.68D-14 OVMax= 1.12D-07

 SCF Done:  E(RB3LYP) =  -228.742091677     A.U. after   14 cycles
            NFock= 14  Conv=0.58D-08     -V/T= 2.0085
 KE= 2.268147210836D+02 PE=-8.537635536919D+02 EE= 2.376075410394D+02
 Leave Link  502 at Tue Dec 15 16:29:46 2015, MaxMem=    33554432 cpu:         3.9
 (Enter /home/Applications/g09/g09/l801.exe)
 DoSCS=F DFT=T ScalE2(SS,OS)=  1.000000  1.000000
 ExpMin= 1.83D-01 ExpMax= 3.22D+02 ExpMxC= 3.22D+02 IAcc=3 IRadAn=         5 AccDes= 0.00D+00
 HarFok:  IExCor=  205 AccDes= 0.00D+00 IRadAn=         5 IDoV=-2 UseB2=F ITyADJ=14
 ICtDFT= 12500011 ScaDFX=  1.000000  1.000000  1.000000  1.000000
 Largest valence mixing into a core orbital is  1.93D-04
 Largest core mixing into a valence orbital is  4.53D-05
 Range of M.O.s used for correlation:     6    53
 NBasis=    53 NAE=    18 NBE=    18 NFC=     5 NFV=     0
 NROrb=     48 NOA=    13 NOB=    13 NVA=    35 NVB=    35
 Leave Link  801 at Tue Dec 15 16:29:46 2015, MaxMem=    33554432 cpu:         0.2
 (Enter /home/Applications/g09/g09/l914.exe)
 RHF ground state
 MDV=    33554432 DFT=T DoStab=F Mixed=T DoRPA=F DoScal=F NonHer=F
 Keep R1, R2, and R3 ints in memory in canonical form, NReq=5596273.
 FoFCou: FMM=F IPFlag=           0 FMFlag=           0 FMFlg1=           0
         NFxFlg=           0 DoJE=F BraDBF=F KetDBF=F FulRan=T
         wScrn=  0.000000 ICntrl=     600 IOpCl=  0 I1Cent=           0 NGrid=           0
         NMat0=    1 NMatS0=   1431 NMatT0=    0 NMatD0=    1 NMtDS0=    0 NMtDT0=    0
 Symmetry not used in FoFCou.
 Making orbital integer symmetry assigments:
 Orbital symmetries:
       Occupied  (A) (A) (A) (A) (A) (A) (A) (A) (A) (A) (A) (A)
                 (A) (A) (A) (A) (A) (A)
       Virtual   (A) (A) (A) (A) (A) (A) (A) (A) (A) (A) (A) (A)
                 (A) (A) (A) (A) (A) (A) (A) (A) (A) (A) (A) (A)
                 (A) (A) (A) (A) (A) (A) (A) (A) (A) (A) (A)
    60 initial guesses have been made.
 Convergence on wavefunction:    0.000001000000000
 Davidson Disk Diagonalization:  ConvIn= 1.00D-06 SkipCon=T Conv= 1.00D-06.
 Max sub-space:   240 roots to seek:    60 dimension of matrix:          910
 Iteration     1 Dimension    60 NMult     0 NNew     60
 CISAX will form    60 AO SS matrices at one time.
 NMat=    60 NSing=    60 JSym2X= 0.
 New state      1 was old state      2
 New state      2 was old state      1
 New state      3 was old state      4
 New state      4 was old state      7
 New state      5 was old state      8
 New state      7 was old state      9
 New state      8 was old state     11
 New state      9 was old state      5
 New state     11 was old state     12
 New state     12 was old state     13
 New state     13 was old state     14
 New state     14 was old state     15
 New state     15 was old state      3
 Excitation Energies [eV] at current iteration:
 Root      1 :     7.557644707562269
 Root      2 :     8.185433202600363
 Root      3 :     8.375443116032578
 Root      4 :     8.979032206674278
 Root      5 :     9.354512028393243
 Root      6 :     9.392493141181202
 Root      7 :     9.597770976146904
 Root      8 :     9.940063279642938
 Root      9 :    10.035818197876920
 Root     10 :    10.187698965013740
 Root     11 :    10.415238731523430
 Root     12 :    10.458170656205410
 Root     13 :    10.681648289557960
 Root     14 :    10.786046950907040
 Root     15 :    10.978578530950410
 Root     16 :    11.041860075048810
 Root     17 :    11.118278718137240
 Root     18 :    11.247220833199190
 Root     19 :    11.369218212644740
 Root     20 :    11.379004404199170
 Root     21 :    11.920848176960710
 Root     22 :    11.937270422581980
 Root     23 :    12.127193636816760
 Root     24 :    12.541507412969800
 Root     25 :    12.546845559343320
 Root     26 :    12.892501594139510
 Root     27 :    13.086210112904480
 Root     28 :    13.148008364316200
 Root     29 :    13.571457745216680
 Root     30 :    13.629199942500560
 Root     31 :    13.662929227750800
 Root     32 :    13.712866258603040
 Root     33 :    13.909778032062450
 Root     34 :    13.940974906974130
 Root     35 :    14.051772616590500
 Root     36 :    14.212563642257400
 Root     37 :    14.279700196007830
 Root     38 :    14.420175014750220
 Root     39 :    14.537101812311690
 Root     40 :    14.698514749306900
 Root     41 :    14.805621872000870
 Root     42 :    14.967349081475960
 Root     43 :    15.014492763101410
 Root     44 :    15.191654741102440
 Root     45 :    15.208133249763020
 Root     46 :    15.225139799345270
 Root     47 :    15.282388097432240
 Root     48 :    15.390980827324620
 Root     49 :    15.581236018622080
 Root     50 :    15.643824966814320
 Root     51 :    15.673878901382140
 Root     52 :    15.881402137325190
 Root     53 :    15.922563489231000
 Root     54 :    15.989687770847980
 Root     55 :    16.119018625490720
 Root     56 :    16.521704353709030
 Root     57 :    16.682308750677230
 Root     58 :    17.274416070625460
 Root     59 :    17.428956316784900
 Root     60 :    19.331055055591620
 Iteration     2 Dimension   120 NMult    60 NNew     60
 CISAX will form    60 AO SS matrices at one time.
 NMat=    60 NSing=    60 JSym2X= 0.
 Root      1 not converged, maximum delta is    0.393650504493125
 Root      2 not converged, maximum delta is    0.300793487180690
 Root      3 not converged, maximum delta is    0.029515069984719
 Root      4 not converged, maximum delta is    0.043019442099980
 Root      5 not converged, maximum delta is    0.215451210158329
 Root      6 not converged, maximum delta is    0.121687035552770
 Root      7 not converged, maximum delta is    0.350745457714982
 New state      8 was old state      9
 Root      8 not converged, maximum delta is    0.237929958539571
 New state      9 was old state      8
 Root      9 not converged, maximum delta is    0.175352118963510
 New state     10 was old state     15
 Root     10 not converged, maximum delta is    0.429999774669804
 New state     11 was old state     10
 Root     11 not converged, maximum delta is    0.135364502029627
 New state     12 was old state     11
 Root     12 not converged, maximum delta is    0.108595412180542
 New state     13 was old state     12
 Root     13 not converged, maximum delta is    0.244842266289508
 New state     14 was old state     13
 Root     14 not converged, maximum delta is    0.215921041007615
 New state     15 was old state     14
 Root     15 not converged, maximum delta is    0.318250473636776
 Excitation Energies [eV] at current iteration:
 Root      1 :     7.370743909609435   Change is   -0.186900797952834
 Root      2 :     7.482909783951532   Change is   -0.702523418648830
 Root      3 :     8.362303406562315   Change is   -0.013139709470264
 Root      4 :     8.947019949346267   Change is   -0.032012257328011
 Root      5 :     9.285846552326889   Change is   -0.068665476066355
 Root      6 :     9.352027612503342   Change is   -0.040465528677860
 Root      7 :     9.516970578456450   Change is   -0.080800397690456
 Root      8 :     9.711086513814019   Change is   -0.324731684062900
 Root      9 :     9.919211517803038   Change is   -0.020851761839900
 Root     10 :     9.950934541336641   Change is   -1.027643989613766
 Root     11 :    10.148850422883170   Change is   -0.038848542130569
 Root     12 :    10.384468134458550   Change is   -0.030770597064884
 Root     13 :    10.468761472945320   Change is    0.010590816739903
 Root     14 :    10.714386522741800   Change is    0.032738233183840
 Root     15 :    10.834242904646780   Change is    0.048195953739747
 Root     16 :    10.995209944587370   Change is   -0.046650130461434
 Root     17 :    11.084917628537750   Change is   -0.033361089599495
 Root     18 :    11.205713449931330   Change is   -0.041507383267862
 Root     19 :    11.331720317247080   Change is   -0.037497895397662
 Root     20 :    11.356237930342940   Change is   -0.022766473856225
 Root     21 :    11.796373859923610   Change is   -0.124474317037094
 Root     22 :    11.895626574988620   Change is   -0.041643847593358
 Root     23 :    12.073112959600860   Change is   -0.054080677215897
 Root     24 :    12.429080824723280   Change is   -0.117764734620037
 Root     25 :    12.514800053485620   Change is   -0.026707359484187
 Root     26 :    12.799064653377190   Change is   -0.830135289123368
 Root     27 :    12.849217545915200   Change is   -0.043284048224315
 Root     28 :    13.034665828180960   Change is   -0.051544284723519
 Root     29 :    13.091179650476240   Change is   -0.056828713839960
 Root     30 :    13.397147811658750   Change is   -0.265781416092049
 Root     31 :    13.581300918351830   Change is    0.009843173135153
 Root     32 :    13.627365544439130   Change is   -0.085500714163914
 Root     33 :    13.815959633950970   Change is   -0.125015273023158
 Root     34 :    13.871150011524210   Change is   -0.038628020538241
 Root     35 :    13.994888953747250   Change is   -0.056883662843259
 Root     36 :    14.147350073607760   Change is   -0.065213568649637
 Root     37 :    14.228209693975040   Change is   -0.051490502032790
 Root     38 :    14.257919535849700   Change is   -0.162255478900525
 Root     39 :    14.395074708652870   Change is   -0.142027103658827
 Root     40 :    14.483999311094900   Change is   -0.214515438211999
 Root     41 :    14.710409366784090   Change is   -0.095212505216787
 Root     42 :    14.759649535724800   Change is   -0.432005205377642
 Root     43 :    14.891655057596540   Change is   -0.075694023879425
 Root     44 :    14.980750567484900   Change is   -0.033742195616514
 Root     45 :    15.079827208164500   Change is   -0.145312591180767
 Root     46 :    15.137788653419380   Change is   -0.070344596343641
 Root     47 :    15.236638556555650   Change is   -0.045749540876592
 Root     48 :    15.272491988352910   Change is   -0.118488838971711
 Root     49 :    15.362710161482930   Change is   -0.218525857139159
 Root     50 :    15.522611296977450   Change is   -0.151267604404692
 Root     51 :    15.573941312297850   Change is   -0.069883654516472
 Root     52 :    15.636087403683340   Change is   -0.286476085547661
 Root     53 :    15.765531977935120   Change is   -0.115870159390068
 Root     54 :    15.866698453713360   Change is   -0.815610296963868
 Root     55 :    15.912629937020360   Change is   -0.077057833827620
 Root     56 :    16.009963386428080   Change is   -0.109055239062639
 Root     57 :    16.133739993953570   Change is   -1.295216322831334
 Root     58 :    16.360897151807470   Change is   -0.913518918817993
 Root     59 :    16.410760131044640   Change is   -0.110944222664383
 Root     60 :    16.699323166320200   Change is   -2.631731889271423
 Iteration     3 Dimension   135 NMult   120 NNew     15
 CISAX will form    15 AO SS matrices at one time.
 NMat=    15 NSing=    15 JSym2X= 0.
 Root      1 not converged, maximum delta is    0.001965283561010
 Root      2 not converged, maximum delta is    0.002195379337748
 Root      3 not converged, maximum delta is    0.000320898213249
 Root      4 not converged, maximum delta is    0.000353593358532
 Root      5 not converged, maximum delta is    0.001521734454565
 Root      6 not converged, maximum delta is    0.000594249463243
 Root      7 not converged, maximum delta is    0.002366404467483
 Root      8 not converged, maximum delta is    0.001978601734998
 Root      9 not converged, maximum delta is    0.015416824032493
 Root     10 not converged, maximum delta is    0.022428435085222
 Root     11 not converged, maximum delta is    0.000728530539394
 Root     12 not converged, maximum delta is    0.000479764814146
 Root     13 not converged, maximum delta is    0.000783903940634
 Root     14 not converged, maximum delta is    0.000363277883455
 Root     15 not converged, maximum delta is    0.000565630680958
 Excitation Energies [eV] at current iteration:
 Root      1 :     7.369492323001542   Change is   -0.001251586607893
 Root      2 :     7.481642599094013   Change is   -0.001267184857519
 Root      3 :     8.362254943276143   Change is   -0.000048463286172
 Root      4 :     8.946982370398180   Change is   -0.000037578948087
 Root      5 :     9.285382466760014   Change is   -0.000464085566875
 Root      6 :     9.351864126991847   Change is   -0.000163485511494
 Root      7 :     9.516414442575199   Change is   -0.000556135881249
 Root      8 :     9.710352582577288   Change is   -0.000733931236731
 Root      9 :     9.918554132814894   Change is   -0.000657384988144
 Root     10 :     9.948416259224317   Change is   -0.002518282112325
 Root     11 :    10.148729126559280   Change is   -0.000121296323888
 Root     12 :    10.384403966087140   Change is   -0.000064168371415
 Root     13 :    10.468465630784770   Change is   -0.000295842160544
 Root     14 :    10.714334435314210   Change is   -0.000052087427594
 Root     15 :    10.834146151077910   Change is   -0.000096753568878
 Iteration     4 Dimension   150 NMult   135 NNew     15
 CISAX will form    15 AO SS matrices at one time.
 NMat=    15 NSing=    15 JSym2X= 0.
 Root      1 not converged, maximum delta is    0.000035581586087
 Root      2 not converged, maximum delta is    0.000046187046355
 Root      3 not converged, maximum delta is    0.000009204433988
 Root      4 not converged, maximum delta is    0.000005411402571
 Root      5 not converged, maximum delta is    0.000029538876502
 Root      6 not converged, maximum delta is    0.000016211189967
 Root      7 not converged, maximum delta is    0.000033407326588
 Root      8 not converged, maximum delta is    0.000040117804718
 Root      9 not converged, maximum delta is    0.000036663366744
 Root     10 not converged, maximum delta is    0.000070250486811
 Root     11 not converged, maximum delta is    0.000014238800767
 Root     12 not converged, maximum delta is    0.000009654324448
 Root     13 not converged, maximum delta is    0.000027064291943
 Root     14 not converged, maximum delta is    0.000013767357848
 Root     15 not converged, maximum delta is    0.000018209711470
 Excitation Energies [eV] at current iteration:
 Root      1 :     7.369490978080246   Change is   -0.000001344921296
 Root      2 :     7.481641230450810   Change is   -0.000001368643203
 Root      3 :     8.362254871478715   Change is   -0.000000071797427
 Root      4 :     8.946982345630451   Change is   -0.000000024767730
 Root      5 :     9.285381883956381   Change is   -0.000000582803632
 Root      6 :     9.351863928519998   Change is   -0.000000198471848
 Root      7 :     9.516413670416972   Change is   -0.000000772158228
 Root      8 :     9.710351631121673   Change is   -0.000000951455614
 Root      9 :     9.918553221289267   Change is   -0.000000911525628
 Root     10 :     9.948413001712099   Change is   -0.000003257512218
 Root     11 :    10.148728973999060   Change is   -0.000000152560224
 Root     12 :    10.384403888809630   Change is   -0.000000077277507
 Root     13 :    10.468465226108050   Change is   -0.000000404676724
 Root     14 :    10.714334357229000   Change is   -0.000000078085210
 Root     15 :    10.834146004012230   Change is   -0.000000147065681
 Iteration     5 Dimension   165 NMult   150 NNew     15
 CISAX will form    15 AO SS matrices at one time.
 NMat=    15 NSing=    15 JSym2X= 0.
 Root      1 not converged, maximum delta is    0.000001632628275
 Root      2 not converged, maximum delta is    0.000001336655515
 Root      3 has converged.
 Root      4 has converged.
 Root      5 not converged, maximum delta is    0.000001070858149
 Root      6 has converged.
 Root      7 not converged, maximum delta is    0.000001210217364
 Root      8 not converged, maximum delta is    0.000001430907722
 Root      9 not converged, maximum delta is    0.000001059164976
 Root     10 not converged, maximum delta is    0.000001983999490
 Root     11 has converged.
 Root     12 has converged.
 Root     13 has converged.
 Root     14 has converged.
 Root     15 has converged.
 Excitation Energies [eV] at current iteration:
 Root      1 :     7.369490976926968   Change is   -0.000000001153279
 Root      2 :     7.481641229422022   Change is   -0.000000001028789
 Root      3 :     8.362254871420493   Change is   -0.000000000058222
 Root      4 :     8.946982345613451   Change is   -0.000000000017000
 Root      5 :     9.285381883547593   Change is   -0.000000000408789
 Root      6 :     9.351863928357107   Change is   -0.000000000162893
 Root      7 :     9.516413669826251   Change is   -0.000000000590720
 Root      8 :     9.710351630421069   Change is   -0.000000000700604
 Root      9 :     9.918553220512136   Change is   -0.000000000777130
 Root     10 :     9.948412999038471   Change is   -0.000000002673628
 Root     11 :    10.148728973860790   Change is   -0.000000000138264
 Root     12 :    10.384403888747900   Change is   -0.000000000061730
 Root     13 :    10.468465225758140   Change is   -0.000000000349914
 Root     14 :    10.714334357152210   Change is   -0.000000000076785
 Root     15 :    10.834146003871900   Change is   -0.000000000140330
 Iteration     6 Dimension   172 NMult   165 NNew      7
 CISAX will form     7 AO SS matrices at one time.
 NMat=     7 NSing=     7 JSym2X= 0.
 Root      1 has converged.
 Root      2 has converged.
 Root      3 has converged.
 Root      4 has converged.
 Root      5 has converged.
 Root      6 has converged.
 Root      7 has converged.
 Root      8 has converged.
 Root      9 has converged.
 Root     10 has converged.
 Root     11 has converged.
 Root     12 has converged.
 Root     13 has converged.
 Root     14 has converged.
 Root     15 has converged.
 Excitation Energies [eV] at current iteration:
 Root      1 :     7.369490976926528   Change is   -0.000000000000440
 Root      2 :     7.481641229421669   Change is   -0.000000000000352
 Root      3 :     8.362254871420481   Change is   -0.000000000000012
 Root      4 :     8.946982345613426   Change is   -0.000000000000024
 Root      5 :     9.285381883547402   Change is   -0.000000000000192
 Root      6 :     9.351863928357005   Change is   -0.000000000000101
 Root      7 :     9.516413669826013   Change is   -0.000000000000237
 Root      8 :     9.710351630420742   Change is   -0.000000000000326
 Root      9 :     9.918553220511555   Change is   -0.000000000000582
 Root     10 :     9.948412999036579   Change is   -0.000000000001893
 Root     11 :    10.148728973860730   Change is   -0.000000000000063
 Root     12 :    10.384403888747880   Change is   -0.000000000000020
 Root     13 :    10.468465225757920   Change is   -0.000000000000221
 Root     14 :    10.714334357152150   Change is   -0.000000000000068
 Root     15 :    10.834146003871790   Change is   -0.000000000000106
 Convergence achieved on expansion vectors.
 ***********************************************************************
 Excited states from <AA,BB:AA,BB> singles matrix:
 ***********************************************************************
 
 1PDM for each excited state written to RWF  633
 Ground to excited state transition densities written to RWF  633
 Ground to excited state transition electric dipole moments (Au):
       state          X           Y           Z        Dip. S.      Osc.
         1         0.7460     -0.0263      0.0382      0.5586      0.1009
         2         0.7490     -0.1602      0.0193      0.5871      0.1076
         3        -0.0179     -0.1452      0.0292      0.0223      0.0046
         4         0.0373      0.0329     -0.1365      0.0211      0.0046
         5        -0.3512      0.1499     -0.0460      0.1479      0.0337
         6         0.0917      0.2864     -0.0259      0.0911      0.0209
         7        -0.3535      0.2589     -0.0934      0.2007      0.0468
         8         0.4697     -0.1908     -0.0369      0.2584      0.0615
         9         0.1549      0.6155     -0.0960      0.4121      0.1001
        10         0.1744      1.1733      0.0346      1.4082      0.3432
        11        -0.1951     -0.1172      0.0314      0.0528      0.0131
        12        -0.0908     -0.0329     -0.0270      0.0101      0.0026
        13         0.1797      0.2909      0.0699      0.1218      0.0312
        14        -0.0042      0.1604      0.0032      0.0258      0.0068
        15         0.0644      0.2534      0.0324      0.0694      0.0184
 Ground to excited state transition velocity dipole moments (Au):
       state          X           Y           Z        Dip. S.      Osc.
         1        -0.0026      0.0452     -0.0003      0.0020      0.0050
         2        -0.0178     -0.0372     -0.0032      0.0017      0.0041
         3        -0.0005     -0.0062      0.0028      0.0000      0.0001
         4        -0.0015     -0.0001      0.0722      0.0052      0.0106
         5         0.0429     -0.0086     -0.0254      0.0026      0.0050
         6         0.0010     -0.0026      0.0069      0.0001      0.0001
         7         0.0356     -0.0056      0.0498      0.0038      0.0072
         8        -0.0651      0.0139      0.0032      0.0044      0.0083
         9        -0.0082     -0.0134      0.0202      0.0007      0.0012
        10         0.0127     -0.0306     -0.0303      0.0020      0.0037
        11         0.0278     -0.0032     -0.0324      0.0018      0.0033
        12         0.0098      0.0002     -0.0434      0.0020      0.0035
        13        -0.0218     -0.0124      0.0099      0.0007      0.0013
        14         0.0066     -0.0094      0.0077      0.0002      0.0003
        15        -0.0093     -0.0376     -0.0120      0.0016      0.0028
 Ground to excited state transition magnetic dipole moments (Au):
       state          X           Y           Z
         1         0.0445      0.0613      0.3835
         2         0.0756     -0.0820      0.4079
         3         0.1790      0.4874     -0.0125
         4        -1.5576      0.2653      0.0835
         5        -0.0059      0.0417      0.2183
         6        -0.0034     -0.0655     -0.0093
         7         0.0984      0.0229      0.1514
         8        -0.1958      0.0504     -0.2169
         9        -0.3382     -0.0306      0.0483
        10         0.2378      0.1073     -0.0776
        11        -0.0035      0.1633     -0.0985
        12         0.1021      0.1063      0.1160
        13        -0.0150      0.1567     -0.0840
        14        -0.0453     -0.1645      0.0081
        15        -0.2034     -0.2774     -0.0622
 Ground to excited state transition velocity quadrupole moments (Au):
       state          XX          YY          ZZ          XY          XZ          YZ
         1         0.0716     -0.0383     -0.0235      0.1442     -0.0025      0.0015
         2         0.0179     -0.0811      0.0237      0.1751      0.0034      0.0022
         3         0.0072      0.0223      0.0135     -0.0078     -0.0583      0.0331
         4         0.0286     -0.0214     -0.0040      0.0553     -0.0142     -0.2185
         5         0.0707     -0.0704     -0.0005      0.1581     -0.0528     -0.0191
         6         0.0473     -0.0345     -0.0084     -0.0591     -0.1812      0.0365
         7         0.0745     -0.0805     -0.0068      0.1502     -0.0055     -0.0466
         8        -0.1062      0.1000      0.0075     -0.2352     -0.0341     -0.1105
         9         0.1275     -0.1210     -0.0246     -0.0475      0.0255     -0.0231
        10         0.2617     -0.2147     -0.0586     -0.1043      0.0138      0.0061
        11        -0.0109      0.0078      0.0068      0.0635     -0.0182     -0.0949
        12        -0.0020     -0.0156      0.0014      0.0770      0.0239      0.0552
        13         0.0719     -0.0369     -0.0244     -0.1244      0.0567     -0.0271
        14         0.0229     -0.0063     -0.0210     -0.0063     -0.0180     -0.0027
        15         0.0273     -0.0384      0.0137     -0.0044      0.0310     -0.0408
 <0|del|b> * <b|rxdel|0> + <0|del|b> * <b|delr+rdel|0>
 Rotatory Strengths (R) in cgs (10**-40 erg-esu-cm/Gauss)
       state          XX          YY          ZZ    R(velocity)    E-M Angle
         1         3.5734     -0.2431      3.3261      2.2188       81.72
         2         1.7115     -2.7297      2.0807      0.3542       88.65
         3        -3.9752     -0.1438     -3.1629     -2.4273      153.06
         4        10.7302      5.0177      2.0982      5.9487       85.83
         5       -10.7372     -2.6914      0.6849     -4.2479      123.16
         6        -0.7967      0.3864      0.6241      0.0713       77.82
         7        15.0156      1.9265      5.1222      7.3548       12.69
         8        -0.2862     19.8019      5.7215      8.4124       49.84
         9         0.7423      4.7465      2.5701      2.6863       61.73
        10         2.5571      2.2192     -0.7311      1.3484       80.14
        11         0.5227      2.3819      1.9675      1.6240       71.66
        12        -7.7507     -0.1463      0.4539     -2.4810      118.74
        13        -3.0302      1.2072     -2.6811     -1.5014      120.67
        14         1.2471     -0.1842      1.2852      0.7827       56.42
        15        11.0054      2.6417      9.5769      7.7413       22.72
 1/2[<0|r|b>*<b|rxdel|0> + (<0|rxdel|b>*<b|r|0>)*]
 Rotatory Strengths (R) in cgs (10**-40 erg-esu-cm/Gauss)
       state          XX          YY          ZZ     R(length)
         1       -23.4852      1.1413    -10.3640    -10.9026
         2       -40.0671     -9.2937     -5.5765    -18.3124
         3         2.2648     50.0499      0.2587     17.5245
         4        41.0487     -6.1766      8.0542     14.3088
         5        -1.4590     -4.4214      7.1048      0.4081
         6         0.2188     13.2622     -0.1705      4.4368
         7        24.6064     -4.1913     10.0007     10.1386
         8        65.0305      6.7964     -5.6643     22.0542
         9        37.0481     13.3267      3.2767     17.8838
        10       -29.3242    -89.0429      1.8974    -38.8232
        11        -0.4861     13.5365      2.1864      5.0789
        12         6.5566      2.4718      2.2126      3.7470
        13         1.9058    -32.2343      4.1484     -8.7267
        14        -0.1357     18.6653     -0.0184      6.1704
        15         9.2601     49.7014      1.4269     20.1295
  1/2[<0|del|b>*<b|r|0> + (<0|r|b>*<b|del|0>)*] (Au)
       state          X           Y           Z        Dip. S.   Osc.(frdel)
         1        -0.0019     -0.0012      0.0000      0.0031      0.0021
         2        -0.0133      0.0060     -0.0001      0.0074      0.0050
         3         0.0000      0.0009      0.0001     -0.0010     -0.0007
         4        -0.0001      0.0000     -0.0099      0.0099      0.0066
         5        -0.0151     -0.0013      0.0012      0.0152      0.0101
         6         0.0001     -0.0007     -0.0002      0.0008      0.0006
         7        -0.0126     -0.0014     -0.0047      0.0187      0.0125
         8        -0.0306     -0.0026     -0.0001      0.0333      0.0222
         9        -0.0013     -0.0082     -0.0019      0.0114      0.0076
        10         0.0022     -0.0359     -0.0010      0.0347      0.0231
        11        -0.0054      0.0004     -0.0010      0.0061      0.0040
        12        -0.0009      0.0000      0.0012     -0.0003     -0.0002
        13        -0.0039     -0.0036      0.0007      0.0068      0.0046
        14         0.0000     -0.0015      0.0000      0.0015      0.0010
        15        -0.0006     -0.0095     -0.0004      0.0105      0.0070

 Excitation energies and oscillator strengths:
 
 Excited State   1:      Singlet-A      7.3695 eV  168.24 nm  f=0.1009  <S**2>=0.000
      17 -> 19        -0.35105
      18 -> 19         0.49346
      18 -> 20        -0.33419
 This state for optimization and/or second-order correction.
 Total Energy, E(CIS) =  -228.471267855    
 Copying the excited state density for this state as the 1-particle RhoCI density.
 
 Excited State   2:      Singlet-A      7.4816 eV  165.72 nm  f=0.1076  <S**2>=0.000
      17 -> 19         0.38734
      18 -> 19         0.47294
      18 -> 20         0.32288
 
 Excited State   3:      Singlet-A      8.3623 eV  148.27 nm  f=0.0046  <S**2>=0.000
      18 -> 20        -0.11235
      18 -> 21         0.68326
 
 Excited State   4:      Singlet-A      8.9470 eV  138.58 nm  f=0.0046  <S**2>=0.000
      16 -> 19         0.69288
 
 Excited State   5:      Singlet-A      9.2854 eV  133.53 nm  f=0.0337  <S**2>=0.000
      17 -> 20        -0.44536
      17 -> 21         0.44911
      18 -> 22         0.18483
      18 -> 23        -0.19181
 
 Excited State   6:      Singlet-A      9.3519 eV  132.58 nm  f=0.0209  <S**2>=0.000
      17 -> 20         0.10551
      17 -> 21        -0.15412
      18 -> 20         0.12906
      18 -> 21         0.10498
      18 -> 22         0.63752
 
 Excited State   7:      Singlet-A      9.5164 eV  130.28 nm  f=0.0468  <S**2>=0.000
      15 -> 19         0.14220
      17 -> 20        -0.34403
      17 -> 21        -0.12617
      18 -> 23         0.55504
 
 Excited State   8:      Singlet-A      9.7104 eV  127.68 nm  f=0.0615  <S**2>=0.000
      17 -> 20         0.33725
      17 -> 21         0.48646
      18 -> 23         0.33672
 
 Excited State   9:      Singlet-A      9.9186 eV  125.00 nm  f=0.1001  <S**2>=0.000
      15 -> 19         0.56023
      17 -> 19        -0.17681
      18 -> 20         0.20533
      18 -> 23        -0.15688
      18 -> 24         0.22458
 
 Excited State  10:      Singlet-A      9.9484 eV  124.63 nm  f=0.3432  <S**2>=0.000
      15 -> 19        -0.33994
      17 -> 19        -0.33302
      18 -> 20         0.38157
      18 -> 22        -0.17304
 
 Excited State  11:      Singlet-A     10.1487 eV  122.17 nm  f=0.0131  <S**2>=0.000
      15 -> 19        -0.19380
      18 -> 24         0.65572
 
 Excited State  12:      Singlet-A     10.3844 eV  119.39 nm  f=0.0026  <S**2>=0.000
      14 -> 19         0.33932
      16 -> 20         0.20317
      17 -> 22         0.56690
 
 Excited State  13:      Singlet-A     10.4685 eV  118.44 nm  f=0.0312  <S**2>=0.000
      14 -> 19         0.49525
      16 -> 20         0.23111
      17 -> 22        -0.38649
 
 Excited State  14:      Singlet-A     10.7143 eV  115.72 nm  f=0.0068  <S**2>=0.000
      17 -> 23         0.67026
      17 -> 24        -0.14285
      17 -> 25         0.13263
 
 Excited State  15:      Singlet-A     10.8341 eV  114.44 nm  f=0.0184  <S**2>=0.000
      13 -> 19         0.22937
      14 -> 19        -0.28364
      16 -> 20         0.58433
 SavETr:  write IOETrn=   770 NScale= 10 NData=  16 NLR=1 NState=   15 LETran=     280.
 The selected state is a singlet
 CISAX will form     1 AO SS matrices at one time.
 NMat=     1 NSing=     1 JSym2X= 0.
 CISAX will form     1 AO SS matrices at one time.
 NMat=     1 NSing=     1 JSym2X= 0.
 Leave Link  914 at Tue Dec 15 16:30:12 2015, MaxMem=    33554432 cpu:        26.1
 (Enter /home/Applications/g09/g09/l1002.exe)
 Minotr:  Closed shell wavefunction.
          Computing CIS/TD-HF/TD-KS derivatives.
          Using Z-Vector for PSCF gradient.
          Skipping F1 and S1 gradient terms here.
          IDoAtm=111111111
          Frozen-core window.
          Direct CPHF calculation.
          Differentiating once with respect to electric field.
                with respect to dipole field.
          Differentiating once with respect to nuclear coordinates.
          Requested convergence is 1.0D-10 RMS, and 1.0D-09 maximum.
          NewPWx=F KeepS1=T KeepF1=T KeepIn=T MapXYZ=F SortEE=F KeepMc=T.
          MDV=      33554290 using IRadAn=       0.
 Using stored XC quadrature information.
 Keep R1 ints in memory in canonical form, NReq=1898913.
 FoFCou: FMM=F IPFlag=           0 FMFlag=           0 FMFlg1=           0
         NFxFlg=           0 DoJE=F BraDBF=F KetDBF=F FulRan=T
         wScrn=  0.000000 ICntrl=     600 IOpCl=  0 I1Cent=           0 NGrid=           0
         NMat0=    1 NMatS0=   1431 NMatT0=    0 NMatD0=    1 NMtDS0=    0 NMtDT0=    0
 Symmetry not used in FoFCou.
          Solving linear equations separately, MaxMat=       0.
          There are     1 degrees of freedom in the 1st order CPHF.  IDoFFX=0 NUNeed=     1.
 LinEq1:  Iter=  0 NonCon=     1 RMS=4.76D-02 Max=7.16D-01 NDo=     1
 AX will form     1 AO Fock derivatives at one time.
 LinEq1:  Iter=  1 NonCon=     1 RMS=1.74D-02 Max=2.64D-01 NDo=     1
 LinEq1:  Iter=  2 NonCon=     1 RMS=1.35D-02 Max=1.92D-01 NDo=     1
 LinEq1:  Iter=  3 NonCon=     1 RMS=6.59D-03 Max=8.18D-02 NDo=     1
 LinEq1:  Iter=  4 NonCon=     1 RMS=4.84D-03 Max=4.94D-02 NDo=     1
 LinEq1:  Iter=  5 NonCon=     1 RMS=9.77D-04 Max=7.80D-03 NDo=     1
 LinEq1:  Iter=  6 NonCon=     1 RMS=3.73D-04 Max=2.41D-03 NDo=     1
 LinEq1:  Iter=  7 NonCon=     1 RMS=9.22D-05 Max=5.56D-04 NDo=     1
 LinEq1:  Iter=  8 NonCon=     1 RMS=5.65D-05 Max=7.17D-04 NDo=     1
 LinEq1:  Iter=  9 NonCon=     1 RMS=1.40D-05 Max=7.91D-05 NDo=     1
 LinEq1:  Iter= 10 NonCon=     1 RMS=1.76D-06 Max=1.44D-05 NDo=     1
 LinEq1:  Iter= 11 NonCon=     1 RMS=2.57D-07 Max=1.51D-06 NDo=     1
 LinEq1:  Iter= 12 NonCon=     1 RMS=2.39D-08 Max=1.19D-07 NDo=     1
 LinEq1:  Iter= 13 NonCon=     1 RMS=3.38D-09 Max=1.73D-08 NDo=     1
 LinEq1:  Iter= 14 NonCon=     1 RMS=4.37D-10 Max=2.71D-09 NDo=     1
 LinEq1:  Iter= 15 NonCon=     0 RMS=5.44D-11 Max=2.79D-10 NDo=     1
 Linear equations converged to 1.000D-10 1.000D-09 after    15 iterations.
 End of Minotr F.D. properties file   721 does not exist.
 End of Minotr F.D. properties file   722 does not exist.
 End of Minotr F.D. properties file   788 does not exist.
 Leave Link 1002 at Tue Dec 15 16:30:25 2015, MaxMem=    33554432 cpu:        13.3
 (Enter /home/Applications/g09/g09/l601.exe)
 Copying SCF densities to generalized density rwf, IOpCl= 0 IROHF=0.

 **********************************************************************

            Population analysis using the SCF density.

 **********************************************************************

 Orbital symmetries:
       Occupied  (A) (A) (A) (A) (A) (A) (A) (A) (A) (A) (A) (A)
                 (A) (A) (A) (A) (A) (A)
       Virtual   (A) (A) (A) (A) (A) (A) (A) (A) (A) (A) (A) (A)
                 (A) (A) (A) (A) (A) (A) (A) (A) (A) (A) (A) (A)
                 (A) (A) (A) (A) (A) (A) (A) (A) (A) (A) (A)
 The electronic state is 1-A.
 Alpha  occ. eigenvalues --  -19.10783 -10.17622 -10.17371 -10.13010 -10.12821
 Alpha  occ. eigenvalues --   -1.11696  -0.81139  -0.74874  -0.59825  -0.56726
 Alpha  occ. eigenvalues --   -0.53489  -0.44732  -0.43323  -0.41611  -0.39501
 Alpha  occ. eigenvalues --   -0.36401  -0.27891  -0.23923
 Alpha virt. eigenvalues --    0.02329   0.08232   0.11606   0.14650   0.16206
 Alpha virt. eigenvalues --    0.17180   0.21284   0.22842   0.36534   0.42586
 Alpha virt. eigenvalues --    0.46972   0.67972   0.69523   0.70102   0.76085
 Alpha virt. eigenvalues --    0.76698   0.79089   0.81637   0.82347   0.83690
 Alpha virt. eigenvalues --    0.93057   0.96051   0.99595   1.01092   1.17815
 Alpha virt. eigenvalues --    1.20858   1.31451   1.36859   1.50812   1.55342
 Alpha virt. eigenvalues --    1.63437   1.74136   1.94391   2.12421   3.16513
     Molecular Orbital Coefficients:
                           1         2         3         4         5
                           O         O         O         O         O
     Eigenvalues --   -19.10783 -10.17622 -10.17371 -10.13010 -10.12821
   1 1   C  1S          0.00016  -0.00981  -0.00147  -0.32266   0.93173
   2        2S          0.00069  -0.00600  -0.00067  -0.03955   0.10303
   3        2PX        -0.00098  -0.00079   0.00019   0.00134  -0.00118
   4        2PY         0.00083   0.00332   0.00078   0.00071  -0.00160
   5        2PZ         0.00006  -0.00007   0.00003   0.00002  -0.00010
   6        3S         -0.00660   0.04090  -0.01426   0.06728  -0.08930
   7        3PX         0.00743  -0.00028   0.00457  -0.02634   0.01484
   8        3PY         0.00728  -0.02200   0.00899  -0.01257   0.02225
   9        3PZ        -0.00048   0.00010  -0.00043  -0.00035   0.00036
  10 2   C  1S         -0.00051   0.98185   0.08418  -0.00273   0.00909
  11        2S         -0.00090   0.10657   0.00577   0.00072  -0.00433
  12        2PX        -0.00193  -0.00247   0.00089  -0.00031   0.00044
  13        2PY        -0.00120   0.00069  -0.00060  -0.00008  -0.00289
  14        2PZ        -0.00012  -0.00027  -0.00015   0.00002  -0.00005
  15        3S          0.01884  -0.07885   0.01181  -0.02131   0.04064
  16        3PX        -0.01587   0.00703  -0.01410   0.00624  -0.01077
  17        3PY         0.00266  -0.02046   0.01226  -0.00853   0.02191
  18        3PZ        -0.00013   0.00084   0.00056   0.00004  -0.00017
  19 3   O  1S          0.98276   0.00019   0.00026   0.00005   0.00010
  20        2S          0.10758   0.00153   0.00194   0.00019   0.00043
  21        2PX         0.00069   0.00083  -0.00038   0.00002   0.00000
  22        2PY         0.00424   0.00060   0.00086  -0.00007  -0.00009
  23        2PZ         0.00013   0.00003   0.00007   0.00000   0.00002
  24        3S         -0.05985   0.00015  -0.00009  -0.00246  -0.00457
  25        3PX        -0.00231  -0.00118  -0.00011   0.00206  -0.00184
  26        3PY        -0.01359  -0.00277  -0.00359  -0.00155  -0.00216
  27        3PZ        -0.00042  -0.00007  -0.00033   0.00009  -0.00014
  28 4   C  1S         -0.00045  -0.08532   0.98171   0.01067   0.00433
  29        2S         -0.00064  -0.01250   0.10597  -0.00340  -0.00174
  30        2PX         0.00170  -0.00133   0.00245  -0.00134  -0.00070
  31        2PY        -0.00201  -0.00038  -0.00061  -0.00186  -0.00174
  32        2PZ         0.00005   0.00006   0.00012   0.00010   0.00004
  33        3S          0.01665   0.02361  -0.07427   0.04207   0.00625
  34        3PX         0.01302   0.01878  -0.01210   0.02042   0.00232
  35        3PY        -0.00393   0.01003  -0.01444   0.01675   0.00553
  36        3PZ        -0.00044  -0.00051  -0.00017  -0.00056  -0.00007
  37 5   C  1S          0.00014   0.00054  -0.01187   0.93189   0.32216
  38        2S          0.00057   0.00033  -0.00598   0.10509   0.03246
  39        2PX         0.00125  -0.00018   0.00188   0.00113  -0.00055
  40        2PY         0.00062   0.00035   0.00258  -0.00216  -0.00016
  41        2PZ        -0.00002  -0.00003   0.00000   0.00016   0.00010
  42        3S         -0.00402  -0.02048   0.03749  -0.10967   0.00041
  43        3PX        -0.00327   0.00122  -0.00712  -0.01677   0.01394
  44        3PY         0.00608   0.01195  -0.01804   0.03179  -0.00242
  45        3PZ         0.00035   0.00000   0.00037  -0.00116  -0.00008
  46 6   H  1S         -0.00083  -0.00021  -0.00116  -0.00245  -0.00085
  47        2S         -0.00197  -0.00103   0.00172   0.00280   0.00532
  48 7   H  1S         -0.00013   0.00165  -0.00350  -0.00008  -0.00019
  49        2S          0.00269   0.00639   0.00858   0.00561   0.00163
  50 8   H  1S          0.00036  -0.00294   0.00108   0.00010  -0.00034
  51        2S          0.00381   0.00787   0.00780  -0.00107   0.00485
  52 9   H  1S         -0.00108  -0.00090  -0.00064   0.00069  -0.00317
  53        2S         -0.00358   0.00211  -0.00151   0.00202   0.00492
                           6         7         8         9        10
                           O         O         O         O         O
     Eigenvalues --    -1.11696  -0.81139  -0.74874  -0.59825  -0.56726
   1 1   C  1S         -0.02946   0.15070   0.06708   0.10037   0.05654
   2        2S          0.02933  -0.16204  -0.07368  -0.10229  -0.05468
   3        2PX        -0.01672   0.06623  -0.05083  -0.10220   0.11319
   4        2PY        -0.03232   0.06489   0.08874   0.03675  -0.14714
   5        2PZ        -0.00064   0.00276   0.00054   0.00256   0.00612
   6        3S          0.05126  -0.30314  -0.12618  -0.35436  -0.20341
   7        3PX        -0.03374   0.03020   0.01187  -0.01917   0.05257
   8        3PY        -0.03521   0.03113  -0.01237   0.04155  -0.04005
   9        3PZ         0.00194   0.00274   0.00162   0.00220   0.00452
  10 2   C  1S         -0.07393   0.06931   0.14144  -0.01521  -0.11028
  11        2S          0.08328  -0.08086  -0.15187   0.01013   0.12077
  12        2PX        -0.08472  -0.00798   0.02120  -0.09061   0.13536
  13        2PY        -0.01305  -0.13580  -0.01507  -0.20109  -0.02431
  14        2PZ        -0.00327   0.00177   0.00690  -0.00388  -0.00559
  15        3S          0.05753  -0.10702  -0.35825   0.10329   0.35923
  16        3PX         0.03646   0.00702   0.01519  -0.05305   0.08121
  17        3PY        -0.01722  -0.03706  -0.04028  -0.04567   0.00194
  18        3PZ        -0.00151   0.00052   0.00377  -0.00193  -0.00600
  19 3   O  1S         -0.20875  -0.09396   0.01002  -0.00111   0.04892
  20        2S          0.18968   0.09029  -0.00926   0.00073  -0.04922
  21        2PX         0.01614  -0.01539  -0.18543   0.26836   0.01597
  22        2PY         0.11105  -0.01663   0.03559  -0.03526  -0.01056
  23        2PZ         0.00303   0.00092  -0.00185   0.00270   0.00218
  24        3S          0.66436   0.33913  -0.03829   0.00709  -0.20976
  25        3PX         0.02241  -0.00977  -0.15297   0.23511   0.01394
  26        3PY         0.14141   0.00162   0.02667  -0.02954  -0.01447
  27        3PZ         0.00416   0.00088  -0.00177   0.00209   0.00233
  28 4   C  1S         -0.07709   0.04588  -0.15027   0.02915  -0.10238
  29        2S          0.08614  -0.05533   0.16309  -0.02653   0.11334
  30        2PX         0.07643  -0.03390   0.02789   0.03065  -0.13856
  31        2PY        -0.04537  -0.12299   0.02081   0.23134   0.04087
  32        2PZ        -0.00004  -0.00019   0.00168  -0.00305   0.00809
  33        3S          0.06564  -0.05632   0.36743  -0.14364   0.32098
  34        3PX        -0.03277  -0.01519   0.03102  -0.00613  -0.07815
  35        3PY        -0.00211  -0.02695   0.03600   0.07141   0.02673
  36        3PZ         0.00210   0.00039   0.00110  -0.00148   0.00690
  37 5   C  1S         -0.02993   0.13738  -0.08809  -0.10163   0.04100
  38        2S          0.02962  -0.14717   0.09578   0.10318  -0.03994
  39        2PX         0.00382  -0.04982  -0.07518  -0.09585  -0.16988
  40        2PY        -0.03717   0.07237  -0.07202  -0.01572  -0.07443
  41        2PZ         0.00092  -0.00519   0.00313   0.00523  -0.00089
  42        3S          0.04980  -0.27562   0.17626   0.35481  -0.13465
  43        3PX         0.01787  -0.01099   0.01608  -0.02704  -0.06879
  44        3PY        -0.03609   0.03978   0.00035  -0.04261  -0.01822
  45        3PZ        -0.00115  -0.00398   0.00227   0.00502  -0.00176
  46 6   H  1S          0.00661  -0.04400   0.04074   0.08653  -0.02167
  47        2S          0.01078  -0.01143   0.01102   0.05313  -0.01587
  48 7   H  1S          0.01517  -0.00791   0.08368  -0.07000   0.14763
  49        2S         -0.01662  -0.00133   0.03109  -0.04583   0.07569
  50 8   H  1S          0.01141  -0.01993  -0.07493   0.02859   0.15177
  51        2S         -0.02056  -0.00543  -0.02826   0.02694   0.08069
  52 9   H  1S          0.00744  -0.05337  -0.03005  -0.09554  -0.05804
  53        2S          0.01628  -0.01249  -0.00563  -0.05511  -0.03864
                          11        12        13        14        15
                           O         O         O         O         O
     Eigenvalues --    -0.53489  -0.44732  -0.43323  -0.41611  -0.39501
   1 1   C  1S         -0.04262  -0.01537   0.03470   0.01174  -0.00461
   2        2S          0.03808   0.01805  -0.03836  -0.00766   0.00518
   3        2PX         0.08211  -0.03094   0.00984  -0.14436  -0.31058
   4        2PY         0.20495  -0.03155  -0.01712  -0.24114   0.09859
   5        2PZ        -0.00857   0.11110   0.06084  -0.00437  -0.00623
   6        3S          0.20283   0.04374  -0.10905  -0.04467   0.03618
   7        3PX         0.06543  -0.02327  -0.00108  -0.12875  -0.19957
   8        3PY         0.10564  -0.01084  -0.02966  -0.14429   0.02416
   9        3PZ        -0.00631   0.07844   0.04518  -0.00440  -0.00095
  10 2   C  1S          0.01053  -0.00021  -0.01922  -0.03242   0.00034
  11        2S         -0.01462   0.00267   0.01895   0.04018  -0.00482
  12        2PX         0.11709  -0.12430   0.23025  -0.02720   0.08864
  13        2PY        -0.13524   0.04531  -0.03173   0.18130  -0.17744
  14        2PZ        -0.00442   0.17072   0.08431  -0.03211  -0.00586
  15        3S         -0.00716  -0.00603   0.06113   0.09910  -0.01157
  16        3PX         0.07852  -0.09037   0.15879  -0.02094   0.06808
  17        3PY        -0.12290   0.03510  -0.02912   0.09101  -0.14709
  18        3PZ        -0.00339   0.15954   0.07991  -0.03545  -0.00408
  19 3   O  1S         -0.05106   0.00296  -0.00526  -0.01059   0.01595
  20        2S          0.05013  -0.00260   0.00486   0.01132  -0.01095
  21        2PX        -0.00030   0.09336  -0.23762  -0.08447  -0.02646
  22        2PY        -0.18043  -0.02200   0.03663  -0.05087  -0.09193
  23        2PZ        -0.00136   0.32230   0.15654  -0.08126   0.00820
  24        3S          0.19746  -0.01453   0.02534   0.03831  -0.09567
  25        3PX         0.00065   0.08837  -0.22518  -0.08892  -0.02610
  26        3PY        -0.16546  -0.02116   0.03421  -0.05130  -0.09679
  27        3PZ        -0.00166   0.32263   0.15995  -0.08328   0.00811
  28 4   C  1S          0.01070  -0.00159   0.02558   0.04756  -0.00655
  29        2S         -0.01383  -0.00064  -0.02604  -0.05739   0.00592
  30        2PX        -0.16035  -0.13407   0.24292  -0.12158  -0.06220
  31        2PY        -0.03903  -0.02163  -0.02849  -0.16299  -0.08561
  32        2PZ         0.00552   0.17788   0.07305  -0.03065   0.01134
  33        3S         -0.01992   0.00805  -0.08129  -0.16975   0.00751
  34        3PX        -0.12011  -0.09518   0.17014  -0.08966  -0.05664
  35        3PY        -0.07760  -0.01980  -0.01398  -0.12530  -0.08661
  36        3PZ         0.00413   0.16444   0.07212  -0.03401   0.01061
  37 5   C  1S         -0.05081   0.01462  -0.03767  -0.02882  -0.01796
  38        2S          0.04705  -0.01689   0.04051   0.02379   0.02068
  39        2PX        -0.02164   0.02272  -0.03683   0.03899   0.32095
  40        2PY         0.19347   0.04055   0.03141   0.24911  -0.08636
  41        2PZ         0.00483   0.11019   0.05804  -0.00818  -0.00053
  42        3S          0.22681  -0.03662   0.12364   0.13896   0.08260
  43        3PX        -0.04509   0.00249  -0.02690  -0.02997   0.21244
  44        3PY         0.10200   0.01631   0.04708   0.14511  -0.09432
  45        3PZ         0.00507   0.07875   0.04467  -0.00629  -0.00242
  46 6   H  1S          0.12668   0.00450   0.07128   0.16450  -0.14315
  47        2S          0.07728   0.00484   0.04931   0.15169  -0.13519
  48 7   H  1S          0.07347   0.09673  -0.17755   0.05267   0.08093
  49        2S          0.03118   0.07216  -0.14429   0.05054   0.07013
  50 8   H  1S          0.07598  -0.08799   0.15649  -0.04256   0.13298
  51        2S          0.03678  -0.06570   0.13101  -0.04871   0.12450
  52 9   H  1S          0.13812  -0.01440  -0.04731  -0.20061  -0.10166
  53        2S          0.08234  -0.01378  -0.02921  -0.17922  -0.09387
                          16        17        18        19        20
                           O         O         O         V         V
     Eigenvalues --    -0.36401  -0.27891  -0.23923   0.02329   0.08232
   1 1   C  1S          0.02577   0.00387   0.00096   0.00969  -0.01232
   2        2S         -0.02669  -0.00451   0.00038  -0.01297   0.00884
   3        2PX        -0.01121   0.00064   0.00345   0.00727   0.03910
   4        2PY         0.13949  -0.02617  -0.01432  -0.00522   0.02576
   5        2PZ        -0.01635  -0.29546  -0.17564  -0.17159   0.32777
   6        3S         -0.17696  -0.00627  -0.01328  -0.01972   0.09317
   7        3PX        -0.04351  -0.00382   0.00834  -0.02499   0.09620
   8        3PY         0.11879  -0.01896  -0.01233  -0.05435   0.10491
   9        3PZ        -0.01216  -0.30716  -0.18010  -0.30378   0.65421
  10 2   C  1S         -0.02593  -0.00128   0.00766  -0.00825   0.01646
  11        2S          0.02918   0.00240  -0.00833   0.00725  -0.01587
  12        2PX        -0.06676  -0.00318   0.00385   0.01319   0.03243
  13        2PY        -0.15713   0.01454   0.01590  -0.00804   0.02838
  14        2PZ        -0.02000  -0.09911  -0.31571   0.31736  -0.21528
  15        3S          0.12693   0.00111  -0.03423   0.03361  -0.07333
  16        3PX        -0.01411  -0.00483  -0.00412   0.05636   0.03444
  17        3PY         0.02789   0.00697   0.01304  -0.04293   0.10050
  18        3PZ        -0.01531  -0.05054  -0.33293   0.48325  -0.43174
  19 3   O  1S          0.07104  -0.00031  -0.00373   0.00039  -0.01825
  20        2S         -0.07204   0.00048   0.00418  -0.00072   0.01452
  21        2PX         0.06264  -0.01164  -0.00307  -0.00318   0.02196
  22        2PY         0.41888  -0.01236  -0.01090   0.00014   0.03723
  23        2PZ        -0.00005   0.32751  -0.02872  -0.28181   0.00255
  24        3S         -0.26429  -0.00024   0.01497  -0.00241   0.13439
  25        3PX         0.06701  -0.01354  -0.00502   0.00369   0.03629
  26        3PY         0.45057  -0.01352  -0.01346  -0.00155   0.05362
  27        3PZ         0.00088   0.36930  -0.03392  -0.39066   0.00311
  28 4   C  1S         -0.01311   0.00315   0.00335   0.00434   0.00808
  29        2S          0.01575  -0.00359  -0.00277  -0.00731  -0.00861
  30        2PX        -0.00291  -0.00390   0.01578   0.02006  -0.00826
  31        2PY        -0.20633  -0.00378   0.01316   0.00151   0.02059
  32        2PZ         0.00738  -0.04242   0.32571   0.32107   0.21489
  33        3S          0.06693  -0.01437  -0.02169   0.00459  -0.01500
  34        3PX         0.00836  -0.00380   0.01373   0.07999   0.02602
  35        3PY        -0.00296  -0.00878   0.00560   0.02419   0.07235
  36        3PZ         0.00408   0.00211   0.33744   0.48989   0.42093
  37 5   C  1S          0.01881  -0.00642   0.00272  -0.00764  -0.01965
  38        2S         -0.02117   0.00754  -0.00258   0.00959   0.01359
  39        2PX         0.05496  -0.00298  -0.00481   0.00469  -0.01619
  40        2PY         0.18497   0.01068  -0.01176   0.00581   0.04458
  41        2PZ         0.00001  -0.26276   0.22396  -0.17765  -0.32299
  42        3S         -0.12899   0.02426  -0.00759   0.00010   0.16502
  43        3PX         0.08230  -0.01315  -0.00251  -0.00157  -0.02839
  44        3PY         0.12874   0.00969  -0.01580   0.05623   0.13059
  45        3PZ        -0.00337  -0.27307   0.23472  -0.31165  -0.64277
  46 6   H  1S          0.08292   0.00470   0.00553  -0.00587  -0.03942
  47        2S          0.11167   0.00593   0.00764  -0.03207  -0.22855
  48 7   H  1S          0.06849  -0.00263  -0.00057   0.01246   0.01096
  49        2S          0.07068  -0.00221  -0.00215   0.05639   0.03396
  50 8   H  1S          0.06470  -0.00290   0.00429  -0.01683   0.01208
  51        2S          0.07159  -0.00502   0.00708  -0.06950   0.04826
  52 9   H  1S          0.04210  -0.00541   0.00363   0.00736  -0.03831
  53        2S          0.06432  -0.00978   0.00243   0.04681  -0.21234
                          21        22        23        24        25
                           V         V         V         V         V
     Eigenvalues --     0.11606   0.14650   0.16206   0.17180   0.21284
   1 1   C  1S          0.04159  -0.02922   0.01769   0.10835   0.05564
   2        2S         -0.02197   0.03553  -0.01898  -0.08947  -0.01450
   3        2PX        -0.11334   0.01627   0.14770  -0.05545   0.12376
   4        2PY        -0.11991  -0.00708   0.05027  -0.14239  -0.12899
   5        2PZ         0.07648  -0.05023  -0.00154   0.01791  -0.00078
   6        3S         -0.50188   0.06793  -0.03077  -0.97076  -0.91589
   7        3PX        -0.28668   0.24662   0.42838  -0.48465   0.77962
   8        3PY        -0.36777   0.11095   0.01781  -0.64156  -0.53363
   9        3PZ         0.18171  -0.14150   0.00547   0.04342   0.01684
  10 2   C  1S          0.02336   0.12435  -0.01480  -0.03727   0.08314
  11        2S         -0.01300  -0.09228   0.00263   0.04711  -0.06059
  12        2PX        -0.15326   0.00663   0.23692  -0.03912   0.08213
  13        2PY         0.01879   0.19172  -0.08722   0.04120   0.11227
  14        2PZ        -0.03144   0.05984  -0.01392  -0.01342   0.01220
  15        3S         -0.42740  -1.14583   0.32471   0.08046  -0.98939
  16        3PX        -0.34605  -0.23920   0.67802   0.15647   0.12164
  17        3PY        -0.01907   0.63013  -0.28300   0.01418   0.17874
  18        3PZ        -0.07449   0.14873  -0.03957  -0.03459   0.03329
  19 3   O  1S          0.03651  -0.09118  -0.00339   0.00181   0.01286
  20        2S         -0.02392   0.06567   0.00289   0.00069  -0.00778
  21        2PX        -0.02843   0.07049   0.09145  -0.05934   0.31492
  22        2PY        -0.11262   0.13571  -0.00254   0.00707  -0.07861
  23        2PZ        -0.00268  -0.00043   0.01896   0.00894   0.00431
  24        3S         -0.30794   0.74154   0.02562  -0.03153  -0.12127
  25        3PX        -0.05936   0.10041   0.17298  -0.04543   0.61525
  26        3PY        -0.20116   0.21775  -0.02077  -0.01261  -0.14688
  27        3PZ        -0.00540  -0.00011   0.03516   0.02048   0.00512
  28 4   C  1S          0.02644   0.08330   0.04822   0.05486  -0.10641
  29        2S         -0.01734  -0.05935  -0.02670  -0.05552   0.07651
  30        2PX         0.13600  -0.00548   0.28237   0.01133   0.02876
  31        2PY        -0.03052   0.14414   0.00490  -0.00364  -0.18159
  32        2PZ         0.03026  -0.03451  -0.03125  -0.02090   0.00130
  33        3S         -0.41284  -0.78821  -0.70245  -0.35295   1.24444
  34        3PX         0.27989   0.14973   0.89516   0.37251  -0.04513
  35        3PY        -0.07505   0.45923   0.09915  -0.04285  -0.40132
  36        3PZ         0.06954  -0.09270  -0.08641  -0.06692   0.00973
  37 5   C  1S          0.05791  -0.01657  -0.03436  -0.10964  -0.04462
  38        2S         -0.03345   0.01669   0.03458   0.08833   0.00297
  39        2PX         0.04012  -0.00164   0.09134  -0.05631   0.17435
  40        2PY        -0.18912   0.01494  -0.10197   0.14619   0.04964
  41        2PZ        -0.07842   0.04035   0.01464   0.03119   0.00701
  42        3S         -0.64641   0.09418   0.16829   0.95403   0.82573
  43        3PX         0.14790   0.01187   0.32483  -0.33844   0.96898
  44        3PY        -0.46044   0.07262  -0.13348   0.77274   0.09880
  45        3PZ        -0.18173   0.10889   0.04419   0.07911   0.02046
  46 6   H  1S          0.10494  -0.02466   0.02801  -0.06914   0.03529
  47        2S          1.00764  -0.17857   0.28617  -1.32829   0.09979
  48 7   H  1S          0.03938   0.06657   0.08702   0.03572   0.03296
  49        2S          0.53657   0.80652   1.40760   0.54476  -0.77211
  50 8   H  1S          0.04844   0.09452  -0.06393  -0.01525  -0.03686
  51        2S          0.57406   1.27333  -1.01592  -0.15559   0.42879
  52 9   H  1S          0.09772  -0.04115  -0.03134   0.06470  -0.03870
  53        2S          0.93355  -0.35735  -0.40151   1.33981   0.18257
                          26        27        28        29        30
                           V         V         V         V         V
     Eigenvalues --     0.22842   0.36534   0.42586   0.46972   0.67972
   1 1   C  1S         -0.06399  -0.06532   0.01940  -0.12746   0.00293
   2        2S          0.02109   0.01973  -0.02815   0.02206  -0.10591
   3        2PX         0.18485  -0.10156   0.22851  -0.10165  -0.31688
   4        2PY         0.02406  -0.07884  -0.14994  -0.21547   0.39026
   5        2PZ        -0.01088   0.01087   0.00915   0.01734   0.00353
   6        3S          1.21150   1.38208   0.06917   3.58987  -0.22660
   7        3PX         0.59619   0.08098   1.43243  -1.63633   0.22672
   8        3PY        -0.02549  -1.43987  -1.32113  -2.05844  -0.23027
   9        3PZ        -0.05970   0.05362   0.06243   0.00867  -0.00669
  10 2   C  1S          0.02006   0.07356   0.00852   0.10205  -0.03886
  11        2S         -0.00858  -0.00679  -0.00191  -0.01924  -0.04810
  12        2PX        -0.26354   0.09249  -0.15491   0.27071  -0.30829
  13        2PY        -0.08518  -0.23312  -0.15641   0.09007  -0.33792
  14        2PZ         0.00665  -0.00550  -0.00771  -0.01072   0.00178
  15        3S         -0.60113  -1.64267  -0.89516  -2.44794   0.08641
  16        3PX        -0.85875   0.59688  -0.71885   0.93177   0.21950
  17        3PY        -0.46920  -1.22762  -1.32122  -2.09583   0.73958
  18        3PZ         0.03608  -0.00020  -0.02399   0.00876  -0.00794
  19 3   O  1S          0.09516  -0.04490   0.00243  -0.00068   0.02317
  20        2S         -0.04691   0.01974  -0.00519   0.00213  -0.08886
  21        2PX        -0.01327   0.00977  -0.27190   0.14305  -0.02127
  22        2PY        -0.08408   0.15768   0.04241   0.00329  -0.23320
  23        2PZ        -0.00983  -0.00012  -0.00037   0.00338  -0.00202
  24        3S         -0.97774   0.56198  -0.00009  -0.00378   0.27069
  25        3PX        -0.04377   0.04605  -0.66204   0.17772   0.03278
  26        3PY        -0.26494   0.46219   0.10485   0.00574  -0.10914
  27        3PZ        -0.02120  -0.00041  -0.00756   0.01062   0.00395
  28 4   C  1S          0.00848   0.08977  -0.00814  -0.08710  -0.05136
  29        2S          0.00461  -0.00892  -0.00711   0.02577  -0.03703
  30        2PX         0.16209  -0.18845  -0.06178   0.22000   0.24586
  31        2PY        -0.17031  -0.18254   0.17777  -0.15331  -0.34066
  32        2PZ        -0.00428   0.01563  -0.00499  -0.01175  -0.00134
[...]
     1  C    5.258976   0.449473  -0.076669  -0.136144   0.440556  -0.020067
     2  C    0.449473   5.097552   0.294150  -0.151430  -0.143995   0.004566
     3  O   -0.076669   0.294150   8.106527   0.288568  -0.083975   0.001903
     4  C   -0.136144  -0.151430   0.288568   5.095029   0.458057  -0.031681
     5  C    0.440556  -0.143995  -0.083975   0.458057   5.261830   0.370327
     6  H   -0.020067   0.004566   0.001903  -0.031681   0.370327   0.494371
     7  H    0.002620   0.004193  -0.028786   0.385491  -0.034662  -0.000495
     8  H   -0.043468   0.382090  -0.024461   0.003751   0.003617  -0.000027
     9  H    0.376852  -0.024595   0.001734   0.004673  -0.025885  -0.000926
               7          8          9
     1  C    0.002620  -0.043468   0.376852
     2  C    0.004193   0.382090  -0.024595
     3  O   -0.028786  -0.024461   0.001734
     4  C    0.385491   0.003751   0.004673
     5  C   -0.034662   0.003617  -0.025885
     6  H   -0.000495  -0.000027  -0.000926
     7  H    0.453437  -0.000053  -0.000025
     8  H   -0.000053   0.466606  -0.000707
     9  H   -0.000025  -0.000707   0.476533
 Mulliken charges:
               1
     1  C   -0.252130
     2  C    0.087997
     3  O   -0.478991
     4  C    0.083686
     5  C   -0.245869
     6  H    0.182030
     7  H    0.218279
     8  H    0.212652
     9  H    0.192347
 Sum of Mulliken charges =   0.00000
 Mulliken charges with hydrogens summed into heavy atoms:
               1
     1  C   -0.059783
     2  C    0.300649
     3  O   -0.478991
     4  C    0.301965
     5  C   -0.063840
 Electronic spatial extent (au):  <R**2>=            291.5121
 Charge=              0.0000 electrons
 Dipole moment (field-independent basis, Debye):
    X=              0.1414    Y=              0.7970    Z=              0.0315  Tot=              0.8101
 Quadrupole moment (field-independent basis, Debye-Ang):
   XX=            -23.6101   YY=            -28.1838   ZZ=            -31.8185
   XY=             -0.5898   XZ=             -0.5667   YZ=              0.0509
 Traceless Quadrupole moment (field-independent basis, Debye-Ang):
   XX=              4.2607   YY=             -0.3130   ZZ=             -3.9477
   XY=             -0.5898   XZ=             -0.5667   YZ=              0.0509
 Octapole moment (field-independent basis, Debye-Ang**2):
  XXX=             -2.1239  YYY=              1.6965  ZZZ=             -0.0964  XYY=              1.6696
  XXY=             -3.6845  XXZ=              0.0177  XZZ=             -0.6087  YZZ=             -3.4700
  YYZ=              0.0426  XYZ=             -0.1352
 Hexadecapole moment (field-independent basis, Debye-Ang**3):
 XXXX=           -157.8742 YYYY=           -157.2192 ZZZZ=            -30.9451 XXXY=              3.0243
 XXXZ=             -2.4140 YYYX=             -3.0463 YYYZ=              0.5171 ZZZX=             -0.5938
 ZZZY=              0.1975 XXYY=            -46.1272 XXZZ=            -39.6091 YYZZ=            -34.6868
 XXYZ=              0.0272 YYXZ=             -1.1469 ZZXY=              0.8033
 N-N= 1.605991998920D+02 E-N=-8.537635553593D+02  KE= 2.268147210836D+02
 Orbital energies and kinetic energies (alpha):
                                 1                 2
   1         O               -19.107831         28.829484
   2         O               -10.176218         15.801395
   3         O               -10.173712         15.798741
   4         O               -10.130100         15.805381
   5         O               -10.128210         15.807138
   6         O                -1.116963          2.482987
   7         O                -0.811393          1.844853
   8         O                -0.748737          1.800693
   9         O                -0.598252          1.692101
  10         O                -0.567259          1.421796
  11         O                -0.534893          1.258842
  12         O                -0.447318          1.503834
  13         O                -0.433233          1.515629
  14         O                -0.416106          1.360345
  15         O                -0.395010          1.342236
  16         O                -0.364009          2.303240
  17         O                -0.278908          1.608759
  18         O                -0.239230          1.229906
  19         V                 0.023294          1.809797
  20         V                 0.082317          1.499555
  21         V                 0.116063          1.196023
  22         V                 0.146499          1.788710
  23         V                 0.162061          1.243548
  24         V                 0.171798          1.357036
  25         V                 0.212835          2.171649
  26         V                 0.228424          1.723072
  27         V                 0.365339          1.907043
  28         V                 0.425864          1.982659
  29         V                 0.469716          2.396757
  30         V                 0.679725          2.568812
  31         V                 0.695232          2.548349
  32         V                 0.701016          2.621047
  33         V                 0.760851          2.616965
  34         V                 0.766978          2.552891
  35         V                 0.790892          2.620194
  36         V                 0.816369          2.702212
  37         V                 0.823466          2.445248
  38         V                 0.836897          2.604158
  39         V                 0.930571          2.781794
  40         V                 0.960514          3.123274
  41         V                 0.995946          3.285482
  42         V                 1.010917          3.186930
  43         V                 1.178155          2.739170
  44         V                 1.208583          2.903246
  45         V                 1.314515          2.562817
  46         V                 1.368589          2.830068
  47         V                 1.508118          4.897955
  48         V                 1.553417          3.297671
  49         V                 1.634370          3.860036
  50         V                 1.741361          4.323071
  51         V                 1.943912          4.108909
  52         V                 2.124209          4.240432
  53         V                 3.165130          6.830947
 Total kinetic energy from orbitals= 2.268147210836D+02
 No NMR shielding tensors so no spin-rotation constants.
 Leave Link  601 at Tue Dec 15 16:30:26 2015, MaxMem=    33554432 cpu:         0.1
 (Enter /home/Applications/g09/g09/l701.exe)
 Compute integral first derivatives.
 ... and contract with generalized density number  6.
 Leave Link  701 at Tue Dec 15 16:30:26 2015, MaxMem=    33554432 cpu:         0.1
 (Enter /home/Applications/g09/g09/l702.exe)
 L702 exits ... SP integral derivatives will be done elsewhere.
 Leave Link  702 at Tue Dec 15 16:30:26 2015, MaxMem=    33554432 cpu:         0.0
 (Enter /home/Applications/g09/g09/l703.exe)
 Compute integral first derivatives, UseDBF=F ICtDFT=           0.
 Integral derivatives from FoFJK, PRISM(SPDF).
 Calling FoFJK, ICntrl=  10005127 FMM=F ISym2X=0 I1Cent= 0 IOpClX= 0 NMat=1 NMatS=1 NMatT=0.
 FoFJK:  IHMeth= 1 ICntrl=10005127 DoSepK=F KAlg= 0 I1Cent=   0 FoldK=F
 IRaf=         0 NMat=   1 IRICut=       1 DoRegI=T DoRafI=F ISym2E= 0.
 FoFCou: FMM=F IPFlag=           0 FMFlag=      100000 FMFlg1=         800
         NFxFlg=           0 DoJE=F BraDBF=F KetDBF=F FulRan=T
         wScrn=  0.000000 ICntrl=10005127 IOpCl=  0 I1Cent=           0 NGrid=           0
         NMat0=    1 NMatS0=      1 NMatT0=    0 NMatD0=    1 NMtDS0=    0 NMtDT0=    0
 Symmetry not used in FoFCou.
 Leave Link  703 at Tue Dec 15 16:30:28 2015, MaxMem=    33554432 cpu:         2.1
 (Enter /home/Applications/g09/g09/l716.exe)
 Dipole        =-7.62947340D-01 5.05025869D-01-6.18860429D-02
 ***** Axes restored to original set *****
 -------------------------------------------------------------------
 Center     Atomic                   Forces (Hartrees/Bohr)
 Number     Number              X              Y              Z
 -------------------------------------------------------------------
      1        6           0.151936468    0.007894085    0.002082161
      2        6          -0.074284591   -0.123865156    0.002703111
      3        8          -0.065131888    0.048793148   -0.003903869
      4        6          -0.101601990    0.052612991   -0.003422160
      5        6           0.118015187    0.009832826    0.010434969
      6        1          -0.025707981   -0.029002211   -0.005218079
      7        1           0.010614054   -0.000956070   -0.001390878
      8        1           0.007012848    0.023314001    0.001372870
      9        1          -0.020852106    0.011376387   -0.002658126
 -------------------------------------------------------------------
 Cartesian Forces:  Max     0.151936468 RMS     0.054672164
 Z-matrix is all fixed cartesians, so copy forces.
 Force constants in Cartesian coordinates: 
                1             2             3             4             5 
      1  0.989071D+00
      2  0.432939D-02  0.755744D+00
      3 -0.166040D-01 -0.949039D-02  0.218330D+00
      4 -0.600047D+00 -0.118735D+00  0.830711D-02  0.987463D+00
      5 -0.943902D-01 -0.224377D+00  0.433473D-02  0.393241D-01  0.832758D+00
      6 -0.380145D-03  0.167527D-02 -0.114141D+00  0.192095D-01 -0.467535D-02
      7 -0.781756D-02  0.295807D-01 -0.220984D-02 -0.266995D+00  0.144656D+00
      8 -0.585711D-02  0.221816D-01 -0.104841D-02  0.189740D+00 -0.338641D+00
      9 -0.142917D-03  0.394700D-03  0.523347D-02 -0.186025D-01  0.169823D-01
     10  0.110998D-01 -0.114181D-03  0.336990D-03  0.230039D-01  0.172180D-01
     11  0.344990D-01 -0.382181D-03  0.558934D-03 -0.181569D-01 -0.135960D-01
     12 -0.236926D-02 -0.646260D-04 -0.114684D-02  0.193694D-02  0.141009D-02
     13 -0.162482D+00  0.978011D-02 -0.474398D-03  0.937983D-02 -0.354957D-01
     14 -0.168453D-01 -0.386919D+00  0.164488D-01 -0.124308D-03  0.475080D-03
     15  0.448426D-04  0.154613D-01 -0.785504D-01 -0.212060D-03  0.129254D-02
     16  0.169143D-01 -0.172287D-03  0.615295D-03  0.140190D-05 -0.202079D-04
     17 -0.205885D-01  0.136161D-03 -0.249271D-02  0.000000D+00  0.681000D-05
     18  0.284372D-02  0.629469D-03  0.157138D-01 -0.108111D-04  0.155839D-03
     19 -0.308012D-05 -0.879924D-05 -0.209471D-03 -0.860768D-05  0.720163D-05
     20 -0.100070D-04 -0.285878D-04 -0.680548D-03  0.649915D-05 -0.543752D-05
     21  0.118805D-03  0.339401D-03  0.807964D-02 -0.162854D-03  0.136252D-03
     22  0.699716D-02 -0.266074D-01 -0.222112D-02 -0.148359D+00 -0.881994D-01
     23 -0.345198D-02  0.130553D-01 -0.119324D-02 -0.856186D-01 -0.281033D+00
     24  0.491739D-03 -0.882366D-03  0.315904D-01 -0.112409D-01 -0.176246D-01
     25 -0.253733D+00  0.101948D+00  0.124595D-01 -0.443702D-02  0.169000D-01
     26  0.102315D+00 -0.179410D+00 -0.643718D-02 -0.643467D-02  0.244138D-01
     27  0.159972D-01 -0.806276D-02 -0.851091D-01  0.775561D-03 -0.201173D-02
                6             7             8             9            10 
      6  0.202055D+00
      7 -0.140348D-01  0.530408D+00
      8  0.160414D-01  0.146429D-01  0.657742D+00
      9 -0.468974D-01  0.158732D-01 -0.160374D-01  0.554053D-01
     10 -0.721820D-04 -0.287530D+00 -0.205158D+00  0.177718D-02  0.977275D+00
     11 -0.779627D-04 -0.161727D+00 -0.346935D+00  0.190376D-02 -0.503359D-01
     12 -0.135408D-02 -0.113406D-02 -0.744885D-03 -0.457422D-01 -0.967318D-02
     13  0.252982D-02 -0.918487D-02  0.725244D-02  0.316291D-03 -0.546559D+00
     14  0.104955D-03 -0.285357D-01  0.225189D-01  0.682134D-03  0.129175D+00
     15 -0.146981D-03  0.701349D-04 -0.286084D-03  0.742149D-02 -0.187921D-02
     16 -0.478706D-03  0.000000D+00  0.000000D+00 -0.165941D-03 -0.573265D-02
     17  0.161322D-03  0.000000D+00  0.000000D+00 -0.539907D-03  0.690152D-02
     18  0.369167D-02  0.933299D-05  0.466603D-05  0.661363D-02 -0.280002D-03
     19  0.223208D-03  0.205215D-01 -0.162042D-01 -0.171546D-02 -0.171578D+00
     20 -0.168531D-03  0.115538D-01 -0.912371D-02 -0.129629D-02  0.102308D+00
     21  0.422300D-02 -0.121513D-03  0.104583D-03  0.475525D-02  0.988829D-02
     22 -0.929656D-02  0.206007D-01  0.155727D-01  0.245411D-02  0.161042D-04
     23 -0.133458D-01 -0.101742D-01 -0.771238D-02 -0.156193D-02  0.291645D-05
     24 -0.773196D-01  0.160153D-02  0.150731D-02  0.504358D-02 -0.149505D-03
     25  0.229985D-02 -0.136219D-05  0.115748D-04  0.206014D-03  0.510576D-05
     26  0.284762D-03  0.348665D-05 -0.296268D-04 -0.527312D-03  0.211708D-05
     27  0.298894D-01 -0.540002D-04  0.458851D-03  0.816686D-02  0.516111D-04
               11            12            13            14            15 
     11  0.861228D+00
     12  0.139854D-01  0.211900D+00
     13  0.104444D+00  0.497735D-02  0.894684D+00
     14 -0.229579D+00 -0.130045D-02 -0.180486D-01  0.759878D+00
     15  0.165878D-03 -0.110188D+00  0.132797D-01 -0.436687D-02  0.199938D+00
     16 -0.178016D-01 -0.261769D-02 -0.209778D+00 -0.911073D-01 -0.131797D-01
     17  0.214418D-01  0.308176D-03 -0.953644D-01 -0.180557D+00 -0.843574D-02
     18 -0.963133D-03  0.253253D-01 -0.172405D-01 -0.108691D-01 -0.740407D-01
     19  0.109077D+00  0.895026D-02  0.826528D-02  0.256729D-01  0.195814D-02
     20 -0.292182D+00 -0.136621D-01  0.468530D-02  0.145615D-01 -0.118172D-02
     21 -0.158454D-01 -0.861804D-01 -0.506458D-03 -0.169418D-02  0.327861D-01
     22 -0.134736D-04 -0.417603D-03  0.000000D+00  0.998927D-05  0.236636D-03
     23 -0.244005D-05 -0.756272D-04  0.193816D-05 -0.279379D-04 -0.661822D-03
     24  0.125083D-03  0.387684D-02 -0.221876D-04  0.319827D-03  0.757638D-02
     25  0.145861D-04  0.347230D-03  0.156752D-01 -0.197151D-03 -0.318494D-03
     26  0.604804D-05  0.143977D-03  0.227447D-01 -0.350403D-03 -0.198748D-02
     27  0.147442D-03  0.350994D-02 -0.285961D-02  0.674835D-03  0.152046D-01
               16            17            18            19            20 
     16  0.198537D+00
     17  0.109099D+00  0.159061D+00
     18  0.148816D-01  0.102825D-01  0.392491D-01
     19 -0.747223D-05 -0.243117D-04  0.297808D-03  0.142811D+00
     20 -0.242764D-04 -0.789861D-04  0.967546D-03 -0.118519D+00  0.286857D+00
     21  0.288216D-03  0.937743D-03 -0.114870D-01 -0.950449D-02  0.160216D-01
     22  0.000000D+00  0.000000D+00  0.000000D+00  0.000000D+00  0.000000D+00
     23  0.000000D+00  0.000000D+00  0.000000D+00  0.000000D+00  0.000000D+00
     24  0.000000D+00  0.000000D+00  0.000000D+00  0.000000D+00  0.000000D+00
     25  0.649856D-04 -0.219000D-04 -0.501154D-03  0.000000D+00  0.000000D+00
     26  0.269459D-04 -0.908070D-05 -0.207801D-03  0.000000D+00  0.000000D+00
     27  0.656900D-03 -0.221373D-03 -0.506586D-02  0.000000D+00  0.000000D+00
               21            22            23            24            25 
     21  0.478233D-01
     22  0.000000D+00  0.120756D+00
     23  0.000000D+00  0.992126D-01  0.275791D+00
     24  0.000000D+00  0.963343D-02  0.157508D-01  0.416838D-01
     25  0.000000D+00 -0.981015D-05  0.274369D-04 -0.314092D-03  0.242435D+00
     26  0.000000D+00  0.251100D-04 -0.702274D-04  0.803947D-03 -0.118682D+00
     27  0.000000D+00 -0.388897D-03  0.108766D-02 -0.124513D-01 -0.141788D-01
               26            27 
     26  0.155450D+00
     27  0.792708D-02  0.458554D-01
 Leave Link  716 at Tue Dec 15 16:30:28 2015, MaxMem=    33554432 cpu:         0.0
 (Enter /home/Applications/g09/g09/l103.exe)

 GradGradGradGradGradGradGradGradGradGradGradGradGradGradGradGradGradGrad
 Berny optimization.
 Search for a local minimum.
 Step number   1 out of a maximum of    2
 All quantities printed in internal units (Hartrees-Bohrs-Radians)
 Second derivative matrix not updated -- first step.
 ITU=  0
     Eigenvalues ---    0.01918   0.02863   0.06519   0.07161   0.07213
     Eigenvalues ---    0.08216   0.12689   0.12782   0.16002   0.21611
     Eigenvalues ---    0.24863   0.32350   0.39390   0.40357   0.59915
     Eigenvalues ---    0.76016   1.00275   1.28295   1.34953   1.62812
     Eigenvalues ---    1.71424
 Quadratic step=3.897D-01 exceeds max=3.000D-01 adjusted using Lamda=-4.927D-02.
 Angle between NR and scaled steps=  16.85 degrees.
 Angle between quadratic step and forces=  36.37 degrees.
 Linear search not attempted -- first point.
 TrRot= -0.005546  0.000039  0.006601  0.121956 -0.001687 -0.120031
 Variable       Old X    -DE/DX   Delta X   Delta X   Delta X     New X
                                 (Linear)    (Quad)   (Total)
    X1        1.76925   0.15194   0.00000   0.15027   0.14744   1.91668
    Y1       -1.43642   0.00789   0.00000  -0.02321  -0.01949  -1.45591
    Z1        0.03889   0.00208   0.00000   0.01204   0.02156   0.06045
    X2       -0.63622  -0.07428   0.00000  -0.02436  -0.02585  -0.66207
    Y2       -2.07065  -0.12387   0.00000  -0.09401  -0.09525  -2.16590
    Z2        0.05862   0.00270   0.00000   0.00740   0.01246   0.07108
    X3       -2.20765  -0.06513   0.00000  -0.12226  -0.12781  -2.33547
    Y3        0.02838   0.04879   0.00000   0.04080   0.03637   0.06475
    Z3       -0.06971  -0.00390   0.00000   0.00125   0.00396  -0.06575
    X4       -0.59902  -0.10160   0.00000  -0.08576  -0.09526  -0.69428
    Y4        2.06601   0.05261   0.00000   0.06034   0.05907   2.12508
    Z4       -0.07342  -0.00342   0.00000  -0.01023  -0.00435  -0.07777
    X5        1.80124   0.11802   0.00000   0.08013   0.07214   1.87338
    Y5        1.29347   0.00983   0.00000   0.01096   0.01462   1.30809
    Z5       -0.07626   0.01043   0.00000   0.03476   0.04478  -0.03148
    X6        3.45934  -0.02571   0.00000  -0.00013  -0.01078   3.44856
    Y6        2.67701  -0.02900   0.00000  -0.08001  -0.07333   2.60368
    Z6        0.07829  -0.00522   0.00000  -0.01979  -0.00688   0.07142
    X7       -1.60198   0.01061   0.00000   0.00862  -0.00452  -1.60650
    Y7        3.84874  -0.00096   0.00000   0.08415   0.08111   3.92985
    Z7        0.05074  -0.00139   0.00000  -0.03348  -0.02876   0.02199
    X8       -1.55514   0.00701   0.00000  -0.02273  -0.02050  -1.57564
    Y8       -3.95262   0.02331   0.00000  -0.00802  -0.01099  -3.96361
    Z8       -0.07708   0.00137   0.00000  -0.00949  -0.00633  -0.08341
    X9        3.48601  -0.02085   0.00000   0.06543   0.06516   3.55117
    Y9       -2.63476   0.01138   0.00000   0.00097   0.00788  -2.62688
    Z9       -0.08179  -0.00266   0.00000  -0.04846  -0.03645  -0.11824
         Item               Value     Threshold  Converged?
 Maximum Force            0.151936     0.000450     NO 
 RMS     Force            0.054672     0.000300     NO 
 Maximum Displacement     0.147438     0.001800     NO 
 RMS     Displacement     0.057524     0.001200     NO 
 Predicted change in Energy=-3.665459D-02
 GradGradGradGradGradGradGradGradGradGradGradGradGradGradGradGradGradGrad

 Leave Link  103 at Tue Dec 15 16:30:28 2015, MaxMem=    33554432 cpu:         0.0
 (Enter /home/Applications/g09/g09/l9999.exe)
 1\1\GINC-DUSTIN-DESKTOP\Force\RB3LYP-FC\3-21G\C4H4O1\DUSTIN\15-Dec-201
 5\0\\#P B3LYP/3-21G CIS(Singlets,NStates=15) pop(full) force\\FuranDFT
 \\0,1\C,0.936245,-0.760121,0.020578\C,-0.336674,-1.095742,0.031018\O,-
 1.16824,0.01502,-0.036888\C,-0.316987,1.093283,-0.03885\C,0.953176,0.6
 84474,-0.040354\H,1.830604,1.416615,0.04143\H,-0.847731,2.036664,0.026
 851\H,-0.822943,-2.091639,-0.040789\H,1.844717,-1.394254,-0.043283\\Ve
 rsion=ES64L-G09RevD.01\State=1-A\HF=-228.7420917\RMSD=5.809e-09\RMSF=5
 .467e-02\Dipole=0.3754115,0.8336902,-0.0706865\PG=C01 [X(C4H4O1)]\\@


 HONESTY IN A LAWYER IS LIKE A HEN'S HIND LEGS.
  -- MAGNUS OLESON, LAKE WOBEGON PATRIARCH, C.1875
 Job cpu time:       0 days  0 hours  0 minutes 46.6 seconds.
 File lengths (MBytes):  RWF=     14 Int=      0 D2E=      0 Chk=      3 Scr=      1
 Normal termination of Gaussian 09 at Tue Dec 15 16:30:28 2015.
