 Entering Gaussian System, Link 0=g09
 Input=FuranAM1_49.com
 Output=FuranAM1_49.log
 Initial command:
 /home/Applications/g09/g09/l1.exe "/home/Applications/g09/scratch/Gau-5952.inp" -scrdir="/home/Applications/g09/scratch/"
 Entering Link 1 = /home/Applications/g09/g09/l1.exe PID=      5954.
  
 Copyright (c) 1988,1990,1992,1993,1995,1998,2003,2009,2013,
            Gaussian, Inc.  All Rights Reserved.
  
 This is part of the Gaussian(R) 09 program.  It is based on
 the Gaussian(R) 03 system (copyright 2003, Gaussian, Inc.),
 the Gaussian(R) 98 system (copyright 1998, Gaussian, Inc.),
 the Gaussian(R) 94 system (copyright 1995, Gaussian, Inc.),
 the Gaussian 92(TM) system (copyright 1992, Gaussian, Inc.),
 the Gaussian 90(TM) system (copyright 1990, Gaussian, Inc.),
 the Gaussian 88(TM) system (copyright 1988, Gaussian, Inc.),
 the Gaussian 86(TM) system (copyright 1986, Carnegie Mellon
 University), and the Gaussian 82(TM) system (copyright 1983,
 Carnegie Mellon University). Gaussian is a federally registered
 trademark of Gaussian, Inc.
  
 This software contains proprietary and confidential information,
 including trade secrets, belonging to Gaussian, Inc.
  
 This software is provided under written license and may be
 used, copied, transmitted, or stored only in accord with that
 written license.
  
 The following legend is applicable only to US Government
 contracts under FAR:
  
                    RESTRICTED RIGHTS LEGEND
  
 Use, reproduction and disclosure by the US Government is
 subject to restrictions as set forth in subparagraphs (a)
 and (c) of the Commercial Computer Software - Restricted
 Rights clause in FAR 52.227-19.
  
 Gaussian, Inc.
 340 Quinnipiac St., Bldg. 40, Wallingford CT 06492
  
  
 ---------------------------------------------------------------
 Warning -- This program may not be used in any manner that
 competes with the business of Gaussian, Inc. or will provide
 assistance to any competitor of Gaussian, Inc.  The licensee
 of this program is prohibited from giving any competitor of
 Gaussian, Inc. access to this program.  By using this program,
 the user acknowledges that Gaussian, Inc. is engaged in the
 business of creating and licensing software in the field of
 computational chemistry and represents and warrants to the
 licensee that it is not a competitor of Gaussian, Inc. and that
 it will not use this program in any manner prohibited above.
 ---------------------------------------------------------------
  

 Cite this work as:
 Gaussian 09, Revision D.01,
 M. J. Frisch, G. W. Trucks, H. B. Schlegel, G. E. Scuseria, 
 M. A. Robb, J. R. Cheeseman, G. Scalmani, V. Barone, B. Mennucci, 
 G. A. Petersson, H. Nakatsuji, M. Caricato, X. Li, H. P. Hratchian, 
 A. F. Izmaylov, J. Bloino, G. Zheng, J. L. Sonnenberg, M. Hada, 
 M. Ehara, K. Toyota, R. Fukuda, J. Hasegawa, M. Ishida, T. Nakajima, 
 Y. Honda, O. Kitao, H. Nakai, T. Vreven, J. A. Montgomery, Jr., 
 J. E. Peralta, F. Ogliaro, M. Bearpark, J. J. Heyd, E. Brothers, 
 K. N. Kudin, V. N. Staroverov, T. Keith, R. Kobayashi, J. Normand, 
 K. Raghavachari, A. Rendell, J. C. Burant, S. S. Iyengar, J. Tomasi, 
 M. Cossi, N. Rega, J. M. Millam, M. Klene, J. E. Knox, J. B. Cross, 
 V. Bakken, C. Adamo, J. Jaramillo, R. Gomperts, R. E. Stratmann, 
 O. Yazyev, A. J. Austin, R. Cammi, C. Pomelli, J. W. Ochterski, 
 R. L. Martin, K. Morokuma, V. G. Zakrzewski, G. A. Voth, 
 P. Salvador, J. J. Dannenberg, S. Dapprich, A. D. Daniels, 
 O. Farkas, J. B. Foresman, J. V. Ortiz, J. Cioslowski, 
 and D. J. Fox, Gaussian, Inc., Wallingford CT, 2013.
 
 ******************************************
 Gaussian 09:  ES64L-G09RevD.01 24-Apr-2013
                15-Dec-2015 
 ******************************************
 ------------------------------------------------------------
 #P AM1(Input,print) CIS(Singlets,NStates=15) pop(full) force
 ------------------------------------------------------------
 1/10=7,30=1,38=1/1,3;
 2/12=2,17=6,18=5,40=1/2;
 3/5=2,16=1,25=1,41=700000,71=1,135=100,136=1/1,2,8,3;
 4/35=1/1;
 5/5=2,35=1,38=5/2;
 8/6=1,10=1,108=15/1;
 9/15=2,41=15,42=1,48=1,49=10/14;
 10/5=4/2;
 6/7=3,18=1/1;
 7/12=6,13=5,29=1/1,2,3,16;
 1/10=7,30=1/3;
 99//99;
 Leave Link    1 at Tue Dec 15 16:20:32 2015, MaxMem=           0 cpu:         0.0
 (Enter /home/Applications/g09/g09/l101.exe)
 -----------------
 AM1-Reparam Input
 -----------------
 Symbolic Z-matrix:
 Charge =  0 Multiplicity = 1
 6                     0.91869  -0.70304   0.02924 
 6                    -0.36125  -1.05805   0.01004 
 8                    -1.17856  -0.04738   0.03119 
 6                    -0.30894   1.13359  -0.02951 
 6                     0.91104   0.6736   -0.04594 
 1                     1.82879   1.35803   0.04245 
 1                    -0.79164   2.02636  -0.04648 
 1                    -0.88347  -2.07656  -0.00312 
 1                     1.7979   -1.41413   0.03427 
 
 NAtoms=      9 NQM=        9 NQMF=       0 NMMI=      0 NMMIF=      0
                NMic=       0 NMicF=      0.
                    Isotopes and Nuclear Properties:
 (Nuclear quadrupole moments (NQMom) in fm**2, nuclear magnetic moments (NMagM)
  in nuclear magnetons)

  Atom         1           2           3           4           5           6           7           8           9
 IAtWgt=          12          12          16          12          12           1           1           1           1
 AtmWgt=  12.0000000  12.0000000  15.9949146  12.0000000  12.0000000   1.0078250   1.0078250   1.0078250   1.0078250
 NucSpn=           0           0           0           0           0           1           1           1           1
 AtZEff=   0.0000000   0.0000000   0.0000000   0.0000000   0.0000000   0.0000000   0.0000000   0.0000000   0.0000000
 NQMom=    0.0000000   0.0000000   0.0000000   0.0000000   0.0000000   0.0000000   0.0000000   0.0000000   0.0000000
 NMagM=    0.0000000   0.0000000   0.0000000   0.0000000   0.0000000   2.7928460   2.7928460   2.7928460   2.7928460
 AtZNuc=   6.0000000   6.0000000   8.0000000   6.0000000   6.0000000   1.0000000   1.0000000   1.0000000   1.0000000
 Leave Link  101 at Tue Dec 15 16:20:32 2015, MaxMem=    33554432 cpu:         0.0
 (Enter /home/Applications/g09/g09/l103.exe)

 GradGradGradGradGradGradGradGradGradGradGradGradGradGradGradGradGradGrad
 Berny optimization.
 Initialization pass.
 Trust Radius=3.00D-01 FncErr=1.00D-07 GrdErr=1.00D-07
 Number of steps in this run=      2 maximum allowed number of steps=      2.
 GradGradGradGradGradGradGradGradGradGradGradGradGradGradGradGradGradGrad

 Leave Link  103 at Tue Dec 15 16:20:32 2015, MaxMem=    33554432 cpu:         0.0
 (Enter /home/Applications/g09/g09/l202.exe)
                          Input orientation:                          
 ---------------------------------------------------------------------
 Center     Atomic      Atomic             Coordinates (Angstroms)
 Number     Number       Type             X           Y           Z
 ---------------------------------------------------------------------
      1          6           0        0.918693   -0.703043    0.029244
      2          6           0       -0.361253   -1.058048    0.010042
      3          8           0       -1.178564   -0.047378    0.031187
      4          6           0       -0.308938    1.133591   -0.029514
      5          6           0        0.911044    0.673604   -0.045935
      6          1           0        1.828790    1.358025    0.042448
      7          1           0       -0.791642    2.026356   -0.046481
      8          1           0       -0.883466   -2.076559   -0.003117
      9          1           0        1.797901   -1.414131    0.034266
 ---------------------------------------------------------------------
                    Distance matrix (angstroms):
                    1          2          3          4          5
     1  C    0.000000
     2  C    1.328405   0.000000
     3  O    2.197359   1.299961   0.000000
     4  C    2.209922   2.192620   1.467863   0.000000
     5  C    1.378719   2.149533   2.211837   1.303922   0.000000
     6  H    2.253098   3.261096   3.319558   2.150681   1.148260
     7  H    3.221894   3.114800   2.110951   1.015047   2.174644
     8  H    2.266136   1.144659   2.050813   3.261264   3.284128
     9  H    1.130786   2.188453   3.275266   3.306618   2.269710
                    6          7          8          9
     6  H    0.000000
     7  H    2.705779   0.000000
     8  H    4.376617   4.104171   0.000000
     9  H    2.772340   4.306879   2.762234   0.000000
 Stoichiometry    C4H4O
 Framework group  C1[X(C4H4O)]
 Deg. of freedom    21
 Full point group                 C1      NOp   1
 Largest Abelian subgroup         C1      NOp   1
 Largest concise Abelian subgroup C1      NOp   1
                         Standard orientation:                         
 ---------------------------------------------------------------------
 Center     Atomic      Atomic             Coordinates (Angstroms)
 Number     Number       Type             X           Y           Z
 ---------------------------------------------------------------------
      1          6           0        0.406120    1.091959    0.018226
      2          6           0        1.107284   -0.035841   -0.014882
      3          8           0        0.368895   -1.105081    0.022608
      4          6           0       -1.010431   -0.604028   -0.009463
      5          6           0       -0.913724    0.696158   -0.028902
      6          1           0       -1.827221    1.383583    0.078202
      7          1           0       -1.730922   -1.319018   -0.010736
      8          1           0        2.231231   -0.249486   -0.051530
      9          1           0        0.840253    2.136077    0.013329
 ---------------------------------------------------------------------
 Rotational constants (GHZ):      9.7644281      9.3761527      4.7862197
 Leave Link  202 at Tue Dec 15 16:20:32 2015, MaxMem=    33554432 cpu:         0.0
 (Enter /home/Applications/g09/g09/l301.exe)

 Semi-emprical parameters in input format:
 Method=8 CoreType=1 PeptideFC=0.0114510000 RIJScale=0.5291770000
 ****
 H       
 PQN=1 NValence=1 F0ss=0.4721550000 ZetaOverlap=1.1880780000 U=-0.4188110000
 Beta=-0.2268830000 CoreKO=1.0589200000 KON=0,0,0,1.0589200000 KON=1,0,1,1.0589200000
 KON=0,1,1,1.0589200000 KON=2,1,1,1.0589200000 EISol=-0.4188110042 EHeat=0.0830298228
 Alpha=1.5252600000
 GCore=0.0085280000,1.4001430000,2.2676710000
 GCore=0.0003530000,1.4001430000,3.4015070000
 GCore=-0.0012730000,0.5600570000,3.9684250000
 ****
 C       
 PQN=2,2 NValence=4 F0ss=0.4494440000 F0sp=0.4215150000 F0pp=0.3768030000 F2pp=0.1898720000
 G1sp=0.2679030000
 ZetaOverlap=1.8086650000,1.6851160000
 U=-1.9120180000,-1.4557970000
 Beta=-0.5775440000,-0.2836780000 DDN=0,1,0.8236740000 DDN=1,1,0.7268010000
 CoreKO=1.1124280000 KON=0,0,0,1.1124280000 KON=1,0,1,0.8219700000 KON=0,1,1,1.1124280000
 KON=2,1,1,0.7783930000 EISol=-4.4398989268 EHeat=0.2723305520 Alpha=1.4014060000
 DipHyp=1.6472532266
 GCore=0.0007890000,1.4001430000,3.0235620000
 GCore=0.0031890000,1.4001430000,3.4959930000
 GCore=-0.0013930000,1.4001430000,3.8739390000
 GCore=-0.0000880000,1.4001430000,5.0077740000
 ****
 O       
 PQN=2,2 NValence=6 F0ss=0.5666750000 F0sp=0.5321300000 F0pp=0.4958710000 F2pp=0.2358080000
 G1sp=0.4343770000
 ZetaOverlap=3.1080320000,2.5240390000
 U=-3.5951870000,-2.8760900000
 Beta=-1.0757550000,-1.0757550000 DDN=0,1,0.4988900000 DDN=1,1,0.4852320000
 CoreKO=0.8822960000 KON=0,0,0,0.8822960000 KON=1,0,1,0.5019540000 KON=0,1,1,0.8822960000
 KON=2,1,1,0.5515580000 EISol=-11.6164441184 EHeat=0.0949133088 Alpha=2.3576810000
 DipHyp=0.9977225968
 GCore=0.0195120000,1.4001430000,1.6023330000
 GCore=0.0056550000,1.9602000000,2.7307880000
 ****
 
 Standard basis: VSTO-6G (5D, 7F)
 Ernie: Thresh=  0.10000D-02 Tol=  0.10000D-05 Strict=F.
  NNHCO=     0 NNPyr=     0 NCTC=     0               EPep=         0.000000000
    EC=        69.051862857  ECS=         1.881484750   EG=         0.349073203
   EHC=         0.000000000  EAt=       -31.051283842  AtH=         1.516354808
 EPDDG=         0.000000000  ECC=        71.282420809 EAtT=        32.567638650
 There are    24 symmetry adapted cartesian basis functions of A   symmetry.
 There are    24 symmetry adapted basis functions of A   symmetry.
    24 basis functions,   144 primitive gaussians,    24 cartesian basis functions
    13 alpha electrons       13 beta electrons
       nuclear repulsion energy       103.8500594592 Hartrees.
 IExCor=    0 DFT=F Ex=HF Corr=None ExCW=0 ScaHFX=  1.000000
 ScaDFX=  1.000000  1.000000  1.000000  1.000000 ScalE2=  1.000000  1.000000
 IRadAn=      0 IRanWt=     -1 IRanGd=            0 ICorTp=0 IEmpDi=  4
 Integral buffers will be    131072 words long.
 Regular integral format.
 Two-electron integral symmetry is turned off.
 Leave Link  301 at Tue Dec 15 16:20:32 2015, MaxMem=    33554432 cpu:         0.0
 (Enter /home/Applications/g09/g09/l302.exe)
 Do NDO integrals.
 NPDir=0 NMtPBC=     1 NCelOv=     1 NCel=       1 NClECP=     1 NCelD=      1
         NCelK=      1 NCelE2=     1 NClLst=     1 CellRange=     0.0.
 One-electron integrals computed using PRISM.
 NBasis=    24 RedAO= F EigKep=  0.00D+00  NBF=    24
 NBsUse=    24 1.00D-04 EigRej=  0.00D+00 NBFU=    24
 Leave Link  302 at Tue Dec 15 16:20:33 2015, MaxMem=    33554432 cpu:         0.0
 (Enter /home/Applications/g09/g09/l308.exe)
 Leave Link  308 at Tue Dec 15 16:20:33 2015, MaxMem=    33554432 cpu:         0.0
 (Enter /home/Applications/g09/g09/l303.exe)
 DipDrv:  MaxL=1.
 Leave Link  303 at Tue Dec 15 16:20:33 2015, MaxMem=    33554432 cpu:         0.0
 (Enter /home/Applications/g09/g09/l401.exe)
 Simple Huckel Guess.
 JPrj=0 DoOrth=F DoCkMO=F.
 Leave Link  401 at Tue Dec 15 16:20:33 2015, MaxMem=    33554432 cpu:         0.0
 (Enter /home/Applications/g09/g09/l502.exe)
 Closed shell SCF:
 Using DIIS extrapolation, IDIIS=  1040.
 Overlap will be assumed to be unity.
 Two-electron integral symmetry not used.
 Keep J ints in memory in canonical form, NReq=888082.
 IVT=       79475 IEndB=       79475 NGot=    33554432 MDV=    33473473
 LenX=    33473473 LenY=    33472456
 Requested convergence on RMS density matrix=1.00D-08 within 128 cycles.
 Requested convergence on MAX density matrix=1.00D-06.
 Requested convergence on             energy=1.00D-06.
 No special actions if energy rises.
 FoFCou: FMM=F IPFlag=           0 FMFlag=           0 FMFlg1=           0
         NFxFlg=           0 DoJE=F BraDBF=F KetDBF=F FulRan=T
         wScrn=  0.000000 ICntrl=     600 IOpCl=  2 I1Cent=           0 NGrid=           0
         NMat0=    1 NMatS0=     54 NMatT0=    0 NMatD0=    1 NMtDS0=    0 NMtDT0=    0
 Symmetry not used in FoFCou.

 Cycle   1  Pass 1  IDiag  1:
 E= 0.360299320671132    
 DIIS: error= 6.13D-02 at cycle   1 NSaved=   1.
 NSaved= 1 IEnMin= 1 EnMin= 0.360299320671132     IErMin= 1 ErrMin= 6.13D-02
 ErrMax= 6.13D-02  0.00D+00 EMaxC= 1.00D-01 BMatC= 1.11D-01 BMatP= 1.11D-01
 IDIUse=3 WtCom= 3.87D-01 WtEn= 6.13D-01
 Coeff-Com:  0.100D+01
 Coeff-En:   0.100D+01
 Coeff:      0.100D+01
 GapD=    2.000 DampG=2.000 DampE=0.500 DampFc=1.0000 IDamp=-1.
 RMSDP=1.96D-02 MaxDP=1.61D-01              OVMax= 0.00D+00

 Cycle   2  Pass 1  IDiag  1:
 E= 0.784049755337861E-01 Delta-E=       -0.281894345137 Rises=F Damp=F
 DIIS: error= 2.02D-02 at cycle   2 NSaved=   2.
 NSaved= 2 IEnMin= 2 EnMin= 0.784049755337861E-01 IErMin= 2 ErrMin= 2.02D-02
 ErrMax= 2.02D-02  0.00D+00 EMaxC= 1.00D-01 BMatC= 9.52D-03 BMatP= 1.11D-01
 IDIUse=3 WtCom= 7.98D-01 WtEn= 2.02D-01
 Coeff-Com: -0.358D+00 0.136D+01
 Coeff-En:   0.000D+00 0.100D+01
 Coeff:     -0.286D+00 0.129D+01
 RMSDP=8.18D-03 MaxDP=7.39D-02 DE=-2.82D-01 OVMax= 0.00D+00

 Cycle   3  Pass 1  IDiag  1:
 E= 0.480707723691012E-01 Delta-E=       -0.030334203165 Rises=F Damp=F
 DIIS: error= 4.06D-03 at cycle   3 NSaved=   3.
 NSaved= 3 IEnMin= 3 EnMin= 0.480707723691012E-01 IErMin= 3 ErrMin= 4.06D-03
 ErrMax= 4.06D-03  0.00D+00 EMaxC= 1.00D-01 BMatC= 3.59D-04 BMatP= 9.52D-03
 IDIUse=3 WtCom= 9.59D-01 WtEn= 4.06D-02
 Coeff-Com:  0.143D+00-0.630D+00 0.149D+01
 Coeff-En:   0.000D+00 0.000D+00 0.100D+01
 Coeff:      0.137D+00-0.604D+00 0.147D+01
 RMSDP=2.49D-03 MaxDP=2.76D-02 DE=-3.03D-02 OVMax= 0.00D+00

 Cycle   4  Pass 1  IDiag  3:
 E= 0.461226665717618E-01 Delta-E=       -0.001948105797 Rises=F Damp=F
 DIIS: error= 1.07D-03 at cycle   4 NSaved=   4.
 NSaved= 4 IEnMin= 4 EnMin= 0.461226665717618E-01 IErMin= 4 ErrMin= 1.07D-03
 ErrMax= 1.07D-03  0.00D+00 EMaxC= 1.00D-01 BMatC= 2.55D-05 BMatP= 3.59D-04
 IDIUse=3 WtCom= 9.89D-01 WtEn= 1.07D-02
 Coeff-Com:  0.123D-01-0.461D-01-0.185D+00 0.122D+01
 Coeff-En:   0.000D+00 0.000D+00 0.000D+00 0.100D+01
 Coeff:      0.122D-01-0.456D-01-0.183D+00 0.122D+01
 Gap=     0.379 Goal=   None    Shift=    0.000
 RMSDP=7.75D-04 MaxDP=9.13D-03 DE=-1.95D-03 OVMax= 7.08D-03

 Cycle   5  Pass 1  IDiag  3:
 E= 0.459665445450383E-01 Delta-E=       -0.000156122027 Rises=F Damp=F
 DIIS: error= 2.13D-04 at cycle   5 NSaved=   5.
 NSaved= 5 IEnMin= 5 EnMin= 0.459665445450383E-01 IErMin= 5 ErrMin= 2.13D-04
 ErrMax= 2.13D-04  0.00D+00 EMaxC= 1.00D-01 BMatC= 1.79D-06 BMatP= 2.55D-05
 IDIUse=3 WtCom= 9.98D-01 WtEn= 2.13D-03
 Coeff-Com: -0.806D-02 0.336D-01 0.938D-02-0.461D+00 0.143D+01
 Coeff-En:   0.000D+00 0.000D+00 0.000D+00 0.000D+00 0.100D+01
 Coeff:     -0.804D-02 0.335D-01 0.936D-02-0.460D+00 0.142D+01
 Gap=     0.379 Goal=   None    Shift=    0.000
 RMSDP=2.44D-04 MaxDP=1.78D-03 DE=-1.56D-04 OVMax= 2.21D-03

 Cycle   6  Pass 1  IDiag  3:
 E= 0.459529655722406E-01 Delta-E=       -0.000013578973 Rises=F Damp=F
 DIIS: error= 8.87D-05 at cycle   6 NSaved=   6.
 NSaved= 6 IEnMin= 6 EnMin= 0.459529655722406E-01 IErMin= 6 ErrMin= 8.87D-05
 ErrMax= 8.87D-05  0.00D+00 EMaxC= 1.00D-01 BMatC= 2.05D-07 BMatP= 1.79D-06
 IDIUse=1 WtCom= 1.00D+00 WtEn= 0.00D+00
 Coeff-Com:  0.328D-02-0.133D-01 0.723D-02 0.151D+00-0.743D+00 0.159D+01
 Coeff:      0.328D-02-0.133D-01 0.723D-02 0.151D+00-0.743D+00 0.159D+01
 Gap=     0.379 Goal=   None    Shift=    0.000
 RMSDP=1.03D-04 MaxDP=7.78D-04 DE=-1.36D-05 OVMax= 1.06D-03

 Cycle   7  Pass 1  IDiag  3:
 E= 0.459510592377939E-01 Delta-E=       -0.000001906334 Rises=F Damp=F
 DIIS: error= 2.98D-05 at cycle   7 NSaved=   7.
 NSaved= 7 IEnMin= 7 EnMin= 0.459510592377939E-01 IErMin= 7 ErrMin= 2.98D-05
 ErrMax= 2.98D-05  0.00D+00 EMaxC= 1.00D-01 BMatC= 1.86D-08 BMatP= 2.05D-07
 IDIUse=1 WtCom= 1.00D+00 WtEn= 0.00D+00
 Coeff-Com: -0.561D-03 0.170D-02 0.148D-03-0.369D-01 0.208D+00-0.735D+00
 Coeff-Com:  0.156D+01
 Coeff:     -0.561D-03 0.170D-02 0.148D-03-0.369D-01 0.208D+00-0.735D+00
 Coeff:      0.156D+01
 Gap=     0.379 Goal=   None    Shift=    0.000
 RMSDP=3.67D-05 MaxDP=3.00D-04 DE=-1.91D-06 OVMax= 3.62D-04

 Cycle   8  Pass 1  IDiag  3:
 E= 0.459508788900251E-01 Delta-E=       -0.000000180348 Rises=F Damp=F
 DIIS: error= 4.73D-06 at cycle   8 NSaved=   8.
 NSaved= 8 IEnMin= 8 EnMin= 0.459508788900251E-01 IErMin= 8 ErrMin= 4.73D-06
 ErrMax= 4.73D-06  0.00D+00 EMaxC= 1.00D-01 BMatC= 7.60D-10 BMatP= 1.86D-08
 IDIUse=1 WtCom= 1.00D+00 WtEn= 0.00D+00
 Coeff-Com:  0.490D-04 0.154D-03-0.143D-02 0.130D-01-0.669D-01 0.275D+00
 Coeff-Com: -0.759D+00 0.154D+01
 Coeff:      0.490D-04 0.154D-03-0.143D-02 0.130D-01-0.669D-01 0.275D+00
 Coeff:     -0.759D+00 0.154D+01
 Gap=     0.379 Goal=   None    Shift=    0.000
 RMSDP=6.45D-06 MaxDP=6.28D-05 DE=-1.80D-07 OVMax= 7.01D-05

 Cycle   9  Pass 1  IDiag  3:
 E= 0.459508729515505E-01 Delta-E=       -0.000000005938 Rises=F Damp=F
 DIIS: error= 1.07D-06 at cycle   9 NSaved=   9.
 NSaved= 9 IEnMin= 9 EnMin= 0.459508729515505E-01 IErMin= 9 ErrMin= 1.07D-06
 ErrMax= 1.07D-06  0.00D+00 EMaxC= 1.00D-01 BMatC= 2.63D-11 BMatP= 7.60D-10
 IDIUse=1 WtCom= 1.00D+00 WtEn= 0.00D+00
 Coeff-Com:  0.242D-04-0.243D-03 0.725D-03-0.377D-02 0.187D-01-0.888D-01
 Coeff-Com:  0.273D+00-0.664D+00 0.146D+01
 Coeff:      0.242D-04-0.243D-03 0.725D-03-0.377D-02 0.187D-01-0.888D-01
 Coeff:      0.273D+00-0.664D+00 0.146D+01
 Gap=     0.379 Goal=   None    Shift=    0.000
 RMSDP=8.99D-07 MaxDP=1.02D-05 DE=-5.94D-09 OVMax= 9.32D-06

 Cycle  10  Pass 1  IDiag  3:
 E= 0.459508727901010E-01 Delta-E=       -0.000000000161 Rises=F Damp=F
 DIIS: error= 2.01D-07 at cycle  10 NSaved=  10.
 NSaved=10 IEnMin=10 EnMin= 0.459508727901010E-01 IErMin=10 ErrMin= 2.01D-07
 ErrMax= 2.01D-07  0.00D+00 EMaxC= 1.00D-01 BMatC= 1.33D-12 BMatP= 2.63D-11
 IDIUse=1 WtCom= 1.00D+00 WtEn= 0.00D+00
 Coeff-Com: -0.157D-04 0.129D-03-0.347D-03 0.154D-02-0.725D-02 0.359D-01
 Coeff-Com: -0.114D+00 0.284D+00-0.765D+00 0.156D+01
 Coeff:     -0.157D-04 0.129D-03-0.347D-03 0.154D-02-0.725D-02 0.359D-01
 Coeff:     -0.114D+00 0.284D+00-0.765D+00 0.156D+01
 Gap=     0.379 Goal=   None    Shift=    0.000
 RMSDP=2.23D-07 MaxDP=2.25D-06 DE=-1.61D-10 OVMax= 2.36D-06

 Cycle  11  Pass 1  IDiag  3:
 E= 0.459508727806792E-01 Delta-E=       -0.000000000009 Rises=F Damp=F
 DIIS: error= 3.85D-08 at cycle  11 NSaved=  11.
 NSaved=11 IEnMin=11 EnMin= 0.459508727806792E-01 IErMin=11 ErrMin= 3.85D-08
 ErrMax= 3.85D-08  0.00D+00 EMaxC= 1.00D-01 BMatC= 5.90D-14 BMatP= 1.33D-12
 IDIUse=1 WtCom= 1.00D+00 WtEn= 0.00D+00
 Coeff-Com:  0.555D-05-0.459D-04 0.125D-03-0.561D-03 0.255D-02-0.126D-01
 Coeff-Com:  0.398D-01-0.982D-01 0.272D+00-0.678D+00 0.147D+01
 Coeff:      0.555D-05-0.459D-04 0.125D-03-0.561D-03 0.255D-02-0.126D-01
 Coeff:      0.398D-01-0.982D-01 0.272D+00-0.678D+00 0.147D+01
 Gap=     0.379 Goal=   None    Shift=    0.000
 RMSDP=4.87D-08 MaxDP=4.03D-07 DE=-9.42D-12 OVMax= 4.52D-07

 Cycle  12  Pass 1  IDiag  3:
 E= 0.459508727805940E-01 Delta-E=        0.000000000000 Rises=F Damp=F
 DIIS: error= 1.18D-08 at cycle  12 NSaved=  12.
 NSaved=12 IEnMin=12 EnMin= 0.459508727805940E-01 IErMin=12 ErrMin= 1.18D-08
 ErrMax= 1.18D-08  0.00D+00 EMaxC= 1.00D-01 BMatC= 3.94D-15 BMatP= 5.90D-14
 IDIUse=1 WtCom= 1.00D+00 WtEn= 0.00D+00
 Coeff-Com: -0.910D-06 0.799D-05-0.210D-04 0.979D-04-0.437D-03 0.222D-02
 Coeff-Com: -0.696D-02 0.166D-01-0.466D-01 0.134D+00-0.488D+00 0.139D+01
 Coeff:     -0.910D-06 0.799D-05-0.210D-04 0.979D-04-0.437D-03 0.222D-02
 Coeff:     -0.696D-02 0.166D-01-0.466D-01 0.134D+00-0.488D+00 0.139D+01
 Gap=     0.379 Goal=   None    Shift=    0.000
 RMSDP=1.35D-08 MaxDP=1.23D-07 DE=-8.53D-14 OVMax= 1.51D-07

 Cycle  13  Pass 1  IDiag  3:
 E= 0.459508727803950E-01 Delta-E=        0.000000000000 Rises=F Damp=F
 DIIS: error= 3.08D-09 at cycle  13 NSaved=  13.
 NSaved=13 IEnMin=13 EnMin= 0.459508727803950E-01 IErMin=13 ErrMin= 3.08D-09
 ErrMax= 3.08D-09  0.00D+00 EMaxC= 1.00D-01 BMatC= 2.99D-16 BMatP= 3.94D-15
 IDIUse=1 WtCom= 1.00D+00 WtEn= 0.00D+00
 Coeff-Com:  0.986D-08-0.187D-06 0.288D-06-0.244D-05 0.463D-05-0.391D-04
 Coeff-Com:  0.733D-04 0.119D-03-0.547D-03-0.384D-02 0.703D-01-0.504D+00
 Coeff-Com:  0.144D+01
 Coeff:      0.986D-08-0.187D-06 0.288D-06-0.244D-05 0.463D-05-0.391D-04
 Coeff:      0.733D-04 0.119D-03-0.547D-03-0.384D-02 0.703D-01-0.504D+00
 Coeff:      0.144D+01
 Gap=     0.379 Goal=   None    Shift=    0.000
 RMSDP=3.78D-09 MaxDP=3.57D-08 DE=-1.99D-13 OVMax= 4.11D-08

 Cycle  14  Pass 2  IDiag  1:
 SCF Done:  E(RAM1) =  0.459508727804E-01 A.U. after   14 cycles
            NFock= 13  Conv=0.38D-08     -V/T= 1.0028
 KE=-1.657414513865D+01 PE=-1.717118437359D+02 EE= 8.448188028808D+01
 Leave Link  502 at Tue Dec 15 16:20:33 2015, MaxMem=    33554432 cpu:         0.0
 (Enter /home/Applications/g09/g09/l801.exe)
 Range of M.O.s used for correlation:     1    24
 NBasis=    24 NAE=    13 NBE=    13 NFC=     0 NFV=     0
 NROrb=     24 NOA=    13 NOB=    13 NVA=    11 NVB=    11
 Leave Link  801 at Tue Dec 15 16:20:33 2015, MaxMem=    33554432 cpu:         0.0
 (Enter /home/Applications/g09/g09/l914.exe)
 RHF ground state
 MDV=    33554432 DFT=F DoStab=F Mixed=F DoRPA=F DoScal=F NonHer=F
 Making orbital integer symmetry assigments:
 Orbital symmetries:
       Occupied  (A) (A) (A) (A) (A) (A) (A) (A) (A) (A) (A) (A)
                 (A)
       Virtual   (A) (A) (A) (A) (A) (A) (A) (A) (A) (A) (A)
    60 initial guesses have been made.
 Convergence on wavefunction:    0.000001000000000
 Davidson Disk Diagonalization:  ConvIn= 1.00D-06 SkipCon=T Conv= 1.00D-06.
 Max sub-space:   240 roots to seek:    60 dimension of matrix:          286
 Iteration     1 Dimension    60 NMult     0 NNew     60
 CISAX will form    60 AO SS matrices at one time.
 NMat=    60 NSing=    60 JSym2X= 0.
 FoFJK:  IHMeth= 8 ICntrl=       0 DoSepK=F KAlg= 0 I1Cent=   0 FoldK=F
 IRaf=         1 NMat= 120 IRICut=       1 DoRegI=T DoRafI=F ISym2E= 0.
 FoFCou: FMM=F IPFlag=           0 FMFlag=      100000 FMFlg1=           0
         NFxFlg=           0 DoJE=F BraDBF=F KetDBF=F FulRan=T
         wScrn=  0.000000 ICntrl=       0 IOpCl=  0 I1Cent=           0 NGrid=           0
         NMat0=  120 NMatS0=     60 NMatT0=    0 NMatD0=  120 NMtDS0=    0 NMtDT0=    0
 Symmetry not used in FoFCou.
 New state      2 was old state      3
 New state      3 was old state      2
 New state      4 was old state      5
 New state      5 was old state      8
 New state      6 was old state      9
 New state      8 was old state      4
 New state      9 was old state      6
 New state     10 was old state     11
 New state     11 was old state     14
 New state     12 was old state     18
 New state     13 was old state     12
 New state     14 was old state     19
 New state     15 was old state     16
 Excitation Energies [eV] at current iteration:
 Root      1 :     4.510156878230202
 Root      2 :     4.806877164870596
 Root      3 :     5.323687129346562
 Root      4 :     6.084633141850672
 Root      5 :     6.149424955812204
 Root      6 :     6.444020318341138
 Root      7 :     6.508972557078811
 Root      8 :     6.613134441781578
 Root      9 :     6.940019221834849
 Root     10 :     7.088528727532164
 Root     11 :     7.385338834987684
 Root     12 :     7.447194830785418
 Root     13 :     7.575121504595228
 Root     14 :     7.693098102585534
 Root     15 :     7.834304565858464
 Root     16 :     8.008730546045713
 Root     17 :     8.162690195537508
 Root     18 :     8.202291388003514
 Root     19 :     8.358496025062667
 Root     20 :     8.525743899930241
 Root     21 :     8.705380014082190
 Root     22 :     8.736945323019548
 Root     23 :     8.775120773427403
 Root     24 :     9.289974959159638
 Root     25 :     9.361019600969286
 Root     26 :     9.440471351268910
 Root     27 :     9.628111666461765
 Root     28 :     9.673487108332637
 Root     29 :     9.739012486079890
 Root     30 :     9.771123416902075
 Root     31 :     9.967009997044514
 Root     32 :    10.008237028544210
 Root     33 :    10.121043726457790
 Root     34 :    10.193944913391400
 Root     35 :    10.251114783474530
 Root     36 :    10.366845370529890
 Root     37 :    10.425793421039330
 Root     38 :    10.652987761069400
 Root     39 :    10.754391121362660
 Root     40 :    10.828404447064610
 Root     41 :    10.912121050827340
 Root     42 :    11.087030964928780
 Root     43 :    11.214089741099290
 Root     44 :    11.260394437434780
 Root     45 :    11.438627104212630
 Root     46 :    11.541090338151810
 Root     47 :    11.752725716422470
 Root     48 :    11.949935603196410
 Root     49 :    12.023166959502270
 Root     50 :    12.126517605145670
 Root     51 :    12.242556746749840
 Root     52 :    12.339378939398440
 Root     53 :    12.568849561665390
 Root     54 :    12.753799238622320
 Root     55 :    12.937258940056910
 Root     56 :    13.042602041959150
 Root     57 :    13.303738594207680
 Root     58 :    13.383372709257820
 Root     59 :    13.560033071425170
 Root     60 :    13.904433348705600
 Iteration     2 Dimension   120 NMult    60 NNew     60
 CISAX will form    60 AO SS matrices at one time.
 NMat=    60 NSing=    60 JSym2X= 0.
 Root      1 not converged, maximum delta is    0.030321009796695
 Root      2 not converged, maximum delta is    0.030295674909460
 Root      3 not converged, maximum delta is    0.011260724140144
 Root      4 not converged, maximum delta is    0.121553927292218
 Root      5 not converged, maximum delta is    0.092072510339861
 Root      6 not converged, maximum delta is    0.066076753798025
 Root      7 not converged, maximum delta is    0.152978727461251
 Root      8 not converged, maximum delta is    0.120083651973402
 Root      9 not converged, maximum delta is    0.024868793885890
 Root     10 not converged, maximum delta is    0.031755188128865
 New state     11 was old state     12
 Root     11 not converged, maximum delta is    0.302220629354373
 New state     12 was old state     11
 Root     12 not converged, maximum delta is    0.242749422731037
 Root     13 not converged, maximum delta is    0.050943093114777
 Root     14 not converged, maximum delta is    0.086843119600230
 Root     15 not converged, maximum delta is    0.112256387305713
 Excitation Energies [eV] at current iteration:
 Root      1 :     4.421166210478531   Change is   -0.088990667751671
 Root      2 :     4.761532070787656   Change is   -0.045345094082942
 Root      3 :     5.310276053222271   Change is   -0.013411076124290
 Root      4 :     5.970501464886834   Change is   -0.114131676963838
 Root      5 :     6.050603493724998   Change is   -0.098821462087208
 Root      6 :     6.326415050220350   Change is   -0.117605268120788
 Root      7 :     6.429441461422432   Change is   -0.079531095656379
 Root      8 :     6.506937737323469   Change is   -0.106196704458110
 Root      9 :     6.893183609790365   Change is   -0.046835612044483
 Root     10 :     7.032793400705915   Change is   -0.055735326826249
 Root     11 :     7.300198418905984   Change is   -0.146996411879435
 Root     12 :     7.356136960213467   Change is   -0.029201874774218
 Root     13 :     7.481656156429591   Change is   -0.093465348165637
 Root     14 :     7.549057253594570   Change is   -0.144040848990964
 Root     15 :     7.749442341800517   Change is   -0.084862224057947
 Root     16 :     7.886026804445352   Change is   -0.122703741600360
 Root     17 :     7.984366443115778   Change is   -0.217924944887737
 Root     18 :     8.091615451795819   Change is   -0.071074743741689
 Root     19 :     8.236856955491859   Change is   -0.121639069570807
 Root     20 :     8.341633224436114   Change is   -0.184110675494125
 Root     21 :     8.389972104077181   Change is   -0.315407910005008
 Root     22 :     8.595277968303154   Change is   -0.141667354716392
 Root     23 :     8.715680831512156   Change is   -0.059439941915248
 Root     24 :     8.929382883646285   Change is   -0.360592075513353
 Root     25 :     9.091754592577942   Change is   -0.581732515754695
 Root     26 :     9.260268128917913   Change is   -0.100751472051373
 Root     27 :     9.358168570215600   Change is   -0.082302781053309
 Root     28 :     9.426038721071881   Change is   -0.202072945389884
 Root     29 :     9.465097692162999   Change is   -0.273914793916890
 Root     30 :     9.541043159137704   Change is   -0.652901754253694
 Root     31 :     9.634583567836764   Change is   -0.136539849065312
 Root     32 :     9.669381105226591   Change is   -0.338855923317621
 Root     33 :     9.731361828871076   Change is   -0.389681897586715
 Root     34 :     9.792595682418135   Change is   -0.174414314626380
 Root     35 :     9.885686584590566   Change is   -0.481158785939326
 Root     36 :    10.138446118722980   Change is   -0.615945002639679
 Root     37 :    10.152461049085240   Change is   -0.273332371954091
 Root     38 :    10.208847484163540   Change is   -0.042267299310998
 Root     39 :    10.329230931810470   Change is   -0.323756829258923
 Root     40 :    10.495188707073450   Change is   -0.416932343753891
 Root     41 :    10.623241978912220   Change is   -0.205162468152398
 Root     42 :    10.771304063529260   Change is   -0.442785677570036
 Root     43 :    10.896257693509860   Change is   -0.364136743924913
 Root     44 :    10.941226758345180   Change is   -0.145804206583606
 Root     45 :    10.999504496552810   Change is   -0.541585841599000
 Root     46 :    11.147811195124650   Change is   -0.290815909087976
 Root     47 :    11.467647299119600   Change is   -0.285078417302866
 Root     48 :    11.590753899223410   Change is   -0.359181703973006
 Root     49 :    11.613223113498050   Change is   -0.409943846004214
 Root     50 :    11.702700466997020   Change is   -0.423817138148643
 Root     51 :    11.800069380800240   Change is   -0.442487365949601
 Root     52 :    12.051575743259930   Change is   -0.287803196138508
 Root     53 :    12.152804876970610
 Root     54 :    12.245841632734270   Change is   -0.323007928931119
 Root     55 :    12.538080593072920   Change is   -0.215718645549402
 Root     56 :    12.704342063022580   Change is   -0.679030646235242
 Root     57 :    12.780478677074360   Change is   -0.156780262982546
 Root     58 :    12.923287083087390   Change is   -0.380451511120290
 Root     59 :    12.938935591406540
 Root     60 :    13.035034755278990
 Iteration     3 Dimension   135 NMult   120 NNew     15
 CISAX will form    15 AO SS matrices at one time.
 NMat=    15 NSing=    15 JSym2X= 0.
 Root      1 not converged, maximum delta is    0.001209144700760
 Root      2 not converged, maximum delta is    0.000176082720016
 Root      3 not converged, maximum delta is    0.000456597362303
 Root      4 not converged, maximum delta is    0.000115232934327
 Root      5 not converged, maximum delta is    0.000130854932882
 Root      6 not converged, maximum delta is    0.000133625238476
 Root      7 not converged, maximum delta is    0.001167414622990
 Root      8 not converged, maximum delta is    0.001350346107538
 Root      9 not converged, maximum delta is    0.002346023698199
 Root     10 not converged, maximum delta is    0.000467714987948
 Root     11 not converged, maximum delta is    0.000467555414266
 Root     12 not converged, maximum delta is    0.000151850875347
 Root     13 not converged, maximum delta is    0.000535274122151
 Root     14 not converged, maximum delta is    0.000241457673206
 Root     15 not converged, maximum delta is    0.000243347020757
 Excitation Energies [eV] at current iteration:
 Root      1 :     4.420879376219615   Change is   -0.000286834258916
 Root      2 :     4.761526214611516   Change is   -0.000005856176139
 Root      3 :     5.310220969519388   Change is   -0.000055083702884
 Root      4 :     5.970495860387794   Change is   -0.000005604499040
 Root      5 :     6.050596326880894   Change is   -0.000007166844103
 Root      6 :     6.326409387796664   Change is   -0.000005662423686
 Root      7 :     6.429140602452526   Change is   -0.000300858969905
 Root      8 :     6.506717588971195   Change is   -0.000220148352274
 Root      9 :     6.892785252293463   Change is   -0.000398357496903
 Root     10 :     7.032738750081727   Change is   -0.000054650624188
 Root     11 :     7.300136831135416   Change is   -0.000061587770568
 Root     12 :     7.356130654205799   Change is   -0.000006306007668
 Root     13 :     7.481577026478045   Change is   -0.000079129951546
 Root     14 :     7.549037942925730   Change is   -0.000019310668840
 Root     15 :     7.749419289239950   Change is   -0.000023052560567
 Iteration     4 Dimension   143 NMult   135 NNew      8
 CISAX will form     8 AO SS matrices at one time.
 NMat=     8 NSing=     8 JSym2X= 0.
 Root      1 not converged, maximum delta is    0.000036324204974
 Root      2 not converged, maximum delta is    0.000005296976420
 Root      3 not converged, maximum delta is    0.000011969720610
 Root      4 not converged, maximum delta is    0.000005342293465
 Root      5 not converged, maximum delta is    0.000007647131770
 Root      6 not converged, maximum delta is    0.000008457920076
 Root      7 not converged, maximum delta is    0.000055479561321
 Root      8 not converged, maximum delta is    0.000055902029548
 Root      9 not converged, maximum delta is    0.000090771118208
 Root     10 not converged, maximum delta is    0.000034565228281
 Root     11 not converged, maximum delta is    0.000018729521928
 Root     12 not converged, maximum delta is    0.000009057724744
 Root     13 not converged, maximum delta is    0.000023603739491
 Root     14 not converged, maximum delta is    0.000019911772490
 Root     15 not converged, maximum delta is    0.000017148157213
 Excitation Energies [eV] at current iteration:
 Root      1 :     4.420878987808291   Change is   -0.000000388411323
 Root      2 :     4.761526204432919   Change is   -0.000000010178597
 Root      3 :     5.310220929318105   Change is   -0.000000040201282
 Root      4 :     5.970495849813956   Change is   -0.000000010573837
 Root      5 :     6.050596307838972   Change is   -0.000000019041922
 Root      6 :     6.326409368702901   Change is   -0.000000019093764
 Root      7 :     6.429139704558571   Change is   -0.000000897893955
 Root      8 :     6.506716759688348   Change is   -0.000000829282846
 Root      9 :     6.892783574552045   Change is   -0.000001677741418
 Root     10 :     7.032738409290529   Change is   -0.000000340791198
 Root     11 :     7.300136727360889   Change is   -0.000000103774527
 Root     12 :     7.356130636142867   Change is   -0.000000018062932
 Root     13 :     7.481576860571615   Change is   -0.000000165906430
 Root     14 :     7.549037871432719   Change is   -0.000000071493011
 Root     15 :     7.749419212169439   Change is   -0.000000077070511
 Convergence achieved on expansion vectors.
 ***********************************************************************
 Excited states from <AA,BB:AA,BB> singles matrix:
 ***********************************************************************
 
 1PDM for each excited state written to RWF  633
 Ground to excited state transition densities written to RWF  633
 Ground to excited state transition electric dipole moments (Au):
       state          X           Y           Z        Dip. S.      Osc.
         1         0.9046      0.0645     -0.0573      0.8257      0.0894
         2        -0.1138     -0.0565     -0.0492      0.0186      0.0022
         3        -0.0502      0.3671      0.0435      0.1392      0.0181
         4        -0.0061     -0.0142     -0.0566      0.0034      0.0005
         5         0.0072     -0.0427     -0.0765      0.0077      0.0011
         6        -0.0030     -0.0374      0.0671      0.0059      0.0009
         7        -0.0130      1.0838      0.0121      1.1748      0.1850
         8        -0.0299      1.0496     -0.0354      1.1038      0.1760
         9        -0.6764     -0.0980     -0.0830      0.4740      0.0800
        10         0.1586      0.2239     -0.0882      0.0831      0.0143
        11        -0.0027      0.0515      0.1480      0.0246      0.0044
        12        -0.0136     -0.0431      0.0595      0.0056      0.0010
        13         0.0833     -0.0900      0.0793      0.0213      0.0039
        14        -0.0446      0.0183      0.2046      0.0442      0.0082
        15         0.0080      0.0514      0.0237      0.0033      0.0006
 Ground to excited state transition velocity dipole moments (Au):
       state          X           Y           Z        Dip. S.      Osc.
         1        -0.0640      0.0076      0.0160      0.0044      0.0181
         2         0.0070      0.0015      0.0228      0.0006      0.0022
         3        -0.0192     -0.0395     -0.0194      0.0023      0.0079
         4         0.0014      0.0035      0.0434      0.0019      0.0058
         5        -0.0040      0.0076      0.0775      0.0061      0.0182
         6         0.0032     -0.0028     -0.0081      0.0001      0.0002
         7         0.0268     -0.2275     -0.1065      0.0638      0.1801
         8         0.0225     -0.2187      0.1216      0.0631      0.1760
         9         0.1341      0.0218      0.0142      0.0187      0.0491
        10        -0.0258     -0.0532     -0.0016      0.0035      0.0090
        11         0.0045     -0.0095     -0.0474      0.0024      0.0059
        12         0.0018      0.0139     -0.0915      0.0086      0.0211
        13        -0.0157      0.0239     -0.0620      0.0047      0.0113
        14         0.0118     -0.0061      0.0070      0.0002      0.0005
        15        -0.0032     -0.0209      0.0155      0.0007      0.0016
 Ground to excited state transition magnetic dipole moments (Au):
       state          X           Y           Z
         1         0.0294      0.0576      0.7221
         2         0.0502      0.6120     -0.0400
         3        -0.0266      0.0274     -0.0622
         4        -0.2091     -0.1563     -0.0195
         5        -0.0828      0.2663      0.0243
         6         0.1662     -0.0785     -0.0009
         7        -0.0071      0.3465      0.0720
         8         0.2686     -0.1912      0.0138
         9        -0.2311     -0.1621     -0.0430
        10        -1.2594     -0.8111      0.0402
        11         0.0489     -0.3173     -0.0059
        12        -0.3344     -0.4450     -0.0057
        13         0.6957     -0.1594      0.0079
        14        -0.0069      0.3411      0.0369
        15         0.5488     -0.1175     -0.0145
 Ground to excited state transition velocity quadrupole moments (Au):
       state          XX          YY          ZZ          XY          XZ          YZ
         1        -0.2323      0.1903      0.0278      0.3213      0.0139      0.0033
         2         0.0065     -0.0001     -0.0110     -0.0274      0.1510      0.0575
         3         0.2192     -0.2643      0.0648     -0.1407      0.0044      0.0071
         4         0.0224     -0.0148     -0.0038     -0.0200      0.1444     -0.2016
         5        -0.0125     -0.0466      0.0267     -0.0239      0.0258     -0.0827
         6        -0.0214      0.0139     -0.0118      0.0045      0.0950      0.2005
         7         0.2693     -0.0805     -0.0415      0.2015     -0.0504      0.0223
         8         0.3093     -0.1259     -0.0342      0.1389      0.0337     -0.0824
         9        -0.1750      0.2114      0.0217      0.4874      0.0079      0.0137
        10         0.0671     -0.0693     -0.0078     -0.0463     -0.0819      0.0027
        11        -0.0084      0.0008     -0.0265     -0.0023      0.0213      0.0368
        12         0.0213      0.0304     -0.0094     -0.0362      0.2137     -0.3776
        13        -0.0067     -0.0158      0.0081     -0.0652     -0.0495      0.0492
        14         0.0029      0.0083     -0.0130      0.0602     -0.1939     -0.1056
        15         0.0082     -0.0078      0.0221      0.0183      0.1377      0.3329
 <0|del|b> * <b|rxdel|0> + <0|del|b> * <b|delr+rdel|0>
 Rotatory Strengths (R) in cgs (10**-40 erg-esu-cm/Gauss)
       state          XX          YY          ZZ    R(velocity)    E-M Angle
         1        37.1484      9.4499     -2.4514     14.7156       77.83
         2        -1.7226      0.9434      2.1744      0.4651       88.65
         3         5.4702     -2.0752     -1.0995      0.7652       79.59
         4        -4.4546     -0.8710     -0.0833     -1.8030       98.45
         5         2.9409      6.9939      3.5107      4.4818       78.84
         6         0.7079      1.8705     -0.2402      0.7794       62.92
         7      -178.7268     21.2508   -101.9931    -86.4897      165.80
         8       100.1894    -16.3251     62.5854     48.8166       53.33
         9         3.6406    -51.2121    -50.5240    -32.6985      154.27
        10        53.1172     44.1934    109.6078     68.9728       31.50
        11         4.7615      0.7402      3.7867      3.0961       76.94
        12        -6.9543     -5.3312     -4.1006     -5.4620       96.98
        13         1.1973    -20.8478    -19.4582    -13.0362      108.17
        14        -3.3158     -1.9039      0.3387     -1.6270      111.74
        15         6.6818     -4.1381     -1.3827      0.3870       88.18
 1/2[<0|r|b>*<b|rxdel|0> + (<0|rxdel|b>*<b|r|0>)*]
 Rotatory Strengths (R) in cgs (10**-40 erg-esu-cm/Gauss)
       state          XX          YY          ZZ     R(length)
         1       -18.7875     -2.6254     29.2697      2.6189
         2         4.0402     24.4726     -1.3909      9.0406
         3        -0.9445     -7.1043      1.9155     -2.0444
         4        -0.8984     -1.5647     -0.7822     -1.0818
         5         0.4211      8.0397      1.3131      3.2579
         6         0.3573     -2.0746      0.0429     -0.5581
         7        -0.0650   -265.5686     -0.6151    -88.7496
         8         5.6739    141.9286      0.3438     49.3154
         9      -110.5520    -11.2285     -2.5202    -41.4336
        10       141.2279    128.4392      2.5076     90.7249
        11         0.0947     11.5495      0.6211      4.0884
        12        -3.2128    -13.5736      0.2400     -5.5155
        13       -40.9637    -10.1432     -0.4402    -17.1824
        14        -0.2162     -4.4131     -5.3391     -3.3228
        15        -3.1008      4.2736      0.2437      0.4722
  1/2[<0|del|b>*<b|r|0> + (<0|r|b>*<b|del|0>)*] (Au)
       state          X           Y           Z        Dip. S.   Osc.(frdel)
         1        -0.0579      0.0005     -0.0009      0.0583      0.0389
         2        -0.0008     -0.0001     -0.0011      0.0020      0.0013
         3         0.0010     -0.0145     -0.0008      0.0144      0.0096
         4         0.0000      0.0000     -0.0025      0.0025      0.0017
         5         0.0000     -0.0003     -0.0059      0.0063      0.0042
         6         0.0000      0.0001     -0.0005      0.0004      0.0003
         7        -0.0003     -0.2466     -0.0013      0.2482      0.1655
         8        -0.0007     -0.2295     -0.0043      0.2345      0.1563
         9        -0.0907     -0.0021     -0.0012      0.0940      0.0627
        10        -0.0041     -0.0119      0.0001      0.0159      0.0106
        11         0.0000     -0.0005     -0.0070      0.0075      0.0050
        12         0.0000     -0.0006     -0.0054      0.0061      0.0040
        13        -0.0013     -0.0022     -0.0049      0.0084      0.0056
        14        -0.0005     -0.0001      0.0014     -0.0008     -0.0005
        15         0.0000     -0.0011      0.0004      0.0007      0.0005

 Excitation energies and oscillator strengths:
 
 Excited State   1:      Singlet-A      4.4209 eV  280.45 nm  f=0.0894  <S**2>=0.000
      12 -> 15         0.15227
      13 -> 14         0.67402
 This state for optimization and/or second-order correction.
 Total Energy, E(CIS) =  0.208415193245    
 Copying the excited state density for this state as the 1-particle RhoCI density.
 
 Excited State   2:      Singlet-A      4.7615 eV  260.39 nm  f=0.0022  <S**2>=0.000
      13 -> 15        -0.14025
      13 -> 16         0.66535
      13 -> 20        -0.11761
 
 Excited State   3:      Singlet-A      5.3102 eV  233.48 nm  f=0.0181  <S**2>=0.000
      12 -> 14        -0.37931
      13 -> 15         0.57684
      13 -> 16         0.12802
 
 Excited State   4:      Singlet-A      5.9705 eV  207.66 nm  f=0.0005  <S**2>=0.000
      12 -> 22        -0.12342
      13 -> 17         0.36944
      13 -> 18        -0.19391
      13 -> 19         0.28141
      13 -> 20        -0.15950
      13 -> 22         0.35589
      13 -> 23         0.14156
 
 Excited State   5:      Singlet-A      6.0506 eV  204.91 nm  f=0.0011  <S**2>=0.000
       7 -> 16        -0.15172
      12 -> 15        -0.14187
      12 -> 16         0.63557
      12 -> 17         0.10246
      12 -> 20        -0.11624
 
 Excited State   6:      Singlet-A      6.3264 eV  195.98 nm  f=0.0009  <S**2>=0.000
      12 -> 18         0.14239
      12 -> 21        -0.17364
      12 -> 23        -0.11746
      13 -> 18         0.38547
      13 -> 19         0.30379
      13 -> 21        -0.19218
      13 -> 22         0.18747
      13 -> 23        -0.25245
 
 Excited State   7:      Singlet-A      6.4291 eV  192.85 nm  f=0.1850  <S**2>=0.000
      10 -> 16        -0.10777
      12 -> 14         0.40774
      13 -> 15         0.26181
      13 -> 17         0.27809
      13 -> 18         0.23954
      13 -> 19        -0.24990
      13 -> 21        -0.11192
 
 Excited State   8:      Singlet-A      6.5067 eV  190.55 nm  f=0.1760  <S**2>=0.000
      10 -> 16        -0.10767
      12 -> 14         0.36818
      13 -> 15         0.24047
      13 -> 17        -0.29676
      13 -> 18        -0.24886
      13 -> 19         0.28123
      13 -> 21         0.10203
 
 Excited State   9:      Singlet-A      6.8928 eV  179.88 nm  f=0.0800  <S**2>=0.000
      11 -> 14         0.12885
      12 -> 15         0.64713
      12 -> 16         0.13721
      13 -> 14        -0.13502
 
 Excited State  10:      Singlet-A      7.0327 eV  176.30 nm  f=0.0143  <S**2>=0.000
       9 -> 14         0.12263
      10 -> 14        -0.23149
      11 -> 14         0.54637
      11 -> 15        -0.26063
      12 -> 15        -0.13092
 
 Excited State  11:      Singlet-A      7.3001 eV  169.84 nm  f=0.0044  <S**2>=0.000
       9 -> 14         0.10639
      10 -> 14        -0.25415
      10 -> 15        -0.11706
      11 -> 14        -0.11337
      12 -> 18         0.29276
      12 -> 23        -0.10068
      13 -> 17        -0.15837
      13 -> 18        -0.24617
      13 -> 19        -0.27420
      13 -> 21        -0.23430
      13 -> 22         0.20694
      13 -> 24         0.10509
 
 Excited State  12:      Singlet-A      7.3561 eV  168.55 nm  f=0.0010  <S**2>=0.000
      12 -> 18        -0.14175
      12 -> 19        -0.23575
      13 -> 17        -0.26124
      13 -> 18         0.20003
      13 -> 20         0.24014
      13 -> 21         0.13241
      13 -> 22         0.37628
      13 -> 23         0.16648
      13 -> 24        -0.12501
 
 Excited State  13:      Singlet-A      7.4816 eV  165.72 nm  f=0.0039  <S**2>=0.000
       8 -> 14        -0.10374
       9 -> 14        -0.19271
       9 -> 15        -0.20910
      10 -> 14         0.44113
      11 -> 14         0.23826
      12 -> 18         0.14100
      13 -> 18        -0.11946
      13 -> 19        -0.11003
      13 -> 21        -0.16357
      13 -> 22         0.14507
 
 Excited State  14:      Singlet-A      7.5490 eV  164.24 nm  f=0.0082  <S**2>=0.000
      12 -> 18        -0.12380
      12 -> 19         0.44371
      12 -> 20        -0.10486
      12 -> 21         0.16489
      12 -> 23        -0.13754
      13 -> 19         0.15841
      13 -> 20         0.29556
      13 -> 21        -0.13919
      13 -> 23         0.23509
 
 Excited State  15:      Singlet-A      7.7494 eV  159.99 nm  f=0.0006  <S**2>=0.000
       9 -> 14        -0.16348
      10 -> 14        -0.24425
      12 -> 17         0.29286
      12 -> 20         0.21583
      12 -> 22         0.14093
      13 -> 17         0.19483
      13 -> 20         0.32998
      13 -> 23        -0.23011
      13 -> 24         0.11169
 SavETr:  write IOETrn=   770 NScale= 10 NData=  16 NLR=1 NState=   15 LETran=     280.
 The selected state is a singlet
 CISAX will form     1 AO SS matrices at one time.
 NMat=     1 NSing=     1 JSym2X= 0.
 Leave Link  914 at Tue Dec 15 16:20:33 2015, MaxMem=    33554432 cpu:         0.1
 (Enter /home/Applications/g09/g09/l1002.exe)
 Minotr:  Closed shell wavefunction.
          Computing CIS/TD-HF/TD-KS derivatives.
          Using Z-Vector for PSCF gradient.
          Skipping F1 and S1 gradient terms here.
          IDoAtm=111111111
          Direct CPHF calculation.
          Differentiating once with respect to electric field.
                with respect to dipole field.
          Differentiating once with respect to nuclear coordinates.
          Electric field/nuclear overlap derivatives assumed to be zero.
          Requested convergence is 1.0D-10 RMS, and 1.0D-09 maximum.
          NewPWx=T KeepS1=F KeepF1=F KeepIn=T MapXYZ=F SortEE=F KeepMc=T.
          MDV=      33495423 using IRadAn=       0.
 Keep J ints in memory in canonical form, NReq=871704.
 FoFCou: FMM=F IPFlag=           0 FMFlag=           0 FMFlg1=           0
         NFxFlg=           0 DoJE=F BraDBF=F KetDBF=F FulRan=T
         wScrn=  0.000000 ICntrl=     600 IOpCl=  2 I1Cent=           0 NGrid=           0
         NMat0=    1 NMatS0=     54 NMatT0=    0 NMatD0=    1 NMtDS0=    0 NMtDT0=    0
 Symmetry not used in FoFCou.
          Solving linear equations separately, MaxMat=       0.
          There are     1 degrees of freedom in the 1st order CPHF.  IDoFFX=0 NUNeed=     1.
 LinEq1:  Iter=  0 NonCon=     1 RMS=1.28D-02 Max=1.04D-01 NDo=     1
 AX will form     1 AO Fock derivatives at one time.
 LinEq1:  Iter=  1 NonCon=     1 RMS=3.21D-03 Max=2.66D-02 NDo=     1
 LinEq1:  Iter=  2 NonCon=     1 RMS=4.35D-04 Max=2.02D-03 NDo=     1
 LinEq1:  Iter=  3 NonCon=     1 RMS=5.26D-05 Max=2.84D-04 NDo=     1
 LinEq1:  Iter=  4 NonCon=     1 RMS=6.47D-06 Max=4.08D-05 NDo=     1
 LinEq1:  Iter=  5 NonCon=     1 RMS=9.08D-07 Max=3.79D-06 NDo=     1
 LinEq1:  Iter=  6 NonCon=     1 RMS=1.40D-07 Max=7.09D-07 NDo=     1
 LinEq1:  Iter=  7 NonCon=     1 RMS=1.73D-08 Max=6.89D-08 NDo=     1
 LinEq1:  Iter=  8 NonCon=     1 RMS=1.99D-09 Max=6.16D-09 NDo=     1
 LinEq1:  Iter=  9 NonCon=     1 RMS=2.41D-10 Max=7.75D-10 NDo=     1
 LinEq1:  Iter= 10 NonCon=     0 RMS=2.99D-11 Max=9.29D-11 NDo=     1
 Linear equations converged to 1.000D-10 1.000D-09 after    10 iterations.
 End of Minotr F.D. properties file   721 does not exist.
 End of Minotr F.D. properties file   722 does not exist.
 End of Minotr F.D. properties file   788 does not exist.
 Leave Link 1002 at Tue Dec 15 16:20:33 2015, MaxMem=    33554432 cpu:         0.0
 (Enter /home/Applications/g09/g09/l601.exe)
 Copying SCF densities to generalized density rwf, IOpCl= 0 IROHF=0.

 **********************************************************************

            Population analysis using the SCF density.

 **********************************************************************

 Orbital symmetries:
       Occupied  (A) (A) (A) (A) (A) (A) (A) (A) (A) (A) (A) (A)
                 (A)
       Virtual   (A) (A) (A) (A) (A) (A) (A) (A) (A) (A) (A)
 The electronic state is 1-A.
 Alpha  occ. eigenvalues --   -1.57985  -1.25312  -1.10233  -0.81828  -0.80825
 Alpha  occ. eigenvalues --   -0.68350  -0.60292  -0.55888  -0.50894  -0.49731
 Alpha  occ. eigenvalues --   -0.49187  -0.40907  -0.34680
 Alpha virt. eigenvalues --    0.03268   0.07275   0.08846   0.13454   0.14918
 Alpha virt. eigenvalues --    0.15087   0.17074   0.18621   0.19229   0.20896
 Alpha virt. eigenvalues --    0.22332
     Molecular Orbital Coefficients:
                           1         2         3         4         5
                           O         O         O         O         O
     Eigenvalues --    -1.57985  -1.25312  -1.10233  -0.81828  -0.80825
   1 1   C  1S          0.31046  -0.41026  -0.37011  -0.27382  -0.26897
   2        1PX        -0.03714   0.09952  -0.16463   0.26458  -0.22343
   3        1PY        -0.13931   0.04530   0.07756  -0.20660  -0.01532
   4        1PZ        -0.00419   0.00616   0.00430  -0.00046   0.00259
   5 2   C  1S          0.40418  -0.01052  -0.48775   0.41693   0.05687
   6        1PX        -0.18318   0.00592  -0.00928   0.13028   0.03520
   7        1PY        -0.07053  -0.26713  -0.09260  -0.02899  -0.37491
   8        1PZ         0.00579   0.00343  -0.00447  -0.00558   0.00207
   9 3   O  1S          0.60181   0.61589   0.12324  -0.30370  -0.01970
  10        1PX        -0.02227   0.07672  -0.27269   0.08065   0.49453
  11        1PY         0.20235   0.01302  -0.09799   0.20539   0.12032
  12        1PZ        -0.00697  -0.00272  -0.00010  -0.01357  -0.00415
  13 4   C  1S          0.33699  -0.20230   0.51917   0.35237  -0.18904
  14        1PX         0.15207   0.08578  -0.00675  -0.16782  -0.15485
  15        1PY         0.06124  -0.19495   0.01401  -0.00852   0.34651
  16        1PZ         0.00163   0.00269   0.00056  -0.00893  -0.00660
  17 5   C  1S          0.31257  -0.48198   0.22918  -0.20500   0.37761
  18        1PX         0.10159  -0.07828  -0.15150  -0.16312  -0.17530
  19        1PY        -0.09236   0.02813  -0.18618  -0.31649   0.03979
  20        1PZ         0.00514  -0.00763   0.00262  -0.01147   0.00722
  21 6   H  1S          0.06219  -0.14163   0.08736  -0.11871   0.24104
  22 7   H  1S          0.07822  -0.05479   0.21687   0.23663  -0.16607
  23 8   H  1S          0.08044   0.01149  -0.17705   0.24792   0.07543
  24 9   H  1S          0.06118  -0.11840  -0.13499  -0.16310  -0.16388
                           6         7         8         9        10
                           O         O         O         O         O
     Eigenvalues --    -0.68350  -0.60292  -0.55888  -0.50894  -0.49731
   1 1   C  1S         -0.12988   0.00244   0.15784  -0.09550   0.06166
   2        1PX        -0.12792   0.02030  -0.10520  -0.34388  -0.32803
   3        1PY        -0.28705  -0.01766   0.18475  -0.27046  -0.18025
   4        1PZ        -0.00477   0.26173   0.00516  -0.00241  -0.01550
   5 2   C  1S         -0.07047  -0.00225  -0.11203   0.13842  -0.05623
   6        1PX        -0.36907  -0.01193  -0.36398   0.07666   0.16677
   7        1PY        -0.02079   0.01587  -0.27347  -0.02967  -0.02128
   8        1PZ         0.00373   0.43926   0.01301  -0.01045   0.01013
   9 3   O  1S         -0.19404   0.00244  -0.10643  -0.09332   0.07147
  10        1PX        -0.17272   0.00543   0.33124  -0.19206   0.23934
  11        1PY         0.44119   0.02947   0.31615   0.07261  -0.40824
  12        1PZ        -0.01042   0.75161  -0.02129  -0.00271   0.05313
  13 4   C  1S         -0.09456   0.00211   0.11054  -0.05191   0.04103
  14        1PX         0.33510  -0.01932  -0.33057   0.03250  -0.15565
  15        1PY         0.17062   0.00813  -0.23640  -0.46355   0.07630
  16        1PZ        -0.00187   0.33276  -0.01119   0.02979  -0.00712
  17 5   C  1S         -0.06768  -0.01219  -0.14981   0.07796  -0.00434
  18        1PX         0.23116  -0.02445   0.13234   0.12297   0.51254
  19        1PY        -0.17506  -0.00498   0.10432   0.48781  -0.21732
  20        1PZ        -0.00675   0.24277  -0.00530   0.03318  -0.02571
  21 6   H  1S         -0.20709   0.01659  -0.10913   0.21194  -0.44251
  22 7   H  1S         -0.27281   0.00601   0.36464   0.21896   0.07865
  23 8   H  1S         -0.24778  -0.01953  -0.28569   0.15758   0.10275
  24 9   H  1S         -0.25043  -0.00479   0.18318  -0.35369  -0.19369
                          11        12        13        14        15
                           O         O         O         V         V
     Eigenvalues --    -0.49187  -0.40907  -0.34680   0.03268   0.07275
   1 1   C  1S         -0.01877   0.01841  -0.00854  -0.00995   0.01149
   2        1PX        -0.21781  -0.00867   0.00711   0.01853  -0.01830
   3        1PY         0.44852  -0.01781   0.01328   0.00141   0.00544
   4        1PZ         0.01961   0.46916  -0.52601  -0.27172   0.59243
   5 2   C  1S         -0.00226  -0.00618   0.00341  -0.00008  -0.01236
   6        1PX         0.35500   0.00102  -0.02438   0.02149  -0.02536
   7        1PY        -0.36135  -0.00249   0.00255  -0.00176   0.02938
   8        1PZ         0.00353   0.00297  -0.55103   0.57141  -0.41217
   9 3   O  1S         -0.14308   0.00048   0.00473  -0.00398   0.02741
  10        1PX        -0.17416   0.01800   0.00875   0.00138  -0.05623
  11        1PY         0.28826  -0.04111   0.00547  -0.00642   0.04691
  12        1PZ         0.02192  -0.51496   0.17329  -0.36158   0.06001
  13 4   C  1S          0.10128   0.00570   0.00092   0.00448  -0.04598
  14        1PX         0.28594  -0.00732  -0.02324   0.00236  -0.07950
  15        1PY        -0.00851   0.02171   0.02113   0.00216   0.03383
  16        1PZ         0.02654   0.33124   0.57810   0.56159   0.35088
  17 5   C  1S         -0.01154  -0.02695  -0.01283   0.02691   0.03877
  18        1PX         0.20982   0.01749   0.00271  -0.00118  -0.04669
  19        1PY        -0.01414  -0.03582  -0.01242   0.02277   0.02505
  20        1PZ         0.01874   0.63176   0.22996  -0.38806  -0.56690
  21 6   H  1S         -0.14696  -0.00939  -0.00267  -0.02412  -0.07719
  22 7   H  1S         -0.08599  -0.00658   0.00113  -0.00184   0.02168
  23 8   H  1S          0.35136  -0.00407  -0.00851  -0.01049   0.04725
  24 9   H  1S          0.26403  -0.00618   0.01133  -0.00063  -0.01509
                          16        17        18        19        20
                           V         V         V         V         V
     Eigenvalues --     0.08846   0.13454   0.14918   0.15087   0.17074
   1 1   C  1S         -0.04665   0.21636  -0.30685  -0.11168  -0.04044
   2        1PX         0.09939   0.02580  -0.19347   0.34214  -0.37079
   3        1PY        -0.04994  -0.20408  -0.28878  -0.12291   0.01183
   4        1PZ         0.08755   0.00197  -0.00863   0.02132   0.01044
   5 2   C  1S          0.20636  -0.40003   0.12046  -0.18325   0.22793
   6        1PX         0.03444  -0.28589  -0.28264   0.27011   0.17948
   7        1PY        -0.27167  -0.11749  -0.10262   0.04599   0.06555
   8        1PZ        -0.07020   0.00147   0.02044  -0.02236   0.00362
   9 3   O  1S         -0.20361  -0.03521  -0.06456   0.06363   0.06151
  10        1PX         0.28840   0.13358  -0.17045   0.08839  -0.21538
  11        1PY        -0.37506  -0.04235  -0.19578   0.18781   0.05021
  12        1PZ         0.03433  -0.00035   0.00305  -0.00437  -0.00954
  13 4   C  1S          0.25657   0.09562  -0.27194  -0.32166  -0.01699
  14        1PX         0.47254   0.05669  -0.00845   0.20903  -0.32829
  15        1PY        -0.24514  -0.07380  -0.17630   0.09118   0.12516
  16        1PZ         0.06094   0.02532  -0.00196   0.01205   0.01179
  17 5   C  1S         -0.04013  -0.26796   0.19484   0.14404  -0.35833
  18        1PX         0.11019   0.06252  -0.11056   0.38199   0.19705
  19        1PY        -0.02106  -0.19952  -0.20828  -0.16030  -0.26423
  20        1PZ        -0.09316  -0.05076   0.01559  -0.01530  -0.05147
  21 6   H  1S          0.21768   0.41340  -0.11433   0.25847   0.50284
  22 7   H  1S         -0.14925  -0.10923   0.11316   0.52043  -0.11123
  23 8   H  1S         -0.36918   0.56127   0.13293  -0.07903  -0.26697
  24 9   H  1S          0.08393  -0.00519   0.60462   0.08060   0.13898
                          21        22        23        24
                           V         V         V         V
     Eigenvalues --     0.18621   0.19229   0.20896   0.22332
   1 1   C  1S         -0.32678   0.28686   0.20812  -0.07517
   2        1PX         0.16594   0.12799  -0.27688  -0.34152
   3        1PY        -0.27308  -0.37504  -0.37565   0.07940
   4        1PZ         0.01914  -0.01394  -0.01492   0.00605
   5 2   C  1S         -0.13200  -0.21135  -0.10452  -0.07642
   6        1PX         0.08305   0.42002   0.21906   0.13630
   7        1PY         0.20292  -0.28854  -0.08484   0.57381
   8        1PZ        -0.01422  -0.01771  -0.00687  -0.00858
   9 3   O  1S          0.06649   0.04614   0.00082   0.07336
  10        1PX         0.13203  -0.07491   0.06072   0.43536
  11        1PY         0.14098   0.19699   0.01242   0.24646
  12        1PZ        -0.00340  -0.00112   0.00069  -0.00949
  13 4   C  1S          0.34192  -0.05249   0.07242   0.02305
  14        1PX        -0.17650  -0.22973   0.26357   0.22356
  15        1PY         0.09272  -0.36508   0.39664  -0.33195
  16        1PZ        -0.00706  -0.00157  -0.00311   0.01540
  17 5   C  1S         -0.00004   0.16206  -0.32946   0.03168
  18        1PX         0.31168  -0.16009  -0.36703  -0.19203
  19        1PY         0.44113  -0.19875   0.23866  -0.23354
  20        1PZ         0.00422   0.00925  -0.00853  -0.00844
  21 6   H  1S         -0.02125  -0.10447  -0.09771  -0.01719
  22 7   H  1S         -0.30107  -0.28829   0.28999  -0.05217
  23 8   H  1S          0.04818  -0.18347  -0.08702   0.01326
  24 9   H  1S          0.37605   0.03595   0.18744   0.07242
     Density Matrix:
                           1         2         3         4         5
   1 1   C  1S          1.20896
   2        1PX         0.02553   0.91917
   3        1PY         0.08482   0.03458   0.98907
   4        1PZ         0.01623  -0.00285  -0.00829   1.13212
   5 2   C  1S          0.31107   0.30804  -0.42042  -0.01786   1.23668
   6        1PX        -0.22806  -0.07557   0.28922   0.03009   0.10780
   7        1PY         0.39712   0.39011  -0.38539  -0.01812   0.03211
   8        1PZ         0.02394   0.00311  -0.02217   0.81236  -0.00870
   9 3   O  1S          0.00277   0.03722   0.00179  -0.00609   0.11581
  10        1PX         0.03758  -0.04614   0.00471   0.00354   0.24052
  11        1PY        -0.08101  -0.01034   0.07161  -0.00818   0.37594
  12        1PZ        -0.00839   0.00120   0.00390  -0.27294  -0.01369
  13 4   C  1S         -0.02951   0.00030   0.02753   0.00832   0.01159
  14        1PX        -0.02327  -0.07357   0.01927   0.01582   0.02223
  15        1PY        -0.01433   0.07149  -0.00984  -0.00312  -0.03586
  16        1PZ         0.00018  -0.01010   0.00276  -0.12216   0.00257
  17 5   C  1S          0.28352  -0.46895  -0.08848  -0.02421  -0.02321
  18        1PX         0.43714  -0.58170  -0.13269  -0.01220  -0.01127
  19        1PY         0.16713  -0.27518   0.07092  -0.01655   0.00821
  20        1PZ         0.02030  -0.02116  -0.01213   0.47927  -0.00019
  21 6   H  1S         -0.04490   0.05321   0.01635   0.01030   0.05922
  22 7   H  1S          0.04959  -0.05998  -0.01832  -0.00528   0.04022
  23 8   H  1S         -0.06131  -0.05409   0.07662   0.00227   0.58230
  24 9   H  1S          0.56873   0.28418   0.73384  -0.00171  -0.05392
                           6         7         8         9        10
   6        1PX         0.96208
   7        1PY        -0.06385   0.86739
   8        1PZ         0.00514  -0.00157   0.99421
   9 3   O  1S         -0.16765  -0.23210   0.00850   1.86521
  10        1PX        -0.11747  -0.40962   0.01405   0.04857   1.19259
  11        1PY        -0.48740  -0.50482   0.02490  -0.28680  -0.06919
  12        1PZ         0.02732   0.02779   0.46697   0.01185  -0.00535
  13 4   C  1S          0.00990  -0.04263  -0.00117   0.07756  -0.34890
  14        1PX         0.04176   0.02404   0.00431   0.22492  -0.69238
  15        1PY        -0.00953  -0.01354  -0.00894  -0.08722   0.30430
  16        1PZ        -0.00825   0.00112  -0.34358   0.00743  -0.01313
  17 5   C  1S          0.01089  -0.01195  -0.00082  -0.00527   0.02235
  18        1PX        -0.01788  -0.06714  -0.00682  -0.03320  -0.00035
  19        1PY         0.00416  -0.03830   0.00030  -0.00426  -0.06018
  20        1PZ        -0.00156  -0.00739  -0.03753  -0.00340  -0.00088
  21 6   H  1S         -0.02747   0.05818  -0.00007   0.02743  -0.09590
  22 7   H  1S         -0.04889  -0.05319   0.00312  -0.03380   0.06290
  23 8   H  1S          0.74349  -0.15737  -0.01568  -0.04470  -0.02857
  24 9   H  1S          0.04433  -0.03945  -0.00626   0.02109   0.02329
                          11        12        13        14        15
  11        1PY         1.31918
  12        1PZ         0.02530   1.72852
  13 4   C  1S          0.13209  -0.00773   1.23950
  14        1PX         0.34143  -0.02338  -0.09384   0.82451
  15        1PY        -0.03767   0.01151  -0.03385   0.09082   0.93770
  16        1PZ         0.01077   0.36043   0.00262  -0.01312   0.01446
  17 5   C  1S         -0.06919   0.01204   0.32491   0.01611   0.47089
  18        1PX        -0.03528   0.00362  -0.04841   0.16497  -0.10257
  19        1PY         0.03355   0.00738  -0.52065  -0.02058  -0.59093
  20        1PZ        -0.00943  -0.20753   0.00545  -0.00763   0.01518
  21 6   H  1S          0.07094  -0.01086  -0.05795  -0.04090  -0.04648
  22 7   H  1S         -0.04628   0.00389   0.62808  -0.50007  -0.53727
  23 8   H  1S         -0.07109   0.00618   0.05872   0.12547  -0.03826
  24 9   H  1S          0.09589  -0.00099   0.05809   0.00472   0.06100
                          16        17        18        19        20
  16        1PZ         1.11311
  17 5   C  1S         -0.03575   1.20287
  18        1PX         0.01075  -0.05747   0.98089
  19        1PY        -0.00691   0.06270  -0.04059   0.94821
  20        1PZ         0.84955  -0.01649  -0.00073  -0.00364   1.02681
  21 6   H  1S          0.01456   0.54733  -0.62638   0.49590   0.03969
  22 7   H  1S         -0.00065  -0.05802   0.00804   0.09257  -0.00285
  23 8   H  1S          0.00307   0.04900   0.06299   0.02777   0.00131
  24 9   H  1S          0.00284  -0.04678  -0.05941  -0.01974  -0.00399
                          21        22        23        24
  21 6   H  1S          0.84248
  22 7   H  1S          0.00911   0.81744
  23 8   H  1S         -0.00965  -0.02181   0.81485
  24 9   H  1S         -0.01519  -0.01924   0.00307   0.83646
    Full Mulliken population analysis:
                           1         2         3         4         5
   1 1   C  1S          1.20896
   2        1PX         0.00000   0.91917
   3        1PY         0.00000   0.00000   0.98907
   4        1PZ         0.00000   0.00000   0.00000   1.13212
   5 2   C  1S          0.00000   0.00000   0.00000   0.00000   1.23668
   6        1PX         0.00000   0.00000   0.00000   0.00000   0.00000
   7        1PY         0.00000   0.00000   0.00000   0.00000   0.00000
   8        1PZ         0.00000   0.00000   0.00000   0.00000   0.00000
   9 3   O  1S          0.00000   0.00000   0.00000   0.00000   0.00000
  10        1PX         0.00000   0.00000   0.00000   0.00000   0.00000
  11        1PY         0.00000   0.00000   0.00000   0.00000   0.00000
  12        1PZ         0.00000   0.00000   0.00000   0.00000   0.00000
  13 4   C  1S          0.00000   0.00000   0.00000   0.00000   0.00000
  14        1PX         0.00000   0.00000   0.00000   0.00000   0.00000
  15        1PY         0.00000   0.00000   0.00000   0.00000   0.00000
  16        1PZ         0.00000   0.00000   0.00000   0.00000   0.00000
  17 5   C  1S          0.00000   0.00000   0.00000   0.00000   0.00000
  18        1PX         0.00000   0.00000   0.00000   0.00000   0.00000
  19        1PY         0.00000   0.00000   0.00000   0.00000   0.00000
  20        1PZ         0.00000   0.00000   0.00000   0.00000   0.00000
  21 6   H  1S          0.00000   0.00000   0.00000   0.00000   0.00000
  22 7   H  1S          0.00000   0.00000   0.00000   0.00000   0.00000
  23 8   H  1S          0.00000   0.00000   0.00000   0.00000   0.00000
  24 9   H  1S          0.00000   0.00000   0.00000   0.00000   0.00000
                           6         7         8         9        10
   6        1PX         0.96208
   7        1PY         0.00000   0.86739
   8        1PZ         0.00000   0.00000   0.99421
   9 3   O  1S          0.00000   0.00000   0.00000   1.86521
  10        1PX         0.00000   0.00000   0.00000   0.00000   1.19259
  11        1PY         0.00000   0.00000   0.00000   0.00000   0.00000
  12        1PZ         0.00000   0.00000   0.00000   0.00000   0.00000
  13 4   C  1S          0.00000   0.00000   0.00000   0.00000   0.00000
  14        1PX         0.00000   0.00000   0.00000   0.00000   0.00000
  15        1PY         0.00000   0.00000   0.00000   0.00000   0.00000
  16        1PZ         0.00000   0.00000   0.00000   0.00000   0.00000
  17 5   C  1S          0.00000   0.00000   0.00000   0.00000   0.00000
  18        1PX         0.00000   0.00000   0.00000   0.00000   0.00000
  19        1PY         0.00000   0.00000   0.00000   0.00000   0.00000
  20        1PZ         0.00000   0.00000   0.00000   0.00000   0.00000
  21 6   H  1S          0.00000   0.00000   0.00000   0.00000   0.00000
  22 7   H  1S          0.00000   0.00000   0.00000   0.00000   0.00000
  23 8   H  1S          0.00000   0.00000   0.00000   0.00000   0.00000
  24 9   H  1S          0.00000   0.00000   0.00000   0.00000   0.00000
                          11        12        13        14        15
  11        1PY         1.31918
  12        1PZ         0.00000   1.72852
  13 4   C  1S          0.00000   0.00000   1.23950
  14        1PX         0.00000   0.00000   0.00000   0.82451
  15        1PY         0.00000   0.00000   0.00000   0.00000   0.93770
  16        1PZ         0.00000   0.00000   0.00000   0.00000   0.00000
  17 5   C  1S          0.00000   0.00000   0.00000   0.00000   0.00000
  18        1PX         0.00000   0.00000   0.00000   0.00000   0.00000
  19        1PY         0.00000   0.00000   0.00000   0.00000   0.00000
  20        1PZ         0.00000   0.00000   0.00000   0.00000   0.00000
  21 6   H  1S          0.00000   0.00000   0.00000   0.00000   0.00000
  22 7   H  1S          0.00000   0.00000   0.00000   0.00000   0.00000
  23 8   H  1S          0.00000   0.00000   0.00000   0.00000   0.00000
  24 9   H  1S          0.00000   0.00000   0.00000   0.00000   0.00000
                          16        17        18        19        20
  16        1PZ         1.11311
  17 5   C  1S          0.00000   1.20287
  18        1PX         0.00000   0.00000   0.98089
  19        1PY         0.00000   0.00000   0.00000   0.94821
  20        1PZ         0.00000   0.00000   0.00000   0.00000   1.02681
  21 6   H  1S          0.00000   0.00000   0.00000   0.00000   0.00000
  22 7   H  1S          0.00000   0.00000   0.00000   0.00000   0.00000
  23 8   H  1S          0.00000   0.00000   0.00000   0.00000   0.00000
  24 9   H  1S          0.00000   0.00000   0.00000   0.00000   0.00000
                          21        22        23        24
  21 6   H  1S          0.84248
  22 7   H  1S          0.00000   0.81744
  23 8   H  1S          0.00000   0.00000   0.81485
  24 9   H  1S          0.00000   0.00000   0.00000   0.83646
     Gross orbital populations:
                           1
   1 1   C  1S          1.20896
   2        1PX         0.91917
   3        1PY         0.98907
   4        1PZ         1.13212
   5 2   C  1S          1.23668
   6        1PX         0.96208
   7        1PY         0.86739
   8        1PZ         0.99421
   9 3   O  1S          1.86521
  10        1PX         1.19259
  11        1PY         1.31918
  12        1PZ         1.72852
  13 4   C  1S          1.23950
  14        1PX         0.82451
  15        1PY         0.93770
  16        1PZ         1.11311
  17 5   C  1S          1.20287
  18        1PX         0.98089
  19        1PY         0.94821
  20        1PZ         1.02681
  21 6   H  1S          0.84248
  22 7   H  1S          0.81744
  23 8   H  1S          0.81485
  24 9   H  1S          0.83646
          Condensed to atoms (all electrons):
               1          2          3          4          5          6
     1  C    4.249318   0.000000   0.000000   0.000000   0.000000   0.000000
     2  C    0.000000   4.060358   0.000000   0.000000   0.000000   0.000000
     3  O    0.000000   0.000000   6.105491   0.000000   0.000000   0.000000
     4  C    0.000000   0.000000   0.000000   4.114822   0.000000   0.000000
     5  C    0.000000   0.000000   0.000000   0.000000   4.158785   0.000000
     6  H    0.000000   0.000000   0.000000   0.000000   0.000000   0.842481
     7  H    0.000000   0.000000   0.000000   0.000000   0.000000   0.000000
     8  H    0.000000   0.000000   0.000000   0.000000   0.000000   0.000000
     9  H    0.000000   0.000000   0.000000   0.000000   0.000000   0.000000
               7          8          9
     1  C    0.000000   0.000000   0.000000
     2  C    0.000000   0.000000   0.000000
     3  O    0.000000   0.000000   0.000000
     4  C    0.000000   0.000000   0.000000
     5  C    0.000000   0.000000   0.000000
     6  H    0.000000   0.000000   0.000000
     7  H    0.817439   0.000000   0.000000
     8  H    0.000000   0.814846   0.000000
     9  H    0.000000   0.000000   0.836460
 Mulliken charges:
               1
     1  C   -0.249318
     2  C   -0.060358
     3  O   -0.105491
     4  C   -0.114822
     5  C   -0.158785
     6  H    0.157519
     7  H    0.182561
     8  H    0.185154
     9  H    0.163540
 Sum of Mulliken charges =   0.00000
 Mulliken charges with hydrogens summed into heavy atoms:
               1
     1  C   -0.085778
     2  C    0.124796
     3  O   -0.105491
     4  C    0.067739
     5  C   -0.001266
 Charge=              0.0000 electrons
 Dipole moment (field-independent basis, Debye):
    X=             -0.0439    Y=              0.5281    Z=              0.0092  Tot=              0.5300
 N-N= 1.038500594592D+02 E-N=-1.717118437364D+02  KE=-1.657414513865D+01
 Orbital energies and kinetic energies (alpha):
                                 1                 2
   1         O                -1.579852         -1.333069
   2         O                -1.253122         -1.054501
   3         O                -1.102333         -0.961686
   4         O                -0.818283         -0.723212
   5         O                -0.808246         -0.690396
   6         O                -0.683497         -0.604611
   7         O                -0.602918         -0.491409
   8         O                -0.558880         -0.485561
   9         O                -0.508935         -0.437853
  10         O                -0.497306         -0.430178
  11         O                -0.491869         -0.413253
  12         O                -0.409073         -0.350487
  13         O                -0.346800         -0.310857
  14         V                 0.032684         -0.193535
  15         V                 0.072750         -0.184543
  16         V                 0.088461         -0.196314
  17         V                 0.134541         -0.246158
  18         V                 0.149182         -0.211627
  19         V                 0.150868         -0.190636
  20         V                 0.170742         -0.188144
  21         V                 0.186210         -0.155391
  22         V                 0.192291         -0.117024
  23         V                 0.208962         -0.117659
  24         V                 0.223318         -0.044285
 Total kinetic energy from orbitals=-1.657414513865D+01
 Leave Link  601 at Tue Dec 15 16:20:33 2015, MaxMem=    33554432 cpu:         0.0
 (Enter /home/Applications/g09/g09/l701.exe)
 Compute integral first derivatives.
 ... and contract with generalized density number  6.
 Leave Link  701 at Tue Dec 15 16:20:33 2015, MaxMem=    33554432 cpu:         0.0
 (Enter /home/Applications/g09/g09/l702.exe)
 L702 exits ... SP integral derivatives will be done elsewhere.
 Leave Link  702 at Tue Dec 15 16:20:33 2015, MaxMem=    33554432 cpu:         0.0
 (Enter /home/Applications/g09/g09/l703.exe)
 Compute integral first derivatives, UseDBF=F ICtDFT=           0.
 Integral derivatives from FoFJK, PRISM(SPDF).
 Calling FoFJK, ICntrl=  10005127 FMM=F ISym2X=0 I1Cent= 0 IOpClX= 0 NMat=1 NMatS=1 NMatT=0.
 FoFJK:  IHMeth= 8 ICntrl=10005127 DoSepK=F KAlg= 0 I1Cent=   0 FoldK=F
 IRaf=         0 NMat=   1 IRICut=       1 DoRegI=T DoRafI=F ISym2E= 0.
 FoFCou: FMM=F IPFlag=           0 FMFlag=      100000 FMFlg1=         800
         NFxFlg=           0 DoJE=F BraDBF=F KetDBF=F FulRan=T
         wScrn=  0.000000 ICntrl=10005127 IOpCl=  0 I1Cent=           0 NGrid=           0
         NMat0=    1 NMatS0=      1 NMatT0=    0 NMatD0=    1 NMtDS0=    0 NMtDT0=    0
 Symmetry not used in FoFCou.
 Leave Link  703 at Tue Dec 15 16:20:33 2015, MaxMem=    33554432 cpu:         0.0
 (Enter /home/Applications/g09/g09/l716.exe)
 Dipole        = 1.71295372D-01 3.74640786D-01-1.81938856D-02
 ***** Axes restored to original set *****
 -------------------------------------------------------------------
 Center     Atomic                   Forces (Hartrees/Bohr)
 Number     Number              X              Y              Z
 -------------------------------------------------------------------
      1        6           0.163225956   -0.031513307   -0.003648820
      2        6          -0.103004814   -0.157629959    0.001583025
      3        8          -0.102509559    0.062971466    0.002244788
      4        6          -0.098868274    0.016719572   -0.000897200
      5        6           0.195055210    0.040861337    0.010824959
      6        1          -0.021700094   -0.021938594   -0.007941802
      7        1          -0.029995550    0.047398215   -0.001732592
      8        1           0.014464785    0.023890337   -0.001759228
      9        1          -0.016667661    0.019240934    0.001326869
 -------------------------------------------------------------------
 Cartesian Forces:  Max     0.195055210 RMS     0.070204350
 Z-matrix is all fixed cartesians, so copy forces.
 Force constants in Cartesian coordinates: 
                1             2             3             4             5 
      1  0.943924D+00
      2  0.140849D-02  0.862877D+00
      3  0.977780D-02 -0.228870D-01  0.236338D+00
      4 -0.568951D+00 -0.119695D+00 -0.795507D-02  0.105067D+01
      5 -0.916567D-01 -0.223092D+00 -0.145976D-02 -0.627434D-01  0.916010D+00
      6 -0.100154D-01 -0.178898D-02 -0.115301D+00  0.123898D-02  0.109412D-01
      7 -0.843921D-02  0.303480D-01  0.892303D-03 -0.367006D+00  0.236835D+00
      8 -0.681674D-02  0.245205D-01  0.332032D-03  0.281943D+00 -0.451656D+00
      9 -0.651640D-03  0.581449D-03  0.105861D-01  0.847664D-02 -0.727856D-02
     10  0.136545D-01  0.508443D-04 -0.798658D-03  0.229093D-01  0.185422D-01
     11  0.363294D-01  0.123086D-03 -0.156553D-02 -0.168994D-01 -0.137062D-01
     12 -0.328906D-02  0.661604D-04 -0.572682D-02 -0.650680D-03 -0.890176D-03
     13 -0.178655D+00  0.163309D-01 -0.149129D-02  0.101214D-01 -0.366922D-01
     14 -0.120235D-01 -0.491770D+00  0.267618D-01  0.640733D-04 -0.253497D-03
     15 -0.123772D-02  0.238239D-01 -0.987942D-01  0.116656D-03 -0.918433D-03
     16  0.164866D-01  0.870621D-04 -0.831663D-04  0.225748D-04 -0.408285D-04
     17 -0.224776D-01 -0.263801D-03 -0.254365D-02 -0.890848D-05  0.161118D-04
     18  0.286929D-02  0.113879D-02  0.205612D-01 -0.165425D-03  0.299186D-03
     19  0.967263D-05  0.155342D-04  0.283472D-03  0.228155D-05  0.000000D+00
     20  0.123255D-04  0.197947D-04  0.361218D-03  0.294297D-05  0.106452D-05
     21  0.373356D-03  0.599609D-03  0.109418D-01  0.899434D-04  0.325339D-04
     22  0.700952D-02 -0.252533D-01 -0.351612D-03 -0.142753D+00 -0.823169D-01
     23 -0.359247D-02  0.129630D-01 -0.195137D-03 -0.764616D-01 -0.249670D+00
     24 -0.113093D-03 -0.116395D-02  0.290574D-01 -0.562875D-03 -0.150276D-02
     25 -0.225039D+00  0.967079D-01 -0.273783D-03 -0.501229D-02  0.180724D-01
     26  0.988167D-01 -0.185377D+00  0.119604D-02 -0.620148D-02  0.223507D-01
     27  0.228650D-02 -0.369998D-03 -0.876629D-01 -0.588175D-03  0.776765D-03
                6             7             8             9            10 
      6  0.209323D+00
      7  0.836041D-02  0.559457D+00
      8 -0.839287D-02 -0.142779D+00  0.685270D+00
      9 -0.498949D-01 -0.182211D-01 -0.281665D-02  0.552047D-01
     10 -0.144783D-02 -0.215787D+00 -0.141173D+00  0.945033D-02  0.989686D+00
     11  0.803037D-03 -0.977188D-01 -0.261376D+00  0.863426D-02 -0.186125D+00
     12 -0.277006D-02  0.881710D-02  0.109812D-01 -0.444532D-01 -0.133163D-01
     13  0.354278D-02 -0.103492D-01  0.765629D-02  0.952992D-03 -0.602979D+00
     14  0.213370D-03 -0.274934D-01  0.203470D-01  0.150529D-02  0.165051D+00
     15  0.297325D-02  0.145592D-02 -0.459375D-03  0.319667D-02  0.631103D-02
     16 -0.749932D-03 -0.410872D-05 -0.519071D-05 -0.159851D-03 -0.633986D-02
     17  0.295939D-03 -0.171656D-04 -0.216859D-04 -0.667832D-03  0.838458D-02
     18  0.549541D-02  0.175591D-03  0.221831D-03  0.683141D-02  0.902869D-03
     19  0.487425D-04  0.212949D-01 -0.156732D-01  0.148774D-03 -0.201154D+00
     20  0.628729D-04  0.114988D-01 -0.845649D-02  0.211006D-03  0.135262D+00
     21  0.192153D-02 -0.790700D-03  0.935364D-03  0.687011D-02 -0.157831D-02
     22 -0.960777D-03  0.208330D-01  0.168452D-01  0.101674D-03  0.160784D-05
     23 -0.228908D-02 -0.106734D-01 -0.862923D-02 -0.102741D-03 -0.425476D-05
     24 -0.765920D-01 -0.631309D-03 -0.592485D-03  0.391731D-02  0.265513D-03
     25 -0.169513D-04  0.000000D+00  0.263981D-05 -0.977773D-04  0.816438D-05
     26  0.154508D-03  0.000000D+00  0.178779D-05 -0.662187D-04  0.115873D-04
     27  0.248452D-01 -0.581716D-04 -0.209014D-03  0.774178D-02  0.211351D-03
               11            12            13            14            15 
     11  0.885983D+00
     12 -0.150450D-01  0.240953D+00
     13  0.140838D+00  0.132292D-01  0.972268D+00
     14 -0.257868D+00 -0.713439D-03 -0.648292D-01  0.882632D+00
     15 -0.868346D-03 -0.127911D+00  0.689233D-02 -0.140026D-01  0.239510D+00
     16 -0.167093D-01 -0.294971D-02 -0.218849D+00 -0.886463D-01 -0.131833D-01
     17  0.222418D-01 -0.115980D-03 -0.911442D-01 -0.168176D+00 -0.823240D-02
     18  0.126912D-02  0.315271D-01 -0.187849D-01 -0.122886D-01 -0.879873D-01
     19  0.140272D+00 -0.211421D-02  0.104758D-01  0.277891D-01 -0.139144D-03
     20 -0.375415D+00  0.546857D-02  0.565307D-02  0.149682D-01  0.699404D-03
     21  0.633698D-02 -0.103486D+00 -0.581678D-03 -0.299780D-02  0.407597D-01
     22  0.000000D+00  0.343496D-04  0.303379D-05 -0.548688D-05 -0.100782D-03
     23 -0.153901D-05 -0.908975D-04  0.138897D-05 -0.251208D-05 -0.461414D-04
     24  0.960399D-04  0.567234D-02 -0.227902D-03  0.412182D-03  0.757089D-02
     25  0.131120D-04  0.239270D-03  0.179637D-01  0.935339D-04 -0.114938D-03
     26  0.186092D-04  0.339585D-03  0.221858D-01  0.123486D-03  0.395346D-05
     27  0.339430D-03  0.619399D-02 -0.353156D-02  0.110983D-02  0.206821D-01
               16            17            18            19            20 
     16  0.208632D+00
     17  0.105243D+00  0.146181D+00
     18  0.156890D-01  0.102794D-01  0.461173D-01
     19  0.879102D-05  0.367275D-04 -0.375694D-03  0.169362D+00
     20  0.112021D-04  0.468004D-04 -0.478733D-03 -0.152441D+00  0.368835D+00
     21  0.339326D-03  0.141765D-02 -0.145015D-01  0.214806D-02 -0.632434D-02
     22  0.000000D+00  0.000000D+00  0.000000D+00  0.000000D+00  0.000000D+00
     23  0.000000D+00  0.000000D+00  0.000000D+00  0.000000D+00  0.000000D+00
     24  0.000000D+00  0.000000D+00  0.000000D+00  0.000000D+00  0.000000D+00
     25  0.424027D-04 -0.167330D-04 -0.310722D-03  0.000000D+00  0.000000D+00
     26  0.601801D-04 -0.237483D-04 -0.440992D-03  0.000000D+00  0.000000D+00
     27  0.109768D-02 -0.433167D-03 -0.804365D-02  0.000000D+00  0.000000D+00
               21            22            23            24            25 
     21  0.574940D-01
     22  0.000000D+00  0.114907D+00
     23  0.000000D+00  0.907312D-01  0.245341D+00
     24  0.000000D+00  0.113111D-02  0.265713D-02  0.413449D-01
     25  0.000000D+00 -0.184447D-05  0.000000D+00  0.138559D-03  0.212038D+00
     26  0.000000D+00 -0.124915D-05  0.000000D+00  0.938376D-04 -0.114872D+00
     27  0.000000D+00  0.146041D-03  0.668622D-04 -0.109708D-01  0.436342D-03
               26            27 
     26  0.162907D+00
     27 -0.128071D-02  0.472142D-01
 Leave Link  716 at Tue Dec 15 16:20:33 2015, MaxMem=    33554432 cpu:         0.0
 (Enter /home/Applications/g09/g09/l103.exe)

 GradGradGradGradGradGradGradGradGradGradGradGradGradGradGradGradGradGrad
 Berny optimization.
 Search for a local minimum.
 Step number   1 out of a maximum of    2
 All quantities printed in internal units (Hartrees-Bohrs-Radians)
 Second derivative matrix not updated -- first step.
 ITU=  0
     Eigenvalues ---    0.02321   0.03171   0.06559   0.06982   0.07959
     Eigenvalues ---    0.08876   0.12968   0.16104   0.16847   0.23486
     Eigenvalues ---    0.24919   0.35630   0.41773   0.45807   0.63118
     Eigenvalues ---    0.72209   1.08937   1.30230   1.49388   1.78709
     Eigenvalues ---    1.83860
 Quadratic step=5.048D-01 exceeds max=3.000D-01 adjusted using Lamda=-2.653D-01.
 Angle between NR and scaled steps=  21.62 degrees.
 Angle between quadratic step and forces=  24.01 degrees.
 Linear search not attempted -- first point.
 TrRot= -0.002551 -0.003540  0.001372  0.767566 -0.000563 -0.768522
 Variable       Old X    -DE/DX   Delta X   Delta X   Delta X     New X
                                 (Linear)    (Quad)   (Total)
    X1        1.73608   0.16323   0.00000   0.12164   0.11776   1.85384
    Y1       -1.32856  -0.03151   0.00000  -0.03539  -0.04073  -1.36929
    Z1        0.05526  -0.00365   0.00000  -0.00975  -0.00816   0.04710
    X2       -0.68267  -0.10300   0.00000  -0.07315  -0.07772  -0.76039
    Y2       -1.99942  -0.15763   0.00000  -0.09770  -0.10053  -2.09995
    Z2        0.01898   0.00158   0.00000   0.00679   0.00704   0.02601
    X3       -2.22716  -0.10251   0.00000  -0.12610  -0.12874  -2.35590
    Y3       -0.08953   0.06297   0.00000   0.02181   0.02049  -0.06904
    Z3        0.05893   0.00224   0.00000   0.00129   0.00169   0.06062
    X4       -0.58381  -0.09887   0.00000  -0.04417  -0.04463  -0.62844
    Y4        2.14218   0.01672   0.00000   0.02251   0.01960   2.16177
    Z4       -0.05577  -0.00090   0.00000  -0.00281  -0.00085  -0.05662
    X5        1.72162   0.19506   0.00000   0.15533   0.15406   1.87569
    Y5        1.27293   0.04086   0.00000   0.04359   0.03828   1.31121
    Z5       -0.08680   0.01082   0.00000   0.01767   0.02032  -0.06649
    X6        3.45591  -0.02170   0.00000   0.03042   0.03029   3.48620
    Y6        2.56630  -0.02194   0.00000   0.00143  -0.00547   2.56083
    Z6        0.08022  -0.00794   0.00000  -0.01393  -0.01014   0.07007
    X7       -1.49599  -0.03000   0.00000  -0.06865  -0.06743  -1.56341
    Y7        3.82926   0.04740   0.00000   0.08150   0.07949   3.90875
    Z7       -0.08784  -0.00173   0.00000  -0.00858  -0.00631  -0.09414
    X8       -1.66951   0.01446   0.00000  -0.00313  -0.00943  -1.67894
    Y8       -3.92413   0.02389   0.00000  -0.01137  -0.01331  -3.93743
    Z8       -0.00589  -0.00176   0.00000  -0.00344  -0.00428  -0.01017
    X9        3.39754  -0.01667   0.00000   0.03095   0.02583   3.42337
    Y9       -2.67232   0.01924   0.00000   0.00900   0.00216  -2.67016
    Z9        0.06475   0.00133   0.00000  -0.00102   0.00069   0.06545
         Item               Value     Threshold  Converged?
 Maximum Force            0.195055     0.000450     NO 
 RMS     Force            0.070204     0.000300     NO 
 Maximum Displacement     0.154064     0.001800     NO 
 RMS     Displacement     0.057635     0.001200     NO 
 Predicted change in Energy=-6.192647D-02
 GradGradGradGradGradGradGradGradGradGradGradGradGradGradGradGradGradGrad

 Leave Link  103 at Tue Dec 15 16:20:33 2015, MaxMem=    33554432 cpu:         0.0
 (Enter /home/Applications/g09/g09/l9999.exe)
 1\1\GINC-DUSTIN-DESKTOP\Force\RAM1-FC\STO-3G\C4H4O1\DUSTIN\15-Dec-2015
 \0\\#P AM1(Input,print) CIS(Singlets,NStates=15) pop(full) force\\AM1-
 Reparam Input\\0,1\C,0.918693,-0.703043,0.029244\C,-0.361253,-1.058048
 ,0.010042\O,-1.178564,-0.047378,0.031187\C,-0.308938,1.133591,-0.02951
 4\C,0.911044,0.673604,-0.045935\H,1.82879,1.358025,0.042448\H,-0.79164
 2,2.026356,-0.046481\H,-0.883466,-2.076559,-0.003117\H,1.797901,-1.414
 131,0.034266\\Version=ES64L-G09RevD.01\State=1-A\HF=0.0459509\RMSD=3.7
 83e-09\RMSF=7.020e-02\Dipole=0.3110044,-0.270371,-0.0143044\PG=C01 [X(
 C4H4O1)]\\@


 WE HAVE LEARNED THAT NOTHING IS SIMPLE AND
 RATIONAL EXCEPT WHAT WE OURSELVES HAVE INVENTED;
 THAT GOD THINKS IN TERMS NEITHER OF EUCLID OR RIEMANN; THAT SCIENCE HAS "EXPLAINED" NOTHING;
 THAT THE MORE WE KNOW THE MORE FANTASTIC THE WORLD BECOMES
 AND THE PROFOUNDER THE SURROUNDING DARKNESS.
   --  ALDOUS HUXLEY
 Job cpu time:       0 days  0 hours  0 minutes  0.4 seconds.
 File lengths (MBytes):  RWF=      7 Int=      0 D2E=      0 Chk=      2 Scr=      1
 Normal termination of Gaussian 09 at Tue Dec 15 16:20:33 2015.
