 Entering Gaussian System, Link 0=g09
 Input=FuranAM1_12.com
 Output=FuranAM1_12.log
 Initial command:
 /home/Applications/g09/g09/l1.exe "/home/Applications/g09/scratch/Gau-5537.inp" -scrdir="/home/Applications/g09/scratch/"
 Entering Link 1 = /home/Applications/g09/g09/l1.exe PID=      5539.
  
 Copyright (c) 1988,1990,1992,1993,1995,1998,2003,2009,2013,
            Gaussian, Inc.  All Rights Reserved.
  
 This is part of the Gaussian(R) 09 program.  It is based on
 the Gaussian(R) 03 system (copyright 2003, Gaussian, Inc.),
 the Gaussian(R) 98 system (copyright 1998, Gaussian, Inc.),
 the Gaussian(R) 94 system (copyright 1995, Gaussian, Inc.),
 the Gaussian 92(TM) system (copyright 1992, Gaussian, Inc.),
 the Gaussian 90(TM) system (copyright 1990, Gaussian, Inc.),
 the Gaussian 88(TM) system (copyright 1988, Gaussian, Inc.),
 the Gaussian 86(TM) system (copyright 1986, Carnegie Mellon
 University), and the Gaussian 82(TM) system (copyright 1983,
 Carnegie Mellon University). Gaussian is a federally registered
 trademark of Gaussian, Inc.
  
 This software contains proprietary and confidential information,
 including trade secrets, belonging to Gaussian, Inc.
  
 This software is provided under written license and may be
 used, copied, transmitted, or stored only in accord with that
 written license.
  
 The following legend is applicable only to US Government
 contracts under FAR:
  
                    RESTRICTED RIGHTS LEGEND
  
 Use, reproduction and disclosure by the US Government is
 subject to restrictions as set forth in subparagraphs (a)
 and (c) of the Commercial Computer Software - Restricted
 Rights clause in FAR 52.227-19.
  
 Gaussian, Inc.
 340 Quinnipiac St., Bldg. 40, Wallingford CT 06492
  
  
 ---------------------------------------------------------------
 Warning -- This program may not be used in any manner that
 competes with the business of Gaussian, Inc. or will provide
 assistance to any competitor of Gaussian, Inc.  The licensee
 of this program is prohibited from giving any competitor of
 Gaussian, Inc. access to this program.  By using this program,
 the user acknowledges that Gaussian, Inc. is engaged in the
 business of creating and licensing software in the field of
 computational chemistry and represents and warrants to the
 licensee that it is not a competitor of Gaussian, Inc. and that
 it will not use this program in any manner prohibited above.
 ---------------------------------------------------------------
  

 Cite this work as:
 Gaussian 09, Revision D.01,
 M. J. Frisch, G. W. Trucks, H. B. Schlegel, G. E. Scuseria, 
 M. A. Robb, J. R. Cheeseman, G. Scalmani, V. Barone, B. Mennucci, 
 G. A. Petersson, H. Nakatsuji, M. Caricato, X. Li, H. P. Hratchian, 
 A. F. Izmaylov, J. Bloino, G. Zheng, J. L. Sonnenberg, M. Hada, 
 M. Ehara, K. Toyota, R. Fukuda, J. Hasegawa, M. Ishida, T. Nakajima, 
 Y. Honda, O. Kitao, H. Nakai, T. Vreven, J. A. Montgomery, Jr., 
 J. E. Peralta, F. Ogliaro, M. Bearpark, J. J. Heyd, E. Brothers, 
 K. N. Kudin, V. N. Staroverov, T. Keith, R. Kobayashi, J. Normand, 
 K. Raghavachari, A. Rendell, J. C. Burant, S. S. Iyengar, J. Tomasi, 
 M. Cossi, N. Rega, J. M. Millam, M. Klene, J. E. Knox, J. B. Cross, 
 V. Bakken, C. Adamo, J. Jaramillo, R. Gomperts, R. E. Stratmann, 
 O. Yazyev, A. J. Austin, R. Cammi, C. Pomelli, J. W. Ochterski, 
 R. L. Martin, K. Morokuma, V. G. Zakrzewski, G. A. Voth, 
 P. Salvador, J. J. Dannenberg, S. Dapprich, A. D. Daniels, 
 O. Farkas, J. B. Foresman, J. V. Ortiz, J. Cioslowski, 
 and D. J. Fox, Gaussian, Inc., Wallingford CT, 2013.
 
 ******************************************
 Gaussian 09:  ES64L-G09RevD.01 24-Apr-2013
                15-Dec-2015 
 ******************************************
 ------------------------------------------------------------
 #P AM1(Input,print) CIS(Singlets,NStates=15) pop(full) force
 ------------------------------------------------------------
 1/10=7,30=1,38=1/1,3;
 2/12=2,17=6,18=5,40=1/2;
 3/5=2,16=1,25=1,41=700000,71=1,135=100,136=1/1,2,8,3;
 4/35=1/1;
 5/5=2,35=1,38=5/2;
 8/6=1,10=1,108=15/1;
 9/15=2,41=15,42=1,48=1,49=10/14;
 10/5=4/2;
 6/7=3,18=1/1;
 7/12=6,13=5,29=1/1,2,3,16;
 1/10=7,30=1/3;
 99//99;
 Leave Link    1 at Tue Dec 15 16:12:57 2015, MaxMem=           0 cpu:         0.0
 (Enter /home/Applications/g09/g09/l101.exe)
 -----------------
 AM1-Reparam Input
 -----------------
 Symbolic Z-matrix:
 Charge =  0 Multiplicity = 1
 6                     0.91477  -0.70406  -0.00251 
 6                    -0.31941  -1.07223   0.00278 
 8                    -1.16233  -0.02503   0.01809 
 6                    -0.35226   1.11579   0.01818 
 6                     0.96011   0.71435   0.00276 
 1                     1.77564   1.33569  -0.03249 
 1                    -0.80082   2.08179   0.0471 
 1                    -0.83532  -1.99992  -0.00884 
 1                     1.80753  -1.34696   0.00343 
 
 NAtoms=      9 NQM=        9 NQMF=       0 NMMI=      0 NMMIF=      0
                NMic=       0 NMicF=      0.
                    Isotopes and Nuclear Properties:
 (Nuclear quadrupole moments (NQMom) in fm**2, nuclear magnetic moments (NMagM)
  in nuclear magnetons)

  Atom         1           2           3           4           5           6           7           8           9
 IAtWgt=          12          12          16          12          12           1           1           1           1
 AtmWgt=  12.0000000  12.0000000  15.9949146  12.0000000  12.0000000   1.0078250   1.0078250   1.0078250   1.0078250
 NucSpn=           0           0           0           0           0           1           1           1           1
 AtZEff=   0.0000000   0.0000000   0.0000000   0.0000000   0.0000000   0.0000000   0.0000000   0.0000000   0.0000000
 NQMom=    0.0000000   0.0000000   0.0000000   0.0000000   0.0000000   0.0000000   0.0000000   0.0000000   0.0000000
 NMagM=    0.0000000   0.0000000   0.0000000   0.0000000   0.0000000   2.7928460   2.7928460   2.7928460   2.7928460
 AtZNuc=   6.0000000   6.0000000   8.0000000   6.0000000   6.0000000   1.0000000   1.0000000   1.0000000   1.0000000
 Leave Link  101 at Tue Dec 15 16:12:57 2015, MaxMem=    33554432 cpu:         0.0
 (Enter /home/Applications/g09/g09/l103.exe)

 GradGradGradGradGradGradGradGradGradGradGradGradGradGradGradGradGradGrad
 Berny optimization.
 Initialization pass.
 Trust Radius=3.00D-01 FncErr=1.00D-07 GrdErr=1.00D-07
 Number of steps in this run=      2 maximum allowed number of steps=      2.
 GradGradGradGradGradGradGradGradGradGradGradGradGradGradGradGradGradGrad

 Leave Link  103 at Tue Dec 15 16:12:57 2015, MaxMem=    33554432 cpu:         0.0
 (Enter /home/Applications/g09/g09/l202.exe)
                          Input orientation:                          
 ---------------------------------------------------------------------
 Center     Atomic      Atomic             Coordinates (Angstroms)
 Number     Number       Type             X           Y           Z
 ---------------------------------------------------------------------
      1          6           0        0.914771   -0.704061   -0.002510
      2          6           0       -0.319413   -1.072232    0.002775
      3          8           0       -1.162329   -0.025031    0.018094
      4          6           0       -0.352258    1.115789    0.018178
      5          6           0        0.960111    0.714346    0.002755
      6          1           0        1.775637    1.335691   -0.032492
      7          1           0       -0.800824    2.081787    0.047104
      8          1           0       -0.835319   -1.999924   -0.008835
      9          1           0        1.807528   -1.346964    0.003429
 ---------------------------------------------------------------------
                    Distance matrix (angstroms):
                    1          2          3          4          5
     1  C    0.000000
     2  C    1.287939   0.000000
     3  O    2.185372   1.344385   0.000000
     4  C    2.217576   2.188322   1.399173   0.000000
     5  C    1.419141   2.197508   2.247591   1.372482   0.000000
     6  H    2.214176   3.191954   3.238173   2.139827   1.025863
     7  H    3.272106   3.190855   2.137805   1.065458   2.229967
     8  H    2.177640   1.061558   2.001965   3.153053   3.254376
     9  H    1.100170   2.144611   3.250811   3.275675   2.228703
                    6          7          8          9
     6  H    0.000000
     7  H    2.683495   0.000000
     8  H    4.236033   4.082240   0.000000
     9  H    2.683085   4.308334   2.722342   0.000000
 Stoichiometry    C4H4O
 Framework group  C1[X(C4H4O)]
 Deg. of freedom    21
 Full point group                 C1      NOp   1
 Largest Abelian subgroup         C1      NOp   1
 Largest concise Abelian subgroup C1      NOp   1
                         Standard orientation:                         
 ---------------------------------------------------------------------
 Center     Atomic      Atomic             Coordinates (Angstroms)
 Number     Number       Type             X           Y           Z
 ---------------------------------------------------------------------
      1          6           0       -0.649419    0.961871   -0.002631
      2          6           0       -1.095568   -0.246318    0.001723
      3          8           0       -0.104229   -1.154401    0.000617
      4          6           0        1.085947   -0.418762   -0.000511
      5          6           0        0.768999    0.916622    0.000003
      6          1           0        1.440928    1.691179    0.031100
      7          1           0        2.021488   -0.928274   -0.019471
      8          1           0       -2.054341   -0.701881    0.012815
      9          1           0       -1.233998    1.893702   -0.020884
 ---------------------------------------------------------------------
 Rotational constants (GHZ):      9.5964214      9.4703737      4.7666775
 Leave Link  202 at Tue Dec 15 16:12:57 2015, MaxMem=    33554432 cpu:         0.0
 (Enter /home/Applications/g09/g09/l301.exe)

 Semi-emprical parameters in input format:
 Method=8 CoreType=1 PeptideFC=0.0114510000 RIJScale=0.5291770000
 ****
 H       
 PQN=1 NValence=1 F0ss=0.4721550000 ZetaOverlap=1.1880780000 U=-0.4188110000
 Beta=-0.2268830000 CoreKO=1.0589200000 KON=0,0,0,1.0589200000 KON=1,0,1,1.0589200000
 KON=0,1,1,1.0589200000 KON=2,1,1,1.0589200000 EISol=-0.4188110042 EHeat=0.0830298228
 Alpha=1.5252600000
 GCore=0.0085280000,1.4001430000,2.2676710000
 GCore=0.0003530000,1.4001430000,3.4015070000
 GCore=-0.0012730000,0.5600570000,3.9684250000
 ****
 C       
 PQN=2,2 NValence=4 F0ss=0.4494440000 F0sp=0.4215150000 F0pp=0.3768030000 F2pp=0.1898720000
 G1sp=0.2679030000
 ZetaOverlap=1.8086650000,1.6851160000
 U=-1.9120180000,-1.4557970000
 Beta=-0.5775440000,-0.2836780000 DDN=0,1,0.8236740000 DDN=1,1,0.7268010000
 CoreKO=1.1124280000 KON=0,0,0,1.1124280000 KON=1,0,1,0.8219700000 KON=0,1,1,1.1124280000
 KON=2,1,1,0.7783930000 EISol=-4.4398989268 EHeat=0.2723305520 Alpha=1.4014060000
 DipHyp=1.6472532266
 GCore=0.0007890000,1.4001430000,3.0235620000
 GCore=0.0031890000,1.4001430000,3.4959930000
 GCore=-0.0013930000,1.4001430000,3.8739390000
 GCore=-0.0000880000,1.4001430000,5.0077740000
 ****
 O       
 PQN=2,2 NValence=6 F0ss=0.5666750000 F0sp=0.5321300000 F0pp=0.4958710000 F2pp=0.2358080000
 G1sp=0.4343770000
 ZetaOverlap=3.1080320000,2.5240390000
 U=-3.5951870000,-2.8760900000
 Beta=-1.0757550000,-1.0757550000 DDN=0,1,0.4988900000 DDN=1,1,0.4852320000
 CoreKO=0.8822960000 KON=0,0,0,0.8822960000 KON=1,0,1,0.5019540000 KON=0,1,1,0.8822960000
 KON=2,1,1,0.5515580000 EISol=-11.6164441184 EHeat=0.0949133088 Alpha=2.3576810000
 DipHyp=0.9977225968
 GCore=0.0195120000,1.4001430000,1.6023330000
 GCore=0.0056550000,1.9602000000,2.7307880000
 ****
 
 Standard basis: VSTO-6G (5D, 7F)
 Ernie: Thresh=  0.10000D-02 Tol=  0.10000D-05 Strict=F.
  NNHCO=     0 NNPyr=     0 NCTC=     0               EPep=         0.000000000
    EC=        69.108531798  ECS=         1.906513661   EG=         0.352429788
   EHC=         0.000000000  EAt=       -31.051283842  AtH=         1.516354808
 EPDDG=         0.000000000  ECC=        71.367475247 EAtT=        32.567638650
 There are    24 symmetry adapted cartesian basis functions of A   symmetry.
 There are    24 symmetry adapted basis functions of A   symmetry.
    24 basis functions,   144 primitive gaussians,    24 cartesian basis functions
    13 alpha electrons       13 beta electrons
       nuclear repulsion energy       103.9351138971 Hartrees.
 IExCor=    0 DFT=F Ex=HF Corr=None ExCW=0 ScaHFX=  1.000000
 ScaDFX=  1.000000  1.000000  1.000000  1.000000 ScalE2=  1.000000  1.000000
 IRadAn=      0 IRanWt=     -1 IRanGd=            0 ICorTp=0 IEmpDi=  4
 Integral buffers will be    131072 words long.
 Regular integral format.
 Two-electron integral symmetry is turned off.
 Leave Link  301 at Tue Dec 15 16:12:57 2015, MaxMem=    33554432 cpu:         0.0
 (Enter /home/Applications/g09/g09/l302.exe)
 Do NDO integrals.
 NPDir=0 NMtPBC=     1 NCelOv=     1 NCel=       1 NClECP=     1 NCelD=      1
         NCelK=      1 NCelE2=     1 NClLst=     1 CellRange=     0.0.
 One-electron integrals computed using PRISM.
 NBasis=    24 RedAO= F EigKep=  0.00D+00  NBF=    24
 NBsUse=    24 1.00D-04 EigRej=  0.00D+00 NBFU=    24
 Leave Link  302 at Tue Dec 15 16:12:57 2015, MaxMem=    33554432 cpu:         0.0
 (Enter /home/Applications/g09/g09/l308.exe)
 Leave Link  308 at Tue Dec 15 16:12:57 2015, MaxMem=    33554432 cpu:         0.0
 (Enter /home/Applications/g09/g09/l303.exe)
 DipDrv:  MaxL=1.
 Leave Link  303 at Tue Dec 15 16:12:57 2015, MaxMem=    33554432 cpu:         0.0
 (Enter /home/Applications/g09/g09/l401.exe)
 Simple Huckel Guess.
 JPrj=0 DoOrth=F DoCkMO=F.
 Leave Link  401 at Tue Dec 15 16:12:57 2015, MaxMem=    33554432 cpu:         0.0
 (Enter /home/Applications/g09/g09/l502.exe)
 Closed shell SCF:
 Using DIIS extrapolation, IDIIS=  1040.
 Overlap will be assumed to be unity.
 Two-electron integral symmetry not used.
 Keep J ints in memory in canonical form, NReq=888082.
 IVT=       79475 IEndB=       79475 NGot=    33554432 MDV=    33473473
 LenX=    33473473 LenY=    33472456
 Requested convergence on RMS density matrix=1.00D-08 within 128 cycles.
 Requested convergence on MAX density matrix=1.00D-06.
 Requested convergence on             energy=1.00D-06.
 No special actions if energy rises.
 FoFCou: FMM=F IPFlag=           0 FMFlag=           0 FMFlg1=           0
         NFxFlg=           0 DoJE=F BraDBF=F KetDBF=F FulRan=T
         wScrn=  0.000000 ICntrl=     600 IOpCl=  2 I1Cent=           0 NGrid=           0
         NMat0=    1 NMatS0=     54 NMatT0=    0 NMatD0=    1 NMtDS0=    0 NMtDT0=    0
 Symmetry not used in FoFCou.

 Cycle   1  Pass 1  IDiag  1:
 E= 0.340730838336299    
 DIIS: error= 5.55D-02 at cycle   1 NSaved=   1.
 NSaved= 1 IEnMin= 1 EnMin= 0.340730838336299     IErMin= 1 ErrMin= 5.55D-02
 ErrMax= 5.55D-02  0.00D+00 EMaxC= 1.00D-01 BMatC= 1.12D-01 BMatP= 1.12D-01
 IDIUse=3 WtCom= 4.45D-01 WtEn= 5.55D-01
 Coeff-Com:  0.100D+01
 Coeff-En:   0.100D+01
 Coeff:      0.100D+01
 GapD=    2.000 DampG=2.000 DampE=0.500 DampFc=1.0000 IDamp=-1.
 RMSDP=1.94D-02 MaxDP=1.62D-01              OVMax= 0.00D+00

 Cycle   2  Pass 1  IDiag  1:
 E= 0.603214416883304E-01 Delta-E=       -0.280409396648 Rises=F Damp=F
 DIIS: error= 2.05D-02 at cycle   2 NSaved=   2.
 NSaved= 2 IEnMin= 2 EnMin= 0.603214416883304E-01 IErMin= 2 ErrMin= 2.05D-02
 ErrMax= 2.05D-02  0.00D+00 EMaxC= 1.00D-01 BMatC= 9.67D-03 BMatP= 1.12D-01
 IDIUse=3 WtCom= 7.95D-01 WtEn= 2.05D-01
 Coeff-Com: -0.359D+00 0.136D+01
 Coeff-En:   0.000D+00 0.100D+01
 Coeff:     -0.285D+00 0.129D+01
 RMSDP=8.20D-03 MaxDP=7.71D-02 DE=-2.80D-01 OVMax= 0.00D+00

 Cycle   3  Pass 1  IDiag  1:
 E= 0.295455934824815E-01 Delta-E=       -0.030775848206 Rises=F Damp=F
 DIIS: error= 3.53D-03 at cycle   3 NSaved=   3.
 NSaved= 3 IEnMin= 3 EnMin= 0.295455934824815E-01 IErMin= 3 ErrMin= 3.53D-03
 ErrMax= 3.53D-03  0.00D+00 EMaxC= 1.00D-01 BMatC= 3.80D-04 BMatP= 9.67D-03
 IDIUse=3 WtCom= 9.65D-01 WtEn= 3.53D-02
 Coeff-Com:  0.142D+00-0.629D+00 0.149D+01
 Coeff-En:   0.000D+00 0.000D+00 0.100D+01
 Coeff:      0.137D+00-0.607D+00 0.147D+01
 RMSDP=2.56D-03 MaxDP=3.09D-02 DE=-3.08D-02 OVMax= 0.00D+00

 Cycle   4  Pass 1  IDiag  3:
 E= 0.274739735897072E-01 Delta-E=       -0.002071619893 Rises=F Damp=F
 DIIS: error= 1.10D-03 at cycle   4 NSaved=   4.
 NSaved= 4 IEnMin= 4 EnMin= 0.274739735897072E-01 IErMin= 4 ErrMin= 1.10D-03
 ErrMax= 1.10D-03  0.00D+00 EMaxC= 1.00D-01 BMatC= 2.72D-05 BMatP= 3.80D-04
 IDIUse=3 WtCom= 9.89D-01 WtEn= 1.10D-02
 Coeff-Com:  0.136D-01-0.488D-01-0.192D+00 0.123D+01
 Coeff-En:   0.000D+00 0.000D+00 0.000D+00 0.100D+01
 Coeff:      0.135D-01-0.483D-01-0.190D+00 0.122D+01
 Gap=     0.383 Goal=   None    Shift=    0.000
 RMSDP=8.07D-04 MaxDP=1.03D-02 DE=-2.07D-03 OVMax= 1.03D-02

 Cycle   5  Pass 1  IDiag  3:
 E= 0.273070984584081E-01 Delta-E=       -0.000166875131 Rises=F Damp=F
 DIIS: error= 2.08D-04 at cycle   5 NSaved=   5.
 NSaved= 5 IEnMin= 5 EnMin= 0.273070984584081E-01 IErMin= 5 ErrMin= 2.08D-04
 ErrMax= 2.08D-04  0.00D+00 EMaxC= 1.00D-01 BMatC= 1.75D-06 BMatP= 2.72D-05
 IDIUse=3 WtCom= 9.98D-01 WtEn= 2.08D-03
 Coeff-Com: -0.773D-02 0.319D-01 0.152D-01-0.461D+00 0.142D+01
 Coeff-En:   0.000D+00 0.000D+00 0.000D+00 0.000D+00 0.100D+01
 Coeff:     -0.771D-02 0.318D-01 0.151D-01-0.460D+00 0.142D+01
 Gap=     0.383 Goal=   None    Shift=    0.000
 RMSDP=2.38D-04 MaxDP=1.98D-03 DE=-1.67D-04 OVMax= 2.55D-03

 Cycle   6  Pass 1  IDiag  3:
 E= 0.272941620411586E-01 Delta-E=       -0.000012936417 Rises=F Damp=F
 DIIS: error= 9.13D-05 at cycle   6 NSaved=   6.
 NSaved= 6 IEnMin= 6 EnMin= 0.272941620411586E-01 IErMin= 6 ErrMin= 9.13D-05
 ErrMax= 9.13D-05  0.00D+00 EMaxC= 1.00D-01 BMatC= 1.79D-07 BMatP= 1.75D-06
 IDIUse=1 WtCom= 1.00D+00 WtEn= 0.00D+00
 Coeff-Com:  0.296D-02-0.121D-01 0.417D-02 0.150D+00-0.722D+00 0.158D+01
 Coeff:      0.296D-02-0.121D-01 0.417D-02 0.150D+00-0.722D+00 0.158D+01
 Gap=     0.383 Goal=   None    Shift=    0.000
 RMSDP=9.39D-05 MaxDP=7.79D-04 DE=-1.29D-05 OVMax= 1.23D-03

 Cycle   7  Pass 1  IDiag  3:
 E= 0.272925512493458E-01 Delta-E=       -0.000001610792 Rises=F Damp=F
 DIIS: error= 3.05D-05 at cycle   7 NSaved=   7.
 NSaved= 7 IEnMin= 7 EnMin= 0.272925512493458E-01 IErMin= 7 ErrMin= 3.05D-05
 ErrMax= 3.05D-05  0.00D+00 EMaxC= 1.00D-01 BMatC= 1.42D-08 BMatP= 1.79D-07
 IDIUse=1 WtCom= 1.00D+00 WtEn= 0.00D+00
 Coeff-Com: -0.533D-03 0.176D-02-0.187D-03-0.332D-01 0.191D+00-0.673D+00
 Coeff-Com:  0.151D+01
 Coeff:     -0.533D-03 0.176D-02-0.187D-03-0.332D-01 0.191D+00-0.673D+00
 Coeff:      0.151D+01
 Gap=     0.383 Goal=   None    Shift=    0.000
 RMSDP=3.05D-05 MaxDP=2.83D-04 DE=-1.61D-06 OVMax= 3.67D-04

 Cycle   8  Pass 1  IDiag  3:
 E= 0.272924180764136E-01 Delta-E=       -0.000000133173 Rises=F Damp=F
 DIIS: error= 5.72D-06 at cycle   8 NSaved=   8.
 NSaved= 8 IEnMin= 8 EnMin= 0.272924180764136E-01 IErMin= 8 ErrMin= 5.72D-06
 ErrMax= 5.72D-06  0.00D+00 EMaxC= 1.00D-01 BMatC= 6.24D-10 BMatP= 1.42D-08
 IDIUse=1 WtCom= 1.00D+00 WtEn= 0.00D+00
 Coeff-Com:  0.395D-04 0.839D-04-0.113D-02 0.106D-01-0.563D-01 0.227D+00
 Coeff-Com: -0.674D+00 0.149D+01
 Coeff:      0.395D-04 0.839D-04-0.113D-02 0.106D-01-0.563D-01 0.227D+00
 Coeff:     -0.674D+00 0.149D+01
 Gap=     0.383 Goal=   None    Shift=    0.000
 RMSDP=5.72D-06 MaxDP=5.36D-05 DE=-1.33D-07 OVMax= 6.93D-05

 Cycle   9  Pass 1  IDiag  3:
 E= 0.272924130863288E-01 Delta-E=       -0.000000004990 Rises=F Damp=F
 DIIS: error= 8.03D-07 at cycle   9 NSaved=   9.
 NSaved= 9 IEnMin= 9 EnMin= 0.272924130863288E-01 IErMin= 9 ErrMin= 8.03D-07
 ErrMax= 8.03D-07  0.00D+00 EMaxC= 1.00D-01 BMatC= 2.44D-11 BMatP= 6.24D-10
 IDIUse=1 WtCom= 1.00D+00 WtEn= 0.00D+00
 Coeff-Com:  0.142D-04-0.151D-03 0.440D-03-0.253D-02 0.139D-01-0.654D-01
 Coeff-Com:  0.218D+00-0.618D+00 0.145D+01
 Coeff:      0.142D-04-0.151D-03 0.440D-03-0.253D-02 0.139D-01-0.654D-01
 Coeff:      0.218D+00-0.618D+00 0.145D+01
 Gap=     0.383 Goal=   None    Shift=    0.000
 RMSDP=9.37D-07 MaxDP=7.41D-06 DE=-4.99D-09 OVMax= 1.24D-05

 Cycle  10  Pass 1  IDiag  3:
 E= 0.272924129288867E-01 Delta-E=       -0.000000000157 Rises=F Damp=F
 DIIS: error= 1.76D-07 at cycle  10 NSaved=  10.
 NSaved=10 IEnMin=10 EnMin= 0.272924129288867E-01 IErMin=10 ErrMin= 1.76D-07
 ErrMax= 1.76D-07  0.00D+00 EMaxC= 1.00D-01 BMatC= 9.89D-13 BMatP= 2.44D-11
 IDIUse=1 WtCom= 1.00D+00 WtEn= 0.00D+00
 Coeff-Com: -0.910D-05 0.740D-04-0.193D-03 0.913D-03-0.474D-02 0.230D-01
 Coeff-Com: -0.789D-01 0.233D+00-0.665D+00 0.149D+01
 Coeff:     -0.910D-05 0.740D-04-0.193D-03 0.913D-03-0.474D-02 0.230D-01
 Coeff:     -0.789D-01 0.233D+00-0.665D+00 0.149D+01
 Gap=     0.383 Goal=   None    Shift=    0.000
 RMSDP=1.60D-07 MaxDP=8.76D-07 DE=-1.57D-10 OVMax= 1.65D-06

 Cycle  11  Pass 1  IDiag  3:
 E= 0.272924129234013E-01 Delta-E=       -0.000000000005 Rises=F Damp=F
 DIIS: error= 3.19D-08 at cycle  11 NSaved=  11.
 NSaved=11 IEnMin=11 EnMin= 0.272924129234013E-01 IErMin=11 ErrMin= 3.19D-08
 ErrMax= 3.19D-08  0.00D+00 EMaxC= 1.00D-01 BMatC= 3.08D-14 BMatP= 9.89D-13
 IDIUse=1 WtCom= 1.00D+00 WtEn= 0.00D+00
 Coeff-Com:  0.312D-05-0.254D-04 0.648D-04-0.303D-03 0.154D-02-0.754D-02
 Coeff-Com:  0.261D-01-0.770D-01 0.226D+00-0.600D+00 0.143D+01
 Coeff:      0.312D-05-0.254D-04 0.648D-04-0.303D-03 0.154D-02-0.754D-02
 Coeff:      0.261D-01-0.770D-01 0.226D+00-0.600D+00 0.143D+01
 Gap=     0.383 Goal=   None    Shift=    0.000
 RMSDP=2.50D-08 MaxDP=1.47D-07 DE=-5.49D-12 OVMax= 1.16D-07

 Cycle  12  Pass 1  IDiag  3:
 E= 0.272924129231740E-01 Delta-E=        0.000000000000 Rises=F Damp=F
 DIIS: error= 5.05D-09 at cycle  12 NSaved=  12.
 NSaved=12 IEnMin=12 EnMin= 0.272924129231740E-01 IErMin=12 ErrMin= 5.05D-09
 ErrMax= 5.05D-09  0.00D+00 EMaxC= 1.00D-01 BMatC= 1.41D-15 BMatP= 3.08D-14
 IDIUse=1 WtCom= 1.00D+00 WtEn= 0.00D+00
 Coeff-Com: -0.794D-06 0.645D-05-0.156D-04 0.721D-04-0.358D-03 0.180D-02
 Coeff-Com: -0.623D-02 0.183D-01-0.547D-01 0.157D+00-0.521D+00 0.140D+01
 Coeff:     -0.794D-06 0.645D-05-0.156D-04 0.721D-04-0.358D-03 0.180D-02
 Coeff:     -0.623D-02 0.183D-01-0.547D-01 0.157D+00-0.521D+00 0.140D+01
 Gap=     0.383 Goal=   None    Shift=    0.000
 RMSDP=5.82D-09 MaxDP=3.21D-08 DE=-2.27D-13 OVMax= 2.76D-08

 Cycle  13  Pass 2  IDiag  1:
 SCF Done:  E(RAM1) =  0.272924129232E-01 A.U. after   13 cycles
            NFock= 12  Conv=0.58D-08     -V/T= 1.0016
 KE=-1.661673184588D+01 PE=-1.717835476378D+02 EE= 8.449245799945D+01
 Leave Link  502 at Tue Dec 15 16:12:57 2015, MaxMem=    33554432 cpu:         0.0
 (Enter /home/Applications/g09/g09/l801.exe)
 Range of M.O.s used for correlation:     1    24
 NBasis=    24 NAE=    13 NBE=    13 NFC=     0 NFV=     0
 NROrb=     24 NOA=    13 NOB=    13 NVA=    11 NVB=    11
 Leave Link  801 at Tue Dec 15 16:12:57 2015, MaxMem=    33554432 cpu:         0.0
 (Enter /home/Applications/g09/g09/l914.exe)
 RHF ground state
 MDV=    33554432 DFT=F DoStab=F Mixed=F DoRPA=F DoScal=F NonHer=F
 Making orbital integer symmetry assigments:
 Orbital symmetries:
       Occupied  (A) (A) (A) (A) (A) (A) (A) (A) (A) (A) (A) (A)
                 (A)
       Virtual   (A) (A) (A) (A) (A) (A) (A) (A) (A) (A) (A)
    60 initial guesses have been made.
 Convergence on wavefunction:    0.000001000000000
 Davidson Disk Diagonalization:  ConvIn= 1.00D-06 SkipCon=T Conv= 1.00D-06.
 Max sub-space:   240 roots to seek:    60 dimension of matrix:          286
 Iteration     1 Dimension    60 NMult     0 NNew     60
 CISAX will form    60 AO SS matrices at one time.
 NMat=    60 NSing=    60 JSym2X= 0.
 FoFJK:  IHMeth= 8 ICntrl=       0 DoSepK=F KAlg= 0 I1Cent=   0 FoldK=F
 IRaf=         1 NMat= 120 IRICut=       1 DoRegI=T DoRafI=F ISym2E= 0.
 FoFCou: FMM=F IPFlag=           0 FMFlag=      100000 FMFlg1=           0
         NFxFlg=           0 DoJE=F BraDBF=F KetDBF=F FulRan=T
         wScrn=  0.000000 ICntrl=       0 IOpCl=  0 I1Cent=           0 NGrid=           0
         NMat0=  120 NMatS0=     60 NMatT0=    0 NMatD0=  120 NMtDS0=    0 NMtDT0=    0
 Symmetry not used in FoFCou.
 New state      2 was old state      4
 New state      3 was old state      2
 New state      4 was old state      8
 New state      5 was old state      7
 New state      6 was old state      3
 New state      7 was old state      9
 New state      8 was old state      6
 New state      9 was old state      5
 New state     10 was old state     12
 New state     11 was old state     14
 New state     12 was old state     10
 New state     14 was old state     21
 Excitation Energies [eV] at current iteration:
 Root      1 :     4.643239012097285
 Root      2 :     5.181664994790885
 Root      3 :     5.268518253012992
 Root      4 :     6.063808685321665
 Root      5 :     6.136573017836045
 Root      6 :     6.455057962944569
 Root      7 :     6.525690585061889
 Root      8 :     6.643037148530998
 Root      9 :     6.680470576093155
 Root     10 :     7.231657081293410
 Root     11 :     7.273233002799951
 Root     12 :     7.585819542993047
 Root     13 :     7.726402451336935
 Root     14 :     7.778997661129702
 Root     15 :     7.876291065902023
 Root     16 :     7.920270571240124
 Root     17 :     8.040842765859095
 Root     18 :     8.196928879876491
 Root     19 :     8.416079745554100
 Root     20 :     8.496578205365548
 Root     21 :     8.849395453150002
 Root     22 :     9.009012343065754
 Root     23 :     9.026256388834462
 Root     24 :     9.314324479926633
 Root     25 :     9.507617139485742
 Root     26 :     9.514670505605142
 Root     27 :     9.743579652068986
 Root     28 :     9.835360456486153
 Root     29 :     9.871695126558690
 Root     30 :     9.925721438948981
 Root     31 :     9.999397476472524
 Root     32 :    10.064462307503550
 Root     33 :    10.162570756514400
 Root     34 :    10.218389947170850
 Root     35 :    10.280932735696500
 Root     36 :    10.462564885808660
 Root     37 :    10.692560762737070
 Root     38 :    10.777471832871470
 Root     39 :    10.912907762006510
 Root     40 :    11.016825471281090
 Root     41 :    11.116607743440790
 Root     42 :    11.267431070516990
 Root     43 :    11.326671992459720
 Root     44 :    11.488997405813890
 Root     45 :    11.582888252960670
 Root     46 :    11.760455380319970
 Root     47 :    11.843220744277080
 Root     48 :    11.961868207618240
 Root     49 :    12.026393810961240
 Root     50 :    12.170082459316060
 Root     51 :    12.385300698613380
 Root     52 :    12.466415630162560
 Root     53 :    12.795010617204730
 Root     54 :    13.146830552515170
 Root     55 :    13.195222776138290
 Root     56 :    13.482398103125950
 Root     57 :    13.513253896944760
 Root     58 :    13.560966203041630
 Root     59 :    13.778267473699440
 Root     60 :    13.813188000760280
 Iteration     2 Dimension   120 NMult    60 NNew     60
 CISAX will form    60 AO SS matrices at one time.
 NMat=    60 NSing=    60 JSym2X= 0.
 Root      1 not converged, maximum delta is    0.043773398009056
 Root      2 not converged, maximum delta is    0.034729689061915
 Root      3 not converged, maximum delta is    0.018816555853220
 Root      4 not converged, maximum delta is    0.134252950946680
 Root      5 not converged, maximum delta is    0.120317211568997
 Root      6 not converged, maximum delta is    0.079153838685215
 Root      7 not converged, maximum delta is    0.083375943081235
 Root      8 not converged, maximum delta is    0.069133314520605
 Root      9 not converged, maximum delta is    0.067953070980685
 Root     10 not converged, maximum delta is    0.296350390975777
 Root     11 not converged, maximum delta is    0.323851091118321
 Root     12 not converged, maximum delta is    0.068809744722348
 Root     13 not converged, maximum delta is    0.064680842273897
 New state     14 was old state     15
 Root     14 not converged, maximum delta is    0.226414746265833
 New state     15 was old state     14
 Root     15 not converged, maximum delta is    0.336787278185030
 Excitation Energies [eV] at current iteration:
 Root      1 :     4.564196456749015   Change is   -0.079042555348270
 Root      2 :     5.153168021631442   Change is   -0.028496973159442
 Root      3 :     5.251561759060482   Change is   -0.016956493952511
 Root      4 :     5.974932600921735   Change is   -0.088876084399931
 Root      5 :     6.034086094784376   Change is   -0.102486923051669
 Root      6 :     6.327996449247205   Change is   -0.127061513697364
 Root      7 :     6.381435381564685   Change is   -0.144255203497203
 Root      8 :     6.580983140844081   Change is   -0.062054007686916
 Root      9 :     6.617983577659757   Change is   -0.062486998433398
 Root     10 :     7.126693335670001   Change is   -0.104963745623409
 Root     11 :     7.167923227282965   Change is   -0.105309775516985
 Root     12 :     7.502744641156735   Change is   -0.083074901836313
 Root     13 :     7.629510551564374   Change is   -0.096891899772561
 Root     14 :     7.698715137409756   Change is   -0.177575928492266
 Root     15 :     7.734855380486975   Change is   -0.044142280642727
 Root     16 :     7.832180147182833   Change is   -0.088090424057291
 Root     17 :     7.956293168411978   Change is   -0.084549597447117
 Root     18 :     8.092923524944821   Change is   -0.104005354931671
 Root     19 :     8.216043728310060   Change is   -0.200036017244039
 Root     20 :     8.365361766054180   Change is   -0.131216439311368
 Root     21 :     8.570835329405208   Change is   -0.278560123744796
 Root     22 :     8.878704808601196   Change is   -0.147551580233266
 Root     23 :     8.975741045500904   Change is   -0.033271297564851
 Root     24 :     9.128122998513000   Change is   -0.386547507092143
 Root     25 :     9.163730536264154   Change is   -0.150593943662479
 Root     26 :     9.349582071673066   Change is   -0.393997580395920
 Root     27 :     9.411490289408960   Change is   -0.096126850076782
 Root     28 :     9.467117286892803   Change is   -0.532280189579720
 Root     29 :     9.611103187972267   Change is   -0.669829547724237
 Root     30 :     9.652517371110550   Change is   -0.182843085375603
 Root     31 :     9.763313211951559   Change is   -0.108381914607130
 Root     32 :     9.771891158503312   Change is   -0.153830280445669
 Root     33 :     9.808827407130003   Change is   -0.353743349384402
 Root     34 :     9.922931049523319   Change is   -0.141531257980232
 Root     35 :     9.952614870221186   Change is   -0.509950015587474
 Root     36 :    10.136529104945910   Change is   -0.081860842224936
 Root     37 :    10.213803403847330   Change is   -0.699104358159181
 Root     38 :    10.288244466941930   Change is   -0.489227365929540
 Root     39 :    10.433183471541740   Change is   -0.583641999739355
 Root     40 :    10.632065001568860   Change is   -0.060495761168215
 Root     41 :    10.741345292807320   Change is   -0.585326699652395
 Root     42 :    10.870061210597220   Change is   -0.712827042363455
 Root     43 :    10.935335205590220   Change is   -0.181272537850568
 Root     44 :    11.013392779400230   Change is   -0.254038291116751
 Root     45 :    11.083737204822840   Change is   -0.405260200991053
 Root     46 :    11.410253279833250   Change is   -0.432967464443822
 Root     47 :    11.460701691345300   Change is   -0.299753688974668
 Root     48 :    11.604471497384000   Change is   -0.357396710234243
 Root     49 :    11.784462010614630   Change is   -0.241931800346610
 Root     50 :    11.895007728043200   Change is   -0.275074731272861
 Root     51 :    11.982317040940270   Change is   -0.402983657673111
 Root     52 :    12.062375957402380   Change is   -0.404039672760182
 Root     53 :    12.349219991449170   Change is   -0.846002784689118
 Root     54 :    12.453170332857600   Change is   -0.341840284347129
 Root     55 :    12.765153101378650   Change is   -0.381677451136520
 Root     56 :    12.834122617806720
 Root     57 :    13.041161404148200   Change is   -0.519804798893427
 Root     58 :    13.095017828703270   Change is   -0.418236068241484
 Root     59 :    13.125212216931430
 Root     60 :    13.247753649756730   Change is   -0.530513823942714
 Iteration     3 Dimension   135 NMult   120 NNew     15
 CISAX will form    15 AO SS matrices at one time.
 NMat=    15 NSing=    15 JSym2X= 0.
 Root      1 not converged, maximum delta is    0.002127676341356
 Root      2 not converged, maximum delta is    0.000037892355229
 Root      3 not converged, maximum delta is    0.000400197259270
 Root      4 not converged, maximum delta is    0.000039923397585
 Root      5 not converged, maximum delta is    0.000069622651387
 Root      6 not converged, maximum delta is    0.001405413521906
 Root      7 not converged, maximum delta is    0.000228796700371
 Root      8 not converged, maximum delta is    0.000402471420225
 Root      9 not converged, maximum delta is    0.001437757958591
 Root     10 not converged, maximum delta is    0.000110180267308
 Root     11 not converged, maximum delta is    0.000096404029226
 Root     12 not converged, maximum delta is    0.000114585131884
 Root     13 not converged, maximum delta is    0.000167046253505
 Root     14 not converged, maximum delta is    0.000101140525026
 Root     15 not converged, maximum delta is    0.000106130882477
 Excitation Energies [eV] at current iteration:
 Root      1 :     4.563704165029617   Change is   -0.000492291719398
 Root      2 :     5.153167492159354   Change is   -0.000000529472089
 Root      3 :     5.251506964823919   Change is   -0.000054794236562
 Root      4 :     5.974932232544459   Change is   -0.000000368377275
 Root      5 :     6.034085447232357   Change is   -0.000000647552019
 Root      6 :     6.327337902752150   Change is   -0.000658546495055
 Root      7 :     6.381433266410736   Change is   -0.000002115153948
 Root      8 :     6.580981440616002   Change is   -0.000001700228079
 Root      9 :     6.617589750705256   Change is   -0.000393826954501
 Root     10 :     7.126689684485473   Change is   -0.000003651184527
 Root     11 :     7.167920698745555   Change is   -0.000002528537410
 Root     12 :     7.502739645361466   Change is   -0.000004995795269
 Root     13 :     7.629504672482987   Change is   -0.000005879081388
 Root     14 :     7.698711897032129   Change is   -0.000003240377627
 Root     15 :     7.734854187390664   Change is   -0.000001193096311
 Iteration     4 Dimension   143 NMult   135 NNew      8
 CISAX will form     8 AO SS matrices at one time.
 NMat=     8 NSing=     8 JSym2X= 0.
 Root      1 not converged, maximum delta is    0.000031870701704
 Root      2 not converged, maximum delta is    0.000001166610231
 Root      3 not converged, maximum delta is    0.000013781017159
 Root      4 not converged, maximum delta is    0.000001662633353
 Root      5 not converged, maximum delta is    0.000002604440031
 Root      6 not converged, maximum delta is    0.000066211216685
 Root      7 not converged, maximum delta is    0.000005633337049
 Root      8 not converged, maximum delta is    0.000006409933179
 Root      9 not converged, maximum delta is    0.000108765553623
 Root     10 not converged, maximum delta is    0.000004693956975
 Root     11 not converged, maximum delta is    0.000004728988095
 Root     12 not converged, maximum delta is    0.000006678420275
 Root     13 not converged, maximum delta is    0.000006291554346
 Root     14 not converged, maximum delta is    0.000004696330797
 Root     15 not converged, maximum delta is    0.000002476008286
 Excitation Energies [eV] at current iteration:
 Root      1 :     4.563703705927625   Change is   -0.000000459101992
 Root      2 :     5.153167491769394   Change is   -0.000000000389960
 Root      3 :     5.251506880879646   Change is   -0.000000083944274
 Root      4 :     5.974932231573257   Change is   -0.000000000971202
 Root      5 :     6.034085444289726   Change is   -0.000000002942631
 Root      6 :     6.327335817814864   Change is   -0.000002084937286
 Root      7 :     6.381433258283241   Change is   -0.000000008127495
 Root      8 :     6.580981433700264   Change is   -0.000000006915738
 Root      9 :     6.617587795747002   Change is   -0.000001954958254
 Root     10 :     7.126689676152274   Change is   -0.000000008333200
 Root     11 :     7.167920691812851   Change is   -0.000000006932704
 Root     12 :     7.502739637137900   Change is   -0.000000008223565
 Root     13 :     7.629504656099184   Change is   -0.000000016383803
 Root     14 :     7.698711887690441   Change is   -0.000000009341688
 Root     15 :     7.734854185265159   Change is   -0.000000002125504
 Convergence achieved on expansion vectors.
 ***********************************************************************
 Excited states from <AA,BB:AA,BB> singles matrix:
 ***********************************************************************
 
 1PDM for each excited state written to RWF  633
 Ground to excited state transition densities written to RWF  633
 Ground to excited state transition electric dipole moments (Au):
       state          X           Y           Z        Dip. S.      Osc.
         1        -0.8588      0.2617     -0.0083      0.8061      0.0901
         2         0.0052      0.0180      0.0500      0.0029      0.0004
         3         0.0428      0.1619     -0.0032      0.0280      0.0036
         4        -0.0027     -0.0114      0.1154      0.0135      0.0020
         5         0.0167      0.0241      0.0239      0.0014      0.0002
         6         0.4374      1.4403     -0.0109      2.2659      0.3512
         7        -0.0063      0.0724      0.0625      0.0092      0.0014
         8         0.0325     -0.0441      0.0723      0.0082      0.0013
         9         0.7388     -0.6166     -0.0064      0.9261      0.1501
        10         0.0019     -0.0505      0.0201      0.0030      0.0005
        11         0.0285     -0.0178     -0.0766      0.0070      0.0012
        12         0.0010     -0.0038      0.0455      0.0021      0.0004
        13        -0.0032      0.0005     -0.1607      0.0258      0.0048
        14         0.0084     -0.0016      0.1100      0.0122      0.0023
        15        -0.0167     -0.0030      0.0552      0.0033      0.0006
 Ground to excited state transition velocity dipole moments (Au):
       state          X           Y           Z        Dip. S.      Osc.
         1         0.0529     -0.0310     -0.0017      0.0038      0.0149
         2        -0.0001     -0.0025     -0.0066      0.0000      0.0002
         3         0.0014      0.0000      0.0004      0.0000      0.0000
         4         0.0001      0.0017     -0.0805      0.0065      0.0197
         5        -0.0015     -0.0045     -0.0406      0.0017      0.0050
         6        -0.0787     -0.2990      0.0014      0.0956      0.2741
         7         0.0005     -0.0145     -0.0576      0.0035      0.0100
         8        -0.0043      0.0098     -0.1813      0.0330      0.0910
         9        -0.1389      0.1341      0.0057      0.0373      0.1022
        10        -0.0001      0.0140      0.0184      0.0005      0.0014
        11        -0.0056      0.0038     -0.0195      0.0004      0.0011
        12         0.0001      0.0008     -0.0409      0.0017      0.0040
        13        -0.0011     -0.0021      0.0124      0.0002      0.0004
        14        -0.0010     -0.0029      0.0208      0.0004      0.0010
        15         0.0045      0.0009     -0.0828      0.0069      0.0161
 Ground to excited state transition magnetic dipole moments (Au):
       state          X           Y           Z
         1        -0.0028     -0.0012     -0.7040
         2        -0.0319      0.6437      0.0081
         3        -0.0011     -0.0134      0.0567
         4         0.3247     -0.0153      0.0087
         5        -0.0372     -0.0696     -0.0032
         6         0.0120      0.0034      0.1038
         7         0.0932     -0.1238      0.0143
         8        -0.1645      0.0951      0.0151
         9         0.0345     -0.0175      0.0104
        10         0.6294      0.7713      0.0022
        11        -1.4577     -0.0378     -0.0004
        12         0.7505     -0.6082      0.0109
        13         0.1086      0.2238     -0.0001
        14         0.2059     -0.4544     -0.0006
        15        -0.6911      0.0003      0.0037
 Ground to excited state transition velocity quadrupole moments (Au):
       state          XX          YY          ZZ          XY          XZ          YZ
         1        -0.0197      0.0173      0.0116     -0.4738      0.0025      0.0012
         2         0.0121     -0.0021     -0.0044      0.0023      0.1593     -0.0084
         3         0.0845     -0.1437      0.0771      0.0548      0.0009      0.0005
         4        -0.0068      0.0006     -0.0026      0.0082     -0.0711      0.2830
         5         0.0119     -0.0025     -0.0004     -0.0036      0.0850     -0.0219
         6         0.4327     -0.2224     -0.0360     -0.2241     -0.0162     -0.0056
         7         0.0276     -0.0099     -0.0026      0.0117      0.1185      0.2044
         8        -0.0139      0.0075      0.0031     -0.0054     -0.0501     -0.0304
         9        -0.2381      0.1365      0.0191     -0.4799      0.0114      0.0051
        10        -0.0144      0.0177      0.0022     -0.0018     -0.2363      0.0263
        11        -0.0124      0.0035      0.0004     -0.0106     -0.1693      0.0882
        12        -0.0045     -0.0009     -0.0001      0.0112     -0.1032     -0.0021
        13        -0.0017     -0.0064     -0.0040      0.0022      0.1977      0.1415
        14         0.0017      0.0051     -0.0090     -0.0105      0.1241      0.0252
        15         0.0067      0.0019     -0.0054      0.0196     -0.0056     -0.4038
 <0|del|b> * <b|rxdel|0> + <0|del|b> * <b|delr+rdel|0>
 Rotatory Strengths (R) in cgs (10**-40 erg-esu-cm/Gauss)
       state          XX          YY          ZZ    R(velocity)    E-M Angle
         1         4.3791      0.6286     -0.5304      1.4924       88.59
         2        -2.3558     -0.0597     -3.6865     -2.0340      111.21
         3         0.0885     -0.0002     -0.0038      0.0282       90.00
         4        -2.0332      0.0313     -0.2363     -0.7461       91.52
         5         1.5559      0.1079     -0.0756      0.5294       81.13
         6        -9.1473     -0.0742      3.7158     -1.8353       93.21
         7         3.0577      0.0060      0.0267      1.0301       83.64
         8        -0.4817     -4.2261      1.4823     -1.0752       91.83
         9        -9.4872     -3.9612     -7.1137     -6.8540      156.23
        10        19.1046      0.0117     10.0554      9.7239       62.08
        11         0.9668      9.9552     10.4701      7.1307       74.62
        12        -1.6442      0.0627     -0.6357     -0.7391       91.25
        13        -0.0378     -0.3752     -1.0905     -0.5012      100.95
        14         1.8045     -0.0368      0.9649      0.9109       84.03
        15        -2.3953     -4.4534     -1.6020     -2.8169       93.40
 1/2[<0|r|b>*<b|rxdel|0> + (<0|rxdel|b>*<b|r|0>)*]
 Rotatory Strengths (R) in cgs (10**-40 erg-esu-cm/Gauss)
       state          XX          YY          ZZ     R(length)
         1        -1.6963      0.2198     -4.1126     -1.8630
         2         0.1172     -8.1881     -0.2866     -2.7858
         3         0.0333      1.5363      0.1266      0.5654
         4         0.6311     -0.1235     -0.7064     -0.0663
         5         0.4386      1.1848      0.0538      0.5591
         6        -3.7135     -3.4413      0.7996     -2.1184
         7         0.4139      6.3400     -0.6328      2.0404
         8         3.7750      2.9647     -0.7720      1.9892
         9       -18.0026     -7.6270      0.0471     -8.5275
        10        -0.8451     27.5475     -0.0318      8.8902
        11        29.3466     -0.4754     -0.0223      9.6163
        12        -0.5568     -1.6531     -0.3512     -0.8537
        13         0.2469     -0.0732     -0.0095      0.0547
        14        -1.2291     -0.5271      0.0467     -0.5698
        15        -8.1686      0.0007     -0.1462     -2.7713
  1/2[<0|del|b>*<b|r|0> + (<0|r|b>*<b|del|0>)*] (Au)
       state          X           Y           Z        Dip. S.   Osc.(frdel)
         1        -0.0454     -0.0081      0.0000      0.0535      0.0357
         2         0.0000      0.0000     -0.0003      0.0004      0.0002
         3         0.0001      0.0000      0.0000     -0.0001      0.0000
         4         0.0000      0.0000     -0.0093      0.0093      0.0062
         5         0.0000     -0.0001     -0.0010      0.0011      0.0007
         6        -0.0344     -0.4306      0.0000      0.4651      0.3101
         7         0.0000     -0.0011     -0.0036      0.0047      0.0031
         8        -0.0001     -0.0004     -0.0131      0.0137      0.0091
         9        -0.1026     -0.0827      0.0000      0.1853      0.1235
        10         0.0000     -0.0007      0.0004      0.0003      0.0002
        11        -0.0002     -0.0001      0.0015     -0.0013     -0.0008
        12         0.0000      0.0000     -0.0019      0.0019      0.0012
        13         0.0000      0.0000     -0.0020      0.0020      0.0013
        14         0.0000      0.0000      0.0023     -0.0023     -0.0015
        15        -0.0001      0.0000     -0.0046      0.0046      0.0031

 Excitation energies and oscillator strengths:
 
 Excited State   1:      Singlet-A      4.5637 eV  271.67 nm  f=0.0901  <S**2>=0.000
      12 -> 15         0.19715
      13 -> 14         0.67057
 This state for optimization and/or second-order correction.
 Total Energy, E(CIS) =  0.195005445429    
 Copying the excited state density for this state as the 1-particle RhoCI density.
 
 Excited State   2:      Singlet-A      5.1532 eV  240.60 nm  f=0.0004  <S**2>=0.000
      13 -> 16         0.68863
      13 -> 22        -0.11182
 
 Excited State   3:      Singlet-A      5.2515 eV  236.09 nm  f=0.0036  <S**2>=0.000
      12 -> 14        -0.44230
      13 -> 15         0.54636
 
 Excited State   4:      Singlet-A      5.9749 eV  207.51 nm  f=0.0020  <S**2>=0.000
      12 -> 16         0.37554
      12 -> 18         0.11903
      12 -> 22        -0.16609
      13 -> 17         0.11429
      13 -> 18         0.41241
      13 -> 20        -0.17365
      13 -> 21        -0.14016
      13 -> 22        -0.17188
      13 -> 23         0.11757
 
 Excited State   5:      Singlet-A      6.0341 eV  205.47 nm  f=0.0002  <S**2>=0.000
       7 -> 16        -0.16608
      12 -> 16         0.53478
      12 -> 18        -0.11698
      13 -> 18        -0.27301
      13 -> 20         0.12934
      13 -> 21         0.10020
      13 -> 22         0.12504
      13 -> 23        -0.11525
 
 Excited State   6:      Singlet-A      6.3273 eV  195.95 nm  f=0.3512  <S**2>=0.000
      10 -> 16        -0.10895
      12 -> 14         0.50484
      12 -> 15         0.11907
      13 -> 15         0.42199
 
 Excited State   7:      Singlet-A      6.3814 eV  194.29 nm  f=0.0014  <S**2>=0.000
      12 -> 18        -0.14058
      12 -> 19        -0.21416
      12 -> 22        -0.11491
      12 -> 23        -0.14909
      13 -> 18         0.14338
      13 -> 19         0.46081
      13 -> 21         0.10926
      13 -> 22         0.25356
      13 -> 23         0.20756
 
 Excited State   8:      Singlet-A      6.5810 eV  188.40 nm  f=0.0013  <S**2>=0.000
      11 -> 14        -0.11480
      12 -> 19         0.10503
      13 -> 17         0.63848
      13 -> 19         0.10165
      13 -> 23        -0.14702
 
 Excited State   9:      Singlet-A      6.6176 eV  187.36 nm  f=0.1501  <S**2>=0.000
      12 -> 15         0.65759
      13 -> 14        -0.18499
 
 Excited State  10:      Singlet-A      7.1267 eV  173.97 nm  f=0.0005  <S**2>=0.000
      10 -> 14        -0.13266
      12 -> 17         0.52719
      12 -> 18         0.14407
      12 -> 19         0.11016
      12 -> 20        -0.13850
      12 -> 21         0.10237
      13 -> 18        -0.11771
      13 -> 19         0.21690
      13 -> 22        -0.12785
 
 Excited State  11:      Singlet-A      7.1679 eV  172.97 nm  f=0.0012  <S**2>=0.000
       9 -> 14         0.22943
       9 -> 15         0.13830
      10 -> 14         0.44089
      11 -> 14         0.32465
      11 -> 15         0.21773
      12 -> 17         0.16309
      12 -> 19         0.10442
 
 Excited State  12:      Singlet-A      7.5027 eV  165.25 nm  f=0.0004  <S**2>=0.000
       8 -> 14        -0.10123
       9 -> 14         0.14417
       9 -> 15        -0.18133
      10 -> 14        -0.40930
      10 -> 15         0.21287
      11 -> 14         0.43242
 
 Excited State  13:      Singlet-A      7.6295 eV  162.51 nm  f=0.0048  <S**2>=0.000
      11 -> 15        -0.17962
      12 -> 17        -0.18352
      12 -> 18         0.21808
      12 -> 19         0.12913
      12 -> 20         0.19285
      12 -> 21        -0.18759
      12 -> 23         0.18884
      13 -> 18        -0.19063
      13 -> 19         0.27858
      13 -> 21        -0.23750
      13 -> 22        -0.17356
      13 -> 23         0.12837
 
 Excited State  14:      Singlet-A      7.6987 eV  161.05 nm  f=0.0023  <S**2>=0.000
       9 -> 14         0.21759
      11 -> 14        -0.14706
      12 -> 18         0.38189
      12 -> 24        -0.11375
      13 -> 20        -0.21315
      13 -> 22         0.39870
      13 -> 24         0.12363
 
 Excited State  15:      Singlet-A      7.7349 eV  160.29 nm  f=0.0006  <S**2>=0.000
       7 -> 16         0.10104
      12 -> 19         0.33181
      12 -> 22         0.26461
      13 -> 18         0.29427
      13 -> 19         0.12445
      13 -> 22         0.25602
      13 -> 23        -0.12636
      13 -> 24        -0.25588
 SavETr:  write IOETrn=   770 NScale= 10 NData=  16 NLR=1 NState=   15 LETran=     280.
 The selected state is a singlet
 CISAX will form     1 AO SS matrices at one time.
 NMat=     1 NSing=     1 JSym2X= 0.
 Leave Link  914 at Tue Dec 15 16:12:57 2015, MaxMem=    33554432 cpu:         0.1
 (Enter /home/Applications/g09/g09/l1002.exe)
 Minotr:  Closed shell wavefunction.
          Computing CIS/TD-HF/TD-KS derivatives.
          Using Z-Vector for PSCF gradient.
          Skipping F1 and S1 gradient terms here.
          IDoAtm=111111111
          Direct CPHF calculation.
          Differentiating once with respect to electric field.
                with respect to dipole field.
          Differentiating once with respect to nuclear coordinates.
          Electric field/nuclear overlap derivatives assumed to be zero.
          Requested convergence is 1.0D-10 RMS, and 1.0D-09 maximum.
          NewPWx=T KeepS1=F KeepF1=F KeepIn=T MapXYZ=F SortEE=F KeepMc=T.
          MDV=      33495423 using IRadAn=       0.
 Keep J ints in memory in canonical form, NReq=871704.
 FoFCou: FMM=F IPFlag=           0 FMFlag=           0 FMFlg1=           0
         NFxFlg=           0 DoJE=F BraDBF=F KetDBF=F FulRan=T
         wScrn=  0.000000 ICntrl=     600 IOpCl=  2 I1Cent=           0 NGrid=           0
         NMat0=    1 NMatS0=     54 NMatT0=    0 NMatD0=    1 NMtDS0=    0 NMtDT0=    0
 Symmetry not used in FoFCou.
          Solving linear equations separately, MaxMat=       0.
          There are     1 degrees of freedom in the 1st order CPHF.  IDoFFX=0 NUNeed=     1.
 LinEq1:  Iter=  0 NonCon=     1 RMS=1.06D-02 Max=7.01D-02 NDo=     1
 AX will form     1 AO Fock derivatives at one time.
 LinEq1:  Iter=  1 NonCon=     1 RMS=1.98D-03 Max=1.45D-02 NDo=     1
 LinEq1:  Iter=  2 NonCon=     1 RMS=3.16D-04 Max=2.61D-03 NDo=     1
 LinEq1:  Iter=  3 NonCon=     1 RMS=4.38D-05 Max=2.46D-04 NDo=     1
 LinEq1:  Iter=  4 NonCon=     1 RMS=4.83D-06 Max=1.96D-05 NDo=     1
 LinEq1:  Iter=  5 NonCon=     1 RMS=7.97D-07 Max=5.23D-06 NDo=     1
 LinEq1:  Iter=  6 NonCon=     1 RMS=9.14D-08 Max=3.39D-07 NDo=     1
 LinEq1:  Iter=  7 NonCon=     1 RMS=1.18D-08 Max=6.98D-08 NDo=     1
 LinEq1:  Iter=  8 NonCon=     1 RMS=1.38D-09 Max=5.25D-09 NDo=     1
 LinEq1:  Iter=  9 NonCon=     1 RMS=1.77D-10 Max=7.17D-10 NDo=     1
 LinEq1:  Iter= 10 NonCon=     0 RMS=1.78D-11 Max=6.82D-11 NDo=     1
 Linear equations converged to 1.000D-10 1.000D-09 after    10 iterations.
 End of Minotr F.D. properties file   721 does not exist.
 End of Minotr F.D. properties file   722 does not exist.
 End of Minotr F.D. properties file   788 does not exist.
 Leave Link 1002 at Tue Dec 15 16:12:57 2015, MaxMem=    33554432 cpu:         0.0
 (Enter /home/Applications/g09/g09/l601.exe)
 Copying SCF densities to generalized density rwf, IOpCl= 0 IROHF=0.

 **********************************************************************

            Population analysis using the SCF density.

 **********************************************************************

 Orbital symmetries:
       Occupied  (A) (A) (A) (A) (A) (A) (A) (A) (A) (A) (A) (A)
                 (A)
       Virtual   (A) (A) (A) (A) (A) (A) (A) (A) (A) (A) (A)
 The electronic state is 1-A.
 Alpha  occ. eigenvalues --   -1.57587  -1.24626  -1.11096  -0.82724  -0.81756
 Alpha  occ. eigenvalues --   -0.68976  -0.60317  -0.56525  -0.51399  -0.50839
 Alpha  occ. eigenvalues --   -0.49627  -0.40051  -0.35245
 Alpha virt. eigenvalues --    0.03051   0.06774   0.09795   0.14097   0.14584
 Alpha virt. eigenvalues --    0.15902   0.18164   0.18650   0.18979   0.20782
 Alpha virt. eigenvalues --    0.22220
     Molecular Orbital Coefficients:
                           1         2         3         4         5
                           O         O         O         O         O
     Eigenvalues --    -1.57587  -1.24626  -1.11096  -0.82724  -0.81756
   1 1   C  1S          0.31535  -0.46431  -0.27880   0.13793   0.37958
   2        1PX         0.05782  -0.07828   0.18022  -0.26572   0.08141
   3        1PY        -0.12876   0.03488   0.12276  -0.12689   0.23852
   4        1PZ         0.00038  -0.00020   0.00000  -0.00139  -0.00199
   5 2   C  1S          0.39960  -0.11228  -0.50024   0.08893  -0.37468
   6        1PX         0.18478   0.04132   0.02735  -0.09389   0.09206
   7        1PY        -0.01920  -0.25905  -0.04099   0.31771   0.21430
   8        1PZ        -0.00030   0.00039   0.00003  -0.00144  -0.00195
   9 3   O  1S          0.61343   0.61705   0.03328  -0.14282   0.26074
  10        1PX        -0.00223  -0.01124   0.30845   0.43508   0.27463
  11        1PY         0.20063  -0.01360  -0.02433   0.06251  -0.17007
  12        1PZ        -0.00005   0.00009  -0.00063  -0.00216  -0.00089
  13 4   C  1S          0.34213  -0.10357   0.52061   0.33675  -0.27792
  14        1PX        -0.17341  -0.06797   0.00189  -0.02092  -0.18639
  15        1PY         0.01303  -0.21381   0.04024  -0.29533  -0.17516
  16        1PZ        -0.00005  -0.00005  -0.00068  -0.00297   0.00086
  17 5   C  1S          0.28830  -0.44719   0.32594  -0.42536   0.01842
  18        1PX        -0.07857   0.09003   0.14078  -0.06268  -0.26382
  19        1PY        -0.10387   0.02184  -0.12655  -0.18853   0.22609
  20        1PZ         0.00017  -0.00068   0.00082  -0.00420  -0.00041
  21 6   H  1S          0.06683  -0.15060   0.13403  -0.29495   0.00992
  22 7   H  1S          0.07261  -0.02619   0.20158   0.22091  -0.17108
  23 8   H  1S          0.09150  -0.01937  -0.20287   0.01497  -0.26570
  24 9   H  1S          0.06641  -0.14571  -0.10362   0.07405   0.24818
                           6         7         8         9        10
                           O         O         O         O         O
     Eigenvalues --    -0.68976  -0.60317  -0.56525  -0.51399  -0.50839
   1 1   C  1S         -0.09418  -0.00548  -0.18519  -0.02248  -0.03471
   2        1PX         0.20753  -0.00238  -0.02926  -0.19081   0.03540
   3        1PY        -0.23950  -0.00590  -0.19441  -0.31596   0.37188
   4        1PZ         0.00123   0.25924  -0.00467   0.00602  -0.00275
   5 2   C  1S         -0.08108   0.00480   0.13930   0.05768   0.05468
   6        1PX         0.38804  -0.01111  -0.35678   0.35197   0.00398
   7        1PY         0.04120   0.00745   0.14688   0.29216  -0.34201
   8        1PZ        -0.00135   0.41791  -0.01442  -0.00400   0.00048
   9 3   O  1S         -0.19292  -0.00039   0.00846   0.00932  -0.21287
  10        1PX         0.01790   0.01945   0.45403  -0.01981   0.08859
  11        1PY         0.46637   0.00020  -0.03192   0.11990   0.58386
  12        1PZ         0.00011   0.76131  -0.03371  -0.00685  -0.00247
  13 4   C  1S         -0.09393  -0.00282  -0.13372  -0.08457   0.05897
  14        1PX        -0.33991  -0.01403  -0.41388   0.19255  -0.13157
  15        1PY         0.12918  -0.00372  -0.01447  -0.21127  -0.32271
  16        1PZ         0.00180   0.35580  -0.00863   0.00053  -0.00146
  17 5   C  1S         -0.06784   0.00322   0.16489  -0.01301  -0.03871
  18        1PX        -0.20047   0.00473   0.16184   0.32454  -0.02158
  19        1PY        -0.21545   0.00477   0.12422   0.37373   0.33085
  20        1PZ        -0.00260   0.22498  -0.00041   0.01292   0.00283
  21 6   H  1S         -0.21822   0.01047   0.24452   0.38786   0.17087
  22 7   H  1S         -0.26503  -0.01236  -0.33623   0.15981   0.08372
  23 8   H  1S         -0.26751   0.01005   0.27141  -0.32302   0.15469
  24 9   H  1S         -0.23479  -0.00803  -0.21308  -0.14569   0.22068
                          11        12        13        14        15
                           O         O         O         V         V
     Eigenvalues --    -0.49627  -0.40051  -0.35245   0.03051   0.06774
   1 1   C  1S         -0.00903   0.00391   0.00011  -0.00087   0.00243
   2        1PX         0.52255  -0.00197   0.00593   0.00203  -0.00481
   3        1PY        -0.22235   0.00941  -0.00262  -0.00200   0.00943
   4        1PZ         0.00824   0.60091  -0.33864  -0.21842   0.63949
   5 2   C  1S          0.07533  -0.00323   0.00110   0.00097   0.00277
   6        1PX        -0.06829  -0.00005  -0.00269   0.00523  -0.00487
   7        1PY        -0.05305  -0.00301  -0.00472   0.00262   0.00028
   8        1PZ         0.00460   0.20647  -0.55181   0.48907  -0.48857
   9 3   O  1S         -0.04011   0.00012  -0.00158  -0.00015   0.00114
  10        1PX         0.04353  -0.00480  -0.00148   0.00048   0.00029
  11        1PY        -0.15231  -0.00091  -0.00377  -0.00006   0.00441
  12        1PZ        -0.00264  -0.53626  -0.00239  -0.35549   0.07242
  13 4   C  1S         -0.02993   0.00367   0.00481   0.00352   0.00268
  14        1PX         0.17517   0.00054   0.00383   0.00739   0.00411
  15        1PY        -0.35066   0.00443  -0.00404  -0.00434  -0.00056
  16        1PZ        -0.00597   0.12633   0.62278   0.62509   0.28024
  17 5   C  1S          0.04836  -0.00598  -0.00377   0.00335   0.00649
  18        1PX        -0.44246  -0.00707  -0.00874   0.00602   0.00639
  19        1PY         0.22863  -0.01072  -0.00377   0.00737   0.01032
  20        1PZ        -0.00150   0.54067   0.43900  -0.44237  -0.51767
  21 6   H  1S         -0.05744  -0.00385   0.00001  -0.00495  -0.01050
  22 7   H  1S          0.25419  -0.00084  -0.00049  -0.00580  -0.00356
  23 8   H  1S          0.12998   0.00070   0.00056   0.00132  -0.00390
  24 9   H  1S         -0.38432   0.00354  -0.00055   0.00083  -0.00780
                          16        17        18        19        20
                           V         V         V         V         V
     Eigenvalues --     0.09795   0.14097   0.14584   0.15902   0.18164
   1 1   C  1S          0.03245   0.16944  -0.29729  -0.16454  -0.39682
   2        1PX        -0.00149   0.37629   0.13609   0.23820  -0.04075
   3        1PY         0.06663  -0.08283  -0.14748   0.31672  -0.35120
   4        1PZ        -0.00487   0.00589   0.00722  -0.00628   0.00690
   5 2   C  1S         -0.23098  -0.15743   0.20510   0.42624  -0.13170
   6        1PX        -0.19575   0.39616   0.11579  -0.04649   0.00331
   7        1PY         0.31983  -0.01357  -0.07040   0.15858   0.20614
   8        1PZ         0.00014  -0.00696  -0.00249   0.00261  -0.00353
   9 3   O  1S          0.23366  -0.01372  -0.03487   0.04190   0.04758
  10        1PX         0.11005   0.17949   0.23268   0.21166  -0.10813
  11        1PY         0.48758  -0.04443  -0.07694   0.03963   0.05828
  12        1PZ        -0.00091   0.00178  -0.00070   0.00080   0.00121
  13 4   C  1S         -0.31906   0.00573  -0.43287   0.11245   0.23302
  14        1PX         0.27240   0.26946  -0.05681   0.35121   0.13177
  15        1PY         0.33790  -0.06983  -0.13863   0.09588   0.12335
  16        1PZ         0.00371  -0.00417   0.00540  -0.00903  -0.00215
  17 5   C  1S          0.06396  -0.19266   0.28069   0.07268   0.00551
  18        1PX         0.00720   0.36619   0.11176   0.15077  -0.38136
  19        1PY         0.02164  -0.13567  -0.26866   0.24054   0.27661
  20        1PZ         0.00474  -0.00040  -0.00102   0.01383  -0.00216
  21 6   H  1S         -0.13595   0.04660  -0.13304  -0.35625   0.02599
  22 7   H  1S          0.31549  -0.27476   0.35639  -0.32419  -0.20509
  23 8   H  1S          0.25639   0.49377  -0.09583  -0.30878   0.16393
  24 9   H  1S         -0.13228   0.13352   0.47156  -0.00482   0.51166
                          21        22        23        24
                           V         V         V         V
     Eigenvalues --     0.18650   0.18979   0.20782   0.22220
   1 1   C  1S         -0.00936  -0.14315  -0.25193  -0.11135
   2        1PX         0.41338   0.01913  -0.22351   0.29389
   3        1PY         0.03826   0.26394   0.39265   0.17087
   4        1PZ         0.00500  -0.00153  -0.00109  -0.00029
   5 2   C  1S          0.17745   0.11881   0.15534  -0.04701
   6        1PX        -0.19673   0.42770   0.27345  -0.17960
   7        1PY         0.05793   0.19431   0.23340   0.53368
   8        1PZ        -0.00038  -0.00238  -0.00223  -0.00095
   9 3   O  1S          0.03838  -0.08479   0.00109   0.02194
  10        1PX         0.07044   0.01842   0.07883  -0.50649
  11        1PY         0.01757  -0.27059  -0.02544   0.06593
  12        1PZ        -0.00079  -0.00019   0.00003   0.00078
  13 4   C  1S          0.00564   0.06332  -0.08890   0.06446
  14        1PX        -0.04333  -0.38997   0.22166  -0.25317
  15        1PY         0.32625   0.33546  -0.15544  -0.37428
  16        1PZ         0.00555   0.00332   0.00008  -0.00015
  17 5   C  1S         -0.49847  -0.10737   0.08179   0.03852
  18        1PX        -0.06691   0.00685  -0.39092   0.22816
  19        1PY        -0.13943   0.33742  -0.37935  -0.14100
  20        1PZ        -0.01320   0.00217  -0.00774   0.00131
  21 6   H  1S          0.51609  -0.13437   0.35285  -0.04840
  22 7   H  1S          0.14690   0.32770  -0.12839  -0.00540
  23 8   H  1S         -0.23426   0.26419   0.14286   0.05226
  24 9   H  1S          0.15329  -0.06805  -0.16152   0.06729
     Density Matrix:
                           1         2         3         4         5
   1 1   C  1S          1.20172
   2        1PX        -0.03438   0.94775
   3        1PY         0.07368  -0.04338   0.97742
   4        1PZ         0.00159  -0.00022   0.00103   1.08623
   5 2   C  1S          0.33116  -0.20599  -0.47958  -0.00041   1.21763
   6        1PX         0.15122   0.06619  -0.20634   0.00340  -0.10633
   7        1PY         0.45094  -0.29310  -0.49396   0.00505   0.00238
   8        1PZ         0.00012  -0.00233   0.00849   0.83871  -0.00120
   9 3   O  1S          0.00217  -0.03646  -0.00337   0.00067   0.10299
  10        1PX        -0.01228  -0.03372  -0.03027  -0.00118  -0.29850
  11        1PY        -0.07834  -0.01255   0.05966  -0.00060   0.29652
  12        1PZ        -0.00059   0.00092  -0.00236  -0.24794   0.00075
  13 4   C  1S         -0.02889  -0.00672   0.02212  -0.00064   0.01410
  14        1PX         0.02022  -0.04444  -0.01677   0.00043  -0.01537
  15        1PY        -0.01078  -0.07637  -0.02367   0.00164  -0.04065
  16        1PZ         0.00049   0.00138  -0.00035  -0.08548  -0.00025
  17 5   C  1S          0.26602   0.46481   0.01751  -0.00231  -0.02617
  18        1PX        -0.45662  -0.66265  -0.04028  -0.00427   0.00877
  19        1PY         0.05493   0.09899   0.11580  -0.00357   0.01913
  20        1PZ         0.00057  -0.00276   0.00221   0.46924   0.00054
  21 6   H  1S         -0.04444  -0.06289   0.00158   0.00165   0.05165
  22 7   H  1S          0.04577   0.06022  -0.00265   0.00119   0.04480
  23 8   H  1S         -0.05757   0.03238   0.07860   0.00097   0.60054
  24 9   H  1S          0.56524  -0.42120   0.66947  -0.00851  -0.05530
                           6         7         8         9        10
   6        1PX         0.92089
   7        1PY         0.08626   0.88904
   8        1PZ        -0.00070   0.00074   1.04406
   9 3   O  1S          0.20893  -0.18307   0.00062   1.86166
  10        1PX        -0.34571   0.43318   0.00110  -0.01796   1.15398
  11        1PY         0.52322  -0.31590   0.00217  -0.29339   0.01856
  12        1PZ         0.00300   0.00092   0.41852  -0.00004   0.00101
  13 4   C  1S         -0.00047  -0.04102  -0.00172   0.09514   0.34858
  14        1PX         0.04241  -0.01737  -0.00210  -0.21803  -0.52137
  15        1PY         0.01985  -0.01491   0.00276  -0.14067  -0.41165
  16        1PZ        -0.00189  -0.00322  -0.33757  -0.00081  -0.00031
  17 5   C  1S         -0.01575  -0.01178   0.00098  -0.00404  -0.00482
  18        1PX        -0.03310   0.07448   0.00120   0.03525  -0.02942
  19        1PY         0.01208  -0.03312  -0.00012  -0.00414   0.05114
  20        1PZ         0.00095  -0.00117  -0.07326  -0.00087  -0.00170
  21 6   H  1S          0.01496   0.05118  -0.00212   0.02189   0.05913
  22 7   H  1S          0.07567  -0.05035   0.00139  -0.03862  -0.06177
  23 8   H  1S         -0.67603  -0.33173   0.00581  -0.04249   0.03075
  24 9   H  1S         -0.03968  -0.04252  -0.00136   0.02419  -0.05102
                          11        12        13        14        15
  11        1PY         1.34173
  12        1PZ        -0.00013   1.73674
  13 4   C  1S          0.22998   0.00010   1.25546
  14        1PX        -0.45852   0.00339   0.10300   0.88399
  15        1PY        -0.16750  -0.00155  -0.00816  -0.09270   0.90818
  16        1PZ        -0.00296   0.40390   0.00377  -0.00083   0.00047
  17 5   C  1S         -0.08427   0.00161   0.29585  -0.09542   0.44398
  18        1PX         0.03125   0.00246   0.14186   0.09427   0.23082
  19        1PY         0.06089   0.00298  -0.49077   0.13661  -0.58123
  20        1PZ        -0.00007  -0.23957   0.00426   0.00381  -0.00435
  21 6   H  1S          0.07503  -0.00126  -0.05419   0.03637  -0.04979
  22 7   H  1S         -0.06123  -0.00016   0.61627   0.62107  -0.39972
  23 8   H  1S         -0.06391  -0.00019   0.05589  -0.09410  -0.05297
  24 9   H  1S          0.09492   0.00056   0.05448  -0.01183   0.05929
                          16        17        18        19        20
  16        1PZ         1.06107
  17 5   C  1S         -0.00536   1.21292
  18        1PX        -0.00740   0.04074   0.95144
  19        1PY        -0.00853   0.06395   0.04180   0.95469
  20        1PZ         0.84354  -0.00402  -0.00187   0.00024   1.07172
  21 6   H  1S          0.00368   0.59337   0.49386   0.59299   0.01557
  22 7   H  1S         -0.00976  -0.05859  -0.02429   0.09375  -0.00274
  23 8   H  1S         -0.00025   0.05018  -0.07285   0.00882  -0.00111
  24 9   H  1S          0.00124  -0.04175   0.05497  -0.00015  -0.00102
                          21        22        23        24
  21 6   H  1S          0.84535
  22 7   H  1S          0.01228   0.81054
  23 8   H  1S         -0.01337  -0.02219   0.82244
  24 9   H  1S         -0.00914  -0.01377   0.00245   0.84336
    Full Mulliken population analysis:
                           1         2         3         4         5
   1 1   C  1S          1.20172
   2        1PX         0.00000   0.94775
   3        1PY         0.00000   0.00000   0.97742
   4        1PZ         0.00000   0.00000   0.00000   1.08623
   5 2   C  1S          0.00000   0.00000   0.00000   0.00000   1.21763
   6        1PX         0.00000   0.00000   0.00000   0.00000   0.00000
   7        1PY         0.00000   0.00000   0.00000   0.00000   0.00000
   8        1PZ         0.00000   0.00000   0.00000   0.00000   0.00000
   9 3   O  1S          0.00000   0.00000   0.00000   0.00000   0.00000
  10        1PX         0.00000   0.00000   0.00000   0.00000   0.00000
  11        1PY         0.00000   0.00000   0.00000   0.00000   0.00000
  12        1PZ         0.00000   0.00000   0.00000   0.00000   0.00000
  13 4   C  1S          0.00000   0.00000   0.00000   0.00000   0.00000
  14        1PX         0.00000   0.00000   0.00000   0.00000   0.00000
  15        1PY         0.00000   0.00000   0.00000   0.00000   0.00000
  16        1PZ         0.00000   0.00000   0.00000   0.00000   0.00000
  17 5   C  1S          0.00000   0.00000   0.00000   0.00000   0.00000
  18        1PX         0.00000   0.00000   0.00000   0.00000   0.00000
  19        1PY         0.00000   0.00000   0.00000   0.00000   0.00000
  20        1PZ         0.00000   0.00000   0.00000   0.00000   0.00000
  21 6   H  1S          0.00000   0.00000   0.00000   0.00000   0.00000
  22 7   H  1S          0.00000   0.00000   0.00000   0.00000   0.00000
  23 8   H  1S          0.00000   0.00000   0.00000   0.00000   0.00000
  24 9   H  1S          0.00000   0.00000   0.00000   0.00000   0.00000
                           6         7         8         9        10
   6        1PX         0.92089
   7        1PY         0.00000   0.88904
   8        1PZ         0.00000   0.00000   1.04406
   9 3   O  1S          0.00000   0.00000   0.00000   1.86166
  10        1PX         0.00000   0.00000   0.00000   0.00000   1.15398
  11        1PY         0.00000   0.00000   0.00000   0.00000   0.00000
  12        1PZ         0.00000   0.00000   0.00000   0.00000   0.00000
  13 4   C  1S          0.00000   0.00000   0.00000   0.00000   0.00000
  14        1PX         0.00000   0.00000   0.00000   0.00000   0.00000
  15        1PY         0.00000   0.00000   0.00000   0.00000   0.00000
  16        1PZ         0.00000   0.00000   0.00000   0.00000   0.00000
  17 5   C  1S          0.00000   0.00000   0.00000   0.00000   0.00000
  18        1PX         0.00000   0.00000   0.00000   0.00000   0.00000
  19        1PY         0.00000   0.00000   0.00000   0.00000   0.00000
  20        1PZ         0.00000   0.00000   0.00000   0.00000   0.00000
  21 6   H  1S          0.00000   0.00000   0.00000   0.00000   0.00000
  22 7   H  1S          0.00000   0.00000   0.00000   0.00000   0.00000
  23 8   H  1S          0.00000   0.00000   0.00000   0.00000   0.00000
  24 9   H  1S          0.00000   0.00000   0.00000   0.00000   0.00000
                          11        12        13        14        15
  11        1PY         1.34173
  12        1PZ         0.00000   1.73674
  13 4   C  1S          0.00000   0.00000   1.25546
  14        1PX         0.00000   0.00000   0.00000   0.88399
  15        1PY         0.00000   0.00000   0.00000   0.00000   0.90818
  16        1PZ         0.00000   0.00000   0.00000   0.00000   0.00000
  17 5   C  1S          0.00000   0.00000   0.00000   0.00000   0.00000
  18        1PX         0.00000   0.00000   0.00000   0.00000   0.00000
  19        1PY         0.00000   0.00000   0.00000   0.00000   0.00000
  20        1PZ         0.00000   0.00000   0.00000   0.00000   0.00000
  21 6   H  1S          0.00000   0.00000   0.00000   0.00000   0.00000
  22 7   H  1S          0.00000   0.00000   0.00000   0.00000   0.00000
  23 8   H  1S          0.00000   0.00000   0.00000   0.00000   0.00000
  24 9   H  1S          0.00000   0.00000   0.00000   0.00000   0.00000
                          16        17        18        19        20
  16        1PZ         1.06107
  17 5   C  1S          0.00000   1.21292
  18        1PX         0.00000   0.00000   0.95144
  19        1PY         0.00000   0.00000   0.00000   0.95469
  20        1PZ         0.00000   0.00000   0.00000   0.00000   1.07172
  21 6   H  1S          0.00000   0.00000   0.00000   0.00000   0.00000
  22 7   H  1S          0.00000   0.00000   0.00000   0.00000   0.00000
  23 8   H  1S          0.00000   0.00000   0.00000   0.00000   0.00000
  24 9   H  1S          0.00000   0.00000   0.00000   0.00000   0.00000
                          21        22        23        24
  21 6   H  1S          0.84535
  22 7   H  1S          0.00000   0.81054
  23 8   H  1S          0.00000   0.00000   0.82244
  24 9   H  1S          0.00000   0.00000   0.00000   0.84336
     Gross orbital populations:
                           1
   1 1   C  1S          1.20172
   2        1PX         0.94775
   3        1PY         0.97742
   4        1PZ         1.08623
   5 2   C  1S          1.21763
   6        1PX         0.92089
   7        1PY         0.88904
   8        1PZ         1.04406
   9 3   O  1S          1.86166
  10        1PX         1.15398
  11        1PY         1.34173
  12        1PZ         1.73674
  13 4   C  1S          1.25546
  14        1PX         0.88399
  15        1PY         0.90818
  16        1PZ         1.06107
  17 5   C  1S          1.21292
  18        1PX         0.95144
  19        1PY         0.95469
  20        1PZ         1.07172
  21 6   H  1S          0.84535
  22 7   H  1S          0.81054
  23 8   H  1S          0.82244
  24 9   H  1S          0.84336
          Condensed to atoms (all electrons):
               1          2          3          4          5          6
     1  C    4.213116   0.000000   0.000000   0.000000   0.000000   0.000000
     2  C    0.000000   4.071613   0.000000   0.000000   0.000000   0.000000
     3  O    0.000000   0.000000   6.094115   0.000000   0.000000   0.000000
     4  C    0.000000   0.000000   0.000000   4.108696   0.000000   0.000000
     5  C    0.000000   0.000000   0.000000   0.000000   4.190764   0.000000
     6  H    0.000000   0.000000   0.000000   0.000000   0.000000   0.845348
     7  H    0.000000   0.000000   0.000000   0.000000   0.000000   0.000000
     8  H    0.000000   0.000000   0.000000   0.000000   0.000000   0.000000
     9  H    0.000000   0.000000   0.000000   0.000000   0.000000   0.000000
               7          8          9
     1  C    0.000000   0.000000   0.000000
     2  C    0.000000   0.000000   0.000000
     3  O    0.000000   0.000000   0.000000
     4  C    0.000000   0.000000   0.000000
     5  C    0.000000   0.000000   0.000000
     6  H    0.000000   0.000000   0.000000
     7  H    0.810541   0.000000   0.000000
     8  H    0.000000   0.822443   0.000000
     9  H    0.000000   0.000000   0.843364
 Mulliken charges:
               1
     1  C   -0.213116
     2  C   -0.071613
     3  O   -0.094115
     4  C   -0.108696
     5  C   -0.190764
     6  H    0.154652
     7  H    0.189459
     8  H    0.177557
     9  H    0.156636
 Sum of Mulliken charges =   0.00000
 Mulliken charges with hydrogens summed into heavy atoms:
               1
     1  C   -0.056480
     2  C    0.105944
     3  O   -0.094115
     4  C    0.080763
     5  C   -0.036112
 Charge=              0.0000 electrons
 Dipole moment (field-independent basis, Debye):
    X=              0.0795    Y=              0.4303    Z=              0.0022  Tot=              0.4376
 N-N= 1.039351138971D+02 E-N=-1.717835475446D+02  KE=-1.661673184588D+01
 Orbital energies and kinetic energies (alpha):
                                 1                 2
   1         O                -1.575872         -1.328158
   2         O                -1.246256         -1.052284
   3         O                -1.110965         -0.969166
   4         O                -0.827241         -0.714280
   5         O                -0.817561         -0.718366
   6         O                -0.689756         -0.606613
   7         O                -0.603167         -0.489372
   8         O                -0.565248         -0.502553
   9         O                -0.513993         -0.437904
  10         O                -0.508392         -0.407641
  11         O                -0.496273         -0.423905
  12         O                -0.400510         -0.342822
  13         O                -0.352448         -0.315302
  14         V                 0.030512         -0.195069
  15         V                 0.067738         -0.185494
  16         V                 0.097953         -0.187387
  17         V                 0.140968         -0.189355
  18         V                 0.145838         -0.223118
  19         V                 0.159024         -0.182635
  20         V                 0.181642         -0.181815
  21         V                 0.186501         -0.187575
  22         V                 0.189787         -0.123366
  23         V                 0.207817         -0.123827
  24         V                 0.222202         -0.045360
 Total kinetic energy from orbitals=-1.661673184588D+01
 Leave Link  601 at Tue Dec 15 16:12:57 2015, MaxMem=    33554432 cpu:         0.0
 (Enter /home/Applications/g09/g09/l701.exe)
 Compute integral first derivatives.
 ... and contract with generalized density number  6.
 Leave Link  701 at Tue Dec 15 16:12:57 2015, MaxMem=    33554432 cpu:         0.0
 (Enter /home/Applications/g09/g09/l702.exe)
 L702 exits ... SP integral derivatives will be done elsewhere.
 Leave Link  702 at Tue Dec 15 16:12:58 2015, MaxMem=    33554432 cpu:         0.0
 (Enter /home/Applications/g09/g09/l703.exe)
 Compute integral first derivatives, UseDBF=F ICtDFT=           0.
 Integral derivatives from FoFJK, PRISM(SPDF).
 Calling FoFJK, ICntrl=  10005127 FMM=F ISym2X=0 I1Cent= 0 IOpClX= 0 NMat=1 NMatS=1 NMatT=0.
 FoFJK:  IHMeth= 8 ICntrl=10005127 DoSepK=F KAlg= 0 I1Cent=   0 FoldK=F
 IRaf=         0 NMat=   1 IRICut=       1 DoRegI=T DoRafI=F ISym2E= 0.
 FoFCou: FMM=F IPFlag=           0 FMFlag=      100000 FMFlg1=         800
         NFxFlg=           0 DoJE=F BraDBF=F KetDBF=F FulRan=T
         wScrn=  0.000000 ICntrl=10005127 IOpCl=  0 I1Cent=           0 NGrid=           0
         NMat0=    1 NMatS0=      1 NMatT0=    0 NMatD0=    1 NMtDS0=    0 NMtDT0=    0
 Symmetry not used in FoFCou.
 Leave Link  703 at Tue Dec 15 16:12:58 2015, MaxMem=    33554432 cpu:         0.0
 (Enter /home/Applications/g09/g09/l716.exe)
 Dipole        =-6.33239100D-02 2.68301230D-01 9.10496385D-04
 ***** Axes restored to original set *****
 -------------------------------------------------------------------
 Center     Atomic                   Forces (Hartrees/Bohr)
 Number     Number              X              Y              Z
 -------------------------------------------------------------------
      1        6           0.205267461    0.033965076    0.000674794
      2        6          -0.126428796   -0.095195955   -0.000076517
      3        8          -0.093735970    0.049442613    0.001022374
      4        6          -0.045489064    0.034660789    0.001857086
      5        6           0.043394862   -0.035249990   -0.002169817
      6        1           0.042549199    0.026977576   -0.000485159
      7        1          -0.013214209    0.008581937    0.000042869
      8        1          -0.010126438   -0.026149229   -0.000208845
      9        1          -0.002217045    0.002967184   -0.000656786
 -------------------------------------------------------------------
 Cartesian Forces:  Max     0.205267461 RMS     0.057593429
 Z-matrix is all fixed cartesians, so copy forces.
 Force constants in Cartesian coordinates: 
                1             2             3             4             5 
      1  0.106620D+01
      2  0.371527D-01  0.824150D+00
      3 -0.231061D-02  0.517029D-03  0.243291D+00
      4 -0.664974D+00 -0.150690D+00  0.241744D-02  0.113560D+01
      5 -0.124859D+00 -0.250153D+00  0.437134D-03  0.561631D-01  0.937647D+00
      6  0.301150D-02  0.281396D-03 -0.138979D+00 -0.448978D-02  0.702826D-02
      7 -0.900101D-02  0.301782D-01  0.389028D-03 -0.319128D+00  0.187371D+00
      8 -0.724700D-02  0.242963D-01  0.170233D-03  0.231522D+00 -0.382625D+00
      9  0.129183D-03 -0.356246D-03  0.978036D-02  0.370817D-02 -0.406142D-02
     10  0.105112D-01 -0.335689D-03 -0.271443D-04  0.236359D-01  0.190279D-01
     11  0.343544D-01 -0.109810D-02 -0.533075D-04 -0.167834D-01 -0.135112D-01
     12  0.213130D-03  0.181746D-04 -0.935043D-03 -0.312586D-03 -0.239225D-03
     13 -0.171100D+00  0.437547D-02  0.985842D-03  0.109401D-01 -0.366817D-01
     14 -0.189846D-01 -0.425682D+00 -0.235548D-02 -0.349087D-03  0.117088D-02
     15  0.124226D-02 -0.187557D-02 -0.867897D-01 -0.144951D-03  0.434624D-03
     16  0.186005D-01 -0.594256D-03 -0.855667D-04  0.135550D-05  0.000000D+00
     17 -0.244468D-01  0.776956D-03  0.121130D-02  0.000000D+00  0.000000D+00
     18 -0.587363D-03 -0.531372D-04  0.193734D-01  0.287198D-04 -0.205096D-04
     19  0.000000D+00  0.000000D+00  0.191032D-04  0.000000D+00  0.000000D+00
     20 -0.189718D-05  0.000000D+00 -0.180447D-03  0.000000D+00  0.000000D+00
     21  0.664718D-04 -0.255928D-04  0.632235D-02  0.382400D-04 -0.274465D-04
     22  0.818468D-02 -0.274400D-01 -0.224965D-03 -0.180797D+00 -0.118726D+00
     23 -0.455253D-02  0.152555D-01 -0.384180D-03 -0.112528D+00 -0.317113D+00
     24  0.706143D-04  0.347443D-03  0.406943D-01 -0.152544D-02 -0.310540D-02
     25 -0.258425D+00  0.107354D+00 -0.116312D-02 -0.528280D-02  0.177062D-01
     26  0.108585D+00 -0.187547D+00  0.637717D-03 -0.733329D-02  0.245833D-01
     27 -0.183518D-02  0.114650D-02 -0.927575D-01  0.280194D-03 -0.446011D-03
                6             7             8             9            10 
      6  0.249944D+00
      7  0.363388D-02  0.546515D+00
      8 -0.472696D-02 -0.509977D-01  0.690217D+00
      9 -0.516399D-01 -0.516477D-02  0.529173D-02  0.563721D-01
     10 -0.206833D-03 -0.253277D+00 -0.180881D+00  0.167573D-02  0.863559D+00
     11  0.135944D-03 -0.136564D+00 -0.335179D+00 -0.453976D-03 -0.472607D-01
     12 -0.222781D-02  0.149048D-02 -0.581964D-03 -0.432105D-01 -0.974865D-02
     13 -0.562614D-03 -0.869535D-02  0.617450D-02  0.746789D-04 -0.476513D+00
     14  0.314244D-04 -0.284260D-01  0.201846D-01  0.129393D-04  0.101967D+00
     15 -0.141327D-02 -0.223530D-04  0.394472D-04  0.341667D-02  0.393975D-02
     16  0.249110D-03  0.124141D-05  0.000000D+00  0.128825D-03 -0.562593D-02
     17 -0.275545D-04  0.176169D-05 -0.126440D-05  0.182816D-03  0.739392D-02
     18  0.527804D-02  0.597786D-04 -0.429043D-04  0.620341D-02  0.172598D-03
     19  0.101236D-03  0.222105D-01 -0.157711D-01 -0.791277D-03 -0.162291D+00
     20 -0.721789D-04  0.103206D-01 -0.732842D-02 -0.533065D-03  0.100090D+00
     21  0.398036D-02 -0.237445D-03  0.168197D-03  0.553135D-02  0.410056D-02
     22 -0.154069D-02  0.213748D-01  0.172017D-01  0.229509D-03  0.000000D+00
     23 -0.269585D-02 -0.118842D-01 -0.956322D-02 -0.181771D-03  0.000000D+00
     24 -0.993036D-01 -0.212884D-03 -0.234636D-03  0.432583D-02  0.493052D-04
     25 -0.195808D-03  0.000000D+00  0.000000D+00  0.995227D-05  0.000000D+00
     26  0.455211D-04  0.000000D+00  0.000000D+00  0.989992D-04  0.000000D+00
     27  0.343618D-01  0.642865D-04 -0.831401D-04  0.922074D-02  0.446872D-04
               11            12            13            14            15 
     11  0.865691D+00
     12  0.990508D-02  0.179076D+00
     13  0.813055D-01  0.315688D-02  0.939112D+00
     14 -0.210244D+00 -0.137556D-02  0.687796D-01  0.841119D+00
     15 -0.743795D-03 -0.961703D-01 -0.158648D-01 -0.432620D-02  0.212717D+00
     16 -0.184417D-01  0.129602D-02 -0.318636D+00 -0.149013D+00  0.980696D-02
     17  0.241823D-01 -0.275974D-03 -0.150991D+00 -0.238130D+00  0.682390D-02
     18 -0.400904D-03  0.251218D-01  0.111395D-01  0.784212D-02 -0.869549D-01
     19  0.103390D+00  0.393549D-02  0.813620D-02  0.265627D-01  0.925077D-03
     20 -0.329842D+00 -0.736734D-02  0.376592D-02  0.123256D-01 -0.373485D-03
     21 -0.833645D-02 -0.710363D-01  0.406117D-03  0.297323D-03  0.268182D-01
     22  0.000000D+00  0.796978D-05  0.000000D+00  0.000000D+00  0.962246D-04
     23  0.000000D+00 -0.686602D-04  0.000000D+00  0.000000D+00 -0.178827D-03
     24 -0.353884D-04  0.513212D-02  0.544857D-04 -0.389099D-04  0.100132D-01
     25  0.000000D+00 -0.387446D-04  0.167555D-01 -0.535679D-03  0.217940D-04
     26  0.000000D+00 -0.145384D-04  0.232730D-01 -0.744672D-03  0.199901D-03
     27 -0.172053D-04  0.425034D-02  0.609853D-03 -0.876574D-04  0.183634D-01
               16            17            18            19            20 
     16  0.305657D+00
     17  0.168044D+00  0.213163D+00
     18 -0.108463D-01 -0.764528D-02  0.484289D-01
     19  0.000000D+00  0.000000D+00 -0.313836D-04  0.131944D+00
     20  0.615620D-05  0.873631D-05  0.296445D-03 -0.114180D+00  0.324835D+00
     21 -0.215696D-03 -0.306096D-03 -0.103866D-01 -0.415825D-02  0.823007D-02
     22  0.000000D+00  0.000000D+00  0.000000D+00  0.000000D+00  0.000000D+00
     23  0.000000D+00  0.000000D+00  0.000000D+00  0.000000D+00  0.000000D+00
     24  0.000000D+00  0.000000D+00  0.000000D+00  0.000000D+00  0.000000D+00
     25  0.303920D-05  0.000000D+00  0.643933D-04  0.000000D+00  0.000000D+00
     26  0.114042D-05  0.000000D+00  0.241627D-04  0.000000D+00  0.000000D+00
     27 -0.333405D-03  0.368785D-04 -0.706403D-02  0.000000D+00  0.000000D+00
               21            22            23            24            25 
     21  0.387707D-01
     22  0.000000D+00  0.151238D+00
     23  0.000000D+00  0.128966D+00  0.311416D+00
     24  0.000000D+00  0.158062D-02  0.323300D-02  0.546089D-01
     25  0.000000D+00  0.000000D+00  0.000000D+00 -0.166982D-04  0.246950D+00
     26  0.000000D+00 -0.159621D-05  0.296646D-05 -0.166103D-03 -0.124525D+00
     27  0.000000D+00 -0.148670D-03  0.276294D-03 -0.154708D-01  0.131823D-02
               26            27 
     26  0.163706D+00
     27 -0.825659D-03  0.490961D-01
 Leave Link  716 at Tue Dec 15 16:12:58 2015, MaxMem=    33554432 cpu:         0.0
 (Enter /home/Applications/g09/g09/l103.exe)

 GradGradGradGradGradGradGradGradGradGradGradGradGradGradGradGradGradGrad
 Berny optimization.
 Search for a local minimum.
 Step number   1 out of a maximum of    2
 All quantities printed in internal units (Hartrees-Bohrs-Radians)
 Second derivative matrix not updated -- first step.
 ITU=  0
     Eigenvalues ---    0.02041   0.03341   0.07267   0.07671   0.08237
     Eigenvalues ---    0.09375   0.13469   0.15401   0.16512   0.24958
     Eigenvalues ---    0.27562   0.32805   0.45622   0.45768   0.67082
     Eigenvalues ---    0.85835   1.09129   1.38990   1.46012   1.53431
     Eigenvalues ---    1.92467
 Quadratic step=5.179D-01 exceeds max=3.000D-01 adjusted using Lamda=-2.179D-01.
 Angle between NR and scaled steps=  15.73 degrees.
 Angle between quadratic step and forces=  34.39 degrees.
 Linear search not attempted -- first point.
 TrRot= -0.008969  0.002553  0.000124 -0.000625  0.000051 -0.000625
 MatCor failed.
 Variable       Old X    -DE/DX   Delta X   Delta X   Delta X     New X
                                 (Linear)    (Quad)   (Total)
    X1        1.72867   0.20527   0.00000   0.14638   0.13574   1.86441
    Y1       -1.33048   0.03397   0.00000  -0.00544  -0.00524  -1.33572
    Z1       -0.00474   0.00067   0.00000   0.00146   0.00149  -0.00325
    X2       -0.60360  -0.12643   0.00000  -0.06856  -0.08013  -0.68373
    Y2       -2.02622  -0.09520   0.00000  -0.05592  -0.05252  -2.07875
    Z2        0.00524  -0.00008   0.00000   0.00013   0.00029   0.00554
    X3       -2.19648  -0.09374   0.00000  -0.13576  -0.14473  -2.34122
    Y3       -0.04730   0.04944   0.00000   0.04086   0.04633  -0.00097
    Z3        0.03419   0.00102   0.00000   0.00071   0.00096   0.03515
    X4       -0.66567  -0.04549   0.00000  -0.03818  -0.04447  -0.71015
    Y4        2.10854   0.03466   0.00000   0.02593   0.02936   2.13790
    Z4        0.03435   0.00186   0.00000   0.00282   0.00298   0.03733
    X5        1.81435   0.04339   0.00000   0.07662   0.06933   1.88368
    Y5        1.34992  -0.03525   0.00000  -0.00562  -0.00543   1.34449
    Z5        0.00521  -0.00217   0.00000  -0.00453  -0.00450   0.00071
    X6        3.35547   0.04255   0.00000   0.10581   0.10006   3.45553
    Y6        2.52409   0.02698   0.00000   0.05353   0.05176   2.57585
    Z6       -0.06140  -0.00049   0.00000  -0.00034  -0.00039  -0.06179
    X7       -1.51334  -0.01321   0.00000  -0.04271  -0.04672  -1.56006
    Y7        3.93401   0.00858   0.00000   0.03121   0.03571   3.96971
    Z7        0.08901   0.00004   0.00000   0.00107   0.00127   0.09029
    X8       -1.57852  -0.01013   0.00000  -0.03986  -0.05367  -1.63219
    Y8       -3.77931  -0.02615   0.00000  -0.08986  -0.08528  -3.86459
    Z8       -0.01670  -0.00021   0.00000  -0.00103  -0.00082  -0.01752
    X9        3.41573  -0.00222   0.00000   0.07676   0.06459   3.48032
    Y9       -2.54539   0.00297   0.00000  -0.01287  -0.01468  -2.56008
    Z9        0.00648  -0.00066   0.00000  -0.00123  -0.00128   0.00520
         Item               Value     Threshold  Converged?
 Maximum Force            0.205267     0.000450     NO 
 RMS     Force            0.057593     0.000300     NO 
 Maximum Displacement     0.144733     0.001800     NO 
 RMS     Displacement     0.057455     0.001200     NO 
 Predicted change in Energy=-4.686003D-02
 GradGradGradGradGradGradGradGradGradGradGradGradGradGradGradGradGradGrad

 Leave Link  103 at Tue Dec 15 16:12:58 2015, MaxMem=    33554432 cpu:         0.0
 (Enter /home/Applications/g09/g09/l9999.exe)
 1\1\GINC-DUSTIN-DESKTOP\Force\RAM1-FC\STO-3G\C4H4O1\DUSTIN\15-Dec-2015
 \0\\#P AM1(Input,print) CIS(Singlets,NStates=15) pop(full) force\\AM1-
 Reparam Input\\0,1\C,0.914771,-0.704061,-0.00251\C,-0.319413,-1.072232
 ,0.002775\O,-1.162329,-0.025031,0.018094\C,-0.352258,1.115789,0.018178
 \C,0.960111,0.714346,0.002755\H,1.775637,1.335691,-0.032492\H,-0.80082
 4,2.081787,0.047104\H,-0.835319,-1.999924,-0.008835\H,1.807528,-1.3469
 64,0.003429\\Version=ES64L-G09RevD.01\State=1-A\HF=0.0272924\RMSD=5.81
 8e-09\RMSF=5.759e-02\Dipole=0.2636922,-0.0802963,-0.003904\PG=C01 [X(C
 4H4O1)]\\@


 IF IT HAPPENS, IT MUST BE POSSIBLE.

 -- THE UNNAMED LAW FROM PAUL DICKSON'S 
    "THE OFFICIAL RULES"
 Job cpu time:       0 days  0 hours  0 minutes  0.5 seconds.
 File lengths (MBytes):  RWF=      7 Int=      0 D2E=      0 Chk=      2 Scr=      1
 Normal termination of Gaussian 09 at Tue Dec 15 16:12:58 2015.
