 Entering Gaussian System, Link 0=g09
 Input=FuranDFT_84.com
 Output=FuranDFT_84.log
 Initial command:
 /home/Applications/g09/g09/l1.exe "/home/Applications/g09/scratch/Gau-6324.inp" -scrdir="/home/Applications/g09/scratch/"
 Entering Link 1 = /home/Applications/g09/g09/l1.exe PID=      6326.
  
 Copyright (c) 1988,1990,1992,1993,1995,1998,2003,2009,2013,
            Gaussian, Inc.  All Rights Reserved.
  
 This is part of the Gaussian(R) 09 program.  It is based on
 the Gaussian(R) 03 system (copyright 2003, Gaussian, Inc.),
 the Gaussian(R) 98 system (copyright 1998, Gaussian, Inc.),
 the Gaussian(R) 94 system (copyright 1995, Gaussian, Inc.),
 the Gaussian 92(TM) system (copyright 1992, Gaussian, Inc.),
 the Gaussian 90(TM) system (copyright 1990, Gaussian, Inc.),
 the Gaussian 88(TM) system (copyright 1988, Gaussian, Inc.),
 the Gaussian 86(TM) system (copyright 1986, Carnegie Mellon
 University), and the Gaussian 82(TM) system (copyright 1983,
 Carnegie Mellon University). Gaussian is a federally registered
 trademark of Gaussian, Inc.
  
 This software contains proprietary and confidential information,
 including trade secrets, belonging to Gaussian, Inc.
  
 This software is provided under written license and may be
 used, copied, transmitted, or stored only in accord with that
 written license.
  
 The following legend is applicable only to US Government
 contracts under FAR:
  
                    RESTRICTED RIGHTS LEGEND
  
 Use, reproduction and disclosure by the US Government is
 subject to restrictions as set forth in subparagraphs (a)
 and (c) of the Commercial Computer Software - Restricted
 Rights clause in FAR 52.227-19.
  
 Gaussian, Inc.
 340 Quinnipiac St., Bldg. 40, Wallingford CT 06492
  
  
 ---------------------------------------------------------------
 Warning -- This program may not be used in any manner that
 competes with the business of Gaussian, Inc. or will provide
 assistance to any competitor of Gaussian, Inc.  The licensee
 of this program is prohibited from giving any competitor of
 Gaussian, Inc. access to this program.  By using this program,
 the user acknowledges that Gaussian, Inc. is engaged in the
 business of creating and licensing software in the field of
 computational chemistry and represents and warrants to the
 licensee that it is not a competitor of Gaussian, Inc. and that
 it will not use this program in any manner prohibited above.
 ---------------------------------------------------------------
  

 Cite this work as:
 Gaussian 09, Revision D.01,
 M. J. Frisch, G. W. Trucks, H. B. Schlegel, G. E. Scuseria, 
 M. A. Robb, J. R. Cheeseman, G. Scalmani, V. Barone, B. Mennucci, 
 G. A. Petersson, H. Nakatsuji, M. Caricato, X. Li, H. P. Hratchian, 
 A. F. Izmaylov, J. Bloino, G. Zheng, J. L. Sonnenberg, M. Hada, 
 M. Ehara, K. Toyota, R. Fukuda, J. Hasegawa, M. Ishida, T. Nakajima, 
 Y. Honda, O. Kitao, H. Nakai, T. Vreven, J. A. Montgomery, Jr., 
 J. E. Peralta, F. Ogliaro, M. Bearpark, J. J. Heyd, E. Brothers, 
 K. N. Kudin, V. N. Staroverov, T. Keith, R. Kobayashi, J. Normand, 
 K. Raghavachari, A. Rendell, J. C. Burant, S. S. Iyengar, J. Tomasi, 
 M. Cossi, N. Rega, J. M. Millam, M. Klene, J. E. Knox, J. B. Cross, 
 V. Bakken, C. Adamo, J. Jaramillo, R. Gomperts, R. E. Stratmann, 
 O. Yazyev, A. J. Austin, R. Cammi, C. Pomelli, J. W. Ochterski, 
 R. L. Martin, K. Morokuma, V. G. Zakrzewski, G. A. Voth, 
 P. Salvador, J. J. Dannenberg, S. Dapprich, A. D. Daniels, 
 O. Farkas, J. B. Foresman, J. V. Ortiz, J. Cioslowski, 
 and D. J. Fox, Gaussian, Inc., Wallingford CT, 2013.
 
 ******************************************
 Gaussian 09:  ES64L-G09RevD.01 24-Apr-2013
                15-Dec-2015 
 ******************************************
 -------------------------------------------------------
 #P B3LYP/3-21G CIS(Singlets,NStates=15) pop(full) force
 -------------------------------------------------------
 1/10=7,30=1,38=1/1,3;
 2/12=2,17=6,18=5,40=1/2;
 3/5=5,11=9,16=1,25=1,30=1,71=1,74=-5/1,2,8,3;
 4//1;
 5/5=2,38=5/2;
 8/6=1,10=1,108=15/1;
 9/15=2,41=15,42=1,48=1/14;
 10/5=4/2;
 6/7=3,18=1/1;
 7/12=6,13=5,29=1/1,2,3,16;
 1/10=7,30=1/3;
 99//99;
 Leave Link    1 at Tue Dec 15 16:28:07 2015, MaxMem=           0 cpu:         0.0
 (Enter /home/Applications/g09/g09/l101.exe)
 --------
 FuranDFT
 --------
 Symbolic Z-matrix:
 Charge =  0 Multiplicity = 1
 6                     0.92511  -0.7031   -0.01143 
 6                    -0.34637  -1.11157   0.00275 
 8                    -1.17033   0.04712   0.01216 
 6                    -0.32064   1.05178  -0.02118 
 6                     0.92699   0.67463  -0.04958 
 1                     1.76471   1.41378   0.00737 
 1                    -0.79051   2.00082  -0.02618 
 1                    -0.86804  -2.0386    0.02969 
 1                     1.80204  -1.32248  -0.03228 
 
 NAtoms=      9 NQM=        9 NQMF=       0 NMMI=      0 NMMIF=      0
                NMic=       0 NMicF=      0.
                    Isotopes and Nuclear Properties:
 (Nuclear quadrupole moments (NQMom) in fm**2, nuclear magnetic moments (NMagM)
  in nuclear magnetons)

  Atom         1           2           3           4           5           6           7           8           9
 IAtWgt=          12          12          16          12          12           1           1           1           1
 AtmWgt=  12.0000000  12.0000000  15.9949146  12.0000000  12.0000000   1.0078250   1.0078250   1.0078250   1.0078250
 NucSpn=           0           0           0           0           0           1           1           1           1
 AtZEff=   0.0000000   0.0000000   0.0000000   0.0000000   0.0000000   0.0000000   0.0000000   0.0000000   0.0000000
 NQMom=    0.0000000   0.0000000   0.0000000   0.0000000   0.0000000   0.0000000   0.0000000   0.0000000   0.0000000
 NMagM=    0.0000000   0.0000000   0.0000000   0.0000000   0.0000000   2.7928460   2.7928460   2.7928460   2.7928460
 AtZNuc=   6.0000000   6.0000000   8.0000000   6.0000000   6.0000000   1.0000000   1.0000000   1.0000000   1.0000000
 Leave Link  101 at Tue Dec 15 16:28:07 2015, MaxMem=    33554432 cpu:         0.0
 (Enter /home/Applications/g09/g09/l103.exe)

 GradGradGradGradGradGradGradGradGradGradGradGradGradGradGradGradGradGrad
 Berny optimization.
 Initialization pass.
 Trust Radius=3.00D-01 FncErr=1.00D-07 GrdErr=1.00D-07
 Number of steps in this run=      2 maximum allowed number of steps=      2.
 GradGradGradGradGradGradGradGradGradGradGradGradGradGradGradGradGradGrad

 Leave Link  103 at Tue Dec 15 16:28:07 2015, MaxMem=    33554432 cpu:         0.0
 (Enter /home/Applications/g09/g09/l202.exe)
                          Input orientation:                          
 ---------------------------------------------------------------------
 Center     Atomic      Atomic             Coordinates (Angstroms)
 Number     Number       Type             X           Y           Z
 ---------------------------------------------------------------------
      1          6           0        0.925106   -0.703097   -0.011431
      2          6           0       -0.346368   -1.111568    0.002746
      3          8           0       -1.170325    0.047117    0.012157
      4          6           0       -0.320637    1.051779   -0.021179
      5          6           0        0.926985    0.674630   -0.049576
      6          1           0        1.764710    1.413778    0.007367
      7          1           0       -0.790507    2.000818   -0.026181
      8          1           0       -0.868037   -2.038601    0.029692
      9          1           0        1.802043   -1.322484   -0.032284
 ---------------------------------------------------------------------
                    Distance matrix (angstroms):
                    1          2          3          4          5
     1  C    0.000000
     2  C    1.335551   0.000000
     3  O    2.225805   1.421810   0.000000
     4  C    2.152106   2.163632   1.316217   0.000000
     5  C    1.378256   2.194235   2.190044   1.303690   0.000000
     6  H    2.277377   3.291511   3.237625   2.116726   1.118644
     7  H    3.202296   3.144049   1.990648   1.058999   2.170046
     8  H    2.236207   1.064075   2.107583   3.138898   3.254230
     9  H    1.073822   2.159024   3.273034   3.184811   2.180479
                    6          7          8          9
     6  H    0.000000
     7  H    2.621998   0.000000
     8  H    4.341748   4.040549   0.000000
     9  H    2.736804   4.214936   2.765139   0.000000
 Stoichiometry    C4H4O
 Framework group  C1[X(C4H4O)]
 Deg. of freedom    21
 Full point group                 C1      NOp   1
 Largest Abelian subgroup         C1      NOp   1
 Largest concise Abelian subgroup C1      NOp   1
                         Standard orientation:                         
 ---------------------------------------------------------------------
 Center     Atomic      Atomic             Coordinates (Angstroms)
 Number     Number       Type             X           Y           Z
 ---------------------------------------------------------------------
      1          6           0        0.700864    0.934248    0.006277
      2          6           0        1.108697   -0.337469   -0.004001
      3          8           0       -0.050307   -1.160973    0.005780
      4          6           0       -1.054767   -0.310436   -0.002874
      5          6           0       -0.677206    0.937314   -0.016136
      6          1           0       -1.415149    1.774369    0.062262
      7          1           0       -2.004087   -0.779762   -0.004379
      8          1           0        2.035659   -0.859894    0.004256
      9          1           0        1.320507    1.811136   -0.007975
 ---------------------------------------------------------------------
 Rotational constants (GHZ):      9.8168683      9.5434355      4.8398598
 Leave Link  202 at Tue Dec 15 16:28:07 2015, MaxMem=    33554432 cpu:         0.0
 (Enter /home/Applications/g09/g09/l301.exe)
 Standard basis: 3-21G (6D, 7F)
 Ernie: Thresh=  0.10000D-02 Tol=  0.10000D-05 Strict=F.
 There are    53 symmetry adapted cartesian basis functions of A   symmetry.
 There are    53 symmetry adapted basis functions of A   symmetry.
    53 basis functions,    87 primitive gaussians,    53 cartesian basis functions
    18 alpha electrons       18 beta electrons
       nuclear repulsion energy       163.3430150013 Hartrees.
 IExCor=  402 DFT=T Ex+Corr=B3LYP ExCW=0 ScaHFX=  0.200000
 ScaDFX=  0.800000  0.720000  1.000000  0.810000 ScalE2=  1.000000  1.000000
 IRadAn=      0 IRanWt=     -1 IRanGd=            0 ICorTp=0 IEmpDi=  4
 NAtoms=    9 NActive=    9 NUniq=    9 SFac= 1.00D+00 NAtFMM=   60 NAOKFM=F Big=F
 Integral buffers will be    131072 words long.
 Regular integral format.
 Two-electron integral symmetry is turned on.
 Leave Link  301 at Tue Dec 15 16:28:07 2015, MaxMem=    33554432 cpu:         0.0
 (Enter /home/Applications/g09/g09/l302.exe)
 NPDir=0 NMtPBC=     1 NCelOv=     1 NCel=       1 NClECP=     1 NCelD=      1
         NCelK=      1 NCelE2=     1 NClLst=     1 CellRange=     0.0.
 One-electron integrals computed using PRISM.
 NBasis=    53 RedAO= T EigKep=  2.63D-03  NBF=    53
 NBsUse=    53 1.00D-06 EigRej= -1.00D+00 NBFU=    53
 Precomputing XC quadrature grid using
 IXCGrd= 4 IRadAn=           0 IRanWt=          -1 IRanGd=           0 AccXCQ= 0.00D+00.
 Generated NRdTot=       0 NPtTot=           0 NUsed=           0 NTot=          32
 NSgBfM=    53    53    53    53    53 MxSgAt=     9 MxSgA2=     9.
 Leave Link  302 at Tue Dec 15 16:28:07 2015, MaxMem=    33554432 cpu:         0.1
 (Enter /home/Applications/g09/g09/l308.exe)
 Leave Link  308 at Tue Dec 15 16:28:07 2015, MaxMem=    33554432 cpu:         0.0
 (Enter /home/Applications/g09/g09/l303.exe)
 DipDrv:  MaxL=1.
 Leave Link  303 at Tue Dec 15 16:28:07 2015, MaxMem=    33554432 cpu:         0.0
 (Enter /home/Applications/g09/g09/l401.exe)
 ExpMin= 1.83D-01 ExpMax= 3.22D+02 ExpMxC= 3.22D+02 IAcc=1 IRadAn=         1 AccDes= 0.00D+00
 Harris functional with IExCor=  402 and IRadAn=       1 diagonalized for initial guess.
 HarFok:  IExCor=  402 AccDes= 0.00D+00 IRadAn=         1 IDoV= 1 UseB2=F ITyADJ=14
 ICtDFT=  3500011 ScaDFX=  1.000000  1.000000  1.000000  1.000000
 FoFCou: FMM=F IPFlag=           0 FMFlag=      100000 FMFlg1=           0
         NFxFlg=           0 DoJE=T BraDBF=F KetDBF=T FulRan=T
         wScrn=  0.000000 ICntrl=     500 IOpCl=  0 I1Cent=   200000004 NGrid=           0
         NMat0=    1 NMatS0=      1 NMatT0=    0 NMatD0=    1 NMtDS0=    0 NMtDT0=    0
 Petite list used in FoFCou.
 Harris En= -228.735426818856    
 JPrj=0 DoOrth=F DoCkMO=F.
 Leave Link  401 at Tue Dec 15 16:28:07 2015, MaxMem=    33554432 cpu:         0.1
 (Enter /home/Applications/g09/g09/l502.exe)
 Closed shell SCF:
 Using DIIS extrapolation, IDIIS=  1040.
 Integral symmetry usage will be decided dynamically.
 Keep R1 ints in memory in canonical form, NReq=1925595.
 IVT=       27707 IEndB=       27707 NGot=    33554432 MDV=    32502130
 LenX=    32502130 LenY=    32498880
 Requested convergence on RMS density matrix=1.00D-08 within 128 cycles.
 Requested convergence on MAX density matrix=1.00D-06.
 Requested convergence on             energy=1.00D-06.
 No special actions if energy rises.
 FoFCou: FMM=F IPFlag=           0 FMFlag=           0 FMFlg1=           0
         NFxFlg=           0 DoJE=F BraDBF=F KetDBF=F FulRan=T
         wScrn=  0.000000 ICntrl=     600 IOpCl=  0 I1Cent=           0 NGrid=           0
         NMat0=    1 NMatS0=   1431 NMatT0=    0 NMatD0=    1 NMtDS0=    0 NMtDT0=    0
 Symmetry not used in FoFCou.
 Integral accuracy reduced to 1.0D-05 until final iterations.

 Cycle   1  Pass 0  IDiag  1:
 E= -228.643254725889    
 DIIS: error= 3.63D-02 at cycle   1 NSaved=   1.
 NSaved= 1 IEnMin= 1 EnMin= -228.643254725889     IErMin= 1 ErrMin= 3.63D-02
 ErrMax= 3.63D-02  0.00D+00 EMaxC= 1.00D-01 BMatC= 8.97D-02 BMatP= 8.97D-02
 IDIUse=3 WtCom= 6.37D-01 WtEn= 3.63D-01
 Coeff-Com:  0.100D+01
 Coeff-En:   0.100D+01
 Coeff:      0.100D+01
 Gap=     0.234 Goal=   None    Shift=    0.000
 GapD=    0.234 DampG=1.000 DampE=0.500 DampFc=0.5000 IDamp=-1.
 Damping current iteration by 5.00D-01
 RMSDP=1.30D-02 MaxDP=1.38D-01              OVMax= 2.07D-01

 Cycle   2  Pass 0  IDiag  1:
 E= -228.679393659419     Delta-E=       -0.036138933530 Rises=F Damp=T
 DIIS: error= 1.31D-02 at cycle   2 NSaved=   2.
 NSaved= 2 IEnMin= 2 EnMin= -228.679393659419     IErMin= 2 ErrMin= 1.31D-02
 ErrMax= 1.31D-02  0.00D+00 EMaxC= 1.00D-01 BMatC= 9.66D-03 BMatP= 8.97D-02
 IDIUse=3 WtCom= 8.69D-01 WtEn= 1.31D-01
 Coeff-Com:  0.114D+00 0.886D+00
 Coeff-En:   0.200D+00 0.800D+00
 Coeff:      0.125D+00 0.875D+00
 Gap=     0.255 Goal=   None    Shift=    0.000
 RMSDP=4.68D-03 MaxDP=4.33D-02 DE=-3.61D-02 OVMax= 1.72D-01

 Cycle   3  Pass 0  IDiag  1:
 E= -228.725656587177     Delta-E=       -0.046262927758 Rises=F Damp=F
 DIIS: error= 1.85D-02 at cycle   3 NSaved=   3.
 NSaved= 3 IEnMin= 3 EnMin= -228.725656587177     IErMin= 2 ErrMin= 1.31D-02
 ErrMax= 1.85D-02  0.00D+00 EMaxC= 1.00D-01 BMatC= 1.19D-02 BMatP= 9.66D-03
 IDIUse=2 WtCom= 0.00D+00 WtEn= 1.00D+00
 Coeff-En:   0.000D+00 0.000D+00 0.100D+01
 Coeff:      0.000D+00 0.000D+00 0.100D+01
 Gap=     0.245 Goal=   None    Shift=    0.000
 RMSDP=5.92D-03 MaxDP=4.85D-02 DE=-4.63D-02 OVMax= 1.22D-01

 Cycle   4  Pass 0  IDiag  1:
 E= -228.697648097073     Delta-E=        0.028008490104 Rises=F Damp=F
 DIIS: error= 3.69D-02 at cycle   4 NSaved=   4.
 NSaved= 4 IEnMin= 3 EnMin= -228.725656587177     IErMin= 2 ErrMin= 1.31D-02
 ErrMax= 3.69D-02  0.00D+00 EMaxC= 1.00D-01 BMatC= 4.42D-02 BMatP= 9.66D-03
 IDIUse=2 WtCom= 0.00D+00 WtEn= 1.00D+00
 Coeff-En:   0.000D+00 0.000D+00 0.740D+00 0.260D+00
 Coeff:      0.000D+00 0.000D+00 0.740D+00 0.260D+00
 Gap=     0.255 Goal=   None    Shift=    0.000
 RMSDP=2.97D-03 MaxDP=2.38D-02 DE= 2.80D-02 OVMax= 6.69D-02

 Cycle   5  Pass 0  IDiag  1:
 E= -228.734201640935     Delta-E=       -0.036553543862 Rises=F Damp=F
 DIIS: error= 8.04D-03 at cycle   5 NSaved=   5.
 NSaved= 5 IEnMin= 5 EnMin= -228.734201640935     IErMin= 5 ErrMin= 8.04D-03
 ErrMax= 8.04D-03  0.00D+00 EMaxC= 1.00D-01 BMatC= 2.25D-03 BMatP= 9.66D-03
 IDIUse=3 WtCom= 9.20D-01 WtEn= 8.04D-02
 Coeff-Com: -0.557D-02 0.218D-01 0.249D+00-0.612D-01 0.796D+00
 Coeff-En:   0.000D+00 0.000D+00 0.194D+00 0.000D+00 0.806D+00
 Coeff:     -0.512D-02 0.201D-01 0.245D+00-0.563D-01 0.797D+00
 Gap=     0.259 Goal=   None    Shift=    0.000
 RMSDP=9.67D-04 MaxDP=7.35D-03 DE=-3.66D-02 OVMax= 2.01D-02

 Cycle   6  Pass 0  IDiag  1:
 E= -228.736190202730     Delta-E=       -0.001988561795 Rises=F Damp=F
 DIIS: error= 5.62D-04 at cycle   6 NSaved=   6.
 NSaved= 6 IEnMin= 6 EnMin= -228.736190202730     IErMin= 6 ErrMin= 5.62D-04
 ErrMax= 5.62D-04  0.00D+00 EMaxC= 1.00D-01 BMatC= 1.06D-05 BMatP= 2.25D-03
 IDIUse=3 WtCom= 9.94D-01 WtEn= 5.62D-03
 Coeff-Com: -0.600D-02 0.139D-01 0.651D-01-0.487D-01 0.366D+00 0.609D+00
 Coeff-En:   0.000D+00 0.000D+00 0.000D+00 0.000D+00 0.000D+00 0.100D+01
 Coeff:     -0.597D-02 0.138D-01 0.647D-01-0.484D-01 0.364D+00 0.612D+00
 Gap=     0.259 Goal=   None    Shift=    0.000
 RMSDP=7.37D-05 MaxDP=7.63D-04 DE=-1.99D-03 OVMax= 1.64D-03

 Cycle   7  Pass 0  IDiag  1:
 E= -228.736200744121     Delta-E=       -0.000010541391 Rises=F Damp=F
 DIIS: error= 1.21D-04 at cycle   7 NSaved=   7.
 NSaved= 7 IEnMin= 7 EnMin= -228.736200744121     IErMin= 7 ErrMin= 1.21D-04
 ErrMax= 1.21D-04  0.00D+00 EMaxC= 1.00D-01 BMatC= 4.70D-07 BMatP= 1.06D-05
 IDIUse=3 WtCom= 9.99D-01 WtEn= 1.21D-03
 Coeff-Com: -0.278D-02 0.575D-02 0.200D-01-0.222D-01 0.151D+00 0.360D+00
 Coeff-Com:  0.489D+00
 Coeff-En:   0.000D+00 0.000D+00 0.000D+00 0.000D+00 0.000D+00 0.000D+00
 Coeff-En:   0.100D+01
 Coeff:     -0.278D-02 0.575D-02 0.200D-01-0.221D-01 0.150D+00 0.360D+00
 Coeff:      0.489D+00
 Gap=     0.259 Goal=   None    Shift=    0.000
 RMSDP=1.39D-05 MaxDP=1.73D-04 DE=-1.05D-05 OVMax= 4.00D-04

 Cycle   8  Pass 0  IDiag  1:
 E= -228.736201233391     Delta-E=       -0.000000489270 Rises=F Damp=F
 DIIS: error= 1.98D-05 at cycle   8 NSaved=   8.
 NSaved= 8 IEnMin= 8 EnMin= -228.736201233391     IErMin= 8 ErrMin= 1.98D-05
 ErrMax= 1.98D-05  0.00D+00 EMaxC= 1.00D-01 BMatC= 1.39D-08 BMatP= 4.70D-07
 IDIUse=1 WtCom= 1.00D+00 WtEn= 0.00D+00
 Coeff-Com: -0.248D-03 0.190D-03 0.231D-02-0.227D-02 0.202D-01 0.940D-01
 Coeff-Com:  0.179D+00 0.706D+00
 Coeff:     -0.248D-03 0.190D-03 0.231D-02-0.227D-02 0.202D-01 0.940D-01
 Coeff:      0.179D+00 0.706D+00
 Gap=     0.259 Goal=   None    Shift=    0.000
 RMSDP=1.90D-06 MaxDP=1.84D-05 DE=-4.89D-07 OVMax= 3.60D-05

 Initial convergence to 1.0D-05 achieved.  Increase integral accuracy.
 Cycle   9  Pass 1  IDiag  1:
 E= -228.736260383838     Delta-E=       -0.000059150447 Rises=F Damp=F
 DIIS: error= 2.33D-05 at cycle   1 NSaved=   1.
 NSaved= 1 IEnMin= 1 EnMin= -228.736260383838     IErMin= 1 ErrMin= 2.33D-05
 ErrMax= 2.33D-05  0.00D+00 EMaxC= 1.00D-01 BMatC= 1.10D-08 BMatP= 1.10D-08
 IDIUse=1 WtCom= 1.00D+00 WtEn= 0.00D+00
 Coeff-Com:  0.100D+01
 Coeff:      0.100D+01
 Gap=     0.259 Goal=   None    Shift=    0.000
 RMSDP=1.90D-06 MaxDP=1.84D-05 DE=-5.92D-05 OVMax= 2.41D-05

 Cycle  10  Pass 1  IDiag  1:
 E= -228.736260398302     Delta-E=       -0.000000014464 Rises=F Damp=F
 DIIS: error= 3.61D-06 at cycle   2 NSaved=   2.
 NSaved= 2 IEnMin= 2 EnMin= -228.736260398302     IErMin= 2 ErrMin= 3.61D-06
 ErrMax= 3.61D-06  0.00D+00 EMaxC= 1.00D-01 BMatC= 4.73D-10 BMatP= 1.10D-08
 IDIUse=1 WtCom= 1.00D+00 WtEn= 0.00D+00
 Coeff-Com:  0.270D-01 0.973D+00
 Coeff:      0.270D-01 0.973D+00
 Gap=     0.259 Goal=   None    Shift=    0.000
 RMSDP=1.07D-06 MaxDP=1.39D-05 DE=-1.45D-08 OVMax= 1.87D-05

 Cycle  11  Pass 1  IDiag  1:
 E= -228.736260397638     Delta-E=        0.000000000664 Rises=F Damp=F
 DIIS: error= 7.00D-06 at cycle   3 NSaved=   3.
 NSaved= 3 IEnMin= 2 EnMin= -228.736260398302     IErMin= 2 ErrMin= 3.61D-06
 ErrMax= 7.00D-06  0.00D+00 EMaxC= 1.00D-01 BMatC= 1.35D-09 BMatP= 4.73D-10
 IDIUse=1 WtCom= 1.00D+00 WtEn= 0.00D+00
 Coeff-Com: -0.177D-01 0.643D+00 0.374D+00
 Coeff:     -0.177D-01 0.643D+00 0.374D+00
 Gap=     0.259 Goal=   None    Shift=    0.000
 RMSDP=6.66D-07 MaxDP=6.64D-06 DE= 6.64D-10 OVMax= 1.40D-05

 Cycle  12  Pass 1  IDiag  1:
 E= -228.736260398690     Delta-E=       -0.000000001052 Rises=F Damp=F
 DIIS: error= 5.74D-07 at cycle   4 NSaved=   4.
 NSaved= 4 IEnMin= 4 EnMin= -228.736260398690     IErMin= 4 ErrMin= 5.74D-07
 ErrMax= 5.74D-07  0.00D+00 EMaxC= 1.00D-01 BMatC= 1.51D-11 BMatP= 4.73D-10
 IDIUse=1 WtCom= 1.00D+00 WtEn= 0.00D+00
 Coeff-Com: -0.929D-02 0.231D+00 0.166D+00 0.612D+00
 Coeff:     -0.929D-02 0.231D+00 0.166D+00 0.612D+00
 Gap=     0.259 Goal=   None    Shift=    0.000
 RMSDP=9.68D-08 MaxDP=1.35D-06 DE=-1.05D-09 OVMax= 1.70D-06

 Cycle  13  Pass 1  IDiag  1:
 E= -228.736260398702     Delta-E=       -0.000000000012 Rises=F Damp=F
 DIIS: error= 1.09D-07 at cycle   5 NSaved=   5.
 NSaved= 5 IEnMin= 5 EnMin= -228.736260398702     IErMin= 5 ErrMin= 1.09D-07
 ErrMax= 1.09D-07  0.00D+00 EMaxC= 1.00D-01 BMatC= 1.17D-12 BMatP= 1.51D-11
 IDIUse=1 WtCom= 1.00D+00 WtEn= 0.00D+00
 Coeff-Com: -0.254D-02 0.407D-01 0.336D-01 0.269D+00 0.659D+00
 Coeff:     -0.254D-02 0.407D-01 0.336D-01 0.269D+00 0.659D+00
 Gap=     0.259 Goal=   None    Shift=    0.000
 RMSDP=2.82D-08 MaxDP=5.78D-07 DE=-1.23D-11 OVMax= 4.93D-07

 Cycle  14  Pass 1  IDiag  1:
 E= -228.736260398704     Delta-E=       -0.000000000001 Rises=F Damp=F
 DIIS: error= 3.53D-08 at cycle   6 NSaved=   6.
 NSaved= 6 IEnMin= 6 EnMin= -228.736260398704     IErMin= 6 ErrMin= 3.53D-08
 ErrMax= 3.53D-08  0.00D+00 EMaxC= 1.00D-01 BMatC= 8.96D-14 BMatP= 1.17D-12
 IDIUse=1 WtCom= 1.00D+00 WtEn= 0.00D+00
 Coeff-Com: -0.599D-03 0.600D-02 0.554D-02 0.972D-01 0.319D+00 0.573D+00
 Coeff:     -0.599D-03 0.600D-02 0.554D-02 0.972D-01 0.319D+00 0.573D+00
 Gap=     0.259 Goal=   None    Shift=    0.000
 RMSDP=6.72D-09 MaxDP=6.65D-08 DE=-1.48D-12 OVMax= 1.13D-07

 SCF Done:  E(RB3LYP) =  -228.736260399     A.U. after   14 cycles
            NFock= 14  Conv=0.67D-08     -V/T= 2.0064
 KE= 2.272762308914D+02 PE=-8.595493505604D+02 EE= 2.401938442690D+02
 Leave Link  502 at Tue Dec 15 16:28:10 2015, MaxMem=    33554432 cpu:         3.1
 (Enter /home/Applications/g09/g09/l801.exe)
 DoSCS=F DFT=T ScalE2(SS,OS)=  1.000000  1.000000
 ExpMin= 1.83D-01 ExpMax= 3.22D+02 ExpMxC= 3.22D+02 IAcc=3 IRadAn=         5 AccDes= 0.00D+00
 HarFok:  IExCor=  205 AccDes= 0.00D+00 IRadAn=         5 IDoV=-2 UseB2=F ITyADJ=14
 ICtDFT= 12500011 ScaDFX=  1.000000  1.000000  1.000000  1.000000
 Largest valence mixing into a core orbital is  1.80D-04
 Largest core mixing into a valence orbital is  4.69D-05
 Range of M.O.s used for correlation:     6    53
 NBasis=    53 NAE=    18 NBE=    18 NFC=     5 NFV=     0
 NROrb=     48 NOA=    13 NOB=    13 NVA=    35 NVB=    35
 Leave Link  801 at Tue Dec 15 16:28:11 2015, MaxMem=    33554432 cpu:         0.2
 (Enter /home/Applications/g09/g09/l914.exe)
 RHF ground state
 MDV=    33554432 DFT=T DoStab=F Mixed=T DoRPA=F DoScal=F NonHer=F
 Keep R1, R2, and R3 ints in memory in canonical form, NReq=5596273.
 FoFCou: FMM=F IPFlag=           0 FMFlag=           0 FMFlg1=           0
         NFxFlg=           0 DoJE=F BraDBF=F KetDBF=F FulRan=T
         wScrn=  0.000000 ICntrl=     600 IOpCl=  0 I1Cent=           0 NGrid=           0
         NMat0=    1 NMatS0=   1431 NMatT0=    0 NMatD0=    1 NMtDS0=    0 NMtDT0=    0
 Symmetry not used in FoFCou.
 Making orbital integer symmetry assigments:
 Orbital symmetries:
       Occupied  (A) (A) (A) (A) (A) (A) (A) (A) (A) (A) (A) (A)
                 (A) (A) (A) (A) (A) (A)
       Virtual   (A) (A) (A) (A) (A) (A) (A) (A) (A) (A) (A) (A)
                 (A) (A) (A) (A) (A) (A) (A) (A) (A) (A) (A) (A)
                 (A) (A) (A) (A) (A) (A) (A) (A) (A) (A) (A)
    60 initial guesses have been made.
 Convergence on wavefunction:    0.000001000000000
 Davidson Disk Diagonalization:  ConvIn= 1.00D-06 SkipCon=T Conv= 1.00D-06.
 Max sub-space:   240 roots to seek:    60 dimension of matrix:          910
 Iteration     1 Dimension    60 NMult     0 NNew     60
 CISAX will form    60 AO SS matrices at one time.
 NMat=    60 NSing=    60 JSym2X= 0.
 New state      1 was old state      2
 New state      2 was old state      1
 New state      3 was old state      4
 New state      4 was old state      7
 New state      5 was old state      6
 New state      6 was old state      8
 New state      7 was old state      9
 New state      8 was old state     11
 New state      9 was old state     12
 New state     11 was old state     13
 New state     12 was old state      5
 New state     13 was old state     14
 New state     14 was old state     15
 New state     15 was old state     17
 Excitation Energies [eV] at current iteration:
 Root      1 :     7.720364720924148
 Root      2 :     8.205968442930155
 Root      3 :     8.451410338905804
 Root      4 :     9.029246632624316
 Root      5 :     9.363837553171150
 Root      6 :     9.808149555151942
 Root      7 :    10.000065301467950
 Root      8 :    10.346208330895530
 Root      9 :    10.436260396228120
 Root     10 :    10.509494723177390
 Root     11 :    10.631899303002460
 Root     12 :    10.766108914817620
 Root     13 :    11.068021017191570
 Root     14 :    11.140659168526690
 Root     15 :    11.192945860864840
 Root     16 :    11.290418928576620
 Root     17 :    11.464067290768690
 Root     18 :    11.822927983386230
 Root     19 :    11.863779473701290
 Root     20 :    12.133494535594140
 Root     21 :    12.187948775947830
 Root     22 :    12.394947379999660
 Root     23 :    12.529622616723330
 Root     24 :    12.832628655907090
 Root     25 :    13.137951065938190
 Root     26 :    13.438068962281890
 Root     27 :    13.564978024647840
 Root     28 :    13.710400167251870
 Root     29 :    13.838722225558590
 Root     30 :    13.919337799183240
 Root     31 :    14.122678633521710
 Root     32 :    14.207037873564020
 Root     33 :    14.315304186893190
 Root     34 :    14.407763279388440
 Root     35 :    14.465953227972260
 Root     36 :    14.586654094700020
 Root     37 :    14.725755284454160
 Root     38 :    14.937968890376140
 Root     39 :    14.979136351059610
 Root     40 :    15.057303341851160
 Root     41 :    15.126874939196790
 Root     42 :    15.194166354553940
 Root     43 :    15.331848083821830
 Root     44 :    15.384166829806730
 Root     45 :    15.527161555922660
 Root     46 :    15.747956044762660
 Root     47 :    15.862766016838940
 Root     48 :    15.927889802677620
 Root     49 :    15.994153824620150
 Root     50 :    16.092811010128330
 Root     51 :    16.175966724319370
 Root     52 :    16.289550131724970
 Root     53 :    16.341797704037460
 Root     54 :    16.484085769199950
 Root     55 :    16.515704734236550
 Root     56 :    16.849201049794740
 Root     57 :    17.170118314727890
 Root     58 :    17.712276975804920
 Root     59 :    18.699716335654220
 Root     60 :    20.136142651943760
 Iteration     2 Dimension   120 NMult    60 NNew     60
 CISAX will form    60 AO SS matrices at one time.
 NMat=    60 NSing=    60 JSym2X= 0.
 Root      1 not converged, maximum delta is    0.267723925095539
 Root      2 not converged, maximum delta is    0.307676953364764
 Root      3 not converged, maximum delta is    0.115034637340293
 Root      4 not converged, maximum delta is    0.014457164152914
 Root      5 not converged, maximum delta is    0.018930766198519
 Root      6 not converged, maximum delta is    0.081078655865527
 Root      7 not converged, maximum delta is    0.088948301324317
 New state      8 was old state     12
 Root      8 not converged, maximum delta is    0.473472303083541
 New state      9 was old state     11
 Root      9 not converged, maximum delta is    0.461905594370612
 New state     10 was old state      8
 Root     10 not converged, maximum delta is    0.161309203813341
 New state     11 was old state      9
 Root     11 not converged, maximum delta is    0.062245771293087
 New state     12 was old state     10
 Root     12 not converged, maximum delta is    0.139968861850485
 No map to state     13
 New state     14 was old state     13
 Root     14 not converged, maximum delta is    0.266571001606101
 Root     15 not converged, maximum delta is    0.159997033972105
 Excitation Energies [eV] at current iteration:
 Root      1 :     7.326271570636017   Change is   -0.394093150288130
 Root      2 :     7.762604258282964   Change is   -0.443364184647191
 Root      3 :     8.427066919614441   Change is   -0.024343419291364
 Root      4 :     9.003035297373049   Change is   -0.026211335251268
 Root      5 :     9.335624667477182   Change is   -0.028212885693968
 Root      6 :     9.781161309768670   Change is   -0.026988245383273
 Root      7 :     9.973062431722576   Change is   -0.027002869745368
 Root      8 :    10.122116733068170   Change is   -0.643992181749453
 Root      9 :    10.270808268049500   Change is   -0.361091034952951
 Root     10 :    10.348792147969890   Change is    0.002583817074359
 Root     11 :    10.423962006602490   Change is   -0.012298389625624
 Root     12 :    10.494495102222770   Change is   -0.014999620954610
 Root     13 :    10.677968909608020
 Root     14 :    11.077236678442880   Change is    0.009215661251308
 Root     15 :    11.163068487508670   Change is   -0.029877373356173
 Root     16 :    11.235166153820060   Change is   -0.055252774756564
 Root     17 :    11.455146562472980   Change is   -0.008920728295711
 Root     18 :    11.797209115472670   Change is   -0.025718867913564
 Root     19 :    11.852714447939400   Change is   -0.011065025761887
 Root     20 :    11.989654968562700   Change is   -0.143839567031440
 Root     21 :    12.127341366623410   Change is   -0.060607409324422
 Root     22 :    12.357815910292760   Change is   -0.037131469706906
 Root     23 :    12.480164523771990   Change is   -0.049458092951346
 Root     24 :    12.698011293371590   Change is   -0.134617362535509
 Root     25 :    13.032581057896090   Change is   -0.806141167662494
 Root     26 :    13.108202441915370   Change is   -0.029748624022827
 Root     27 :    13.411575217765700   Change is   -0.026493744516197
 Root     28 :    13.530789273311470   Change is   -0.034188751336374
 Root     29 :    13.654978046303240   Change is   -0.055422120948626
 Root     30 :    13.815893517887070   Change is   -0.103444281296173
 Root     31 :    14.017296235760740   Change is   -0.298007951132457
 Root     32 :    14.104641154350880   Change is   -0.018037479170828
 Root     33 :    14.174116454697090   Change is   -0.032921418866927
 Root     34 :    14.306287723684480   Change is   -0.101475555703961
 Root     35 :    14.381776797493520   Change is   -0.084176430478736
 Root     36 :    14.434115691835950   Change is   -0.152538402864072
 Root     37 :    14.528106533090210   Change is   -0.197648751363957
 Root     38 :    14.784584824716300   Change is   -0.194551526343306
 Root     39 :    14.898719054939580   Change is   -0.039249835436558
 Root     40 :    14.949030653788230   Change is   -0.177844285408565
 Root     41 :    15.026493495433020   Change is   -0.030809846418136
 Root     42 :    15.097232875610340   Change is   -0.096933478943605
 Root     43 :    15.184481401307990   Change is   -0.147366682513843
 Root     44 :    15.309150020414170   Change is   -0.218011535508496
 Root     45 :    15.321596528149480   Change is   -0.062570301657253
 Root     46 :    15.525261535512410   Change is   -0.222694509250251
 Root     47 :    15.620728094393040   Change is   -0.307161708284577
 Root     48 :    15.743832406192730   Change is   -0.118933610646209
 Root     49 :    15.915374899559880   Change is   -0.078778925060271
 Root     50 :    16.026126526726350   Change is   -0.066684483401987
 Root     51 :    16.119408095234600   Change is   -0.056558629084774
 Root     52 :    16.182461244520720   Change is   -0.159336459516744
 Root     53 :    16.208014107965150   Change is   -0.276071661234804
 Root     54 :    16.271607815385790   Change is   -0.017942316339181
 Root     55 :    16.439699006931990   Change is   -0.409502042862748
 Root     56 :    16.474737214584490   Change is   -0.040967519652059
 Root     57 :    16.870655855249460   Change is   -0.299462459478435
 Root     58 :    16.921943760380590   Change is   -0.790333215424331
 Root     59 :    17.279843674317860   Change is   -1.419872661336364
 Root     60 :    17.333141514336100   Change is   -2.803001137607660
 Iteration     3 Dimension   135 NMult   120 NNew     15
 CISAX will form    15 AO SS matrices at one time.
 NMat=    15 NSing=    15 JSym2X= 0.
 Root      1 not converged, maximum delta is    0.002156360066780
 Root      2 not converged, maximum delta is    0.001372548427522
 Root      3 not converged, maximum delta is    0.000251327889117
 Root      4 not converged, maximum delta is    0.000267013102625
 Root      5 not converged, maximum delta is    0.000310624918363
 Root      6 not converged, maximum delta is    0.000697504332450
 Root      7 not converged, maximum delta is    0.001507827114221
 Root      8 not converged, maximum delta is    0.004732884421754
 Root      9 not converged, maximum delta is    0.006936110499426
 Root     10 not converged, maximum delta is    0.003920776277359
 Root     11 not converged, maximum delta is    0.001129766234658
 Root     12 not converged, maximum delta is    0.000595540031928
 Root     13 not converged, maximum delta is    0.000475079261302
 Root     14 not converged, maximum delta is    0.000228837504333
 Root     15 not converged, maximum delta is    0.000292607042825
 Excitation Energies [eV] at current iteration:
 Root      1 :     7.324809625228547   Change is   -0.001461945407470
 Root      2 :     7.761504324719114   Change is   -0.001099933563849
 Root      3 :     8.427024425764349   Change is   -0.000042493850091
 Root      4 :     9.003013633064056   Change is   -0.000021664308994
 Root      5 :     9.335580052555008   Change is   -0.000044614922173
 Root      6 :     9.781043911706124   Change is   -0.000117398062546
 Root      7 :     9.972901401981270   Change is   -0.000161029741307
 Root      8 :    10.119036651535030   Change is   -0.003080081533138
 Root      9 :    10.268634750471530   Change is   -0.002173517577970
 Root     10 :    10.348409125104950   Change is   -0.000383022864938
 Root     11 :    10.423884582284280   Change is   -0.000077424318214
 Root     12 :    10.494425467383370   Change is   -0.000069634839410
 Root     13 :    10.677921117869340   Change is   -0.000047791738680
 Root     14 :    11.077206724383300   Change is   -0.000029954059587
 Root     15 :    11.163040532360380   Change is   -0.000027955148289
 Iteration     4 Dimension   150 NMult   135 NNew     15
 CISAX will form    15 AO SS matrices at one time.
 NMat=    15 NSing=    15 JSym2X= 0.
 Root      1 not converged, maximum delta is    0.000056236026695
 Root      2 not converged, maximum delta is    0.000040390369790
 Root      3 not converged, maximum delta is    0.000008178429635
 Root      4 not converged, maximum delta is    0.000003699507658
 Root      5 not converged, maximum delta is    0.000009861756138
 Root      6 not converged, maximum delta is    0.000013967263919
 Root      7 not converged, maximum delta is    0.000020873983401
 Root      8 not converged, maximum delta is    0.000117724220516
 Root      9 not converged, maximum delta is    0.000060163493233
 Root     10 not converged, maximum delta is    0.000034685002319
 Root     11 not converged, maximum delta is    0.000014751271679
 Root     12 not converged, maximum delta is    0.000016584459647
 Root     13 not converged, maximum delta is    0.000009547136058
 Root     14 not converged, maximum delta is    0.000007578399410
 Root     15 not converged, maximum delta is    0.000007333054841
 Excitation Energies [eV] at current iteration:
 Root      1 :     7.324807838296696   Change is   -0.000001786931851
 Root      2 :     7.761503056285731   Change is   -0.000001268433384
 Root      3 :     8.427024369375001   Change is   -0.000000056389349
 Root      4 :     9.003013622236747   Change is   -0.000000010827308
 Root      5 :     9.335580003803699   Change is   -0.000000048751309
 Root      6 :     9.781043761447707   Change is   -0.000000150258418
 Root      7 :     9.972901191593401   Change is   -0.000000210387869
 Root      8 :    10.119031786992860   Change is   -0.000004864542168
 Root      9 :    10.268631328415170   Change is   -0.000003422056364
 Root     10 :    10.348408505992210   Change is   -0.000000619112743
 Root     11 :    10.423884457020200   Change is   -0.000000125264076
 Root     12 :    10.494425393715380   Change is   -0.000000073667981
 Root     13 :    10.677921059688070   Change is   -0.000000058181266
 Root     14 :    11.077206694538700   Change is   -0.000000029844593
 Root     15 :    11.163040508903440   Change is   -0.000000023456946
 Iteration     5 Dimension   165 NMult   150 NNew     15
 CISAX will form    15 AO SS matrices at one time.
 NMat=    15 NSing=    15 JSym2X= 0.
 Root      1 not converged, maximum delta is    0.000001881064763
 Root      2 not converged, maximum delta is    0.000001243830457
 Root      3 not converged, maximum delta is    0.000001006065145
 Root      4 has converged.
 Root      5 has converged.
 Root      6 has converged.
 Root      7 has converged.
 Root      8 not converged, maximum delta is    0.000003968284528
 Root      9 not converged, maximum delta is    0.000002993256166
 Root     10 not converged, maximum delta is    0.000001274671633
 Root     11 has converged.
 Root     12 has converged.
 Root     13 has converged.
 Root     14 has converged.
 Root     15 has converged.
 Excitation Energies [eV] at current iteration:
 Root      1 :     7.324807836467096   Change is   -0.000000001829600
 Root      2 :     7.761503055484510   Change is   -0.000000000801221
 Root      3 :     8.427024369335555   Change is   -0.000000000039446
 Root      4 :     9.003013622230895   Change is   -0.000000000005852
 Root      5 :     9.335580003772481   Change is   -0.000000000031218
 Root      6 :     9.781043761330682   Change is   -0.000000000117024
 Root      7 :     9.972901191380126   Change is   -0.000000000213274
 Root      8 :    10.119031782020200   Change is   -0.000000004972665
 Root      9 :    10.268631325443580   Change is   -0.000000002971593
 Root     10 :    10.348408505420490   Change is   -0.000000000571721
 Root     11 :    10.423884456909290   Change is   -0.000000000110910
 Root     12 :    10.494425393652490   Change is   -0.000000000062894
 Root     13 :    10.677921059630550   Change is   -0.000000000057518
 Root     14 :    11.077206694508300   Change is   -0.000000000030403
 Root     15 :    11.163040508881660   Change is   -0.000000000021780
 Iteration     6 Dimension   170 NMult   165 NNew      5
 CISAX will form     5 AO SS matrices at one time.
 NMat=     5 NSing=     5 JSym2X= 0.
 Root      1 has converged.
 Root      2 has converged.
 Root      3 has converged.
 Root      4 has converged.
 Root      5 has converged.
 Root      6 has converged.
 Root      7 has converged.
 Root      8 has converged.
 Root      9 has converged.
 Root     10 has converged.
 Root     11 has converged.
 Root     12 has converged.
 Root     13 has converged.
 Root     14 has converged.
 Root     15 has converged.
 Excitation Energies [eV] at current iteration:
 Root      1 :     7.324807836466077   Change is   -0.000000000001020
 Root      2 :     7.761503055484276   Change is   -0.000000000000234
 Root      3 :     8.427024369335557   Change is    0.000000000000002
 Root      4 :     9.003013622230878   Change is   -0.000000000000017
 Root      5 :     9.335580003772471   Change is   -0.000000000000011
 Root      6 :     9.781043761330618   Change is   -0.000000000000063
 Root      7 :     9.972901191379856   Change is   -0.000000000000270
 Root      8 :    10.119031782015180   Change is   -0.000000000005018
 Root      9 :    10.268631325441850   Change is   -0.000000000001731
 Root     10 :    10.348408505420110   Change is   -0.000000000000381
 Root     11 :    10.423884456909230   Change is   -0.000000000000060
 Root     12 :    10.494425393652460   Change is   -0.000000000000026
 Root     13 :    10.677921059630490   Change is   -0.000000000000066
 Root     14 :    11.077206694508290   Change is   -0.000000000000011
 Root     15 :    11.163040508881640   Change is   -0.000000000000011
 Convergence achieved on expansion vectors.
 ***********************************************************************
 Excited states from <AA,BB:AA,BB> singles matrix:
 ***********************************************************************
 
 1PDM for each excited state written to RWF  633
 Ground to excited state transition densities written to RWF  633
 Ground to excited state transition electric dipole moments (Au):
       state          X           Y           Z        Dip. S.      Osc.
         1        -1.0129     -0.0168      0.0184      1.0266      0.1842
         2         0.4200     -0.0902     -0.0191      0.1849      0.0352
         3        -0.0589      0.0916     -0.0494      0.0143      0.0030
         4         0.0078     -0.0165     -0.1373      0.0192      0.0042
         5        -0.0264      0.0847      0.1025      0.0184      0.0042
         6        -0.1744      0.0548     -0.0428      0.0353      0.0084
         7        -0.1543     -0.1868     -0.0420      0.0605      0.0148
         8         0.2550      1.2497     -0.0132      1.6269      0.4033
         9        -0.7102      0.6605     -0.0648      0.9448      0.2377
        10         0.1090     -0.3978     -0.0950      0.1791      0.0454
        11         0.0475     -0.1460      0.0105      0.0237      0.0060
        12         0.1008      0.0505     -0.0288      0.0135      0.0035
        13         0.1195      0.0113     -0.0405      0.0161      0.0042
        14        -0.0060      0.0629     -0.1214      0.0187      0.0051
        15         0.0275     -0.0605      0.0110      0.0045      0.0012
 Ground to excited state transition velocity dipole moments (Au):
       state          X           Y           Z        Dip. S.      Osc.
         1         0.0076     -0.0328      0.0015      0.0011      0.0028
         2        -0.0016     -0.0491      0.0005      0.0024      0.0056
         3         0.0018      0.0063     -0.0008      0.0000      0.0001
         4         0.0001      0.0016      0.0744      0.0055      0.0112
         5         0.0052     -0.0002     -0.0304      0.0010      0.0018
         6         0.0200      0.0006     -0.0261      0.0011      0.0020
         7         0.0206      0.0057      0.0398      0.0020      0.0037
         8        -0.0324     -0.0478      0.0142      0.0035      0.0063
         9         0.0979     -0.0267      0.0080      0.0104      0.0183
        10        -0.0169      0.0172      0.0248      0.0012      0.0021
        11        -0.0076      0.0042     -0.0039      0.0001      0.0002
        12        -0.0184     -0.0050      0.0385      0.0018      0.0032
        13        -0.0176     -0.0007     -0.0464      0.0025      0.0042
        14         0.0001     -0.0038      0.0043      0.0000      0.0001
        15        -0.0062      0.0110     -0.0154      0.0004      0.0006
 Ground to excited state transition magnetic dipole moments (Au):
       state          X           Y           Z
         1        -0.0151      0.0019     -0.5139
         2        -0.0087     -0.0465      0.2133
         3         0.0318     -0.5286     -0.0262
         4        -1.5490      0.2125      0.0072
         5        -0.0511      0.1035      0.0059
         6        -0.1933      0.0064      0.0584
         7        -0.0467     -0.0579      0.0588
         8        -0.1326      0.0356      0.0109
         9         0.0355      0.0333      0.2197
        10        -0.2809     -0.0283     -0.0667
        11        -0.2824     -0.0347     -0.0603
        12         0.0008     -0.0693      0.0017
        13         0.0760      0.0801     -0.0342
        14        -0.0102     -0.7741      0.0432
        15         0.5021      0.8324     -0.0338
 Ground to excited state transition velocity quadrupole moments (Au):
       state          XX          YY          ZZ          XY          XZ          YZ
         1        -0.0325     -0.0035      0.0224     -0.1895      0.0035     -0.0025
         2        -0.0147     -0.0224      0.0269      0.1576      0.0064     -0.0027
         3         0.0127     -0.0136     -0.0077     -0.0295      0.0510     -0.0402
         4        -0.0043      0.0033      0.0013      0.0075     -0.0018     -0.2064
         5         0.0087     -0.0058     -0.0058      0.0058      0.1853      0.0431
         6         0.0068     -0.0068     -0.0067      0.0808     -0.0353     -0.0642
         7        -0.0321      0.0372      0.0086      0.0825      0.0788     -0.0933
         8         0.2871     -0.2619     -0.0581     -0.1620     -0.0073     -0.0510
         9         0.1260     -0.1125     -0.0353      0.3427     -0.0310      0.0510
        10        -0.0867      0.0829      0.0202     -0.0637     -0.0137     -0.0178
        11        -0.0272      0.0293      0.0095     -0.0289     -0.0674     -0.0425
        12         0.0122     -0.0209      0.0029     -0.0542      0.0156      0.1069
        13        -0.0002     -0.0035     -0.0014     -0.0665     -0.0526      0.0409
        14         0.0349     -0.0266     -0.0002      0.0058      0.0810     -0.0471
        15         0.0070      0.0120     -0.0040     -0.0151     -0.1528      0.0640
 <0|del|b> * <b|rxdel|0> + <0|del|b> * <b|delr+rdel|0>
 Rotatory Strengths (R) in cgs (10**-40 erg-esu-cm/Gauss)
       state          XX          YY          ZZ    R(velocity)    E-M Angle
         1        -1.2970     -0.8070     -0.3608     -0.8216       93.10
         2         3.4703      0.0597      2.4524      1.9941       77.02
         3        -4.1331     -0.0208     -3.2979     -2.4839      157.93
         4         1.5496     -0.2792      0.1756      0.4820       89.67
         5        -0.3490     -0.0456     -0.5669     -0.3205       97.52
         6        -3.5440     -4.4928     -2.5552     -3.5307      144.23
         7         4.6697     -3.6922      1.0428      0.6734       75.86
         8        -3.9897      7.9961      1.2332      1.7465       70.34
         9         2.6249      7.0130     -1.4777      2.7201       79.04
        10        -3.2368      4.6366      3.4744      1.6247       74.86
        11         0.4438      2.3858      1.2874      1.3723       35.97
        12        -1.4635      0.1557      2.0373      0.2432       82.32
        13         4.1226     -3.2017     -0.5746      0.1154       88.08
        14         2.9691      0.1319      2.2641      1.7884       45.43
        15        10.0140     -2.7964      4.1036      3.7737       70.21
 1/2[<0|r|b>*<b|rxdel|0> + (<0|rxdel|b>*<b|r|0>)*]
 Rotatory Strengths (R) in cgs (10**-40 erg-esu-cm/Gauss)
       state          XX          YY          ZZ     R(length)
         1       -10.8295      0.0229      6.6784     -1.3761
         2         2.5808     -2.9674      2.8810      0.8315
         3         1.3235     34.2516     -0.9170     11.5527
         4         8.5252      2.4734      0.7010      3.8999
         5        -0.9547     -6.1995     -0.4289     -2.5277
         6       -23.8353     -0.2487      1.7675     -7.4388
         7        -5.0954     -7.6531      1.7496     -3.6663
         8        23.9075    -31.4446      0.1021     -2.4784
         9        17.8503    -15.5581     10.0664      4.1196
        10        21.6632     -7.9737     -4.4779      3.0706
        11         9.4922     -3.5771      0.4496      2.1216
        12        -0.0573      2.4731      0.0340      0.8166
        13        -6.4251     -0.6407     -0.9802     -2.6820
        14        -0.0436     34.4486      3.7060     12.7037
        15        -9.7724     35.6001      0.2624      8.6967
  1/2[<0|del|b>*<b|r|0> + (<0|r|b>*<b|del|0>)*] (Au)
       state          X           Y           Z        Dip. S.   Osc.(frdel)
         1        -0.0077      0.0006      0.0000      0.0072      0.0048
         2        -0.0007      0.0044      0.0000     -0.0037     -0.0025
         3        -0.0001      0.0006      0.0000     -0.0005     -0.0003
         4         0.0000      0.0000     -0.0102      0.0102      0.0068
         5        -0.0001      0.0000     -0.0031      0.0033      0.0022
         6        -0.0035      0.0000      0.0011      0.0023      0.0016
         7        -0.0032     -0.0011     -0.0017      0.0059      0.0039
         8        -0.0083     -0.0597     -0.0002      0.0682      0.0455
         9        -0.0695     -0.0177     -0.0005      0.0877      0.0585
        10        -0.0018     -0.0068     -0.0024      0.0110      0.0074
        11        -0.0004     -0.0006      0.0000      0.0010      0.0007
        12        -0.0019     -0.0003     -0.0011      0.0032      0.0021
        13        -0.0021      0.0000      0.0019      0.0002      0.0002
        14         0.0000     -0.0002     -0.0005      0.0008      0.0005
        15        -0.0002     -0.0007     -0.0002      0.0010      0.0007

 Excitation energies and oscillator strengths:
 
 Excited State   1:      Singlet-A      7.3248 eV  169.27 nm  f=0.1842  <S**2>=0.000
      17 -> 19         0.19790
      18 -> 19         0.63808
      18 -> 20         0.14838
 This state for optimization and/or second-order correction.
 Total Energy, E(CIS) =  -228.467078652    
 Copying the excited state density for this state as the 1-particle RhoCI density.
 
 Excited State   2:      Singlet-A      7.7615 eV  159.74 nm  f=0.0352  <S**2>=0.000
      17 -> 19         0.48062
      18 -> 19        -0.24259
      18 -> 20         0.44316
 
 Excited State   3:      Singlet-A      8.4270 eV  147.13 nm  f=0.0030  <S**2>=0.000
      18 -> 21         0.68658
 
 Excited State   4:      Singlet-A      9.0030 eV  137.71 nm  f=0.0042  <S**2>=0.000
      16 -> 19         0.70002
 
 Excited State   5:      Singlet-A      9.3356 eV  132.81 nm  f=0.0042  <S**2>=0.000
      18 -> 22         0.67188
      18 -> 23        -0.14610
 
 Excited State   6:      Singlet-A      9.7810 eV  126.76 nm  f=0.0084  <S**2>=0.000
      17 -> 20         0.26069
      17 -> 21         0.57446
      18 -> 22        -0.12546
      18 -> 23        -0.26810
 
 Excited State   7:      Singlet-A      9.9729 eV  124.32 nm  f=0.0148  <S**2>=0.000
      15 -> 19         0.11007
      17 -> 20         0.19935
      17 -> 21         0.22047
      18 -> 22         0.10701
      18 -> 23         0.60255
 
 Excited State   8:      Singlet-A     10.1190 eV  122.53 nm  f=0.4033  <S**2>=0.000
      15 -> 19         0.12055
      17 -> 19        -0.36976
      17 -> 20        -0.26850
      17 -> 21         0.13416
      18 -> 20         0.40336
      18 -> 21        -0.10639
      18 -> 23         0.11762
 
 Excited State   9:      Singlet-A     10.2686 eV  120.74 nm  f=0.2377  <S**2>=0.000
      15 -> 19         0.15655
      17 -> 19        -0.15589
      17 -> 20         0.52070
      17 -> 21        -0.27669
      18 -> 20         0.22057
 
 Excited State  10:      Singlet-A     10.3484 eV  119.81 nm  f=0.0454  <S**2>=0.000
      14 -> 19        -0.13768
      15 -> 19         0.60755
      17 -> 19         0.10252
      18 -> 20        -0.12009
      18 -> 23        -0.10418
      18 -> 24        -0.24452
 
 Excited State  11:      Singlet-A     10.4239 eV  118.94 nm  f=0.0060  <S**2>=0.000
      14 -> 19         0.65825
      15 -> 19         0.11280
      16 -> 20         0.16362
 
 Excited State  12:      Singlet-A     10.4944 eV  118.14 nm  f=0.0035  <S**2>=0.000
      15 -> 19         0.24651
      18 -> 24         0.64382
 
 Excited State  13:      Singlet-A     10.6779 eV  116.11 nm  f=0.0042  <S**2>=0.000
      17 -> 21         0.11740
      17 -> 22         0.67786
 
 Excited State  14:      Singlet-A     11.0772 eV  111.93 nm  f=0.0051  <S**2>=0.000
      13 -> 19         0.21073
      18 -> 25         0.65886
 
 Excited State  15:      Singlet-A     11.1630 eV  111.07 nm  f=0.0012  <S**2>=0.000
      13 -> 19        -0.47429
      16 -> 20         0.49511
      18 -> 25         0.12203
 SavETr:  write IOETrn=   770 NScale= 10 NData=  16 NLR=1 NState=   15 LETran=     280.
 The selected state is a singlet
 CISAX will form     1 AO SS matrices at one time.
 NMat=     1 NSing=     1 JSym2X= 0.
 CISAX will form     1 AO SS matrices at one time.
 NMat=     1 NSing=     1 JSym2X= 0.
 Leave Link  914 at Tue Dec 15 16:28:37 2015, MaxMem=    33554432 cpu:        26.4
 (Enter /home/Applications/g09/g09/l1002.exe)
 Minotr:  Closed shell wavefunction.
          Computing CIS/TD-HF/TD-KS derivatives.
          Using Z-Vector for PSCF gradient.
          Skipping F1 and S1 gradient terms here.
          IDoAtm=111111111
          Frozen-core window.
          Direct CPHF calculation.
          Differentiating once with respect to electric field.
                with respect to dipole field.
          Differentiating once with respect to nuclear coordinates.
          Requested convergence is 1.0D-10 RMS, and 1.0D-09 maximum.
          NewPWx=F KeepS1=T KeepF1=T KeepIn=T MapXYZ=F SortEE=F KeepMc=T.
          MDV=      33554290 using IRadAn=       0.
 Using stored XC quadrature information.
 Keep R1 ints in memory in canonical form, NReq=1898913.
 FoFCou: FMM=F IPFlag=           0 FMFlag=           0 FMFlg1=           0
         NFxFlg=           0 DoJE=F BraDBF=F KetDBF=F FulRan=T
         wScrn=  0.000000 ICntrl=     600 IOpCl=  0 I1Cent=           0 NGrid=           0
         NMat0=    1 NMatS0=   1431 NMatT0=    0 NMatD0=    1 NMtDS0=    0 NMtDT0=    0
 Symmetry not used in FoFCou.
          Solving linear equations separately, MaxMat=       0.
          There are     1 degrees of freedom in the 1st order CPHF.  IDoFFX=0 NUNeed=     1.
 LinEq1:  Iter=  0 NonCon=     1 RMS=3.71D-02 Max=4.86D-01 NDo=     1
 AX will form     1 AO Fock derivatives at one time.
 LinEq1:  Iter=  1 NonCon=     1 RMS=2.05D-02 Max=3.96D-01 NDo=     1
 LinEq1:  Iter=  2 NonCon=     1 RMS=1.52D-02 Max=2.37D-01 NDo=     1
 LinEq1:  Iter=  3 NonCon=     1 RMS=5.56D-03 Max=6.70D-02 NDo=     1
 LinEq1:  Iter=  4 NonCon=     1 RMS=3.96D-03 Max=4.71D-02 NDo=     1
 LinEq1:  Iter=  5 NonCon=     1 RMS=1.16D-03 Max=1.86D-02 NDo=     1
 LinEq1:  Iter=  6 NonCon=     1 RMS=6.54D-04 Max=4.52D-03 NDo=     1
 LinEq1:  Iter=  7 NonCon=     1 RMS=1.98D-04 Max=1.59D-03 NDo=     1
 LinEq1:  Iter=  8 NonCon=     1 RMS=7.78D-05 Max=5.45D-04 NDo=     1
 LinEq1:  Iter=  9 NonCon=     1 RMS=1.33D-05 Max=7.13D-05 NDo=     1
 LinEq1:  Iter= 10 NonCon=     1 RMS=1.19D-06 Max=8.10D-06 NDo=     1
 LinEq1:  Iter= 11 NonCon=     1 RMS=1.60D-07 Max=1.04D-06 NDo=     1
 LinEq1:  Iter= 12 NonCon=     1 RMS=1.93D-08 Max=1.23D-07 NDo=     1
 LinEq1:  Iter= 13 NonCon=     1 RMS=2.75D-09 Max=1.48D-08 NDo=     1
 LinEq1:  Iter= 14 NonCon=     1 RMS=3.47D-10 Max=2.04D-09 NDo=     1
 LinEq1:  Iter= 15 NonCon=     0 RMS=3.73D-11 Max=2.98D-10 NDo=     1
 Linear equations converged to 1.000D-10 1.000D-09 after    15 iterations.
 End of Minotr F.D. properties file   721 does not exist.
 End of Minotr F.D. properties file   722 does not exist.
 End of Minotr F.D. properties file   788 does not exist.
 Leave Link 1002 at Tue Dec 15 16:28:51 2015, MaxMem=    33554432 cpu:        14.1
 (Enter /home/Applications/g09/g09/l601.exe)
 Copying SCF densities to generalized density rwf, IOpCl= 0 IROHF=0.

 **********************************************************************

            Population analysis using the SCF density.

 **********************************************************************

 Orbital symmetries:
       Occupied  (A) (A) (A) (A) (A) (A) (A) (A) (A) (A) (A) (A)
                 (A) (A) (A) (A) (A) (A)
       Virtual   (A) (A) (A) (A) (A) (A) (A) (A) (A) (A) (A) (A)
                 (A) (A) (A) (A) (A) (A) (A) (A) (A) (A) (A) (A)
                 (A) (A) (A) (A) (A) (A) (A) (A) (A) (A) (A)
 The electronic state is 1-A.
 Alpha  occ. eigenvalues --  -19.10877 -10.17092 -10.16408 -10.12273 -10.11406
 Alpha  occ. eigenvalues --   -1.13045  -0.82392  -0.75069  -0.60309  -0.57644
 Alpha  occ. eigenvalues --   -0.54511  -0.45188  -0.44212  -0.41305  -0.40977
 Alpha  occ. eigenvalues --   -0.36489  -0.28648  -0.23436
 Alpha virt. eigenvalues --    0.02469   0.09745   0.12425   0.15272   0.17801
 Alpha virt. eigenvalues --    0.18983   0.21898   0.24894   0.36483   0.44384
 Alpha virt. eigenvalues --    0.49106   0.67999   0.69710   0.72528   0.76633
 Alpha virt. eigenvalues --    0.77359   0.79078   0.81172   0.82356   0.84394
 Alpha virt. eigenvalues --    0.93785   0.99683   1.01768   1.02436   1.19240
 Alpha virt. eigenvalues --    1.22963   1.32813   1.38805   1.50361   1.56893
 Alpha virt. eigenvalues --    1.63100   1.73546   1.97369   2.15433   3.19180
     Molecular Orbital Coefficients:
                           1         2         3         4         5
                           O         O         O         O         O
     Eigenvalues --   -19.10877 -10.17092 -10.16408 -10.12273 -10.11406
   1 1   C  1S          0.00018  -0.01074  -0.00047   0.98356   0.06934
   2        2S          0.00074  -0.00590  -0.00036   0.11087   0.00336
   3        2PX        -0.00111  -0.00143  -0.00004  -0.00138   0.00161
   4        2PY         0.00071   0.00284   0.00060  -0.00183   0.00022
   5        2PZ         0.00002   0.00001   0.00000  -0.00011   0.00001
   6        3S         -0.00513   0.04285  -0.01581  -0.11511   0.03477
   7        3PX         0.00391   0.00249   0.00064   0.02197  -0.02097
   8        3PY         0.00856  -0.02206   0.01041   0.03011  -0.00792
   9        3PZ        -0.00020  -0.00022   0.00013   0.00084  -0.00021
  10 2   C  1S         -0.00055   0.98503   0.02978   0.01032   0.00079
  11        2S         -0.00106   0.10691  -0.00009  -0.00379  -0.00074
  12        2PX        -0.00176  -0.00251   0.00098   0.00118   0.00002
  13        2PY        -0.00148   0.00005  -0.00066  -0.00220  -0.00119
  14        2PZ         0.00002   0.00006   0.00001  -0.00002   0.00002
  15        3S          0.01701  -0.07906   0.01478   0.04376  -0.00571
  16        3PX        -0.01429   0.01360  -0.01641  -0.01881   0.00363
  17        3PY         0.00137  -0.01859   0.01215   0.02142  -0.00011
  18        3PZ         0.00015  -0.00027   0.00002   0.00011  -0.00014
  19 3   O  1S          0.98280   0.00015   0.00035   0.00007   0.00008
  20        2S          0.10796   0.00153   0.00206   0.00033   0.00036
  21        2PX        -0.00031   0.00085  -0.00023   0.00003   0.00002
  22        2PY         0.00435   0.00090   0.00044  -0.00006  -0.00007
  23        2PZ        -0.00005  -0.00002   0.00000  -0.00001   0.00001
  24        3S         -0.06142   0.00036  -0.00131  -0.00320  -0.00442
  25        3PX         0.00167   0.00019   0.00189  -0.00248   0.00184
  26        3PY        -0.01427  -0.00310  -0.00403  -0.00157  -0.00220
  27        3PZ         0.00015   0.00009   0.00003   0.00004  -0.00001
  28 4   C  1S         -0.00031  -0.03094   0.98486  -0.00051   0.00757
  29        2S         -0.00013  -0.00674   0.10719  -0.00038  -0.00448
  30        2PX         0.00208  -0.00113   0.00270   0.00014  -0.00111
  31        2PY        -0.00189  -0.00048  -0.00035  -0.00086  -0.00294
  32        2PZ         0.00001   0.00001  -0.00003  -0.00003   0.00004
  33        3S          0.01901   0.02245  -0.07682  -0.01242   0.04588
  34        3PX         0.01673   0.01912  -0.00800  -0.00534   0.01775
  35        3PY        -0.00314   0.01251  -0.01800  -0.00228   0.02114
  36        3PZ        -0.00001  -0.00020   0.00027   0.00027  -0.00015
  37 5   C  1S          0.00017   0.00018  -0.00795  -0.06979   0.98353
  38        2S          0.00072   0.00024  -0.00571  -0.01234   0.11031
  39        2PX         0.00121  -0.00013   0.00160  -0.00190   0.00116
  40        2PY         0.00089   0.00045   0.00326   0.00061  -0.00207
  41        2PZ        -0.00005  -0.00002  -0.00002   0.00002   0.00016
  42        3S         -0.00579  -0.02280   0.03886   0.05073  -0.10998
  43        3PX        -0.00716  -0.00377  -0.00578   0.02521  -0.01834
  44        3PY         0.00569   0.01323  -0.01977  -0.01321   0.02874
  45        3PZ         0.00027  -0.00005   0.00018   0.00004  -0.00086
  46 6   H  1S         -0.00100  -0.00045  -0.00131   0.00023  -0.00295
  47        2S         -0.00255  -0.00186   0.00133   0.00483   0.00406
  48 7   H  1S          0.00001   0.00158  -0.00362   0.00002  -0.00030
  49        2S          0.00366   0.00794   0.00957  -0.00021   0.00579
  50 8   H  1S          0.00024  -0.00410   0.00137  -0.00003  -0.00018
  51        2S          0.00374   0.00730   0.00821   0.00653  -0.00003
  52 9   H  1S         -0.00101  -0.00098  -0.00037  -0.00363  -0.00067
  53        2S         -0.00329   0.00254  -0.00097   0.00366   0.00464
                           6         7         8         9        10
                           O         O         O         O         O
     Eigenvalues --    -1.13045  -0.82392  -0.75069  -0.60309  -0.57644
   1 1   C  1S         -0.03001   0.14963  -0.06695  -0.11699   0.02816
   2        2S          0.02918  -0.16096   0.07270   0.11901  -0.02811
   3        2PX        -0.01282   0.06905   0.06940   0.08386   0.16924
   4        2PY        -0.03364   0.06317  -0.07403   0.02250  -0.10794
   5        2PZ        -0.00037   0.00242  -0.00092  -0.00291   0.00119
   6        3S          0.04725  -0.29739   0.13306   0.41423  -0.08852
   7        3PX        -0.01950   0.02900  -0.01663   0.01370   0.06789
   8        3PY        -0.04368   0.03761   0.00880  -0.02586  -0.03206
   9        3PZ         0.00042   0.00204  -0.00039  -0.00212   0.00045
  10 2   C  1S         -0.06523   0.06240  -0.14596   0.03532  -0.10849
  11        2S          0.07388  -0.07230   0.15564  -0.03189   0.12050
  12        2PX        -0.07292   0.02100  -0.02656   0.02329   0.15052
  13        2PY        -0.01999  -0.11479   0.00529   0.20217   0.03810
  14        2PZ         0.00055  -0.00024   0.00164  -0.00092   0.00120
  15        3S          0.04915  -0.08728   0.36786  -0.16597   0.32870
  16        3PX         0.03174   0.01191  -0.03092   0.03730   0.08386
  17        3PY        -0.01598  -0.03004   0.03505   0.04947   0.02018
  18        3PZ        -0.00014  -0.00042   0.00094  -0.00076   0.00081
  19 3   O  1S         -0.20751  -0.09349  -0.01539  -0.00211   0.04929
  20        2S          0.18812   0.08991   0.01349   0.00495  -0.04915
  21        2PX        -0.01779  -0.02444   0.19420  -0.26018  -0.05224
  22        2PY         0.11587  -0.01617  -0.00973   0.00107  -0.01355
  23        2PZ        -0.00127  -0.00025   0.00033   0.00005  -0.00031
  24        3S          0.66166   0.33653   0.05715   0.00726  -0.21161
  25        3PX        -0.01491  -0.01923   0.15988  -0.22555  -0.04842
  26        3PY         0.14573   0.00238  -0.00132  -0.00395  -0.01780
  27        3PZ        -0.00165  -0.00033   0.00002   0.00010  -0.00037
  28 4   C  1S         -0.08856   0.04441   0.14673  -0.00339  -0.10515
  29        2S          0.09667  -0.05349  -0.16013   0.00019   0.11618
  30        2PX         0.09384  -0.01222  -0.01505   0.03143  -0.14855
  31        2PY        -0.04209  -0.14291  -0.01797  -0.23692  -0.02778
  32        2PZ         0.00034   0.00083   0.00040   0.00144  -0.00171
  33        3S          0.06708  -0.05452  -0.35513   0.06233   0.33721
  34        3PX        -0.04560  -0.01772  -0.01860   0.02590  -0.08585
  35        3PY         0.00043  -0.03095  -0.04379  -0.06679  -0.00002
  36        3PZ         0.00001   0.00065   0.00089   0.00015  -0.00082
  37 5   C  1S         -0.03253   0.14605   0.08313   0.08434   0.05451
  38        2S          0.03213  -0.15706  -0.09041  -0.08480  -0.05436
  39        2PX         0.01128  -0.07139   0.06356   0.12671  -0.14138
  40        2PY        -0.03948   0.06680   0.07970   0.06362  -0.08780
  41        2PZ         0.00079  -0.00386  -0.00255  -0.00435  -0.00326
  42        3S          0.05428  -0.27750  -0.16333  -0.30703  -0.18222
  43        3PX         0.03540  -0.01427  -0.01723   0.02619  -0.05877
  44        3PY        -0.03122   0.03358  -0.00724   0.05864  -0.01423
  45        3PZ        -0.00057  -0.00306  -0.00209  -0.00348  -0.00224
  46 6   H  1S          0.00771  -0.04662  -0.04132  -0.07546  -0.02959
  47        2S          0.01224  -0.00783  -0.01032  -0.04654  -0.01997
  48 7   H  1S          0.01748  -0.00774  -0.08674   0.03511   0.16193
  49        2S         -0.02193  -0.00350  -0.03066   0.02737   0.07727
  50 8   H  1S          0.01172  -0.01738   0.08495  -0.06317   0.15190
  51        2S         -0.01902  -0.00432   0.03329  -0.04596   0.07281
  52 9   H  1S          0.00788  -0.05547   0.03392   0.12060  -0.01849
  53        2S          0.01608  -0.01290   0.00764   0.06555  -0.01249
                          11        12        13        14        15
                           O         O         O         O         O
     Eigenvalues --    -0.54511  -0.45188  -0.44212  -0.41305  -0.40977
   1 1   C  1S         -0.03856   0.00163   0.03565  -0.01105  -0.01715
   2        2S          0.03611  -0.00236  -0.03975   0.00618   0.02098
   3        2PX         0.02301   0.00211  -0.05808   0.11792  -0.31577
   4        2PY         0.22355  -0.01503   0.05177   0.26937   0.03354
   5        2PZ         0.00114   0.12305  -0.00358   0.00410  -0.00071
   6        3S          0.17328   0.00257  -0.11739   0.04255   0.06874
   7        3PX         0.04394  -0.00825  -0.03293   0.11163  -0.18275
   8        3PY         0.12636  -0.01688   0.00314   0.16857  -0.00624
   9        3PZ        -0.00107   0.08936  -0.00258   0.00388   0.00059
  10 2   C  1S          0.01233  -0.00231  -0.01861   0.04097   0.00482
  11        2S         -0.01735   0.00317   0.01932  -0.04896  -0.00834
  12        2PX         0.12498   0.00482   0.28026   0.04234   0.06176
  13        2PY        -0.12307   0.01191  -0.08309  -0.16885  -0.15144
  14        2PZ         0.00089   0.17196  -0.00677   0.00983   0.00608
  15        3S         -0.00257   0.00157   0.04963  -0.13156  -0.02673
  16        3PX         0.08285   0.00864   0.19792   0.02923   0.04771
  17        3PY        -0.10839   0.00564  -0.04336  -0.09229  -0.12573
  18        3PZ         0.00152   0.16176  -0.00641   0.01040   0.00689
  19 3   O  1S         -0.05556   0.00043   0.01300   0.00430   0.01219
  20        2S          0.05433  -0.00034  -0.01028  -0.00611  -0.00776
  21        2PX         0.03293  -0.01546  -0.24921   0.09821   0.03972
  22        2PY        -0.17725   0.00858   0.05547   0.05968  -0.11241
  23        2PZ         0.00303   0.36344  -0.01374   0.02384   0.01856
  24        3S          0.21566  -0.00127  -0.05149  -0.00952  -0.08283
  25        3PX         0.02898  -0.01409  -0.23323   0.10183   0.04120
  26        3PY        -0.15976   0.00834   0.04995   0.06092  -0.11604
  27        3PZ         0.00299   0.36383  -0.01383   0.02441   0.01924
  28 4   C  1S          0.01960   0.00254   0.01315  -0.04976  -0.01242
  29        2S         -0.02308  -0.00284  -0.00800   0.05949   0.01131
  30        2PX        -0.15068   0.00999   0.27239   0.07753  -0.11651
  31        2PY        -0.05844  -0.00588  -0.01574   0.19368  -0.08154
  32        2PZ         0.00323   0.21415  -0.00561   0.00696   0.00683
  33        3S         -0.05397  -0.00486  -0.05309   0.18315   0.03043
  34        3PX        -0.10896   0.01087   0.17373   0.06000  -0.08346
  35        3PY        -0.09911   0.00105   0.01711   0.14497  -0.09568
  36        3PZ         0.00147   0.19310  -0.00638   0.00920   0.00803
  37 5   C  1S         -0.05808  -0.00011  -0.03857   0.03004  -0.00328
  38        2S          0.05445   0.00026   0.04336  -0.02526   0.00809
  39        2PX        -0.04916  -0.00870   0.03594  -0.01270   0.33453
  40        2PY         0.19817   0.01195   0.00315  -0.25457  -0.05070
  41        2PZ         0.00712   0.13451  -0.00159  -0.00406  -0.00362
  42        3S          0.26343  -0.00660   0.11544  -0.14549   0.02608
  43        3PX        -0.05529  -0.01485   0.02998   0.04555   0.21172
  44        3PY         0.08589   0.01535   0.02258  -0.13718  -0.07436
  45        3PZ         0.00707   0.09239  -0.00070  -0.00399  -0.00385
  46 6   H  1S          0.13429   0.01428   0.02804  -0.16337  -0.16953
  47        2S          0.07883   0.00595   0.01526  -0.14741  -0.15074
  48 7   H  1S          0.06213  -0.00741  -0.17395  -0.04302   0.12340
  49        2S          0.01937  -0.00318  -0.13523  -0.04195   0.10226
  50 8   H  1S          0.07216   0.00275   0.21409   0.02488   0.08992
  51        2S          0.03095  -0.00055   0.16648   0.02842   0.07715
  52 9   H  1S          0.13061  -0.00969  -0.03520   0.21584  -0.08872
  53        2S          0.06640  -0.00288  -0.01401   0.18787  -0.08213
                          16        17        18        19        20
                           O         O         O         V         V
     Eigenvalues --    -0.36489  -0.28648  -0.23436   0.02469   0.09745
   1 1   C  1S          0.01904   0.00329  -0.00042   0.00162   0.00437
   2        2S         -0.01940  -0.00429   0.00022  -0.00151   0.00183
   3        2PX        -0.04737   0.00492   0.00071   0.00418  -0.01747
   4        2PY         0.13413  -0.00157  -0.00133  -0.00299  -0.02221
   5        2PZ         0.00244  -0.30267   0.16158  -0.21936  -0.31055
   6        3S         -0.13966  -0.00765   0.00377  -0.00472  -0.09670
   7        3PX        -0.08151  -0.00391  -0.00423   0.00439  -0.01763
   8        3PY         0.10233  -0.00119   0.00044  -0.01080  -0.05248
   9        3PZ         0.00408  -0.30446   0.17226  -0.38415  -0.66068
  10 2   C  1S         -0.02207  -0.00167   0.00068   0.00138   0.00619
  11        2S          0.02553   0.00188  -0.00084  -0.00014  -0.00377
  12        2PX        -0.07786  -0.00164   0.00002   0.00088  -0.01979
  13        2PY        -0.16779   0.00283   0.00088   0.00295  -0.00604
  14        2PZ        -0.00137  -0.10377   0.33310   0.33469   0.17371
  15        3S          0.10780   0.00744  -0.00069  -0.01773  -0.08404
  16        3PX        -0.05254   0.00087   0.00024   0.00274  -0.04998
  17        3PY         0.01104   0.00500   0.00356   0.00001  -0.01504
  18        3PZ        -0.00237  -0.05743   0.36255   0.52206   0.37733
  19 3   O  1S          0.07090  -0.00013  -0.00005  -0.00087   0.00624
  20        2S         -0.07197  -0.00007   0.00022   0.00067  -0.00458
  21        2PX         0.05064  -0.00157  -0.00143   0.00121   0.00083
  22        2PY         0.41880   0.00991   0.00474   0.00107  -0.02062
  23        2PZ        -0.00873   0.32403   0.04905  -0.28503   0.04630
  24        3S         -0.26156   0.00258   0.00020   0.00687  -0.04864
  25        3PX         0.05133  -0.00143  -0.00182   0.00111  -0.00115
  26        3PY         0.45078   0.01106   0.00486   0.00174  -0.03343
  27        3PZ        -0.00958   0.36360   0.06283  -0.39898   0.07293
  28 4   C  1S         -0.01714   0.00146   0.00133  -0.00024   0.00207
  29        2S          0.01982  -0.00187  -0.00188  -0.00015   0.00234
  30        2PX        -0.01498  -0.00050   0.00064  -0.00218   0.02643
  31        2PY        -0.20364  -0.00501  -0.00674   0.00223  -0.00068
  32        2PZ         0.00314  -0.02369  -0.31463   0.30232  -0.24913
  33        3S          0.08416  -0.00156   0.00140   0.01185  -0.08428
  34        3PX        -0.03025   0.00045   0.00335  -0.00299   0.03123
  35        3PY         0.01530   0.00117  -0.00081   0.01084  -0.02289
  36        3PZ         0.00059   0.02123  -0.32090   0.46269  -0.50228
  37 5   C  1S          0.02525  -0.00400  -0.00346  -0.00337   0.01812
  38        2S         -0.02735   0.00475   0.00397   0.00341  -0.01207
  39        2PX         0.03424  -0.00603  -0.00360   0.00007   0.02660
  40        2PY         0.19089   0.01254   0.00864   0.00631  -0.04646
  41        2PZ         0.00623  -0.26402  -0.22473  -0.12247   0.34448
  42        3S         -0.17502   0.00602   0.00792   0.01619  -0.15653
  43        3PX         0.06483  -0.00964  -0.00670  -0.00476   0.08849
  44        3PY         0.14302   0.01212   0.01425   0.02079  -0.13743
  45        3PZ         0.00247  -0.26976  -0.24005  -0.21140   0.73462
  46 6   H  1S          0.06668   0.00393  -0.00043  -0.00577   0.03828
  47        2S          0.09339   0.00635  -0.00133  -0.02154   0.25574
  48 7   H  1S          0.10250  -0.00059  -0.00040  -0.00100   0.00801
  49        2S          0.10185   0.00005   0.00048  -0.00372   0.08042
  50 8   H  1S          0.03769  -0.00076   0.00078   0.00170   0.01057
  51        2S          0.04229  -0.00189   0.00048   0.00345   0.09303
  52 9   H  1S          0.04260  -0.00101  -0.00261   0.00084   0.02146
  53        2S          0.06443   0.00000  -0.00262   0.00315   0.13622
                          21        22        23        24        25
                           V         V         V         V         V
     Eigenvalues --     0.12425   0.15272   0.17801   0.18983   0.21898
   1 1   C  1S          0.03096  -0.01664  -0.04012   0.10823  -0.07709
   2        2S         -0.01623   0.03353   0.04361  -0.08655   0.02330
   3        2PX        -0.08368   0.03900  -0.04254  -0.05964   0.08454
   4        2PY        -0.14223   0.00127  -0.07071  -0.15572   0.10128
   5        2PZ         0.05837   0.00891  -0.00486  -0.00284  -0.00905
   6        3S         -0.43262  -0.09944   0.17886  -1.04414   1.50710
   7        3PX        -0.26362   0.34848  -0.08813  -0.49221  -0.01678
   8        3PY        -0.40671   0.16683   0.02926  -0.81791   0.36388
   9        3PZ         0.14391   0.02724  -0.01327  -0.02259  -0.04577
  10 2   C  1S          0.01193   0.12560   0.07067  -0.01924  -0.02646
  11        2S         -0.00425  -0.09948  -0.04536   0.03253   0.02915
  12        2PX        -0.17561   0.11687  -0.26771  -0.05010  -0.18598
  13        2PY        -0.06387   0.20521   0.08686   0.06596  -0.15921
  14        2PZ        -0.02725  -0.00872  -0.00207   0.00121   0.00376
  15        3S         -0.34615  -1.09955  -0.96127  -0.09838   0.10013
  16        3PX        -0.36966   0.00117  -0.98057   0.17754  -0.52672
  17        3PY        -0.15797   0.59723   0.35753   0.14788  -0.48743
  18        3PZ        -0.07075  -0.02053  -0.00361   0.00335   0.01727
  19 3   O  1S          0.04817  -0.08770  -0.01015  -0.00897   0.03907
  20        2S         -0.03295   0.06184   0.00851   0.00738  -0.01472
  21        2PX        -0.05401   0.14772  -0.03942  -0.03749  -0.21300
  22        2PY        -0.12467   0.12790   0.02473   0.00692  -0.01329
  23        2PZ        -0.00967  -0.00191   0.00198   0.00239   0.00039
  24        3S         -0.39904   0.72686   0.08161   0.05735  -0.42933
  25        3PX        -0.09551   0.23363  -0.08832   0.00210  -0.41705
  26        3PY        -0.22478   0.20200   0.03862  -0.00266  -0.10301
  27        3PZ        -0.01649  -0.00392   0.00412   0.00663   0.00221
  28 4   C  1S          0.02125   0.06952  -0.02379   0.05547   0.09458
  29        2S         -0.01385  -0.04540   0.01524  -0.05439  -0.05766
  30        2PX         0.12345   0.08938  -0.22039   0.01743   0.12961
  31        2PY        -0.02097   0.11883  -0.04436   0.01764   0.05503
  32        2PZ         0.04987   0.00572  -0.00538  -0.00849  -0.00258
  33        3S         -0.39833  -0.77028   0.40815  -0.32625  -1.44442
  34        3PX         0.23016   0.37952  -0.75167   0.44104   0.58339
  35        3PY        -0.10325   0.51152  -0.18844   0.08745  -0.04909
  36        3PZ         0.11927   0.01459  -0.01599  -0.03954  -0.01137
  37 5   C  1S          0.06380  -0.00513   0.01172  -0.09835  -0.02175
  38        2S         -0.04076   0.01104  -0.02229   0.08190   0.01826
  39        2PX         0.06248   0.08097  -0.11276  -0.07487  -0.20529
  40        2PY        -0.17701  -0.02676   0.08827   0.12885  -0.00953
  41        2PZ        -0.08091  -0.01105   0.00949   0.02819   0.01296
  42        3S         -0.69964  -0.06592   0.14044   0.81173   0.28251
  43        3PX         0.20053   0.28152  -0.28834  -0.52545  -1.04161
  44        3PY        -0.48285  -0.03054   0.07614   0.80853  -0.13127
  45        3PZ        -0.20029  -0.02847   0.02976   0.08056   0.04211
  46 6   H  1S          0.10172   0.00364  -0.01869  -0.05570   0.00066
  47        2S          1.07592   0.23538  -0.40933  -1.36886  -0.68583
  48 7   H  1S          0.01722   0.08828  -0.04548   0.03669  -0.02031
  49        2S          0.43621   1.13402  -1.10012   0.64472   1.18747
  50 8   H  1S          0.04167   0.05924   0.07634  -0.00971   0.02463
  51        2S          0.51323   0.94942   1.68788   0.00557   0.18367
  52 9   H  1S          0.10112  -0.05230   0.01168   0.04353   0.04936
  53        2S          0.94665  -0.40171   0.00364   1.53058  -0.88579
                          26        27        28        29        30
                           V         V         V         V         V
     Eigenvalues --     0.24894   0.36483   0.44384   0.49106   0.67999
   1 1   C  1S          0.01048   0.08052  -0.00389   0.11965   0.01985
   2        2S         -0.00674  -0.02934  -0.01885  -0.01355  -0.08569
   3        2PX         0.24272   0.09433   0.22522   0.05218  -0.35316
   4        2PY        -0.03131   0.13104  -0.17623   0.19708   0.33962
   5        2PZ         0.00094  -0.00349   0.00093  -0.00731   0.00430
   6        3S         -0.08609  -1.70428   0.45000  -3.70644   0.01566
   7        3PX         1.24883  -0.29189   1.42830   1.91311   0.24665
   8        3PY        -0.26798   1.65421  -1.53561   1.77326  -0.14829
   9        3PZ         0.00173   0.00414   0.00789   0.05050  -0.00189
  10 2   C  1S          0.06039  -0.08334   0.03352  -0.08446  -0.03922
  11        2S         -0.04545   0.00487  -0.00024   0.01510  -0.07038
  12        2PX        -0.05384  -0.14090  -0.04580  -0.29136  -0.22323
  13        2PY        -0.02874   0.21324  -0.12157  -0.20583  -0.21217
  14        2PZ        -0.00181   0.00057  -0.00078   0.00145   0.00593
  15        3S         -0.99302   1.76241  -1.32331   1.71457   0.09506
  16        3PX        -0.23348  -0.98235  -0.02763  -1.28245   0.09924
  17        3PY        -0.39365   1.33447  -1.68900   1.39545   0.47556
  18        3PZ        -0.00754   0.01428  -0.01328   0.00613  -0.00118
  19 3   O  1S          0.08575   0.04558  -0.01377  -0.01432   0.03297
  20        2S         -0.04148  -0.01855   0.00181  -0.00315  -0.09044
  21        2PX         0.22531  -0.00515  -0.21648  -0.20462   0.01856
  22        2PY        -0.08031  -0.15108  -0.00656   0.01090  -0.21473
  23        2PZ         0.00287   0.00078   0.00396   0.00195   0.00235
  24        3S         -0.91491  -0.59291   0.24421   0.24554   0.11269
  25        3PX         0.48232  -0.00400  -0.58656  -0.33960   0.06033
  26        3PY        -0.25255  -0.46542   0.01620   0.12023  -0.15860
  27        3PZ         0.00656   0.00267   0.00582  -0.00316   0.00294
  28 4   C  1S         -0.06949  -0.07756  -0.03412   0.09132  -0.06441
  29        2S          0.05078   0.00306   0.01796  -0.00843  -0.05903
  30        2PX         0.20526   0.13033  -0.00799  -0.23301   0.28448
  31        2PY        -0.19479   0.21293   0.13004   0.15867  -0.35763
  32        2PZ         0.00266  -0.00071  -0.00336  -0.00537   0.02015
[...]
     1  C    5.244646   0.472887  -0.078736  -0.147645   0.442704  -0.022107
     2  C    0.472887   5.134733   0.293363  -0.168671  -0.152201   0.005031
     3  O   -0.078736   0.293363   8.110475   0.297631  -0.088065   0.002216
     4  C   -0.147645  -0.168671   0.297631   5.082462   0.444661  -0.033309
     5  C    0.442704  -0.152201  -0.088065   0.444661   5.284470   0.377595
     6  H   -0.022107   0.005031   0.002216  -0.033309   0.377595   0.490071
     7  H    0.003728   0.005299  -0.034604   0.391848  -0.043935  -0.001024
     8  H   -0.037092   0.389133  -0.023205   0.003419   0.003339  -0.000029
     9  H    0.381682  -0.028519   0.002052   0.006731  -0.029832  -0.001591
               7          8          9
     1  C    0.003728  -0.037092   0.381682
     2  C    0.005299   0.389133  -0.028519
     3  O   -0.034604  -0.023205   0.002052
     4  C    0.391848   0.003419   0.006731
     5  C   -0.043935   0.003339  -0.029832
     6  H   -0.001024  -0.000029  -0.001591
     7  H    0.462349  -0.000070  -0.000038
     8  H   -0.000070   0.449103  -0.000609
     9  H   -0.000038  -0.000609   0.477615
 Mulliken charges:
               1
     1  C   -0.260067
     2  C    0.048945
     3  O   -0.481127
     4  C    0.122871
     5  C   -0.238735
     6  H    0.183145
     7  H    0.216447
     8  H    0.216011
     9  H    0.192510
 Sum of Mulliken charges =   0.00000
 Mulliken charges with hydrogens summed into heavy atoms:
               1
     1  C   -0.067557
     2  C    0.264956
     3  O   -0.481127
     4  C    0.339318
     5  C   -0.055589
 Electronic spatial extent (au):  <R**2>=            283.4720
 Charge=              0.0000 electrons
 Dipole moment (field-independent basis, Debye):
    X=              0.0413    Y=              0.7625    Z=              0.0552  Tot=              0.7657
 Quadrupole moment (field-independent basis, Debye-Ang):
   XX=            -23.6952   YY=            -28.2251   ZZ=            -31.5069
   XY=             -0.1669   XZ=             -0.1025   YZ=              0.1273
 Traceless Quadrupole moment (field-independent basis, Debye-Ang):
   XX=              4.1139   YY=             -0.4161   ZZ=             -3.6978
   XY=             -0.1669   XZ=             -0.1025   YZ=              0.1273
 Octapole moment (field-independent basis, Debye-Ang**2):
  XXX=             -0.1968  YYY=              1.6606  ZZZ=              0.1198  XYY=              0.4320
  XXY=             -4.0438  XXZ=              0.1816  XZZ=             -0.3423  YZZ=             -3.3505
  YYZ=              0.2267  XYZ=             -0.2581
 Hexadecapole moment (field-independent basis, Debye-Ang**3):
 XXXX=           -152.4034 YYYY=           -154.9346 ZZZZ=            -30.3762 XXXY=             -1.4675
 XXXZ=             -0.2239 YYYX=              0.2766 YYYZ=              0.4377 ZZZX=             -0.1048
 ZZZY=              0.0643 XXYY=            -44.3897 XXZZ=            -38.0180 YYZZ=            -33.5356
 XXYZ=              0.2516 YYXZ=             -0.4277 ZZXY=              0.3328
 N-N= 1.633430150013D+02 E-N=-8.595493521748D+02  KE= 2.272762308914D+02
 Orbital energies and kinetic energies (alpha):
                                 1                 2
   1         O               -19.108766         28.829049
   2         O               -10.170918         15.801362
   3         O               -10.164082         15.794661
   4         O               -10.122729         15.803166
   5         O               -10.114062         15.803331
   6         O                -1.130445          2.492113
   7         O                -0.823923          1.874685
   8         O                -0.750693          1.808148
   9         O                -0.603091          1.678066
  10         O                -0.576445          1.450745
  11         O                -0.545115          1.309836
  12         O                -0.451879          1.535937
  13         O                -0.442120          1.532722
  14         O                -0.413047          1.397415
  15         O                -0.409771          1.376618
  16         O                -0.364886          2.309954
  17         O                -0.286475          1.601939
  18         O                -0.234364          1.238367
  19         V                 0.024693          1.822469
  20         V                 0.097449          1.491921
  21         V                 0.124246          1.275461
  22         V                 0.152716          1.863487
  23         V                 0.178007          1.164446
  24         V                 0.189831          1.277608
  25         V                 0.218980          1.670895
  26         V                 0.248938          2.040281
  27         V                 0.364834          1.875718
  28         V                 0.443844          1.683645
  29         V                 0.491060          2.583995
  30         V                 0.679991          2.586228
  31         V                 0.697095          2.482979
  32         V                 0.725281          2.808707
  33         V                 0.766327          2.496597
  34         V                 0.773593          2.706870
  35         V                 0.790781          2.593926
  36         V                 0.811721          2.510064
  37         V                 0.823564          2.734836
  38         V                 0.843936          2.621949
  39         V                 0.937851          2.788951
  40         V                 0.996831          3.302746
  41         V                 1.017683          3.281991
  42         V                 1.024355          3.238860
  43         V                 1.192398          2.791225
  44         V                 1.229634          2.963809
  45         V                 1.328133          2.629384
  46         V                 1.388053          2.765141
  47         V                 1.503615          4.962235
  48         V                 1.568930          3.386687
  49         V                 1.630997          3.769008
  50         V                 1.735457          4.336487
  51         V                 1.973690          4.222217
  52         V                 2.154334          4.142999
  53         V                 3.191801          6.830849
 Total kinetic energy from orbitals= 2.272762308914D+02
 No NMR shielding tensors so no spin-rotation constants.
 Leave Link  601 at Tue Dec 15 16:28:51 2015, MaxMem=    33554432 cpu:         0.1
 (Enter /home/Applications/g09/g09/l701.exe)
 Compute integral first derivatives.
 ... and contract with generalized density number  6.
 Leave Link  701 at Tue Dec 15 16:28:51 2015, MaxMem=    33554432 cpu:         0.1
 (Enter /home/Applications/g09/g09/l702.exe)
 L702 exits ... SP integral derivatives will be done elsewhere.
 Leave Link  702 at Tue Dec 15 16:28:52 2015, MaxMem=    33554432 cpu:         0.0
 (Enter /home/Applications/g09/g09/l703.exe)
 Compute integral first derivatives, UseDBF=F ICtDFT=           0.
 Integral derivatives from FoFJK, PRISM(SPDF).
 Calling FoFJK, ICntrl=  10005127 FMM=F ISym2X=0 I1Cent= 0 IOpClX= 0 NMat=1 NMatS=1 NMatT=0.
 FoFJK:  IHMeth= 1 ICntrl=10005127 DoSepK=F KAlg= 0 I1Cent=   0 FoldK=F
 IRaf=         0 NMat=   1 IRICut=       1 DoRegI=T DoRafI=F ISym2E= 0.
 FoFCou: FMM=F IPFlag=           0 FMFlag=      100000 FMFlg1=         800
         NFxFlg=           0 DoJE=F BraDBF=F KetDBF=F FulRan=T
         wScrn=  0.000000 ICntrl=10005127 IOpCl=  0 I1Cent=           0 NGrid=           0
         NMat0=    1 NMatS0=      1 NMatT0=    0 NMatD0=    1 NMtDS0=    0 NMtDT0=    0
 Symmetry not used in FoFCou.
 Leave Link  703 at Tue Dec 15 16:28:54 2015, MaxMem=    33554432 cpu:         2.1
 (Enter /home/Applications/g09/g09/l716.exe)
 Dipole        =-5.77335966D-01 3.40656093D-01 1.98523049D-02
 ***** Axes restored to original set *****
 -------------------------------------------------------------------
 Center     Atomic                   Forces (Hartrees/Bohr)
 Number     Number              X              Y              Z
 -------------------------------------------------------------------
      1        6           0.121103512   -0.032890480   -0.002243108
      2        6          -0.042170674   -0.074453495   -0.000043271
      3        8          -0.102402994    0.007028058    0.003204361
      4        6          -0.098606146    0.091600895   -0.002642946
      5        6           0.138020973    0.023250736    0.004295515
      6        1          -0.013643042   -0.022974321   -0.003834540
      7        1          -0.000771385    0.016163415    0.000550074
      8        1          -0.001006810   -0.006068248    0.000263409
      9        1          -0.000523435   -0.001656561    0.000450506
 -------------------------------------------------------------------
 Cartesian Forces:  Max     0.138020973 RMS     0.051776677
 Z-matrix is all fixed cartesians, so copy forces.
 Force constants in Cartesian coordinates: 
                1             2             3             4             5 
      1  0.978343D+00
      2 -0.617273D-02  0.887682D+00
      3 -0.978288D-02 -0.111158D-01  0.244055D+00
      4 -0.545024D+00 -0.126663D+00  0.382564D-02  0.933911D+00
      5 -0.101749D+00 -0.230500D+00  0.132979D-02  0.986981D-01  0.842677D+00
      6  0.243735D-02  0.212502D-02 -0.119158D+00 -0.118188D-01 -0.742093D-02
      7 -0.919177D-02  0.286031D-01  0.147779D-03 -0.237452D+00  0.122766D+00
      8 -0.653572D-02  0.203410D-01  0.779383D-04  0.167351D+00 -0.308807D+00
      9 -0.972653D-04 -0.127194D-03  0.287321D-02  0.364254D-02 -0.138617D-02
     10  0.112183D-01 -0.248687D-04 -0.410128D-03  0.232569D-01  0.165408D-01
     11  0.372519D-01 -0.887951D-04 -0.139824D-02 -0.196843D-01 -0.140061D-01
     12 -0.187714D-02  0.866989D-04  0.606884D-03 -0.444459D-03 -0.434387D-03
     13 -0.179946D+00  0.110337D-01  0.286372D-03  0.116386D-01 -0.361657D-01
     14 -0.160102D-01 -0.493773D+00  0.147816D-01 -0.155378D-04  0.438028D-04
     15 -0.403102D-04  0.121817D-01 -0.101064D+00 -0.633142D-04 -0.229970D-03
     16  0.190304D-01 -0.247930D-04  0.419470D-04 -0.129423D-05 -0.158789D-04
     17 -0.217129D-01 -0.208833D-04 -0.182383D-02  0.000000D+00  0.477379D-05
     18  0.187557D-02  0.635822D-03  0.230571D-01  0.139896D-04  0.171638D-03
     19  0.821453D-05  0.729766D-05  0.263983D-03  0.323287D-05  0.130920D-05
     20  0.557869D-05  0.495603D-05  0.179277D-03  0.241917D-05  0.000000D+00
     21  0.286813D-03  0.254800D-03  0.921705D-02  0.155309D-03  0.628946D-04
     22  0.841116D-02 -0.261494D-01  0.938947D-03 -0.180826D+00 -0.117245D+00
     23 -0.471869D-02  0.147056D-01  0.503369D-03 -0.111888D+00 -0.313702D+00
     24  0.499551D-03 -0.323030D-03  0.354954D-01  0.453593D-02  0.730073D-02
     25 -0.282849D+00  0.119391D+00  0.468834D-02 -0.550583D-02  0.171693D-01
     26  0.119642D+00 -0.198351D+00 -0.253410D-02 -0.780039D-02  0.242881D-01
     27  0.669831D-02 -0.371799D-02 -0.950828D-01  0.153201D-03  0.606397D-03
                6             7             8             9            10 
      6  0.214368D+00
      7  0.351723D-02  0.573119D+00
      8 -0.178881D-02  0.980469D-01  0.693769D+00
      9 -0.442150D-01 -0.143195D-01 -0.936990D-02  0.579498D-01
     10 -0.854271D-03 -0.360499D+00 -0.262835D+00  0.105078D-01  0.112472D+01
     11  0.533736D-03 -0.218675D+00 -0.412911D+00  0.928663D-02 -0.844220D-02
     12 -0.306599D-02  0.103585D-01  0.109728D-01 -0.537844D-01 -0.218903D-01
     13  0.201565D-02 -0.897731D-02  0.762367D-02  0.931248D-03 -0.622135D+00
     14 -0.423732D-04 -0.297723D-01  0.252406D-01  0.174100D-02  0.141232D+00
     15 -0.427432D-02  0.930727D-03 -0.281229D-03  0.119159D-01  0.113931D-01
     16 -0.573579D-03  0.000000D+00  0.000000D+00 -0.320518D-05 -0.591341D-02
     17  0.172440D-03 -0.163190D-04 -0.693310D-05 -0.624894D-03  0.663042D-02
     18  0.619994D-02  0.213060D-03  0.905182D-04  0.815859D-02  0.929774D-03
     19  0.121857D-03  0.219882D-01 -0.185981D-01 -0.515520D-04 -0.170659D+00
     20  0.911862D-04  0.108835D-01 -0.920473D-02 -0.300751D-05  0.106892D+00
     21  0.585409D-02 -0.554975D-03  0.611118D-03  0.427199D-02  0.509017D-04
     22  0.426233D-02  0.210114D-01  0.149473D-01 -0.717002D-03  0.247661D-05
     23  0.611723D-02 -0.118345D-01 -0.842034D-02  0.570566D-03  0.107214D-05
     24 -0.869205D-01 -0.372154D-03 -0.311333D-03  0.574837D-02  0.848317D-04
     25  0.892285D-03  0.119757D-05  0.000000D+00  0.106920D-03  0.815331D-05
     26  0.212502D-03  0.000000D+00  0.000000D+00 -0.870356D-04  0.520310D-05
     27  0.312116D-01  0.793171D-04 -0.111362D-05  0.708153D-02  0.188328D-03
               11            12            13            14            15 
     11  0.975663D+00
     12 -0.897150D-02  0.234180D+00
     13  0.116242D+00  0.154506D-01  0.995920D+00
     14 -0.239851D+00 -0.344850D-02 -0.211485D-01  0.895218D+00
     15 -0.295777D-02 -0.122542D+00 -0.350129D-02 -0.139446D-02  0.243975D+00
     16 -0.194225D-01 -0.184922D-02 -0.222262D+00 -0.102047D+00 -0.895515D-02
     17  0.219277D-01  0.796605D-04 -0.106406D+00 -0.200577D+00 -0.717787D-02
     18  0.110520D-02  0.261711D-01 -0.127846D-01 -0.101549D-01 -0.920992D-01
     19  0.112723D+00 -0.103301D-03  0.840136D-02  0.277828D-01  0.122524D-03
     20 -0.330738D+00  0.150760D-02  0.415976D-02  0.137429D-01  0.235188D-03
     21  0.220028D-02 -0.908151D-01  0.453244D-04 -0.234328D-02  0.331131D-01
     22  0.100294D-05  0.933512D-04  0.000000D+00  0.000000D+00  0.191903D-04
     23  0.000000D+00  0.404122D-04  0.000000D+00  0.668226D-05  0.241378D-03
     24  0.343538D-04  0.319758D-02  0.195759D-04  0.240177D-03  0.867573D-02
     25  0.724328D-05  0.262016D-03  0.173598D-01 -0.210585D-04  0.945388D-04
     26  0.462236D-05  0.167207D-03  0.246611D-01 -0.507144D-04 -0.616919D-03
     27  0.167308D-03  0.605213D-02 -0.246281D-02  0.620769D-03  0.222997D-01
               16            17            18            19            20 
     16  0.209110D+00
     17  0.121488D+00  0.178660D+00
     18  0.105053D-01  0.864724D-02  0.502212D-01
     19  0.000000D+00  0.279666D-04 -0.365130D-03  0.140258D+00
     20  0.000000D+00  0.189928D-04 -0.247969D-03 -0.121944D+00  0.326175D+00
     21  0.500843D-05  0.976463D-03 -0.127486D-01  0.116187D-04 -0.176228D-02
     22  0.000000D+00  0.000000D+00  0.000000D+00  0.000000D+00  0.000000D+00
     23  0.000000D+00  0.000000D+00  0.000000D+00  0.000000D+00  0.000000D+00
     24  0.000000D+00  0.000000D+00  0.000000D+00  0.000000D+00  0.000000D+00
     25  0.358867D-04 -0.107889D-04 -0.387907D-03  0.000000D+00  0.000000D+00
     26  0.229014D-04 -0.688503D-05 -0.247546D-03  0.000000D+00  0.000000D+00
     27  0.828924D-03 -0.249206D-03 -0.896002D-02  0.000000D+00  0.000000D+00
               21            22            23            24            25 
     21  0.511075D-01
     22  0.000000D+00  0.151402D+00
     23  0.000000D+00  0.128445D+00  0.307405D+00
     24  0.000000D+00 -0.456747D-02 -0.710392D-02  0.470673D-01
     25  0.000000D+00  0.000000D+00 -0.557180D-05 -0.200265D-03  0.270950D+00
     26  0.000000D+00  0.000000D+00  0.453558D-05  0.163020D-03 -0.136530D+00
     27  0.000000D+00 -0.293391D-04 -0.369031D-03 -0.132639D-01 -0.545593D-02
               26            27 
     26  0.174112D+00
     27  0.294287D-02  0.506617D-01
 Leave Link  716 at Tue Dec 15 16:28:54 2015, MaxMem=    33554432 cpu:         0.0
 (Enter /home/Applications/g09/g09/l103.exe)

 GradGradGradGradGradGradGradGradGradGradGradGradGradGradGradGradGradGrad
 Berny optimization.
 Search for a local minimum.
 Step number   1 out of a maximum of    2
 All quantities printed in internal units (Hartrees-Bohrs-Radians)
 Second derivative matrix not updated -- first step.
 ITU=  0
     Eigenvalues ---    0.02329   0.03359   0.07000   0.07674   0.07864
     Eigenvalues ---    0.08767   0.13544   0.15827   0.16809   0.22751
     Eigenvalues ---    0.26402   0.35147   0.43623   0.46374   0.65665
     Eigenvalues ---    0.82243   1.08176   1.39155   1.54309   1.68233
     Eigenvalues ---    1.86444
 Quadratic step=4.970D-01 exceeds max=3.000D-01 adjusted using Lamda=-1.736D-01.
 Angle between NR and scaled steps=  16.13 degrees.
 Angle between quadratic step and forces=  33.03 degrees.
 Linear search not attempted -- first point.
 TrRot= -0.007527  0.002592  0.000720  0.540190 -0.000526 -0.539137
 Variable       Old X    -DE/DX   Delta X   Delta X   Delta X     New X
                                 (Linear)    (Quad)   (Total)
    X1        1.74820   0.12110   0.00000   0.13017   0.12411   1.87231
    Y1       -1.32866  -0.03289   0.00000  -0.05216  -0.04758  -1.37624
    Z1       -0.02160  -0.00224   0.00000  -0.00400  -0.00280  -0.02440
    X2       -0.65454  -0.04217   0.00000  -0.01192  -0.01718  -0.67172
    Y2       -2.10056  -0.07445   0.00000  -0.05911  -0.05722  -2.15778
    Z2        0.00519  -0.00004   0.00000  -0.00030  -0.00046   0.00473
    X3       -2.21159  -0.10240   0.00000  -0.14075  -0.14841  -2.36000
    Y3        0.08904   0.00703   0.00000   0.02186   0.02197   0.11101
    Z3        0.02297   0.00320   0.00000   0.00469   0.00438   0.02735
    X4       -0.60592  -0.09861   0.00000  -0.07836  -0.08804  -0.69396
    Y4        1.98757   0.09160   0.00000   0.08198   0.08386   2.07144
    Z4       -0.04002  -0.00264   0.00000  -0.00591  -0.00494  -0.04496
    X5        1.75175   0.13802   0.00000   0.09097   0.08212   1.83387
    Y5        1.27487   0.02325   0.00000   0.02052   0.02508   1.29994
    Z5       -0.09369   0.00430   0.00000   0.00990   0.01181  -0.08188
    X6        3.33482  -0.01364   0.00000   0.03351   0.02320   3.35802
    Y6        2.67165  -0.02297   0.00000  -0.03491  -0.02877   2.64288
    Z6        0.01392  -0.00383   0.00000  -0.00880  -0.00585   0.00807
    X7       -1.49384  -0.00077   0.00000  -0.02506  -0.03665  -1.53049
    Y7        3.78100   0.01616   0.00000   0.09930   0.10030   3.88130
    Z7       -0.04947   0.00055   0.00000  -0.00251  -0.00143  -0.05091
    X8       -1.64035  -0.00101   0.00000  -0.00959  -0.01303  -1.65338
    Y8       -3.85240  -0.00607   0.00000  -0.05161  -0.05077  -3.90317
    Z8        0.05611   0.00026   0.00000   0.00169   0.00061   0.05672
    X9        3.40537  -0.00052   0.00000   0.07869   0.07388   3.47925
    Y9       -2.49913  -0.00166   0.00000  -0.05315  -0.04687  -2.54600
    Z9       -0.06101   0.00045   0.00000  -0.00291  -0.00131  -0.06232
         Item               Value     Threshold  Converged?
 Maximum Force            0.138021     0.000450     NO 
 RMS     Force            0.051777     0.000300     NO 
 Maximum Displacement     0.148407     0.001800     NO 
 RMS     Displacement     0.057511     0.001200     NO 
 Predicted change in Energy=-4.165001D-02
 GradGradGradGradGradGradGradGradGradGradGradGradGradGradGradGradGradGrad

 Leave Link  103 at Tue Dec 15 16:28:54 2015, MaxMem=    33554432 cpu:         0.0
 (Enter /home/Applications/g09/g09/l9999.exe)
 1\1\GINC-DUSTIN-DESKTOP\Force\RB3LYP-FC\3-21G\C4H4O1\DUSTIN\15-Dec-201
 5\0\\#P B3LYP/3-21G CIS(Singlets,NStates=15) pop(full) force\\FuranDFT
 \\0,1\C,0.925106,-0.703097,-0.011431\C,-0.346368,-1.111568,0.002746\O,
 -1.170325,0.047117,0.012157\C,-0.320637,1.051779,-0.021179\C,0.926985,
 0.67463,-0.049576\H,1.76471,1.413778,0.007367\H,-0.790507,2.000818,-0.
 026181\H,-0.868037,-2.038601,0.029692\H,1.802043,-1.322484,-0.032284\\
 Version=ES64L-G09RevD.01\State=1-A\HF=-228.7362604\RMSD=6.721e-09\RMSF
 =5.178e-02\Dipole=0.3405727,0.5776714,0.0079693\PG=C01 [X(C4H4O1)]\\@


 EDUCATION IS NOT TRAINING BUT RATHER THE PROCESS THAT EQUIPS YOU TO
 ENTERTAIN YOURSELF, A FRIEND, OR AN IDEA.  -- WALLACE STERLING
 Job cpu time:       0 days  0 hours  0 minutes 46.6 seconds.
 File lengths (MBytes):  RWF=     14 Int=      0 D2E=      0 Chk=      3 Scr=      1
 Normal termination of Gaussian 09 at Tue Dec 15 16:28:54 2015.
