 Entering Gaussian System, Link 0=g09
 Input=FuranAM1_97P9.com
 Output=FuranAM1_97P9.log
 Initial command:
 /home/Applications/g09/g09/l1.exe "/home/Applications/g09/scratch/Gau-9307.inp" -scrdir="/home/Applications/g09/scratch/"
 Entering Link 1 = /home/Applications/g09/g09/l1.exe PID=      9309.
  
 Copyright (c) 1988,1990,1992,1993,1995,1998,2003,2009,2013,
            Gaussian, Inc.  All Rights Reserved.
  
 This is part of the Gaussian(R) 09 program.  It is based on
 the Gaussian(R) 03 system (copyright 2003, Gaussian, Inc.),
 the Gaussian(R) 98 system (copyright 1998, Gaussian, Inc.),
 the Gaussian(R) 94 system (copyright 1995, Gaussian, Inc.),
 the Gaussian 92(TM) system (copyright 1992, Gaussian, Inc.),
 the Gaussian 90(TM) system (copyright 1990, Gaussian, Inc.),
 the Gaussian 88(TM) system (copyright 1988, Gaussian, Inc.),
 the Gaussian 86(TM) system (copyright 1986, Carnegie Mellon
 University), and the Gaussian 82(TM) system (copyright 1983,
 Carnegie Mellon University). Gaussian is a federally registered
 trademark of Gaussian, Inc.
  
 This software contains proprietary and confidential information,
 including trade secrets, belonging to Gaussian, Inc.
  
 This software is provided under written license and may be
 used, copied, transmitted, or stored only in accord with that
 written license.
  
 The following legend is applicable only to US Government
 contracts under FAR:
  
                    RESTRICTED RIGHTS LEGEND
  
 Use, reproduction and disclosure by the US Government is
 subject to restrictions as set forth in subparagraphs (a)
 and (c) of the Commercial Computer Software - Restricted
 Rights clause in FAR 52.227-19.
  
 Gaussian, Inc.
 340 Quinnipiac St., Bldg. 40, Wallingford CT 06492
  
  
 ---------------------------------------------------------------
 Warning -- This program may not be used in any manner that
 competes with the business of Gaussian, Inc. or will provide
 assistance to any competitor of Gaussian, Inc.  The licensee
 of this program is prohibited from giving any competitor of
 Gaussian, Inc. access to this program.  By using this program,
 the user acknowledges that Gaussian, Inc. is engaged in the
 business of creating and licensing software in the field of
 computational chemistry and represents and warrants to the
 licensee that it is not a competitor of Gaussian, Inc. and that
 it will not use this program in any manner prohibited above.
 ---------------------------------------------------------------
  

 Cite this work as:
 Gaussian 09, Revision D.01,
 M. J. Frisch, G. W. Trucks, H. B. Schlegel, G. E. Scuseria, 
 M. A. Robb, J. R. Cheeseman, G. Scalmani, V. Barone, B. Mennucci, 
 G. A. Petersson, H. Nakatsuji, M. Caricato, X. Li, H. P. Hratchian, 
 A. F. Izmaylov, J. Bloino, G. Zheng, J. L. Sonnenberg, M. Hada, 
 M. Ehara, K. Toyota, R. Fukuda, J. Hasegawa, M. Ishida, T. Nakajima, 
 Y. Honda, O. Kitao, H. Nakai, T. Vreven, J. A. Montgomery, Jr., 
 J. E. Peralta, F. Ogliaro, M. Bearpark, J. J. Heyd, E. Brothers, 
 K. N. Kudin, V. N. Staroverov, T. Keith, R. Kobayashi, J. Normand, 
 K. Raghavachari, A. Rendell, J. C. Burant, S. S. Iyengar, J. Tomasi, 
 M. Cossi, N. Rega, J. M. Millam, M. Klene, J. E. Knox, J. B. Cross, 
 V. Bakken, C. Adamo, J. Jaramillo, R. Gomperts, R. E. Stratmann, 
 O. Yazyev, A. J. Austin, R. Cammi, C. Pomelli, J. W. Ochterski, 
 R. L. Martin, K. Morokuma, V. G. Zakrzewski, G. A. Voth, 
 P. Salvador, J. J. Dannenberg, S. Dapprich, A. D. Daniels, 
 O. Farkas, J. B. Foresman, J. V. Ortiz, J. Cioslowski, 
 and D. J. Fox, Gaussian, Inc., Wallingford CT, 2013.
 
 ******************************************
 Gaussian 09:  ES64L-G09RevD.01 24-Apr-2013
                15-Dec-2015 
 ******************************************
 ------------------------------------------------------------
 #P AM1(Input,print) CIS(Singlets,NStates=15) pop(full) force
 ------------------------------------------------------------
 1/10=7,30=1,38=1/1,3;
 2/12=2,17=6,18=5,40=1/2;
 3/5=2,16=1,25=1,41=700000,71=1,135=100,136=1/1,2,8,3;
 4/35=1/1;
 5/5=2,35=1,38=5/2;
 8/6=1,10=1,108=15/1;
 9/15=2,41=15,42=1,48=1,49=10/14;
 10/5=4/2;
 6/7=3,18=1/1;
 7/12=6,13=5,29=1/1,2,3,16;
 1/10=7,30=1/3;
 99//99;
 Leave Link    1 at Tue Dec 15 17:07:29 2015, MaxMem=           0 cpu:         0.0
 (Enter /home/Applications/g09/g09/l101.exe)
 -----------------
 AM1-Reparam Input
 -----------------
 Symbolic Z-matrix:
 Charge =  0 Multiplicity = 1
 6                     0.9316   -0.68923  -0.03102 
 6                    -0.32499  -1.13472   0.00508 
 8                    -1.12289   0.01928   0.0044 
 6                    -0.37609   1.09916   0.04973 
 6                     0.9978    0.67658  -0.04305 
 1                     1.80142   1.32823  -0.03589 
 1                    -0.79666   2.03305  -0.00474 
 1                    -0.79522  -2.01073   0.03231 
 1                     1.84779  -1.36427   0.00783 
 
 NAtoms=      9 NQM=        9 NQMF=       0 NMMI=      0 NMMIF=      0
                NMic=       0 NMicF=      0.
                    Isotopes and Nuclear Properties:
 (Nuclear quadrupole moments (NQMom) in fm**2, nuclear magnetic moments (NMagM)
  in nuclear magnetons)

  Atom         1           2           3           4           5           6           7           8           9
 IAtWgt=          12          12          16          12          12           1           1           1           1
 AtmWgt=  12.0000000  12.0000000  15.9949146  12.0000000  12.0000000   1.0078250   1.0078250   1.0078250   1.0078250
 NucSpn=           0           0           0           0           0           1           1           1           1
 AtZEff=   0.0000000   0.0000000   0.0000000   0.0000000   0.0000000   0.0000000   0.0000000   0.0000000   0.0000000
 NQMom=    0.0000000   0.0000000   0.0000000   0.0000000   0.0000000   0.0000000   0.0000000   0.0000000   0.0000000
 NMagM=    0.0000000   0.0000000   0.0000000   0.0000000   0.0000000   2.7928460   2.7928460   2.7928460   2.7928460
 AtZNuc=   6.0000000   6.0000000   8.0000000   6.0000000   6.0000000   1.0000000   1.0000000   1.0000000   1.0000000
 Leave Link  101 at Tue Dec 15 17:07:29 2015, MaxMem=    33554432 cpu:         0.0
 (Enter /home/Applications/g09/g09/l103.exe)

 GradGradGradGradGradGradGradGradGradGradGradGradGradGradGradGradGradGrad
 Berny optimization.
 Initialization pass.
 Trust Radius=3.00D-01 FncErr=1.00D-07 GrdErr=1.00D-07
 Number of steps in this run=      2 maximum allowed number of steps=      2.
 GradGradGradGradGradGradGradGradGradGradGradGradGradGradGradGradGradGrad

 Leave Link  103 at Tue Dec 15 17:07:29 2015, MaxMem=    33554432 cpu:         0.0
 (Enter /home/Applications/g09/g09/l202.exe)
                          Input orientation:                          
 ---------------------------------------------------------------------
 Center     Atomic      Atomic             Coordinates (Angstroms)
 Number     Number       Type             X           Y           Z
 ---------------------------------------------------------------------
      1          6           0        0.931595   -0.689233   -0.031018
      2          6           0       -0.324992   -1.134723    0.005082
      3          8           0       -1.122886    0.019279    0.004399
      4          6           0       -0.376089    1.099155    0.049733
      5          6           0        0.997797    0.676579   -0.043048
      6          1           0        1.801421    1.328229   -0.035888
      7          1           0       -0.796656    2.033046   -0.004740
      8          1           0       -0.795220   -2.010735    0.032311
      9          1           0        1.847793   -1.364270    0.007826
 ---------------------------------------------------------------------
                    Distance matrix (angstroms):
                    1          2          3          4          5
     1  C    0.000000
     2  C    1.333707   0.000000
     3  O    2.173508   1.402981   0.000000
     4  C    2.216955   2.234908   1.313733   0.000000
     5  C    1.367468   2.243413   2.220719   1.440396   0.000000
     6  H    2.196992   3.254142   3.204145   2.191200   1.034655
     7  H    3.224646   3.202706   2.040041   1.025669   2.249785
     8  H    2.175378   0.994612   2.056478   3.138055   3.231446
     9  H    1.138685   2.184878   3.277065   3.319016   2.211367
                    6          7          8          9
     6  H    0.000000
     7  H    2.692163   0.000000
     8  H    4.230352   4.043951   0.000000
     9  H    2.693253   4.305232   2.721036   0.000000
 Stoichiometry    C4H4O
 Framework group  C1[X(C4H4O)]
 Deg. of freedom    21
 Full point group                 C1      NOp   1
 Largest Abelian subgroup         C1      NOp   1
 Largest concise Abelian subgroup C1      NOp   1
                         Standard orientation:                         
 ---------------------------------------------------------------------
 Center     Atomic      Atomic             Coordinates (Angstroms)
 Number     Number       Type             X           Y           Z
 ---------------------------------------------------------------------
      1          6           0        0.867254    0.750367   -0.006659
      2          6           0        1.031277   -0.573175    0.003733
      3          8           0       -0.267478   -1.103384   -0.017968
      4          6           0       -1.161435   -0.142458    0.039961
      5          6           0       -0.452088    1.109645   -0.021723
      6          1           0       -0.915346    2.034524    0.000670
      7          1           0       -2.163544   -0.350638   -0.026643
      8          1           0        1.785176   -1.221629    0.023659
      9          1           0        1.723492    1.498536    0.054184
 ---------------------------------------------------------------------
 Rotational constants (GHZ):      9.6050537      9.3608214      4.7437200
 Leave Link  202 at Tue Dec 15 17:07:29 2015, MaxMem=    33554432 cpu:         0.0
 (Enter /home/Applications/g09/g09/l301.exe)

 Semi-emprical parameters in input format:
 Method=8 CoreType=1 PeptideFC=0.0106250000 RIJScale=0.5404210000
 ****
 H       
 PQN=1 NValence=1 F0ss=0.4980120000 ZetaOverlap=1.0856700000 U=-0.3768230000
 Beta=-0.2268830000 CoreKO=1.0354420000 KON=0,0,0,1.0458670000 KON=1,0,1,1.0589200000
 KON=0,1,1,1.0589200000 KON=2,1,1,1.0697690000 EISol=-0.4188110042 EHeat=0.0830298228
 Alpha=1.4609850000
 GCore=0.0085280000,1.5127750000,2.2676710000
 GCore=0.0003530000,1.4551640000,3.4779940000
 GCore=-0.0011900000,0.5600570000,3.5861320000
 ****
 C       
 PQN=2,2 NValence=4 F0ss=0.4494440000 F0sp=0.4215150000 F0pp=0.3497590000 F2pp=0.1878900000
 G1sp=0.2701540000
 ZetaOverlap=1.8086650000,1.3781170000
 U=-1.7923890000,-1.4557970000
 Beta=-0.5453250000,-0.3063130000 DDN=0,1,0.7474020000 DDN=1,1,0.7268010000
 CoreKO=1.1124280000 KON=0,0,0,1.1723100000 KON=1,0,1,0.8998210000 KON=0,1,1,1.1012040000
 KON=2,1,1,0.7783930000 EISol=-4.4398989268 EHeat=0.2723305520 Alpha=1.2756240000
 DipHyp=1.4947180026
 GCore=0.0007890000,1.2095400000,2.6678360000
 GCore=0.0028980000,1.4001430000,3.2840710000
 GCore=-0.0013790000,1.3017660000,3.8739390000
 GCore=-0.0001030000,1.4001430000,4.6088130000
 ****
 O       
 PQN=2,2 NValence=6 F0ss=0.5310640000 F0sp=0.5321300000 F0pp=0.4958710000 F2pp=0.2543430000
 G1sp=0.4013240000
 ZetaOverlap=2.6354490000,2.5240390000
 U=-3.5951870000,-2.0345890000
 Beta=-1.1573400000,-1.2994290000 DDN=0,1,0.4953610000 DDN=1,1,0.5082060000
 CoreKO=0.8515990000 KON=0,0,0,0.8822960000 KON=1,0,1,0.5019540000 KON=0,1,1,0.8671530000
 KON=2,1,1,0.5515580000 EISol=-11.6164441184 EHeat=0.0949133088 Alpha=2.4031680000
 DipHyp=0.9906650029
 GCore=0.0204720000,1.2640290000,1.6023330000
 GCore=0.0051530000,1.9602000000,2.7307880000
 ****
 
 Standard basis: VSTO-6G (5D, 7F)
 Ernie: Thresh=  0.10000D-02 Tol=  0.10000D-05 Strict=F.
  NNHCO=     0 NNPyr=     0 NCTC=     0               EPep=         0.000000000
    EC=        69.261244416  ECS=         2.556617099   EG=         0.373261167
   EHC=         0.000000000  EAt=       -31.051283842  AtH=         1.516354808
 EPDDG=         0.000000000  ECC=        72.191122682 EAtT=        32.567638650
 There are    24 symmetry adapted cartesian basis functions of A   symmetry.
 There are    24 symmetry adapted basis functions of A   symmetry.
    24 basis functions,   144 primitive gaussians,    24 cartesian basis functions
    13 alpha electrons       13 beta electrons
       nuclear repulsion energy       104.7587613319 Hartrees.
 IExCor=    0 DFT=F Ex=HF Corr=None ExCW=0 ScaHFX=  1.000000
 ScaDFX=  1.000000  1.000000  1.000000  1.000000 ScalE2=  1.000000  1.000000
 IRadAn=      0 IRanWt=     -1 IRanGd=            0 ICorTp=0 IEmpDi=  4
 Integral buffers will be    131072 words long.
 Regular integral format.
 Two-electron integral symmetry is turned off.
 Leave Link  301 at Tue Dec 15 17:07:29 2015, MaxMem=    33554432 cpu:         0.0
 (Enter /home/Applications/g09/g09/l302.exe)
 Do NDO integrals.
 NPDir=0 NMtPBC=     1 NCelOv=     1 NCel=       1 NClECP=     1 NCelD=      1
         NCelK=      1 NCelE2=     1 NClLst=     1 CellRange=     0.0.
 One-electron integrals computed using PRISM.
 NBasis=    24 RedAO= F EigKep=  0.00D+00  NBF=    24
 NBsUse=    24 1.00D-04 EigRej=  0.00D+00 NBFU=    24
 Leave Link  302 at Tue Dec 15 17:07:29 2015, MaxMem=    33554432 cpu:         0.0
 (Enter /home/Applications/g09/g09/l308.exe)
 Leave Link  308 at Tue Dec 15 17:07:29 2015, MaxMem=    33554432 cpu:         0.0
 (Enter /home/Applications/g09/g09/l303.exe)
 DipDrv:  MaxL=1.
 Leave Link  303 at Tue Dec 15 17:07:29 2015, MaxMem=    33554432 cpu:         0.0
 (Enter /home/Applications/g09/g09/l401.exe)
 Simple Huckel Guess.
 JPrj=0 DoOrth=F DoCkMO=F.
 Leave Link  401 at Tue Dec 15 17:07:29 2015, MaxMem=    33554432 cpu:         0.0
 (Enter /home/Applications/g09/g09/l502.exe)
 Closed shell SCF:
 Using DIIS extrapolation, IDIIS=  1040.
 Overlap will be assumed to be unity.
 Two-electron integral symmetry not used.
 Keep J ints in memory in canonical form, NReq=888082.
 IVT=       79475 IEndB=       79475 NGot=    33554432 MDV=    33473473
 LenX=    33473473 LenY=    33472456
 Requested convergence on RMS density matrix=1.00D-08 within 128 cycles.
 Requested convergence on MAX density matrix=1.00D-06.
 Requested convergence on             energy=1.00D-06.
 No special actions if energy rises.
 FoFCou: FMM=F IPFlag=           0 FMFlag=           0 FMFlg1=           0
         NFxFlg=           0 DoJE=F BraDBF=F KetDBF=F FulRan=T
         wScrn=  0.000000 ICntrl=     600 IOpCl=  2 I1Cent=           0 NGrid=           0
         NMat0=    1 NMatS0=     54 NMatT0=    0 NMatD0=    1 NMtDS0=    0 NMtDT0=    0
 Symmetry not used in FoFCou.

 Cycle   1  Pass 1  IDiag  1:
 E=  4.46713421770151    
 DIIS: error= 1.45D-01 at cycle   1 NSaved=   1.
 NSaved= 1 IEnMin= 1 EnMin=  4.46713421770151     IErMin= 1 ErrMin= 1.45D-01
 ErrMax= 1.45D-01  0.00D+00 EMaxC= 1.00D-01 BMatC= 5.14D-01 BMatP= 5.14D-01
 IDIUse=3 WtCom= 0.00D+00 WtEn= 1.00D+00
 Coeff-Com:  0.100D+01
 Coeff-En:   0.100D+01
 Coeff:      0.100D+01
 GapD=    2.000 DampG=2.000 DampE=0.250 DampFc=0.5000 IDamp=-1.
 Damping current iteration by 5.00D-01
 RMSDP=6.54D-02 MaxDP=6.89D-01              OVMax= 0.00D+00

 Cycle   2  Pass 1  IDiag  1:
 E=  3.42629899432798     Delta-E=       -1.040835223374 Rises=F Damp=T
 DIIS: error= 7.98D-02 at cycle   2 NSaved=   2.
 NSaved= 2 IEnMin= 2 EnMin=  3.42629899432798     IErMin= 2 ErrMin= 7.98D-02
 ErrMax= 7.98D-02  0.00D+00 EMaxC= 1.00D-01 BMatC= 1.81D-01 BMatP= 5.14D-01
 IDIUse=3 WtCom= 2.02D-01 WtEn= 7.98D-01
 Coeff-Com: -0.120D+01 0.220D+01
 Coeff-En:   0.000D+00 0.100D+01
 Coeff:     -0.241D+00 0.124D+01
 RMSDP=3.75D-02 MaxDP=3.81D-01 DE=-1.04D+00 OVMax= 0.00D+00

 Cycle   3  Pass 1  IDiag  1:
 E=  2.09787316007650     Delta-E=       -1.328425834251 Rises=F Damp=F
 DIIS: error= 1.69D-02 at cycle   3 NSaved=   3.
 NSaved= 3 IEnMin= 3 EnMin=  2.09787316007650     IErMin= 3 ErrMin= 1.69D-02
 ErrMax= 1.69D-02  0.00D+00 EMaxC= 1.00D-01 BMatC= 1.24D-02 BMatP= 1.81D-01
 IDIUse=3 WtCom= 8.31D-01 WtEn= 1.69D-01
 Coeff-Com:  0.345D+00-0.778D+00 0.143D+01
 Coeff-En:   0.000D+00 0.000D+00 0.100D+01
 Coeff:      0.287D+00-0.647D+00 0.136D+01
 RMSDP=1.04D-02 MaxDP=5.66D-02 DE=-1.33D+00 OVMax= 0.00D+00

 Cycle   4  Pass 1  IDiag  3:
 E=  2.04984669189780     Delta-E=       -0.048026468179 Rises=F Damp=F
 DIIS: error= 5.02D-03 at cycle   4 NSaved=   4.
 NSaved= 4 IEnMin= 4 EnMin=  2.04984669189780     IErMin= 4 ErrMin= 5.02D-03
 ErrMax= 5.02D-03  0.00D+00 EMaxC= 1.00D-01 BMatC= 9.77D-04 BMatP= 1.24D-02
 IDIUse=3 WtCom= 9.50D-01 WtEn= 5.02D-02
 Coeff-Com: -0.616D-01 0.121D+00-0.431D+00 0.137D+01
 Coeff-En:   0.000D+00 0.000D+00 0.000D+00 0.100D+01
 Coeff:     -0.585D-01 0.115D+00-0.409D+00 0.135D+01
 Gap=     0.422 Goal=   None    Shift=    0.000
 RMSDP=3.69D-03 MaxDP=1.95D-02 DE=-4.80D-02 OVMax= 3.56D-02

 Cycle   5  Pass 1  IDiag  3:
 E=  2.04556603763183     Delta-E=       -0.004280654266 Rises=F Damp=F
 DIIS: error= 1.01D-03 at cycle   5 NSaved=   5.
 NSaved= 5 IEnMin= 5 EnMin=  2.04556603763183     IErMin= 5 ErrMin= 1.01D-03
 ErrMax= 1.01D-03  0.00D+00 EMaxC= 1.00D-01 BMatC= 3.18D-05 BMatP= 9.77D-04
 IDIUse=3 WtCom= 9.90D-01 WtEn= 1.01D-02
 Coeff-Com:  0.157D-01-0.293D-01 0.119D+00-0.507D+00 0.140D+01
 Coeff-En:   0.000D+00 0.000D+00 0.000D+00 0.000D+00 0.100D+01
 Coeff:      0.156D-01-0.290D-01 0.118D+00-0.502D+00 0.140D+01
 Gap=     0.422 Goal=   None    Shift=    0.000
 RMSDP=7.17D-04 MaxDP=3.66D-03 DE=-4.28D-03 OVMax= 5.68D-03

 Cycle   6  Pass 1  IDiag  3:
 E=  2.04541304271521     Delta-E=       -0.000152994917 Rises=F Damp=F
 DIIS: error= 1.72D-04 at cycle   6 NSaved=   6.
 NSaved= 6 IEnMin= 6 EnMin=  2.04541304271521     IErMin= 6 ErrMin= 1.72D-04
 ErrMax= 1.72D-04  0.00D+00 EMaxC= 1.00D-01 BMatC= 1.17D-06 BMatP= 3.18D-05
 IDIUse=3 WtCom= 9.98D-01 WtEn= 1.72D-03
 Coeff-Com: -0.127D-02 0.254D-02-0.222D-01 0.115D+00-0.481D+00 0.139D+01
 Coeff-En:   0.000D+00 0.000D+00 0.000D+00 0.000D+00 0.000D+00 0.100D+01
 Coeff:     -0.127D-02 0.254D-02-0.222D-01 0.115D+00-0.481D+00 0.139D+01
 Gap=     0.422 Goal=   None    Shift=    0.000
 RMSDP=1.41D-04 MaxDP=1.01D-03 DE=-1.53D-04 OVMax= 9.42D-04

 Cycle   7  Pass 1  IDiag  3:
 E=  2.04540768657900     Delta-E=       -0.000005356136 Rises=F Damp=F
 DIIS: error= 2.34D-05 at cycle   7 NSaved=   7.
 NSaved= 7 IEnMin= 7 EnMin=  2.04540768657900     IErMin= 7 ErrMin= 2.34D-05
 ErrMax= 2.34D-05  0.00D+00 EMaxC= 1.00D-01 BMatC= 2.67D-08 BMatP= 1.17D-06
 IDIUse=1 WtCom= 1.00D+00 WtEn= 0.00D+00
 Coeff-Com:  0.109D-03-0.222D-03 0.748D-02-0.432D-01 0.197D+00-0.646D+00
 Coeff-Com:  0.148D+01
 Coeff:      0.109D-03-0.222D-03 0.748D-02-0.432D-01 0.197D+00-0.646D+00
 Coeff:      0.148D+01
 Gap=     0.422 Goal=   None    Shift=    0.000
 RMSDP=2.05D-05 MaxDP=1.37D-04 DE=-5.36D-06 OVMax= 1.46D-04

 Cycle   8  Pass 1  IDiag  3:
 E=  2.04540756593295     Delta-E=       -0.000000120646 Rises=F Damp=F
 DIIS: error= 3.30D-06 at cycle   8 NSaved=   8.
 NSaved= 8 IEnMin= 8 EnMin=  2.04540756593295     IErMin= 8 ErrMin= 3.30D-06
 ErrMax= 3.30D-06  0.00D+00 EMaxC= 1.00D-01 BMatC= 5.16D-10 BMatP= 2.67D-08
 IDIUse=1 WtCom= 1.00D+00 WtEn= 0.00D+00
 Coeff-Com:  0.115D-04-0.423D-04-0.911D-03 0.630D-02-0.331D-01 0.116D+00
 Coeff-Com: -0.346D+00 0.126D+01
 Coeff:      0.115D-04-0.423D-04-0.911D-03 0.630D-02-0.331D-01 0.116D+00
 Coeff:     -0.346D+00 0.126D+01
 Gap=     0.422 Goal=   None    Shift=    0.000
 RMSDP=2.50D-06 MaxDP=1.76D-05 DE=-1.21D-07 OVMax= 1.73D-05

 Cycle   9  Pass 1  IDiag  3:
 E=  2.04540756391293     Delta-E=       -0.000000002020 Rises=F Damp=F
 DIIS: error= 5.83D-07 at cycle   9 NSaved=   9.
 NSaved= 9 IEnMin= 9 EnMin=  2.04540756391293     IErMin= 9 ErrMin= 5.83D-07
 ErrMax= 5.83D-07  0.00D+00 EMaxC= 1.00D-01 BMatC= 1.41D-11 BMatP= 5.16D-10
 IDIUse=1 WtCom= 1.00D+00 WtEn= 0.00D+00
 Coeff-Com:  0.195D-05-0.569D-09 0.461D-04-0.385D-03 0.249D-02-0.886D-02
 Coeff-Com:  0.327D-01-0.244D+00 0.122D+01
 Coeff:      0.195D-05-0.569D-09 0.461D-04-0.385D-03 0.249D-02-0.886D-02
 Coeff:      0.327D-01-0.244D+00 0.122D+01
 Gap=     0.422 Goal=   None    Shift=    0.000
 RMSDP=4.06D-07 MaxDP=3.08D-06 DE=-2.02D-09 OVMax= 3.05D-06

 Cycle  10  Pass 1  IDiag  3:
 E=  2.04540756385437     Delta-E=       -0.000000000059 Rises=F Damp=F
 DIIS: error= 1.83D-07 at cycle  10 NSaved=  10.
 NSaved=10 IEnMin=10 EnMin=  2.04540756385437     IErMin=10 ErrMin= 1.83D-07
 ErrMax= 1.83D-07  0.00D+00 EMaxC= 1.00D-01 BMatC= 8.72D-13 BMatP= 1.41D-11
 IDIUse=1 WtCom= 1.00D+00 WtEn= 0.00D+00
 Coeff-Com:  0.714D-06-0.178D-05 0.411D-05-0.487D-07-0.170D-03 0.605D-03
 Coeff-Com: -0.462D-02 0.650D-01-0.478D+00 0.142D+01
 Coeff:      0.714D-06-0.178D-05 0.411D-05-0.487D-07-0.170D-03 0.605D-03
 Coeff:     -0.462D-02 0.650D-01-0.478D+00 0.142D+01
 Gap=     0.422 Goal=   None    Shift=    0.000
 RMSDP=1.15D-07 MaxDP=1.01D-06 DE=-5.86D-11 OVMax= 8.33D-07

 Cycle  11  Pass 1  IDiag  3:
 E=  2.04540756384999     Delta-E=       -0.000000000004 Rises=F Damp=F
 DIIS: error= 5.15D-08 at cycle  11 NSaved=  11.
 NSaved=11 IEnMin=11 EnMin=  2.04540756384999     IErMin=11 ErrMin= 5.15D-08
 ErrMax= 5.15D-08  0.00D+00 EMaxC= 1.00D-01 BMatC= 7.03D-14 BMatP= 8.72D-13
 IDIUse=1 WtCom= 1.00D+00 WtEn= 0.00D+00
 Coeff-Com: -0.359D-06 0.618D-06-0.497D-05 0.267D-04-0.840D-04 0.315D-03
 Coeff-Com:  0.321D-03-0.220D-01 0.198D+00-0.805D+00 0.163D+01
 Coeff:     -0.359D-06 0.618D-06-0.497D-05 0.267D-04-0.840D-04 0.315D-03
 Coeff:      0.321D-03-0.220D-01 0.198D+00-0.805D+00 0.163D+01
 Gap=     0.422 Goal=   None    Shift=    0.000
 RMSDP=4.31D-08 MaxDP=3.08D-07 DE=-4.38D-12 OVMax= 2.49D-07

 Cycle  12  Pass 1  IDiag  3:
 E=  2.04540756384972     Delta-E=        0.000000000000 Rises=F Damp=F
 DIIS: error= 1.08D-08 at cycle  12 NSaved=  12.
 NSaved=12 IEnMin=12 EnMin=  2.04540756384972     IErMin=12 ErrMin= 1.08D-08
 ErrMax= 1.08D-08  0.00D+00 EMaxC= 1.00D-01 BMatC= 3.17D-15 BMatP= 7.03D-14
 IDIUse=1 WtCom= 1.00D+00 WtEn= 0.00D+00
 Coeff-Com:  0.159D-07-0.120D-07 0.860D-06-0.518D-05 0.115D-04-0.593D-04
 Coeff-Com: -0.289D-03 0.910D-02-0.782D-01 0.323D+00-0.784D+00 0.153D+01
 Coeff:      0.159D-07-0.120D-07 0.860D-06-0.518D-05 0.115D-04-0.593D-04
 Coeff:     -0.289D-03 0.910D-02-0.782D-01 0.323D+00-0.784D+00 0.153D+01
 Gap=     0.422 Goal=   None    Shift=    0.000
 RMSDP=1.01D-08 MaxDP=9.21D-08 DE=-2.70D-13 OVMax= 1.07D-07

 Cycle  13  Pass 1  IDiag  3:
 E=  2.04540756384954     Delta-E=        0.000000000000 Rises=F Damp=F
 DIIS: error= 2.31D-09 at cycle  13 NSaved=  13.
 NSaved=13 IEnMin=13 EnMin=  2.04540756384954     IErMin=13 ErrMin= 2.31D-09
 ErrMax= 2.31D-09  0.00D+00 EMaxC= 1.00D-01 BMatC= 1.38D-16 BMatP= 3.17D-15
 IDIUse=1 WtCom= 1.00D+00 WtEn= 0.00D+00
 Coeff-Com:  0.765D-08-0.199D-07-0.349D-06 0.225D-05-0.643D-05 0.296D-04
 Coeff-Com:  0.805D-04-0.322D-02 0.280D-01-0.119D+00 0.304D+00-0.739D+00
 Coeff-Com:  0.153D+01
 Coeff:      0.765D-08-0.199D-07-0.349D-06 0.225D-05-0.643D-05 0.296D-04
 Coeff:      0.805D-04-0.322D-02 0.280D-01-0.119D+00 0.304D+00-0.739D+00
 Coeff:      0.153D+01
 Gap=     0.422 Goal=   None    Shift=    0.000
 RMSDP=2.22D-09 MaxDP=2.32D-08 DE=-1.85D-13 OVMax= 2.87D-08

 Cycle  14  Pass 2  IDiag  1:
 SCF Done:  E(RAM1) =   2.04540756385     A.U. after   14 cycles
            NFock= 13  Conv=0.22D-08     -V/T= 1.1315
 KE=-1.555585520687D+01 PE=-1.701121852220D+02 EE= 8.295468666082D+01
 Leave Link  502 at Tue Dec 15 17:07:29 2015, MaxMem=    33554432 cpu:         0.0
 (Enter /home/Applications/g09/g09/l801.exe)
 Range of M.O.s used for correlation:     1    24
 NBasis=    24 NAE=    13 NBE=    13 NFC=     0 NFV=     0
 NROrb=     24 NOA=    13 NOB=    13 NVA=    11 NVB=    11
 Leave Link  801 at Tue Dec 15 17:07:29 2015, MaxMem=    33554432 cpu:         0.0
 (Enter /home/Applications/g09/g09/l914.exe)
 RHF ground state
 MDV=    33554432 DFT=F DoStab=F Mixed=F DoRPA=F DoScal=F NonHer=F
 Making orbital integer symmetry assigments:
 Orbital symmetries:
       Occupied  (A) (A) (A) (A) (A) (A) (A) (A) (A) (A) (A) (A)
                 (A)
       Virtual   (A) (A) (A) (A) (A) (A) (A) (A) (A) (A) (A)
    60 initial guesses have been made.
 Convergence on wavefunction:    0.000001000000000
 Davidson Disk Diagonalization:  ConvIn= 1.00D-06 SkipCon=T Conv= 1.00D-06.
 Max sub-space:   240 roots to seek:    60 dimension of matrix:          286
 Iteration     1 Dimension    60 NMult     0 NNew     60
 CISAX will form    60 AO SS matrices at one time.
 NMat=    60 NSing=    60 JSym2X= 0.
 FoFJK:  IHMeth= 8 ICntrl=       0 DoSepK=F KAlg= 0 I1Cent=   0 FoldK=F
 IRaf=         1 NMat= 120 IRICut=       1 DoRegI=T DoRafI=F ISym2E= 0.
 FoFCou: FMM=F IPFlag=           0 FMFlag=      100000 FMFlg1=           0
         NFxFlg=           0 DoJE=F BraDBF=F KetDBF=F FulRan=T
         wScrn=  0.000000 ICntrl=       0 IOpCl=  0 I1Cent=           0 NGrid=           0
         NMat0=  120 NMatS0=     60 NMatT0=    0 NMatD0=  120 NMtDS0=    0 NMtDT0=    0
 Symmetry not used in FoFCou.
 New state      5 was old state      6
 New state      6 was old state      8
 New state      7 was old state      5
 New state      8 was old state      7
 New state     12 was old state     14
 New state     14 was old state     15
 New state     15 was old state     22
 Excitation Energies [eV] at current iteration:
 Root      1 :     5.713317797511986
 Root      2 :     6.874726906730110
 Root      3 :     6.929765154825450
 Root      4 :     7.661295392759122
 Root      5 :     7.783262401280648
 Root      6 :     8.338949362903675
 Root      7 :     8.818088869271946
 Root      8 :     9.326379172442417
 Root      9 :     9.610430603218553
 Root     10 :     9.700876909152269
 Root     11 :    10.022201769604690
 Root     12 :    10.040039304343550
 Root     13 :    10.251732299799850
 Root     14 :    10.300311794241980
 Root     15 :    10.389149443504020
 Root     16 :    10.453385853662470
 Root     17 :    10.949005860101630
 Root     18 :    11.104646652061940
 Root     19 :    11.239953125499950
 Root     20 :    11.420702340872880
 Root     21 :    11.888524804878600
 Root     22 :    12.123377231262370
 Root     23 :    12.162079813375380
 Root     24 :    12.272179425308480
 Root     25 :    12.387652406780570
 Root     26 :    12.459111824130920
 Root     27 :    12.752268702223680
 Root     28 :    12.827079706110140
 Root     29 :    13.020024016586750
 Root     30 :    13.064087343030480
 Root     31 :    13.445539951724570
 Root     32 :    13.534131346442850
 Root     33 :    13.673999084653250
 Root     34 :    13.747226916129520
 Root     35 :    13.848435451119950
 Root     36 :    13.903305017463040
 Root     37 :    14.039468933805800
 Root     38 :    14.268178810925920
 Root     39 :    14.340717410572380
 Root     40 :    14.820205962774050
 Root     41 :    14.862867238165800
 Root     42 :    14.970007391517480
 Root     43 :    15.059536160779550
 Root     44 :    15.130928619558980
 Root     45 :    15.259899286938220
 Root     46 :    15.503677838749720
 Root     47 :    15.597724953733780
 Root     48 :    16.027319727144440
 Root     49 :    16.095857041465700
 Root     50 :    16.224649665888480
 Root     51 :    16.324820530733070
 Root     52 :    16.389492508381070
 Root     53 :    16.621893247900530
 Root     54 :    16.834956239605000
 Root     55 :    16.864572396757390
 Root     56 :    17.351612712919750
 Root     57 :    17.513777295056230
 Root     58 :    17.804611006137950
 Root     59 :    18.002039619559460
 Root     60 :    18.658629141123260
 Iteration     2 Dimension   120 NMult    60 NNew     60
 CISAX will form    60 AO SS matrices at one time.
 NMat=    60 NSing=    60 JSym2X= 0.
 Root      1 not converged, maximum delta is    0.018955162661356
 Root      2 not converged, maximum delta is    0.105060569596569
 Root      3 not converged, maximum delta is    0.104611768991917
 Root      4 not converged, maximum delta is    0.044413878022469
 Root      5 not converged, maximum delta is    0.029491584186137
 Root      6 not converged, maximum delta is    0.029879188871855
 Root      7 not converged, maximum delta is    0.026381767874579
 Root      8 not converged, maximum delta is    0.023493549830926
 New state      9 was old state     10
 Root      9 not converged, maximum delta is    0.151025492157911
 New state     10 was old state      9
 Root     10 not converged, maximum delta is    0.147656091517804
 Root     11 not converged, maximum delta is    0.064134347819244
 Root     12 not converged, maximum delta is    0.074245664398949
 Root     13 not converged, maximum delta is    0.236652400613490
 New state     14 was old state     15
 Root     14 not converged, maximum delta is    0.268276640267864
 New state     15 was old state     14
 Root     15 not converged, maximum delta is    0.109095200042483
 Excitation Energies [eV] at current iteration:
 Root      1 :     5.650016154154860   Change is   -0.063301643357126
 Root      2 :     6.831940372765674   Change is   -0.042786533964436
 Root      3 :     6.899633730371248   Change is   -0.030131424454202
 Root      4 :     7.599217600116183   Change is   -0.062077792642939
 Root      5 :     7.757832251142343   Change is   -0.025430150138305
 Root      6 :     8.301251047487488   Change is   -0.037698315416187
 Root      7 :     8.779536901173891   Change is   -0.038551968098055
 Root      8 :     9.301520505120097   Change is   -0.024858667322319
 Root      9 :     9.472635984162311   Change is   -0.228240924989958
 Root     10 :     9.589021069531521   Change is   -0.021409533687034
 Root     11 :     9.963564212833019   Change is   -0.058637556771671
 Root     12 :     9.991188923775914   Change is   -0.048850380567639
 Root     13 :    10.172502493530210   Change is   -0.079229806269634
 Root     14 :    10.219815348941070   Change is   -0.169334094562955
 Root     15 :    10.233157049630690   Change is   -0.067154744611294
 Root     16 :    10.370490480208330   Change is   -0.082895373454142
 Root     17 :    10.847999566290570   Change is   -0.101006293811059
 Root     18 :    10.889360457889620   Change is   -0.215286194172320
 Root     19 :    11.138500860812220   Change is   -0.282201480060655
 Root     20 :    11.198087558222590   Change is   -0.041865567277363
 Root     21 :    11.677845639803330   Change is   -0.210679165075270
 Root     22 :    11.865273197084200   Change is   -0.258104034178172
 Root     23 :    12.107412824153400   Change is   -0.054666989221984
 Root     24 :    12.148184226417690   Change is   -0.123995198890789
 Root     25 :    12.178066844401630   Change is   -0.209585562378936
 Root     26 :    12.299853870954920   Change is   -0.159257953175995
 Root     27 :    12.496039089092620   Change is   -0.256229613131062
 Root     28 :    12.758909592453240   Change is   -0.068170113656907
 Root     29 :    12.847550526343380   Change is   -0.172473490243375
 Root     30 :    12.941621482612080   Change is   -0.122465860418396
 Root     31 :    13.157381578561320   Change is   -0.288158373163248
 Root     32 :    13.328152412729460   Change is   -0.205978933713395
 Root     33 :    13.483248031248920   Change is   -0.263978884880600
 Root     34 :    13.604314445876410   Change is   -0.069684638776835
 Root     35 :    13.736360842023690   Change is   -0.112074609096259
 Root     36 :    13.759846959926060   Change is   -0.143458057536985
 Root     37 :    13.847624839204450   Change is   -0.191844094601345
 Root     38 :    14.150457037332020   Change is   -0.190260373240362
 Root     39 :    14.238037425502740   Change is   -0.030141385423190
 Root     40 :    14.393702031823530   Change is   -0.426503930950517
 Root     41 :    14.602708763810110   Change is   -0.260158474355689
 Root     42 :    14.836575776224200   Change is   -0.133431615293271
 Root     43 :    14.899998432736420   Change is   -0.230930186822554
 Root     44 :    14.929648209233620   Change is   -0.129887951545935
 Root     45 :    15.020562666648130   Change is   -0.239336620290086
 Root     46 :    15.398863538188710   Change is   -0.104814300561004
 Root     47 :    15.434933387573410   Change is   -0.162791566160369
 Root     48 :    15.752554295994830   Change is   -0.274765431149614
 Root     49 :    15.815296843598700   Change is   -0.409352822289779
 Root     50 :    15.882568729089510   Change is   -0.213288312376196
 Root     51 :    16.102970943053420   Change is   -0.221849587679653
 Root     52 :    16.196461019781620   Change is   -0.193031488599453
 Root     53 :    16.289902542762920   Change is   -0.331990705137612
 Root     54 :    16.502754240983900   Change is   -1.011023054072324
 Root     55 :    16.551088276056460   Change is   -0.313484120700934
 Root     56 :    16.600577123274300   Change is   -0.234379116330702
 Root     57 :    17.153623776928690   Change is   -0.197988935991059
 Root     58 :    17.392117711933770
 Root     59 :    17.491916325905660
 Root     60 :    17.500188313411370   Change is   -0.304422692726575
 Iteration     3 Dimension   135 NMult   120 NNew     15
 CISAX will form    15 AO SS matrices at one time.
 NMat=    15 NSing=    15 JSym2X= 0.
 Root      1 not converged, maximum delta is    0.001009077216909
 Root      2 not converged, maximum delta is    0.000102702342534
 Root      3 not converged, maximum delta is    0.000186292730858
 Root      4 not converged, maximum delta is    0.000077815531591
 Root      5 not converged, maximum delta is    0.000146940074114
 Root      6 not converged, maximum delta is    0.000075594731536
 Root      7 not converged, maximum delta is    0.000630211126142
 Root      8 not converged, maximum delta is    0.000176886768874
 Root      9 not converged, maximum delta is    0.001417394172284
 Root     10 not converged, maximum delta is    0.000243983062491
 Root     11 not converged, maximum delta is    0.000435276099713
 Root     12 not converged, maximum delta is    0.001160946987339
 Root     13 not converged, maximum delta is    0.001636536003300
 Root     14 not converged, maximum delta is    0.003693692451450
 Root     15 not converged, maximum delta is    0.002097132091837
 Excitation Energies [eV] at current iteration:
 Root      1 :     5.649629169381687   Change is   -0.000386984773172
 Root      2 :     6.831936612389360   Change is   -0.000003760376313
 Root      3 :     6.899620200055004   Change is   -0.000013530316243
 Root      4 :     7.599215495812475   Change is   -0.000002104303707
 Root      5 :     7.757828113121837   Change is   -0.000004138020506
 Root      6 :     8.301248169019415   Change is   -0.000002878468074
 Root      7 :     8.779472121582364   Change is   -0.000064779591528
 Root      8 :     9.301510725940981   Change is   -0.000009779179117
 Root      9 :     9.472080121649878   Change is   -0.000555862512434
 Root     10 :     9.589010531158971   Change is   -0.000010538372548
 Root     11 :     9.963540635277864   Change is   -0.000023577555153
 Root     12 :     9.991049884119448   Change is   -0.000139039656465
 Root     13 :    10.172086065122920   Change is   -0.000416428407290
 Root     14 :    10.219523331328000   Change is   -0.000292017613070
 Root     15 :    10.233019451873900   Change is   -0.000137597756785
 Iteration     4 Dimension   143 NMult   135 NNew      8
 CISAX will form     8 AO SS matrices at one time.
 NMat=     8 NSing=     8 JSym2X= 0.
 Root      1 not converged, maximum delta is    0.000088198162077
 Root      2 not converged, maximum delta is    0.000004025751669
 Root      3 not converged, maximum delta is    0.000015875416546
 Root      4 not converged, maximum delta is    0.000004059732172
 Root      5 not converged, maximum delta is    0.000005254255424
 Root      6 not converged, maximum delta is    0.000005909999963
 Root      7 not converged, maximum delta is    0.000023041823932
 Root      8 not converged, maximum delta is    0.000009269030846
 Root      9 not converged, maximum delta is    0.000067655884636
 Root     10 not converged, maximum delta is    0.000011227146999
 Root     11 not converged, maximum delta is    0.000018355823675
 Root     12 not converged, maximum delta is    0.000060768455947
 Root     13 not converged, maximum delta is    0.000080965774620
 Root     14 not converged, maximum delta is    0.000059247576303
 Root     15 not converged, maximum delta is    0.000086732524818
 Excitation Energies [eV] at current iteration:
 Root      1 :     5.649628297290610   Change is   -0.000000872091078
 Root      2 :     6.831936607261048   Change is   -0.000000005128312
 Root      3 :     6.899620162639800   Change is   -0.000000037415204
 Root      4 :     7.599215492027476   Change is   -0.000000003785000
 Root      5 :     7.757828105566212   Change is   -0.000000007555625
 Root      6 :     8.301248158071116   Change is   -0.000000010948299
 Root      7 :     8.779471890619208   Change is   -0.000000230963156
 Root      8 :     9.301510709468893   Change is   -0.000000016472086
 Root      9 :     9.472078251899042   Change is   -0.000001869750835
 Root     10 :     9.589010508416845   Change is   -0.000000022742126
 Root     11 :     9.963540554765611   Change is   -0.000000080512254
 Root     12 :     9.991048905338083   Change is   -0.000000978781365
 Root     13 :    10.172084560297970   Change is   -0.000001504824953
 Root     14 :    10.219522545055160   Change is   -0.000000786272840
 Root     15 :    10.233018489624040   Change is   -0.000000962249862
 Convergence achieved on expansion vectors.
 ***********************************************************************
 Excited states from <AA,BB:AA,BB> singles matrix:
 ***********************************************************************
 
 1PDM for each excited state written to RWF  633
 Ground to excited state transition densities written to RWF  633
 Ground to excited state transition electric dipole moments (Au):
       state          X           Y           Z        Dip. S.      Osc.
         1        -1.4071      0.5784     -0.0292      2.3154      0.3205
         2        -0.0513      0.0053      0.3196      0.1048      0.0175
         3        -0.1701      0.0574     -0.0163      0.0325      0.0055
         4        -0.0405      0.0212      0.1548      0.0260      0.0048
         5         0.0672     -0.0300      0.1352      0.0237      0.0045
         6         0.0232     -0.0078      0.0325      0.0017      0.0003
         7         0.0078      0.5871     -0.0183      0.3451      0.0742
         8         0.0772      0.0129     -0.1754      0.0369      0.0084
         9         0.7703      0.4743      0.0010      0.8183      0.1899
        10        -0.0332     -0.0314      0.0605      0.0057      0.0013
        11        -0.0496     -0.1102     -0.1987      0.0541      0.0132
        12        -0.1096     -0.1070      0.0736      0.0289      0.0071
        13         0.4081     -0.2896     -0.0748      0.2560      0.0638
        14        -0.3443      0.0618     -0.0263      0.1230      0.0308
        15        -0.5324      0.2640      0.0153      0.3534      0.0886
 Ground to excited state transition velocity dipole moments (Au):
       state          X           Y           Z        Dip. S.      Osc.
         1         0.1873     -0.0849      0.0130      0.0425      0.1363
         2         0.0052     -0.0098     -0.1504      0.0228      0.0604
         3         0.0288     -0.0141     -0.0324      0.0021      0.0055
         4         0.0093     -0.0025     -0.1250      0.0157      0.0375
         5        -0.0083      0.0082     -0.0001      0.0001      0.0003
         6        -0.0068      0.0012      0.0107      0.0002      0.0004
         7        -0.0370     -0.1943      0.0007      0.0391      0.0809
         8        -0.0099     -0.0037     -0.0485      0.0025      0.0048
         9        -0.1097     -0.1156      0.0092      0.0255      0.0488
        10         0.0006      0.0102      0.0275      0.0009      0.0016
        11         0.0104      0.0071     -0.0122      0.0003      0.0006
        12         0.0071     -0.0015     -0.0094      0.0001      0.0003
        13        -0.0686      0.0331      0.0286      0.0066      0.0118
        14         0.0605     -0.0067     -0.0324      0.0048      0.0084
        15         0.0919     -0.0367      0.0762      0.0156      0.0277
 Ground to excited state transition magnetic dipole moments (Au):
       state          X           Y           Z
         1        -0.0053      0.0694     -0.5760
         2        -0.3746      0.2706     -0.0088
         3         0.1343     -0.7469     -0.0939
         4        -0.1091      0.0872     -0.0174
         5        -0.7887     -0.2331      0.0301
         6        -0.2407     -0.6207      0.0226
         7        -0.0457     -0.0311     -0.1369
         8         0.4764     -0.2044      0.0233
         9         0.0494      0.0755      0.3348
        10         0.2106      0.3608     -0.0199
        11         0.2165      0.2807     -0.0576
        12        -0.1191     -0.1152     -0.1654
        13        -0.0143      0.0538      0.3890
        14         0.0476     -0.0468      0.0589
        15        -0.0069      0.0843     -0.2352
 Ground to excited state transition velocity quadrupole moments (Au):
       state          XX          YY          ZZ          XY          XZ          YZ
         1         0.1672     -0.2186      0.0053      0.2701      0.0148      0.0253
         2         0.0203     -0.0171     -0.0041      0.0210      0.0590     -0.1298
         3         0.0478     -0.0080     -0.0014      0.0417     -0.1346     -0.0526
         4         0.0251     -0.0086      0.0044      0.0073     -0.1835     -0.0315
         5        -0.0154      0.0024     -0.0071     -0.0140     -0.1262      0.1644
         6        -0.0263     -0.0126      0.0038      0.0053      0.4164     -0.1020
         7         0.2317     -0.1390      0.0270     -0.1686      0.0321     -0.0053
         8        -0.0446     -0.0149     -0.0081     -0.0030      0.1104      0.1248
         9        -0.0661     -0.2803     -0.0253     -0.2075     -0.0529      0.0207
        10        -0.0240      0.0369     -0.0025     -0.0138     -0.1187      0.0933
        11        -0.0638     -0.0016     -0.0032      0.0411     -0.2770      0.1427
        12        -0.3749     -0.2026     -0.0476      0.0717      0.0767     -0.0348
        13        -0.0322      0.1166      0.0669     -0.0755     -0.0907     -0.0368
        14         0.1900     -0.1097      0.0823      0.1133      0.1627      0.0138
        15         0.2007     -0.1625      0.0487      0.1095     -0.1920     -0.0063
 <0|del|b> * <b|rxdel|0> + <0|del|b> * <b|delr+rdel|0>
 Rotatory Strengths (R) in cgs (10**-40 erg-esu-cm/Gauss)
       state          XX          YY          ZZ    R(velocity)    E-M Angle
         1       -14.6543    -12.3218    -21.9148    -16.2970       96.90
         2        -5.5166      2.6009     -6.3702     -3.0953       92.71
         3        14.3838      9.4062     24.8314     16.2071       59.99
         4         0.7340      2.2578     -0.6084      0.7945       86.94
         5        -1.0901      6.3836      6.1052      3.7996       61.32
         6        -1.0380      2.8963      0.8129      0.8904       82.17
         7        13.2196      2.0916      1.4217      5.5776       74.85
         8         0.1761     -7.5021     -3.2615     -3.5292      101.46
         9       -13.8819     -2.7240     -5.8544     -7.4867      101.52
        10         4.0002      0.0064      2.5562      2.1876       74.54
        11         4.0189      4.7647      0.7657      3.1831       38.14
        12         1.1372      1.1031     -0.5176      0.5742       71.26
        13        13.0188     15.8970     -2.6127      8.7677       64.22
        14        -3.9303      5.1593      1.1892      0.8061       77.92
        15       -18.5357    -25.8416      3.6658    -13.5705      133.90
 1/2[<0|r|b>*<b|rxdel|0> + (<0|rxdel|b>*<b|r|0>)*]
 Rotatory Strengths (R) in cgs (10**-40 erg-esu-cm/Gauss)
       state          XX          YY          ZZ     R(length)
         1        -5.2390    -28.3694    -11.8781    -15.1622
         2       -13.6029     -1.0055      1.9912     -4.2057
         3        16.1586     30.3097     -1.0826     15.1286
         4        -3.1234     -1.3040      1.9082     -0.8397
         5        37.4676     -4.9405     -2.8811      9.8820
         6         3.9561     -3.4378     -0.5193     -0.0003
         7         0.2521     12.9197     -1.7738      3.7993
         8       -26.0266      1.8674      2.8847     -7.0915
         9       -26.9209    -25.3291     -0.2272    -17.4924
        10         4.9403      8.0029      0.8499      4.5977
        11         7.5920     21.8696     -8.0911      7.1235
        12        -9.2318     -8.7171      8.6123     -3.1122
        13         4.1289     11.0227     20.5900     11.9139
        14        11.5861      2.0462      1.0939      4.9087
        15        -2.5966    -15.7336      2.5530     -5.2591
  1/2[<0|del|b>*<b|r|0> + (<0|r|b>*<b|del|0>)*] (Au)
       state          X           Y           Z        Dip. S.   Osc.(frdel)
         1        -0.2635     -0.0491     -0.0004      0.3131      0.2087
         2        -0.0003     -0.0001     -0.0481      0.0484      0.0323
         3        -0.0049     -0.0008      0.0005      0.0052      0.0035
         4        -0.0004     -0.0001     -0.0193      0.0198      0.0132
         5        -0.0006     -0.0002      0.0000      0.0008      0.0005
         6        -0.0002      0.0000      0.0003     -0.0002     -0.0001
         7        -0.0003     -0.1141      0.0000      0.1144      0.0763
         8        -0.0008      0.0000      0.0085     -0.0077     -0.0051
         9        -0.0845     -0.0548      0.0000      0.1393      0.0929
        10         0.0000     -0.0003      0.0017     -0.0013     -0.0009
        11        -0.0005     -0.0008      0.0024     -0.0011     -0.0007
        12        -0.0008      0.0002     -0.0007      0.0013      0.0009
        13        -0.0280     -0.0096     -0.0021      0.0397      0.0265
        14        -0.0208     -0.0004      0.0009      0.0204      0.0136
        15        -0.0489     -0.0097      0.0012      0.0575      0.0383

 Excitation energies and oscillator strengths:
 
 Excited State   1:      Singlet-A      5.6496 eV  219.46 nm  f=0.3205  <S**2>=0.000
      13 -> 14         0.68929
 This state for optimization and/or second-order correction.
 Total Energy, E(CIS) =   2.25302759252    
 Copying the excited state density for this state as the 1-particle RhoCI density.
 
 Excited State   2:      Singlet-A      6.8319 eV  181.48 nm  f=0.0175  <S**2>=0.000
      12 -> 14        -0.21235
      13 -> 15         0.64609
      13 -> 17        -0.15159
 
 Excited State   3:      Singlet-A      6.8996 eV  179.70 nm  f=0.0055  <S**2>=0.000
      12 -> 14         0.66012
      13 -> 15         0.20026
 
 Excited State   4:      Singlet-A      7.5992 eV  163.15 nm  f=0.0048  <S**2>=0.000
      13 -> 16         0.63820
      13 -> 19        -0.23166
 
 Excited State   5:      Singlet-A      7.7578 eV  159.82 nm  f=0.0045  <S**2>=0.000
      10 -> 14         0.53348
      11 -> 14        -0.42929
 
 Excited State   6:      Singlet-A      8.3012 eV  149.36 nm  f=0.0003  <S**2>=0.000
      13 -> 16        -0.16951
      13 -> 17         0.17788
      13 -> 18         0.46466
      13 -> 19        -0.24827
      13 -> 20         0.35478
 
 Excited State   7:      Singlet-A      8.7795 eV  141.22 nm  f=0.0742  <S**2>=0.000
      10 -> 14         0.42080
      11 -> 14         0.51190
      12 -> 15        -0.10541
      12 -> 17         0.10481
 
 Excited State   8:      Singlet-A      9.3015 eV  133.29 nm  f=0.0084  <S**2>=0.000
      11 -> 15        -0.15374
      11 -> 16         0.12782
      13 -> 17         0.60212
      13 -> 19         0.15383
      13 -> 20        -0.14735
 
 Excited State   9:      Singlet-A      9.4721 eV  130.89 nm  f=0.1899  <S**2>=0.000
       9 -> 15         0.13251
      10 -> 14         0.12795
      10 -> 15        -0.18146
      10 -> 16        -0.12290
      10 -> 19         0.11631
      11 -> 14         0.16308
      11 -> 15         0.17361
      11 -> 16         0.11393
      12 -> 15         0.43226
      12 -> 17        -0.17606
      12 -> 18        -0.13828
      13 -> 14        -0.10621
 
 Excited State  10:      Singlet-A      9.5890 eV  129.30 nm  f=0.0013  <S**2>=0.000
      10 -> 15         0.17194
      11 -> 15         0.16431
      13 -> 16         0.11395
      13 -> 18         0.46566
      13 -> 19         0.36130
      13 -> 20        -0.19089
 
 Excited State  11:      Singlet-A      9.9635 eV  124.44 nm  f=0.0132  <S**2>=0.000
      12 -> 16         0.11104
      13 -> 18        -0.12456
      13 -> 19         0.39370
      13 -> 20         0.47502
      13 -> 21         0.19748
 
 Excited State  12:      Singlet-A      9.9910 eV  124.10 nm  f=0.0071  <S**2>=0.000
      10 -> 15         0.37644
      10 -> 17        -0.11814
      11 -> 15        -0.29959
      12 -> 15         0.30994
      12 -> 16         0.26354
      12 -> 19        -0.12573
      13 -> 19        -0.12857
      13 -> 20        -0.10626
 
 Excited State  13:      Singlet-A     10.1721 eV  121.89 nm  f=0.0638  <S**2>=0.000
      10 -> 16         0.11840
      11 -> 15         0.37568
      12 -> 16         0.30844
      12 -> 17         0.19044
      12 -> 18         0.27884
      12 -> 19        -0.18037
 
 Excited State  14:      Singlet-A     10.2195 eV  121.32 nm  f=0.0308  <S**2>=0.000
       9 -> 15         0.16928
      10 -> 15        -0.20582
      11 -> 15        -0.24106
      12 -> 15         0.20579
      12 -> 16        -0.25802
      12 -> 17         0.11500
      12 -> 18         0.38838
 
 Excited State  15:      Singlet-A     10.2330 eV  121.16 nm  f=0.0886  <S**2>=0.000
      10 -> 15         0.38443
      11 -> 15         0.22979
      12 -> 15         0.12806
      12 -> 16        -0.38373
      12 -> 18         0.12545
      12 -> 19         0.12610
      13 -> 17         0.10581
      13 -> 21         0.19056
 SavETr:  write IOETrn=   770 NScale= 10 NData=  16 NLR=1 NState=   15 LETran=     280.
 The selected state is a singlet
 CISAX will form     1 AO SS matrices at one time.
 NMat=     1 NSing=     1 JSym2X= 0.
 Leave Link  914 at Tue Dec 15 17:07:29 2015, MaxMem=    33554432 cpu:         0.1
 (Enter /home/Applications/g09/g09/l1002.exe)
 Minotr:  Closed shell wavefunction.
          Computing CIS/TD-HF/TD-KS derivatives.
          Using Z-Vector for PSCF gradient.
          Skipping F1 and S1 gradient terms here.
          IDoAtm=111111111
          Direct CPHF calculation.
          Differentiating once with respect to electric field.
                with respect to dipole field.
          Differentiating once with respect to nuclear coordinates.
          Electric field/nuclear overlap derivatives assumed to be zero.
          Requested convergence is 1.0D-10 RMS, and 1.0D-09 maximum.
          NewPWx=T KeepS1=F KeepF1=F KeepIn=T MapXYZ=F SortEE=F KeepMc=T.
          MDV=      33495423 using IRadAn=       0.
 Keep J ints in memory in canonical form, NReq=871704.
 FoFCou: FMM=F IPFlag=           0 FMFlag=           0 FMFlg1=           0
         NFxFlg=           0 DoJE=F BraDBF=F KetDBF=F FulRan=T
         wScrn=  0.000000 ICntrl=     600 IOpCl=  2 I1Cent=           0 NGrid=           0
         NMat0=    1 NMatS0=     54 NMatT0=    0 NMatD0=    1 NMtDS0=    0 NMtDT0=    0
 Symmetry not used in FoFCou.
          Solving linear equations separately, MaxMat=       0.
          There are     1 degrees of freedom in the 1st order CPHF.  IDoFFX=0 NUNeed=     1.
 LinEq1:  Iter=  0 NonCon=     1 RMS=8.66D-03 Max=4.35D-02 NDo=     1
 AX will form     1 AO Fock derivatives at one time.
 LinEq1:  Iter=  1 NonCon=     1 RMS=8.21D-04 Max=2.44D-03 NDo=     1
 LinEq1:  Iter=  2 NonCon=     1 RMS=1.16D-04 Max=9.29D-04 NDo=     1
 LinEq1:  Iter=  3 NonCon=     1 RMS=1.31D-05 Max=4.34D-05 NDo=     1
 LinEq1:  Iter=  4 NonCon=     1 RMS=1.98D-06 Max=9.05D-06 NDo=     1
 LinEq1:  Iter=  5 NonCon=     1 RMS=2.58D-07 Max=8.43D-07 NDo=     1
 LinEq1:  Iter=  6 NonCon=     1 RMS=3.49D-08 Max=1.31D-07 NDo=     1
 LinEq1:  Iter=  7 NonCon=     1 RMS=3.73D-09 Max=1.36D-08 NDo=     1
 LinEq1:  Iter=  8 NonCon=     1 RMS=4.31D-10 Max=1.77D-09 NDo=     1
 LinEq1:  Iter=  9 NonCon=     0 RMS=5.15D-11 Max=2.29D-10 NDo=     1
 Linear equations converged to 1.000D-10 1.000D-09 after     9 iterations.
 End of Minotr F.D. properties file   721 does not exist.
 End of Minotr F.D. properties file   722 does not exist.
 End of Minotr F.D. properties file   788 does not exist.
 Leave Link 1002 at Tue Dec 15 17:07:29 2015, MaxMem=    33554432 cpu:         0.0
 (Enter /home/Applications/g09/g09/l601.exe)
 Copying SCF densities to generalized density rwf, IOpCl= 0 IROHF=0.

 **********************************************************************

            Population analysis using the SCF density.

 **********************************************************************

 Orbital symmetries:
       Occupied  (A) (A) (A) (A) (A) (A) (A) (A) (A) (A) (A) (A)
                 (A)
       Virtual   (A) (A) (A) (A) (A) (A) (A) (A) (A) (A) (A)
 The electronic state is 1-A.
 Alpha  occ. eigenvalues --   -1.94909  -1.21281  -0.97291  -0.82638  -0.80326
 Alpha  occ. eigenvalues --   -0.69507  -0.65888  -0.57622  -0.54458  -0.45139
 Alpha  occ. eigenvalues --   -0.44924  -0.42068  -0.31882
 Alpha virt. eigenvalues --    0.10348   0.18046   0.21284   0.24791   0.26816
 Alpha virt. eigenvalues --    0.27535   0.29068   0.30488   0.35882   0.44073
 Alpha virt. eigenvalues --    0.49640
     Molecular Orbital Coefficients:
                           1         2         3         4         5
                           O         O         O         O         O
     Eigenvalues --    -1.94909  -1.21281  -0.97291  -0.82638  -0.80326
   1 1   C  1S          0.09195   0.50583   0.20647  -0.20520  -0.27626
   2        1PX        -0.07475  -0.18301   0.19246  -0.26000   0.00626
   3        1PY        -0.09245  -0.06919  -0.19575   0.13426  -0.35954
   4        1PZ        -0.00035   0.00170   0.00305  -0.00533  -0.00165
   5 2   C  1S          0.21628   0.25785   0.52690  -0.02197   0.39209
   6        1PX        -0.23266  -0.08104   0.01578  -0.26725  -0.03728
   7        1PY        -0.05171   0.28926  -0.06132  -0.37957  -0.25629
   8        1PZ        -0.00333  -0.00066  -0.00271  -0.00922  -0.00178
   9 3   O  1S          0.84405  -0.28861   0.02303   0.11056  -0.24194
  10        1PX         0.00248   0.04837   0.24375   0.25981   0.10055
  11        1PY         0.05331   0.15517  -0.06591  -0.10550   0.12352
  12        1PZ         0.00180   0.00189   0.00072  -0.00820   0.00265
  13 4   C  1S          0.24776   0.19633  -0.51939  -0.26489   0.36723
  14        1PX         0.20867   0.18104   0.03040  -0.00917  -0.11036
  15        1PY        -0.16916   0.24603   0.03525   0.51227   0.09936
  16        1PZ        -0.01370  -0.00712   0.03111   0.01377  -0.01716
  17 5   C  1S          0.08373   0.47417  -0.26704   0.32370  -0.09448
  18        1PX         0.02633   0.15176   0.19571  -0.13217  -0.32583
  19        1PY        -0.11041  -0.14263   0.06188   0.14829  -0.25528
  20        1PZ         0.00066   0.00752  -0.00058   0.00479   0.00044
  21 6   H  1S          0.00716   0.13756  -0.13301   0.22960  -0.07605
  22 7   H  1S          0.04975   0.01939  -0.24079  -0.13292   0.21458
  23 8   H  1S          0.04864   0.03786   0.25615  -0.01394   0.23299
  24 9   H  1S          0.00595   0.13607   0.09192  -0.13249  -0.21463
                           6         7         8         9        10
                           O         O         O         O         O
     Eigenvalues --    -0.69507  -0.65888  -0.57622  -0.54458  -0.45139
   1 1   C  1S         -0.17831  -0.00158  -0.11605  -0.07217  -0.08445
   2        1PX        -0.20573   0.01117  -0.05967   0.23413   0.06616
   3        1PY        -0.16712   0.02460   0.14196  -0.27613  -0.24331
   4        1PZ         0.01629   0.40715  -0.02408   0.01894  -0.17264
   5 2   C  1S         -0.14450   0.00953   0.02241  -0.13492   0.12142
   6        1PX        -0.40314   0.03446   0.46918   0.37421  -0.11777
   7        1PY         0.11165  -0.03068  -0.33805   0.40621   0.22075
   8        1PZ         0.02519   0.53575  -0.01007   0.01128  -0.39272
   9 3   O  1S         -0.17472   0.00350  -0.09217   0.24196  -0.05738
  10        1PX         0.04052  -0.00837  -0.14117  -0.07092  -0.02549
  11        1PY         0.20729  -0.01065   0.08194  -0.08325   0.07476
  12        1PZ         0.02430   0.24308  -0.00200  -0.01505   0.03317
  13 4   C  1S         -0.11188   0.04069   0.07261  -0.08429  -0.02451
  14        1PX         0.47600   0.01107   0.57899   0.18555   0.06541
  15        1PY        -0.06080  -0.00981  -0.19043   0.47863  -0.25463
  16        1PZ         0.04520   0.57159  -0.05288  -0.01192   0.42411
  17 5   C  1S         -0.19650   0.01543   0.15387  -0.00146   0.06710
  18        1PX         0.10407  -0.01519   0.01016  -0.37137  -0.22010
  19        1PY        -0.25562   0.02573   0.07485  -0.17298   0.44873
  20        1PZ         0.02120   0.39092  -0.02875   0.01710   0.05909
  21 6   H  1S         -0.24389   0.02741   0.10820   0.00490   0.35921
  22 7   H  1S         -0.28853   0.00489  -0.25992  -0.16801  -0.04896
  23 8   H  1S         -0.27172   0.03382   0.32025  -0.02853  -0.07326
  24 9   H  1S         -0.22098   0.02271  -0.02207  -0.03613  -0.11451
                          11        12        13        14        15
                           O         O         O         V         V
     Eigenvalues --    -0.44924  -0.42068  -0.31882   0.10348   0.18046
   1 1   C  1S          0.06089   0.04147  -0.00820  -0.00837  -0.14932
   2        1PX        -0.08292   0.55172  -0.03760  -0.02019   0.07419
   3        1PY         0.15874   0.33417  -0.01286  -0.00848   0.14558
   4        1PZ        -0.21499   0.00498   0.51167   0.70205   0.02709
   5 2   C  1S         -0.10123   0.02023   0.00453  -0.00095   0.03570
   6        1PX         0.15310  -0.31962   0.01249   0.00516   0.01710
   7        1PY        -0.15496  -0.15723   0.00002  -0.00180   0.16958
   8        1PZ        -0.50975  -0.07632  -0.43997  -0.23581  -0.00827
   9 3   O  1S          0.05615  -0.09200  -0.00399  -0.00118   0.03495
  10        1PX         0.00677   0.08716  -0.00576  -0.00063   0.06288
  11        1PY        -0.07227   0.12405   0.00551  -0.00647   0.14739
  12        1PZ         0.02730  -0.00363  -0.20333  -0.00947   0.00062
  13 4   C  1S          0.05102   0.16614  -0.01169  -0.00973   0.09297
  14        1PX        -0.05202   0.23659  -0.00393  -0.01110   0.31778
  15        1PY         0.18250   0.10966  -0.01537  -0.02283   0.36958
  16        1PZ         0.55536   0.01205  -0.30136   0.16791   0.01220
  17 5   C  1S         -0.03493  -0.11161  -0.01223   0.02875  -0.23109
  18        1PX         0.17901  -0.29335   0.02628  -0.02257   0.33494
  19        1PY        -0.34652  -0.02090   0.02257  -0.02772   0.40728
  20        1PZ         0.10205   0.02385   0.63911  -0.64735  -0.04414
  21 6   H  1S         -0.26826   0.01623   0.00569  -0.00556  -0.09779
  22 7   H  1S          0.03715  -0.05907   0.00322  -0.01349   0.51075
  23 8   H  1S          0.06919  -0.10153   0.00289  -0.00193   0.11148
  24 9   H  1S          0.04871   0.45639  -0.01746   0.02235  -0.17418
                          16        17        18        19        20
                           V         V         V         V         V
     Eigenvalues --     0.21284   0.24791   0.26816   0.27535   0.29068
   1 1   C  1S         -0.13874  -0.02172   0.04462  -0.05071   0.67734
   2        1PX        -0.18850  -0.24309  -0.41676   0.34585  -0.02989
   3        1PY         0.44883  -0.11345  -0.32064  -0.32052   0.01969
   4        1PZ        -0.00550  -0.01862  -0.01290   0.00962   0.01702
   5 2   C  1S          0.04990  -0.18278  -0.16788  -0.44691  -0.25418
   6        1PX        -0.20576  -0.06574   0.01933  -0.23827  -0.08189
   7        1PY         0.44698   0.02661  -0.08482  -0.04823  -0.20054
   8        1PZ        -0.00303  -0.00159   0.00444  -0.00247  -0.00763
   9 3   O  1S          0.01674  -0.01894   0.01631  -0.00954  -0.01992
  10        1PX        -0.02535   0.00878   0.01168   0.03042  -0.01508
  11        1PY         0.07399   0.06003   0.05385   0.03083  -0.07091
  12        1PZ        -0.00853   0.00644  -0.01219  -0.01208   0.01307
  13 4   C  1S          0.04027  -0.45975   0.28618   0.07732   0.02474
  14        1PX        -0.15520   0.20518  -0.06231  -0.07682   0.09321
  15        1PY        -0.02962  -0.15746   0.18532   0.03660   0.02842
  16        1PZ         0.00071   0.00898  -0.00221   0.00132  -0.00339
  17 5   C  1S         -0.06670   0.00122  -0.29885   0.04935  -0.28257
  18        1PX        -0.20850  -0.26777  -0.02681   0.38458  -0.32735
  19        1PY        -0.00663  -0.19416   0.36338  -0.13241   0.10316
  20        1PZ         0.00330   0.01763  -0.01352  -0.00506  -0.01196
  21 6   H  1S         -0.10990   0.08625  -0.12289   0.31895  -0.00250
  22 7   H  1S         -0.25424   0.54131  -0.23306  -0.09768   0.04683
  23 8   H  1S          0.57996   0.24748   0.07342   0.47029   0.13583
  24 9   H  1S         -0.07077   0.36733   0.51471  -0.02223  -0.44008
                          21        22        23        24
                           V         V         V         V
     Eigenvalues --     0.30488   0.35882   0.44073   0.49640
   1 1   C  1S         -0.00025  -0.01349   0.07467  -0.01798
   2        1PX        -0.19976  -0.01114   0.05375  -0.02660
   3        1PY         0.19134   0.00018   0.02184   0.03593
   4        1PZ         0.00084   0.02411   0.00276  -0.00126
   5 2   C  1S          0.14052   0.00004  -0.13331  -0.15030
   6        1PX         0.12502   0.00259   0.21479   0.17363
   7        1PY         0.03764   0.01630  -0.06573   0.15806
   8        1PZ         0.00779  -0.20651  -0.00312   0.00771
   9 3   O  1S          0.02498   0.00200   0.13013  -0.01787
  10        1PX         0.01995   0.01060   0.24965   0.86996
  11        1PY         0.10761  -0.04399   0.86302  -0.24770
  12        1PZ        -0.02587   0.94507   0.04294  -0.02153
  13 4   C  1S          0.03966   0.00426  -0.13531   0.19408
  14        1PX        -0.03066  -0.00633  -0.23122   0.10462
  15        1PY         0.08967   0.01700  -0.01702  -0.22332
  16        1PZ         0.00873  -0.24238   0.00065  -0.01000
  17 5   C  1S         -0.51382  -0.01815   0.08704   0.00914
  18        1PX         0.10271   0.01465  -0.05063  -0.03248
  19        1PY        -0.29410  -0.00877   0.02915  -0.02326
  20        1PZ        -0.01725   0.02448   0.00435   0.00218
  21 6   H  1S          0.69297   0.02126  -0.07013   0.00785
  22 7   H  1S         -0.03885  -0.00741  -0.05050   0.01601
  23 8   H  1S         -0.13936   0.00476  -0.04980  -0.01795
  24 9   H  1S          0.01557   0.01174  -0.06239  -0.00408
     Density Matrix:
                           1         2         3         4         5
   1 1   C  1S          0.97696
   2        1PX         0.06233   1.12329
   3        1PY         0.13051   0.12374   1.04022
   4        1PZ        -0.00323  -0.00268   0.00160   1.00975
   5 2   C  1S          0.34512   0.14109  -0.51797   0.00619   1.22040
   6        1PX         0.00460   0.10032  -0.04192  -0.00610  -0.17849
   7        1PY         0.46610   0.13776  -0.54492   0.00472  -0.20112
   8        1PZ        -0.00246  -0.00600  -0.00100   0.34186  -0.00542
   9 3   O  1S          0.01879   0.00596  -0.03835  -0.00037  -0.00197
  10        1PX         0.02889   0.00080  -0.04703  -0.00197   0.34716
  11        1PY         0.02250  -0.00967  -0.09979   0.00392   0.13900
  12        1PZ        -0.00160   0.00338   0.00192  -0.03295   0.00707
  13 4   C  1S         -0.00508   0.00482   0.04119  -0.00205   0.01014
  14        1PX        -0.02983   0.01845   0.01461   0.00290   0.00400
  15        1PY         0.03861   0.01352   0.00651   0.00752  -0.06853
  16        1PZ         0.00497   0.00413  -0.00230  -0.22440  -0.00389
  17 5   C  1S          0.31406  -0.50379   0.17122  -0.02630  -0.00586
  18        1PX         0.52186  -0.52225   0.23596   0.00364   0.01517
  19        1PY        -0.08028   0.12012   0.09987   0.01866   0.04008
  20        1PZ        -0.00537  -0.02496  -0.00229   0.91101  -0.00045
  21 6   H  1S          0.00232  -0.02312   0.00966   0.00411   0.08093
  22 7   H  1S          0.06062  -0.04231   0.00411   0.00364   0.04727
  23 8   H  1S          0.06892   0.01520  -0.09694   0.00072   0.55916
  24 9   H  1S          0.50216   0.60972   0.52817   0.01939   0.06082
                           6         7         8         9        10
   6        1PX         1.59450
   7        1PY         0.09296   1.38003
   8        1PZ        -0.00355   0.00550   1.80291
   9 3   O  1S         -0.06118  -0.01115   0.00109   1.95901
  10        1PX        -0.41424  -0.24431  -0.00735  -0.03854   0.34873
  11        1PY        -0.27704   0.04941  -0.01202  -0.25317  -0.02441
  12        1PZ        -0.01513  -0.00736   0.38709  -0.01328  -0.00220
  13 4   C  1S         -0.03633  -0.05944  -0.00875   0.00799  -0.28402
  14        1PX         0.00412  -0.02155  -0.00387   0.06048  -0.10774
  15        1PY         0.03199   0.01685   0.00259  -0.04318   0.34218
  16        1PZ         0.00175   0.00424  -0.02069  -0.00017   0.02029
  17 5   C  1S          0.05711   0.02661   0.00884   0.02135  -0.01732
  18        1PX         0.00573  -0.01638  -0.00544  -0.02464  -0.00328
  19        1PY        -0.03301   0.00188  -0.00780  -0.03963  -0.00767
  20        1PZ         0.00958   0.00156  -0.29567   0.00169  -0.00094
  21 6   H  1S         -0.02013   0.07116  -0.00458   0.00759  -0.01814
  22 7   H  1S         -0.05475  -0.01352   0.00155   0.01657  -0.07477
  23 8   H  1S          0.57337  -0.44770   0.01308   0.01341   0.04637
  24 9   H  1S         -0.05341   0.00308   0.00129   0.00903   0.02532
                          11        12        13        14        15
  11        1PY         0.28122
  12        1PZ         0.00802   0.20638
  13 4   C  1S          0.31116   0.02848   1.26442
  14        1PX         0.38615   0.02304   0.08410   1.49769
  15        1PY        -0.20319  -0.03036  -0.24988  -0.11198   1.48447
  16        1PZ        -0.03222   0.46122   0.01586  -0.00707   0.00467
  17 5   C  1S          0.03056   0.00160   0.28835   0.15593   0.39158
  18        1PX        -0.05280  -0.00319  -0.32943  -0.06156  -0.38003
  19        1PY        -0.11176   0.00219  -0.40657  -0.17594  -0.45106
  20        1PZ         0.00153  -0.05995   0.02217   0.00804   0.01826
  21 6   H  1S          0.00554   0.00383   0.05020   0.03536  -0.00885
  22 7   H  1S         -0.03753  -0.00442   0.55243  -0.70792  -0.11922
  23 8   H  1S         -0.05858   0.00344   0.04311   0.03590  -0.02444
  24 9   H  1S          0.00487   0.00202   0.09027   0.05436   0.07000
                          16        17        18        19        20
  16        1PZ         1.82527
  17 5   C  1S         -0.00707   0.99545
  18        1PX         0.00589   0.00545   1.00394
  19        1PY         0.00590   0.17078  -0.12985   1.09486
  20        1PZ         0.23022  -0.01476   0.00992   0.00805   1.15480
  21 6   H  1S         -0.00008   0.55887  -0.33749   0.69810   0.00514
  22 7   H  1S         -0.02027   0.06671  -0.06146  -0.09540   0.00343
  23 8   H  1S         -0.00290   0.06859   0.05303  -0.02379   0.00025
  24 9   H  1S         -0.00498  -0.00363   0.03135   0.00847   0.00477
                          21        22        23        24
  21 6   H  1S          0.73684
  22 7   H  1S          0.00256   0.62175
  23 8   H  1S          0.01153   0.01121   0.64542
  24 9   H  1S         -0.00501   0.01686   0.00195   0.73168
    Full Mulliken population analysis:
                           1         2         3         4         5
   1 1   C  1S          0.97696
   2        1PX         0.00000   1.12329
   3        1PY         0.00000   0.00000   1.04022
   4        1PZ         0.00000   0.00000   0.00000   1.00975
   5 2   C  1S          0.00000   0.00000   0.00000   0.00000   1.22040
   6        1PX         0.00000   0.00000   0.00000   0.00000   0.00000
   7        1PY         0.00000   0.00000   0.00000   0.00000   0.00000
   8        1PZ         0.00000   0.00000   0.00000   0.00000   0.00000
   9 3   O  1S          0.00000   0.00000   0.00000   0.00000   0.00000
  10        1PX         0.00000   0.00000   0.00000   0.00000   0.00000
  11        1PY         0.00000   0.00000   0.00000   0.00000   0.00000
  12        1PZ         0.00000   0.00000   0.00000   0.00000   0.00000
  13 4   C  1S          0.00000   0.00000   0.00000   0.00000   0.00000
  14        1PX         0.00000   0.00000   0.00000   0.00000   0.00000
  15        1PY         0.00000   0.00000   0.00000   0.00000   0.00000
  16        1PZ         0.00000   0.00000   0.00000   0.00000   0.00000
  17 5   C  1S          0.00000   0.00000   0.00000   0.00000   0.00000
  18        1PX         0.00000   0.00000   0.00000   0.00000   0.00000
  19        1PY         0.00000   0.00000   0.00000   0.00000   0.00000
  20        1PZ         0.00000   0.00000   0.00000   0.00000   0.00000
  21 6   H  1S          0.00000   0.00000   0.00000   0.00000   0.00000
  22 7   H  1S          0.00000   0.00000   0.00000   0.00000   0.00000
  23 8   H  1S          0.00000   0.00000   0.00000   0.00000   0.00000
  24 9   H  1S          0.00000   0.00000   0.00000   0.00000   0.00000
                           6         7         8         9        10
   6        1PX         1.59450
   7        1PY         0.00000   1.38003
   8        1PZ         0.00000   0.00000   1.80291
   9 3   O  1S          0.00000   0.00000   0.00000   1.95901
  10        1PX         0.00000   0.00000   0.00000   0.00000   0.34873
  11        1PY         0.00000   0.00000   0.00000   0.00000   0.00000
  12        1PZ         0.00000   0.00000   0.00000   0.00000   0.00000
  13 4   C  1S          0.00000   0.00000   0.00000   0.00000   0.00000
  14        1PX         0.00000   0.00000   0.00000   0.00000   0.00000
  15        1PY         0.00000   0.00000   0.00000   0.00000   0.00000
  16        1PZ         0.00000   0.00000   0.00000   0.00000   0.00000
  17 5   C  1S          0.00000   0.00000   0.00000   0.00000   0.00000
  18        1PX         0.00000   0.00000   0.00000   0.00000   0.00000
  19        1PY         0.00000   0.00000   0.00000   0.00000   0.00000
  20        1PZ         0.00000   0.00000   0.00000   0.00000   0.00000
  21 6   H  1S          0.00000   0.00000   0.00000   0.00000   0.00000
  22 7   H  1S          0.00000   0.00000   0.00000   0.00000   0.00000
  23 8   H  1S          0.00000   0.00000   0.00000   0.00000   0.00000
  24 9   H  1S          0.00000   0.00000   0.00000   0.00000   0.00000
                          11        12        13        14        15
  11        1PY         0.28122
  12        1PZ         0.00000   0.20638
  13 4   C  1S          0.00000   0.00000   1.26442
  14        1PX         0.00000   0.00000   0.00000   1.49769
  15        1PY         0.00000   0.00000   0.00000   0.00000   1.48447
  16        1PZ         0.00000   0.00000   0.00000   0.00000   0.00000
  17 5   C  1S          0.00000   0.00000   0.00000   0.00000   0.00000
  18        1PX         0.00000   0.00000   0.00000   0.00000   0.00000
  19        1PY         0.00000   0.00000   0.00000   0.00000   0.00000
  20        1PZ         0.00000   0.00000   0.00000   0.00000   0.00000
  21 6   H  1S          0.00000   0.00000   0.00000   0.00000   0.00000
  22 7   H  1S          0.00000   0.00000   0.00000   0.00000   0.00000
  23 8   H  1S          0.00000   0.00000   0.00000   0.00000   0.00000
  24 9   H  1S          0.00000   0.00000   0.00000   0.00000   0.00000
                          16        17        18        19        20
  16        1PZ         1.82527
  17 5   C  1S          0.00000   0.99545
  18        1PX         0.00000   0.00000   1.00394
  19        1PY         0.00000   0.00000   0.00000   1.09486
  20        1PZ         0.00000   0.00000   0.00000   0.00000   1.15480
  21 6   H  1S          0.00000   0.00000   0.00000   0.00000   0.00000
  22 7   H  1S          0.00000   0.00000   0.00000   0.00000   0.00000
  23 8   H  1S          0.00000   0.00000   0.00000   0.00000   0.00000
  24 9   H  1S          0.00000   0.00000   0.00000   0.00000   0.00000
                          21        22        23        24
  21 6   H  1S          0.73684
  22 7   H  1S          0.00000   0.62175
  23 8   H  1S          0.00000   0.00000   0.64542
  24 9   H  1S          0.00000   0.00000   0.00000   0.73168
     Gross orbital populations:
                           1
   1 1   C  1S          0.97696
   2        1PX         1.12329
   3        1PY         1.04022
   4        1PZ         1.00975
   5 2   C  1S          1.22040
   6        1PX         1.59450
   7        1PY         1.38003
   8        1PZ         1.80291
   9 3   O  1S          1.95901
  10        1PX         0.34873
  11        1PY         0.28122
  12        1PZ         0.20638
  13 4   C  1S          1.26442
  14        1PX         1.49769
  15        1PY         1.48447
  16        1PZ         1.82527
  17 5   C  1S          0.99545
  18        1PX         1.00394
  19        1PY         1.09486
  20        1PZ         1.15480
  21 6   H  1S          0.73684
  22 7   H  1S          0.62175
  23 8   H  1S          0.64542
  24 9   H  1S          0.73168
          Condensed to atoms (all electrons):
               1          2          3          4          5          6
     1  C    4.150218   0.000000   0.000000   0.000000   0.000000   0.000000
     2  C    0.000000   5.997844   0.000000   0.000000   0.000000   0.000000
     3  O    0.000000   0.000000   2.795343   0.000000   0.000000   0.000000
     4  C    0.000000   0.000000   0.000000   6.071849   0.000000   0.000000
     5  C    0.000000   0.000000   0.000000   0.000000   4.249055   0.000000
     6  H    0.000000   0.000000   0.000000   0.000000   0.000000   0.736841
     7  H    0.000000   0.000000   0.000000   0.000000   0.000000   0.000000
     8  H    0.000000   0.000000   0.000000   0.000000   0.000000   0.000000
     9  H    0.000000   0.000000   0.000000   0.000000   0.000000   0.000000
               7          8          9
     1  C    0.000000   0.000000   0.000000
     2  C    0.000000   0.000000   0.000000
     3  O    0.000000   0.000000   0.000000
     4  C    0.000000   0.000000   0.000000
     5  C    0.000000   0.000000   0.000000
     6  H    0.000000   0.000000   0.000000
     7  H    0.621748   0.000000   0.000000
     8  H    0.000000   0.645421   0.000000
     9  H    0.000000   0.000000   0.731682
 Mulliken charges:
               1
     1  C   -0.150218
     2  C   -1.997844
     3  O    3.204657
     4  C   -2.071849
     5  C   -0.249055
     6  H    0.263159
     7  H    0.378252
     8  H    0.354579
     9  H    0.268318
 Sum of Mulliken charges =   0.00000
 Mulliken charges with hydrogens summed into heavy atoms:
               1
     1  C    0.118101
     2  C   -1.643265
     3  O    3.204657
     4  C   -1.693597
     5  C    0.014104
 Charge=              0.0000 electrons
 Dipole moment (field-independent basis, Debye):
    X=             -2.1683    Y=             -8.9433    Z=             -0.5546  Tot=              9.2191
 N-N= 1.047587613319D+02 E-N=-1.701121852078D+02  KE=-1.555585520687D+01
 Orbital energies and kinetic energies (alpha):
                                 1                 2
   1         O                -1.949091         -1.398620
   2         O                -1.212813         -1.067027
   3         O                -0.972911         -0.873015
   4         O                -0.826383         -0.609902
   5         O                -0.803260         -0.690085
   6         O                -0.695071         -0.578173
   7         O                -0.658883         -0.524529
   8         O                -0.576215         -0.389903
   9         O                -0.544578         -0.321143
  10         O                -0.451389         -0.363622
  11         O                -0.449238         -0.341740
  12         O                -0.420678         -0.346750
  13         O                -0.318822         -0.273417
  14         V                 0.103476         -0.169358
  15         V                 0.180459         -0.134691
  16         V                 0.212837         -0.138448
  17         V                 0.247913         -0.167490
  18         V                 0.268157         -0.129862
  19         V                 0.275354         -0.122935
  20         V                 0.290679         -0.132496
  21         V                 0.304884         -0.152884
  22         V                 0.358822          0.492834
  23         V                 0.440725          0.514682
  24         V                 0.496395          0.595646
 Total kinetic energy from orbitals=-1.555585520687D+01
 Leave Link  601 at Tue Dec 15 17:07:29 2015, MaxMem=    33554432 cpu:         0.0
 (Enter /home/Applications/g09/g09/l701.exe)
 Compute integral first derivatives.
 ... and contract with generalized density number  6.
 Leave Link  701 at Tue Dec 15 17:07:29 2015, MaxMem=    33554432 cpu:         0.0
 (Enter /home/Applications/g09/g09/l702.exe)
 L702 exits ... SP integral derivatives will be done elsewhere.
 Leave Link  702 at Tue Dec 15 17:07:29 2015, MaxMem=    33554432 cpu:         0.0
 (Enter /home/Applications/g09/g09/l703.exe)
 Compute integral first derivatives, UseDBF=F ICtDFT=           0.
 Integral derivatives from FoFJK, PRISM(SPDF).
 Calling FoFJK, ICntrl=  10005127 FMM=F ISym2X=0 I1Cent= 0 IOpClX= 0 NMat=1 NMatS=1 NMatT=0.
 FoFJK:  IHMeth= 8 ICntrl=10005127 DoSepK=F KAlg= 0 I1Cent=   0 FoldK=F
 IRaf=         0 NMat=   1 IRICut=       1 DoRegI=T DoRafI=F ISym2E= 0.
 FoFCou: FMM=F IPFlag=           0 FMFlag=      100000 FMFlg1=         800
         NFxFlg=           0 DoJE=F BraDBF=F KetDBF=F FulRan=T
         wScrn=  0.000000 ICntrl=10005127 IOpCl=  0 I1Cent=           0 NGrid=           0
         NMat0=    1 NMatS0=      1 NMatT0=    0 NMatD0=    1 NMtDS0=    0 NMtDT0=    0
 Symmetry not used in FoFCou.
 Leave Link  703 at Tue Dec 15 17:07:29 2015, MaxMem=    33554432 cpu:         0.0
 (Enter /home/Applications/g09/g09/l716.exe)
 Dipole        =-9.55037382D-01-3.89016419D+00-1.97012182D-01
 ***** Axes restored to original set *****
 -------------------------------------------------------------------
 Center     Atomic                   Forces (Hartrees/Bohr)
 Number     Number              X              Y              Z
 -------------------------------------------------------------------
      1        6           0.227125986   -0.129203194   -0.007028424
      2        6          -0.253012022    0.025969543   -0.005302827
      3        8           0.070968037   -0.058762837    0.006642862
      4        6          -0.135136747    0.031797878    0.004952568
      5        6           0.044295977    0.108351548   -0.004079767
      6        1           0.087808859    0.070185221   -0.003785058
      7        1          -0.022205037    0.122516139   -0.000325825
      8        1          -0.046204424   -0.149574713    0.004804140
      9        1           0.026359369   -0.021279584    0.004122332
 -------------------------------------------------------------------
 Cartesian Forces:  Max     0.253012022 RMS     0.091983490
 Z-matrix is all fixed cartesians, so copy forces.
 Force constants in Cartesian coordinates: 
                1             2             3             4             5 
      1  0.923386D+00
      2  0.480337D-01  0.888969D+00
      3 -0.872511D-02 -0.138278D-01  0.229841D+00
      4 -0.541611D+00 -0.136331D+00  0.116552D-01  0.969372D+00
      5 -0.111798D+00 -0.239237D+00  0.510774D-02  0.133634D+00  0.966365D+00
      6  0.132580D-01  0.549075D-02 -0.120466D+00 -0.180415D-01 -0.152652D-01
      7 -0.102877D-01  0.289791D-01 -0.310756D-03 -0.248090D+00  0.132974D+00
      8 -0.709380D-02  0.200373D-01  0.631113D-04  0.176007D+00 -0.334811D+00
      9  0.607514D-03 -0.134838D-02  0.835113D-02 -0.121516D-03  0.521465D-03
     10  0.103822D-01 -0.508094D-03 -0.641068D-03  0.256329D-01  0.177272D-01
     11  0.337952D-01 -0.166642D-02 -0.327763D-02 -0.177455D-01 -0.122701D-01
     12 -0.275550D-03  0.000000D+00  0.145875D-02  0.207083D-03  0.185794D-03
     13 -0.183723D+00 -0.447090D-02  0.196218D-02  0.128257D-01 -0.361200D-01
     14 -0.267467D-01 -0.513881D+00  0.713272D-02 -0.634416D-03  0.175279D-02
     15  0.203567D-02  0.148329D-02 -0.981041D-01 -0.227069D-03  0.105048D-02
     16  0.199354D-01 -0.964199D-03  0.236906D-03 -0.322496D-05  0.000000D+00
     17 -0.245845D-01  0.118667D-02 -0.563009D-03  0.185635D-05  0.000000D+00
     18 -0.156057D-04  0.217881D-03  0.246510D-01  0.193011D-03  0.558958D-04
     19  0.287291D-04  0.226371D-05  0.415106D-03  0.184802D-04  0.124222D-04
     20  0.298278D-04  0.235028D-05  0.430981D-03 -0.394853D-05 -0.265415D-05
     21  0.289564D-03  0.228161D-04  0.418389D-02 -0.210373D-03 -0.141411D-03
     22  0.995928D-02 -0.280009D-01  0.112430D-02 -0.212275D+00 -0.152902D+00
     23 -0.533656D-02  0.150939D-01  0.507665D-03 -0.147018D+00 -0.404130D+00
     24  0.302641D-03  0.204321D-02  0.357486D-01  0.554387D-02  0.893653D-02
     25 -0.228069D+00  0.932599D-01 -0.571680D-02 -0.587016D-02  0.164733D-01
     26  0.937006D-01 -0.170505D+00  0.442619D-02 -0.790969D-02  0.223325D-01
     27 -0.747717D-02  0.591749D-02 -0.856642D-01  0.100122D-02 -0.451304D-03
                6             7             8             9            10 
      6  0.231679D+00
      7 -0.112572D-02  0.538216D+00
      8  0.142884D-02  0.796605D-01  0.774838D+00
      9 -0.471970D-01  0.135250D-01  0.162183D-01  0.548714D-01
     10  0.186938D-02 -0.318777D+00 -0.253616D+00 -0.179179D-01  0.837245D+00
     11 -0.150078D-02 -0.211409D+00 -0.463544D+00 -0.200333D-01  0.375492D-01
     12 -0.431529D-02 -0.123233D-01 -0.168560D-01 -0.433768D-01 -0.170235D-02
     13  0.246712D-03 -0.903530D-02  0.617644D-02  0.149180D-02 -0.372934D+00
     14  0.291984D-03 -0.289482D-01  0.199158D-01  0.240188D-02  0.761674D-01
     15 -0.512558D-02 -0.201905D-02  0.700446D-03  0.800984D-02  0.253716D-01
     16 -0.123781D-03  0.839483D-05 -0.136303D-04  0.186389D-03 -0.555208D-02
     17  0.712510D-04 -0.123358D-04  0.200290D-04 -0.273889D-03  0.682314D-02
     18  0.740822D-02  0.180493D-03 -0.293058D-03  0.400746D-02  0.216253D-02
     19 -0.600331D-03  0.247010D-01 -0.172053D-01  0.293387D-02 -0.175981D+00
     20  0.128268D-03  0.112315D-01 -0.783140D-02  0.152913D-02  0.115855D+00
     21  0.683399D-02  0.184561D-02 -0.142597D-02  0.356409D-02 -0.937907D-02
     22  0.556120D-02  0.232630D-01  0.160839D-01 -0.741616D-03 -0.324524D-05
     23  0.908693D-02 -0.124847D-01 -0.863176D-02  0.562543D-03 -0.232118D-05
     24 -0.980997D-01  0.792317D-04  0.579134D-04  0.529088D-02 -0.130720D-03
     25 -0.104404D-02  0.000000D+00  0.000000D+00  0.364288D-04 -0.127451D-04
     26  0.267943D-03  0.967180D-05  0.693715D-05  0.422269D-03  0.385573D-05
     27  0.292816D-01  0.148398D-03  0.106439D-03  0.647901D-02  0.367619D-03
               11            12            13            14            15 
     11  0.102030D+01
     12  0.410936D-02  0.165220D+00
     13  0.541399D-01  0.218875D-01  0.829279D+00
     14 -0.186695D+00 -0.614427D-02  0.100865D+00  0.909130D+00
     15 -0.708060D-02 -0.812702D-01 -0.221838D-01  0.521877D-02  0.209442D+00
     16 -0.179634D-01 -0.399174D-03 -0.301353D+00 -0.146021D+00 -0.698579D-03
     17  0.221175D-01  0.300698D-03 -0.147267D+00 -0.240665D+00 -0.283127D-02
     18  0.320278D-02  0.174352D-01 -0.315235D-02 -0.536790D-02 -0.847103D-01
     19  0.121637D+00 -0.731555D-02  0.787554D-02  0.261437D-01 -0.245290D-02
     20 -0.378243D+00  0.182726D-01  0.355221D-02  0.115495D-01 -0.251167D-05
     21  0.246391D-01 -0.647097D-01  0.950727D-04 -0.383947D-02  0.188949D-01
     22 -0.218142D-05  0.105422D-03  0.559006D-05  0.161887D-05  0.214559D-03
     23 -0.156027D-05  0.754035D-04  0.494387D-05  0.143174D-05  0.189757D-03
     24 -0.878687D-04  0.424646D-02  0.255591D-03  0.740188D-04  0.981018D-02
     25 -0.100425D-05 -0.184153D-03  0.170598D-01 -0.827259D-03 -0.404725D-04
     26  0.000000D+00  0.557113D-04  0.231198D-01 -0.110944D-02  0.127164D-02
     27  0.289665D-04  0.531171D-02 -0.602786D-03  0.232270D-03  0.230533D-01
               16            17            18            19            20 
     16  0.287000D+00
     17  0.164992D+00  0.217296D+00
     18  0.936739D-03  0.294879D-02  0.472840D-01
     19 -0.297154D-04  0.436653D-04 -0.638897D-03  0.143387D+00
     20 -0.308518D-04  0.453352D-04 -0.663331D-03 -0.130634D+00  0.374480D+00
     21 -0.299505D-03  0.440108D-03 -0.643951D-02  0.765870D-02 -0.196952D-01
     22  0.000000D+00  0.000000D+00  0.000000D+00  0.000000D+00  0.000000D+00
     23  0.000000D+00  0.000000D+00  0.000000D+00  0.000000D+00  0.000000D+00
     24  0.000000D+00  0.000000D+00  0.000000D+00  0.000000D+00  0.000000D+00
     25 -0.558195D-05  0.321308D-05  0.334076D-03  0.000000D+00  0.000000D+00
     26  0.168869D-05  0.000000D+00 -0.101067D-03  0.000000D+00  0.000000D+00
     27  0.161006D-03 -0.926781D-04 -0.963607D-02  0.000000D+00  0.000000D+00
               21            22            23            24            25 
     21  0.376724D-01
     22  0.000000D+00  0.179052D+00
     23  0.000000D+00  0.164838D+00  0.397685D+00
     24  0.000000D+00 -0.597683D-02 -0.101684D-01  0.561276D-01
     25  0.000000D+00 -0.161390D-05 -0.142734D-05 -0.737915D-04  0.216899D+00
     26  0.000000D+00 -0.187077D-04 -0.165451D-04 -0.855361D-03 -0.108907D+00
     27  0.000000D+00 -0.287039D-03 -0.253858D-03 -0.131241D-01  0.668875D-02
               26            27 
     26  0.149292D+00
     27 -0.548733D-02  0.442987D-01
 Leave Link  716 at Tue Dec 15 17:07:29 2015, MaxMem=    33554432 cpu:         0.0
 (Enter /home/Applications/g09/g09/l103.exe)

 GradGradGradGradGradGradGradGradGradGradGradGradGradGradGradGradGradGrad
 Berny optimization.
 Search for a local minimum.
 Step number   1 out of a maximum of    2
 All quantities printed in internal units (Hartrees-Bohrs-Radians)
 Second derivative matrix not updated -- first step.
 ITU=  0
     Eigenvalues ---    0.02008   0.03511   0.07107   0.07768   0.08192
     Eigenvalues ---    0.08778   0.13241   0.15650   0.17663   0.25351
     Eigenvalues ---    0.26024   0.30317   0.42682   0.47788   0.68035
     Eigenvalues ---    0.85965   1.20884   1.34467   1.44766   1.65881
     Eigenvalues ---    1.77146
 Quadratic step=1.390D+00 exceeds max=3.000D-01 adjusted using Lamda=-9.141D-01.
 Angle between NR and scaled steps=  24.95 degrees.
 Angle between quadratic step and forces=  20.12 degrees.
 Linear search not attempted -- first point.
 TrRot= -0.002103 -0.002080 -0.000163 -1.030236  0.000302  1.030732
 Variable       Old X    -DE/DX   Delta X   Delta X   Delta X     New X
                                 (Linear)    (Quad)   (Total)
    X1        1.76046   0.22713   0.00000   0.10288   0.10145   1.86191
    Y1       -1.30246  -0.12920   0.00000  -0.07246  -0.07360  -1.37606
    Z1       -0.05862  -0.00703   0.00000  -0.00425  -0.00506  -0.06368
    X2       -0.61415  -0.25301   0.00000  -0.11708  -0.11811  -0.73225
    Y2       -2.14432   0.02597   0.00000  -0.01443  -0.01687  -2.16118
    Z2        0.00960  -0.00530   0.00000  -0.00521  -0.00582   0.00379
    X3       -2.12195   0.07097   0.00000   0.02540   0.02329  -2.09866
    Y3        0.03643  -0.05876   0.00000  -0.02372  -0.02684   0.00959
    Z3        0.00831   0.00664   0.00000   0.00534   0.00550   0.01382
    X4       -0.71071  -0.13514   0.00000  -0.07830  -0.08144  -0.79215
    Y4        2.07710   0.03180   0.00000   0.04197   0.03948   2.11658
    Z4        0.09398   0.00495   0.00000   0.00122   0.00173   0.09571
    X5        1.88556   0.04430   0.00000   0.03678   0.03400   1.91957
    Y5        1.27855   0.10835   0.00000   0.06262   0.06151   1.34006
    Z5       -0.08135  -0.00408   0.00000  -0.00161  -0.00173  -0.08308
    X6        3.40419   0.08781   0.00000   0.08048   0.07708   3.48128
    Y6        2.50999   0.07019   0.00000   0.07036   0.07003   2.58002
    Z6       -0.06782  -0.00379   0.00000  -0.00364  -0.00367  -0.07149
    X7       -1.50546  -0.02221   0.00000  -0.02549  -0.02956  -1.53502
    Y7        3.84190   0.12252   0.00000   0.11206   0.10922   3.95112
    Z7       -0.00896  -0.00033   0.00000  -0.00030   0.00079  -0.00816
    X8       -1.50275  -0.04620   0.00000  -0.05154  -0.05168  -1.55443
    Y8       -3.79974  -0.14957   0.00000  -0.12245  -0.12532  -3.92506
    Z8        0.06106   0.00480   0.00000   0.00462   0.00368   0.06474
    X9        3.49182   0.02636   0.00000   0.04577   0.04497   3.53679
    Y9       -2.57810  -0.02128   0.00000  -0.03728  -0.03761  -2.61570
    Z9        0.01479   0.00412   0.00000   0.00596   0.00457   0.01936
         Item               Value     Threshold  Converged?
 Maximum Force            0.253012     0.000450     NO 
 RMS     Force            0.091983     0.000300     NO 
 Maximum Displacement     0.125318     0.001800     NO 
 RMS     Displacement     0.057717     0.001200     NO 
 Predicted change in Energy=-1.084880D-01
 GradGradGradGradGradGradGradGradGradGradGradGradGradGradGradGradGradGrad

 Leave Link  103 at Tue Dec 15 17:07:29 2015, MaxMem=    33554432 cpu:         0.0
 (Enter /home/Applications/g09/g09/l9999.exe)
 1\1\GINC-DUSTIN-DESKTOP\Force\RAM1-FC\STO-3G\C4H4O1\DUSTIN\15-Dec-2015
 \0\\#P AM1(Input,print) CIS(Singlets,NStates=15) pop(full) force\\AM1-
 Reparam Input\\0,1\C,0.931595,-0.689233,-0.031018\C,-0.324992,-1.13472
 3,0.005082\O,-1.122886,0.019279,0.004399\C,-0.376089,1.099155,0.049733
 \C,0.997797,0.676579,-0.043048\H,1.801421,1.328229,-0.035888\H,-0.7966
 56,2.033046,-0.00474\H,-0.79522,-2.010735,0.032311\H,1.847793,-1.36427
 ,0.007826\\Version=ES64L-G09RevD.01\State=1-A\HF=2.0454076\RMSD=2.217e
 -09\RMSF=9.198e-02\Dipole=-4.0078915,0.0947013,-0.1101128\PG=C01 [X(C4
 H4O1)]\\@


 A FOOL CAN ASK MORE QUESTIONS THAN
 A WISE MAN CAN ANSWER.
 Job cpu time:       0 days  0 hours  0 minutes  0.6 seconds.
 File lengths (MBytes):  RWF=      7 Int=      0 D2E=      0 Chk=      2 Scr=      1
 Normal termination of Gaussian 09 at Tue Dec 15 17:07:29 2015.
