 Entering Gaussian System, Link 0=g09
 Input=FuranAM1Best5.com
 Output=FuranAM1Best5.log
 Initial command:
 /home/Applications/g09/g09/l1.exe "/home/Applications/g09/scratch/Gau-23890.inp" -scrdir="/home/Applications/g09/scratch/"
 Entering Link 1 = /home/Applications/g09/g09/l1.exe PID=     23892.
  
 Copyright (c) 1988,1990,1992,1993,1995,1998,2003,2009,2013,
            Gaussian, Inc.  All Rights Reserved.
  
 This is part of the Gaussian(R) 09 program.  It is based on
 the Gaussian(R) 03 system (copyright 2003, Gaussian, Inc.),
 the Gaussian(R) 98 system (copyright 1998, Gaussian, Inc.),
 the Gaussian(R) 94 system (copyright 1995, Gaussian, Inc.),
 the Gaussian 92(TM) system (copyright 1992, Gaussian, Inc.),
 the Gaussian 90(TM) system (copyright 1990, Gaussian, Inc.),
 the Gaussian 88(TM) system (copyright 1988, Gaussian, Inc.),
 the Gaussian 86(TM) system (copyright 1986, Carnegie Mellon
 University), and the Gaussian 82(TM) system (copyright 1983,
 Carnegie Mellon University). Gaussian is a federally registered
 trademark of Gaussian, Inc.
  
 This software contains proprietary and confidential information,
 including trade secrets, belonging to Gaussian, Inc.
  
 This software is provided under written license and may be
 used, copied, transmitted, or stored only in accord with that
 written license.
  
 The following legend is applicable only to US Government
 contracts under FAR:
  
                    RESTRICTED RIGHTS LEGEND
  
 Use, reproduction and disclosure by the US Government is
 subject to restrictions as set forth in subparagraphs (a)
 and (c) of the Commercial Computer Software - Restricted
 Rights clause in FAR 52.227-19.
  
 Gaussian, Inc.
 340 Quinnipiac St., Bldg. 40, Wallingford CT 06492
  
  
 ---------------------------------------------------------------
 Warning -- This program may not be used in any manner that
 competes with the business of Gaussian, Inc. or will provide
 assistance to any competitor of Gaussian, Inc.  The licensee
 of this program is prohibited from giving any competitor of
 Gaussian, Inc. access to this program.  By using this program,
 the user acknowledges that Gaussian, Inc. is engaged in the
 business of creating and licensing software in the field of
 computational chemistry and represents and warrants to the
 licensee that it is not a competitor of Gaussian, Inc. and that
 it will not use this program in any manner prohibited above.
 ---------------------------------------------------------------
  

 Cite this work as:
 Gaussian 09, Revision D.01,
 M. J. Frisch, G. W. Trucks, H. B. Schlegel, G. E. Scuseria, 
 M. A. Robb, J. R. Cheeseman, G. Scalmani, V. Barone, B. Mennucci, 
 G. A. Petersson, H. Nakatsuji, M. Caricato, X. Li, H. P. Hratchian, 
 A. F. Izmaylov, J. Bloino, G. Zheng, J. L. Sonnenberg, M. Hada, 
 M. Ehara, K. Toyota, R. Fukuda, J. Hasegawa, M. Ishida, T. Nakajima, 
 Y. Honda, O. Kitao, H. Nakai, T. Vreven, J. A. Montgomery, Jr., 
 J. E. Peralta, F. Ogliaro, M. Bearpark, J. J. Heyd, E. Brothers, 
 K. N. Kudin, V. N. Staroverov, T. Keith, R. Kobayashi, J. Normand, 
 K. Raghavachari, A. Rendell, J. C. Burant, S. S. Iyengar, J. Tomasi, 
 M. Cossi, N. Rega, J. M. Millam, M. Klene, J. E. Knox, J. B. Cross, 
 V. Bakken, C. Adamo, J. Jaramillo, R. Gomperts, R. E. Stratmann, 
 O. Yazyev, A. J. Austin, R. Cammi, C. Pomelli, J. W. Ochterski, 
 R. L. Martin, K. Morokuma, V. G. Zakrzewski, G. A. Voth, 
 P. Salvador, J. J. Dannenberg, S. Dapprich, A. D. Daniels, 
 O. Farkas, J. B. Foresman, J. V. Ortiz, J. Cioslowski, 
 and D. J. Fox, Gaussian, Inc., Wallingford CT, 2013.
 
 ******************************************
 Gaussian 09:  ES64L-G09RevD.01 24-Apr-2013
                 1-Dec-2015 
 ******************************************
 ----------------------------
 #P AM1(Input,print) Opt Freq
 ----------------------------
 1/14=-1,18=20,19=15,26=1,38=1/1,3;
 2/9=110,12=2,17=6,18=5,40=1/2;
 3/5=2,16=1,25=1,41=700000,71=1,135=100,136=1/1,2,3;
 4/35=1/1;
 5/5=2,35=1,38=5/2;
 6/7=2,8=2,9=2,10=2,28=1/1;
 7//1,2,3,16;
 1/14=-1,18=20,19=15,26=1/3(2);
 2/9=110/2;
 99//99;
 2/9=110/2;
 3/5=2,16=1,25=1,41=700000,71=1,135=20,136=1/1,2,3;
 4/5=5,16=3,35=1/1;
 5/5=2,35=1,38=5/2;
 7//1,2,3,16;
 1/14=-1,18=20,19=15,26=1/3(-5);
 2/9=110/2;
 6/7=2,8=2,9=2,10=2,19=2,28=1/1;
 99/9=1/99;
 Leave Link    1 at Tue Dec  1 17:37:51 2015, MaxMem=           0 cpu:         0.0
 (Enter /home/Applications/g09/g09/l101.exe)
 -----------------
 AM1-Reparam Input
 -----------------
 Symbolic Z-matrix:
 Charge =  0 Multiplicity = 1
 6                     0.96086  -0.71795  -0.04905 
 6                    -0.32787  -1.1407    0.03245 
 8                    -1.20267   0.03234   0.01229 
 6                    -0.32573   1.13025  -0.01926 
 6                     0.97605   0.75159  -0.03133 
 1                     1.85658   1.3681    0.04481 
 1                    -0.79487   2.05035  -0.04255 
 1                    -0.84934  -2.07521  -0.04794 
 1                     1.79361  -1.36903   0.02931 
 
 NAtoms=      9 NQM=        9 NQMF=       0 NMMI=      0 NMMIF=      0
                NMic=       0 NMicF=      0.
                    Isotopes and Nuclear Properties:
 (Nuclear quadrupole moments (NQMom) in fm**2, nuclear magnetic moments (NMagM)
  in nuclear magnetons)

  Atom         1           2           3           4           5           6           7           8           9
 IAtWgt=          12          12          16          12          12           1           1           1           1
 AtmWgt=  12.0000000  12.0000000  15.9949146  12.0000000  12.0000000   1.0078250   1.0078250   1.0078250   1.0078250
 NucSpn=           0           0           0           0           0           1           1           1           1
 AtZEff=   0.0000000   0.0000000   0.0000000   0.0000000   0.0000000   0.0000000   0.0000000   0.0000000   0.0000000
 NQMom=    0.0000000   0.0000000   0.0000000   0.0000000   0.0000000   0.0000000   0.0000000   0.0000000   0.0000000
 NMagM=    0.0000000   0.0000000   0.0000000   0.0000000   0.0000000   2.7928460   2.7928460   2.7928460   2.7928460
 AtZNuc=   6.0000000   6.0000000   8.0000000   6.0000000   6.0000000   1.0000000   1.0000000   1.0000000   1.0000000
 Leave Link  101 at Tue Dec  1 17:37:51 2015, MaxMem=    33554432 cpu:         0.0
 (Enter /home/Applications/g09/g09/l103.exe)

 GradGradGradGradGradGradGradGradGradGradGradGradGradGradGradGradGradGrad
 Berny optimization.
 Initialization pass.
                           ----------------------------
                           !    Initial Parameters    !
                           ! (Angstroms and Degrees)  !
 --------------------------                            --------------------------
 ! Name  Definition              Value          Derivative Info.                !
 --------------------------------------------------------------------------------
 ! R1    R(1,2)                  1.3587         estimate D2E/DX2                !
 ! R2    R(1,5)                  1.4697         estimate D2E/DX2                !
 ! R3    R(1,9)                  1.06           estimate D2E/DX2                !
 ! R4    R(2,3)                  1.4635         estimate D2E/DX2                !
 ! R5    R(2,8)                  1.0732         estimate D2E/DX2                !
 ! R6    R(3,4)                  1.4055         estimate D2E/DX2                !
 ! R7    R(4,5)                  1.3558         estimate D2E/DX2                !
 ! R8    R(4,7)                  1.0331         estimate D2E/DX2                !
 ! R9    R(5,6)                  1.0776         estimate D2E/DX2                !
 ! A1    A(2,1,5)              108.6733         estimate D2E/DX2                !
 ! A2    A(2,1,9)              123.3404         estimate D2E/DX2                !
 ! A3    A(5,1,9)              127.2406         estimate D2E/DX2                !
 ! A4    A(1,2,3)              108.466          estimate D2E/DX2                !
 ! A5    A(1,2,8)              136.6615         estimate D2E/DX2                !
 ! A6    A(3,2,8)              113.9851         estimate D2E/DX2                !
 ! A7    A(2,3,4)              104.6839         estimate D2E/DX2                !
 ! A8    A(3,4,5)              112.4025         estimate D2E/DX2                !
 ! A9    A(3,4,7)              114.3867         estimate D2E/DX2                !
 ! A10   A(5,4,7)              133.2034         estimate D2E/DX2                !
 ! A11   A(1,5,4)              105.631          estimate D2E/DX2                !
 ! A12   A(1,5,6)              125.5449         estimate D2E/DX2                !
 ! A13   A(4,5,6)              128.6203         estimate D2E/DX2                !
 ! D1    D(5,1,2,3)              3.8782         estimate D2E/DX2                !
 ! D2    D(5,1,2,8)            171.9304         estimate D2E/DX2                !
 ! D3    D(9,1,2,3)            174.6196         estimate D2E/DX2                !
 ! D4    D(9,1,2,8)            -17.3282         estimate D2E/DX2                !
 ! D5    D(2,1,5,4)             -3.5275         estimate D2E/DX2                !
 ! D6    D(2,1,5,6)            171.6484         estimate D2E/DX2                !
 ! D7    D(9,1,5,4)           -173.8073         estimate D2E/DX2                !
 ! D8    D(9,1,5,6)              1.3686         estimate D2E/DX2                !
 ! D9    D(1,2,3,4)             -2.7676         estimate D2E/DX2                !
 ! D10   D(8,2,3,4)           -173.8214         estimate D2E/DX2                !
 ! D11   D(2,3,4,5)              0.5012         estimate D2E/DX2                !
 ! D12   D(2,3,4,7)            179.6438         estimate D2E/DX2                !
 ! D13   D(3,4,5,1)              1.755          estimate D2E/DX2                !
 ! D14   D(3,4,5,6)           -173.2206         estimate D2E/DX2                !
 ! D15   D(7,4,5,1)           -177.1737         estimate D2E/DX2                !
 ! D16   D(7,4,5,6)              7.8507         estimate D2E/DX2                !
 --------------------------------------------------------------------------------
 Trust Radius=3.00D-01 FncErr=1.00D-07 GrdErr=1.00D-07
 Number of steps in this run=     48 maximum allowed number of steps=    100.
 GradGradGradGradGradGradGradGradGradGradGradGradGradGradGradGradGradGrad

 Leave Link  103 at Tue Dec  1 17:37:51 2015, MaxMem=    33554432 cpu:         0.0
 (Enter /home/Applications/g09/g09/l202.exe)
                          Input orientation:                          
 ---------------------------------------------------------------------
 Center     Atomic      Atomic             Coordinates (Angstroms)
 Number     Number       Type             X           Y           Z
 ---------------------------------------------------------------------
      1          6           0        0.960864   -0.717949   -0.049048
      2          6           0       -0.327872   -1.140699    0.032451
      3          8           0       -1.202667    0.032344    0.012285
      4          6           0       -0.325728    1.130254   -0.019258
      5          6           0        0.976052    0.751594   -0.031333
      6          1           0        1.856575    1.368101    0.044813
      7          1           0       -0.794871    2.050346   -0.042547
      8          1           0       -0.849341   -2.075213   -0.047941
      9          1           0        1.793609   -1.369027    0.029309
 ---------------------------------------------------------------------
                    Distance matrix (angstroms):
                    1          2          3          4          5
     1  C    0.000000
     2  C    1.358749   0.000000
     3  O    2.290757   1.463456   0.000000
     4  C    2.252124   2.271543   1.405498   0.000000
     5  C    1.469728   2.298926   2.294785   1.355788   0.000000
     6  H    2.272160   3.326566   3.338303   2.196161   1.077590
     7  H    3.278125   3.225908   2.059523   1.033057   2.196145
     8  H    2.262523   1.073177   2.137817   3.248078   3.364992
     9  H    1.059956   2.133735   3.307839   3.277248   2.273568
                    6          7          8          9
     6  H    0.000000
     7  H    2.739207   0.000000
     8  H    4.380296   4.125922   0.000000
     9  H    2.737896   4.289231   2.736759   0.000000
 Stoichiometry    C4H4O
 Framework group  C1[X(C4H4O)]
 Deg. of freedom    21
 Full point group                 C1      NOp   1
 Largest Abelian subgroup         C1      NOp   1
 Largest concise Abelian subgroup C1      NOp   1
                         Standard orientation:                         
 ---------------------------------------------------------------------
 Center     Atomic      Atomic             Coordinates (Angstroms)
 Number     Number       Type             X           Y           Z
 ---------------------------------------------------------------------
      1          6           0        0.631388    1.025183   -0.033350
      2          6           0        1.177969   -0.217209    0.029185
      3          8           0        0.095316   -1.201611    0.006413
      4          6           0       -1.082801   -0.435260   -0.006534
      5          6           0       -0.832487    0.897219   -0.005121
      6          1           0       -1.530959    1.712684    0.086271
      7          1           0       -1.953135   -0.991331   -0.029174
      8          1           0        2.158024   -0.644378   -0.064234
      9          1           0        1.199123    1.916312    0.050754
 ---------------------------------------------------------------------
 Rotational constants (GHZ):      9.0113538      8.9405875      4.4909449
 Leave Link  202 at Tue Dec  1 17:37:51 2015, MaxMem=    33554432 cpu:         0.0
 (Enter /home/Applications/g09/g09/l301.exe)

 Semi-emprical parameters in input format:
 Method=8 CoreType=1 PeptideFC=0.0120930000 RIJScale=0.5388840000
 ****
 H       
 PQN=1 NValence=1 F0ss=0.5586300000 ZetaOverlap=1.0950750000 U=-0.4119510000
 Beta=-0.2338190000 CoreKO=1.1007910000 KON=0,0,0,0.9764370000 KON=1,0,1,1.1361190000
 KON=0,1,1,1.0139660000 KON=2,1,1,1.2635130000 EISol=-0.4188110042 EHeat=0.0830298228
 Alpha=1.4078420000
 GCore=0.0080140000,1.2229470000,2.2663690000
 GCore=0.0002960000,1.5853770000,2.7382840000
 GCore=-0.0012210000,0.6561060000,3.9519220000
 ****
 C       
 PQN=2,2 NValence=4 F0ss=0.4805700000 F0sp=0.4819370000 F0pp=0.3439950000 F2pp=0.1961420000
 G1sp=0.2678900000
 ZetaOverlap=1.8366850000,1.4875730000
 U=-1.4842670000,-1.3886060000
 Beta=-0.6376780000,-0.3536670000 DDN=0,1,0.9094820000 DDN=1,1,0.8346670000
 CoreKO=1.1045690000 KON=0,0,0,1.0182330000 KON=1,0,1,0.7342900000 KON=0,1,1,1.1944780000
 KON=2,1,1,0.7056720000 EISol=-4.4398989268 EHeat=0.2723305520 Alpha=1.4025920000
 DipHyp=1.8188593534
 GCore=0.0007870000,1.5590290000,2.8992300000
 GCore=0.0031100000,1.3744800000,3.7653660000
 GCore=-0.0013700000,1.3772400000,4.0631190000
 GCore=-0.0000820000,1.5210550000,5.3709760000
 ****
 O       
 PQN=2,2 NValence=6 F0ss=0.7455940000 F0sp=0.5814220000 F0pp=0.4393740000 F2pp=0.2294290000
 G1sp=0.3535640000
 ZetaOverlap=2.7714830000,2.5744810000
 U=-3.8069400000,-2.7329690000
 Beta=-1.1272460000,-1.1587550000 DDN=0,1,0.5172290000 DDN=1,1,0.4110560000
 CoreKO=0.8743200000 KON=0,0,0,0.8886000000 KON=1,0,1,0.5063100000 KON=0,1,1,0.8996480000
 KON=2,1,1,0.5582300000 EISol=-11.6164441184 EHeat=0.0949133088 Alpha=2.3820330000
 DipHyp=1.0343984867
 GCore=0.0192970000,1.5130470000,1.5620930000
 GCore=0.0058890000,1.6294880000,2.3818730000
 ****
 
 Standard basis: VSTO-6G (5D, 7F)
 Ernie: Thresh=  0.10000D-02 Tol=  0.10000D-05 Strict=F.
  NNHCO=     0 NNPyr=     0 NCTC=     0               EPep=         0.000000000
    EC=        67.772273849  ECS=         1.799505660   EG=         0.285909984
   EHC=         0.000000000  EAt=       -31.051283842  AtH=         1.516354808
 EPDDG=         0.000000000  ECC=        69.857689493 EAtT=        32.567638650
 There are    24 symmetry adapted cartesian basis functions of A   symmetry.
 There are    24 symmetry adapted basis functions of A   symmetry.
    24 basis functions,   144 primitive gaussians,    24 cartesian basis functions
    13 alpha electrons       13 beta electrons
       nuclear repulsion energy       102.4253281433 Hartrees.
 IExCor=    0 DFT=F Ex=HF Corr=None ExCW=0 ScaHFX=  1.000000
 ScaDFX=  1.000000  1.000000  1.000000  1.000000 ScalE2=  1.000000  1.000000
 IRadAn=      0 IRanWt=     -1 IRanGd=            0 ICorTp=0 IEmpDi=  4
 Integral buffers will be    131072 words long.
 Regular integral format.
 Two-electron integral symmetry is turned off.
 Leave Link  301 at Tue Dec  1 17:37:51 2015, MaxMem=    33554432 cpu:         0.0
 (Enter /home/Applications/g09/g09/l302.exe)
 Do NDO integrals.
 NPDir=0 NMtPBC=     1 NCelOv=     1 NCel=       1 NClECP=     1 NCelD=      1
         NCelK=      1 NCelE2=     1 NClLst=     1 CellRange=     0.0.
 One-electron integrals computed using PRISM.
 NBasis=    24 RedAO= F EigKep=  0.00D+00  NBF=    24
 NBsUse=    24 1.00D-04 EigRej=  0.00D+00 NBFU=    24
 Leave Link  302 at Tue Dec  1 17:37:51 2015, MaxMem=    33554432 cpu:         0.0
 (Enter /home/Applications/g09/g09/l303.exe)
 DipDrv:  MaxL=1.
 Leave Link  303 at Tue Dec  1 17:37:51 2015, MaxMem=    33554432 cpu:         0.0
 (Enter /home/Applications/g09/g09/l401.exe)
 Simple Huckel Guess.
 JPrj=0 DoOrth=F DoCkMO=F.
 Leave Link  401 at Tue Dec  1 17:37:51 2015, MaxMem=    33554432 cpu:         0.0
 (Enter /home/Applications/g09/g09/l502.exe)
 Closed shell SCF:
 Using DIIS extrapolation, IDIIS=  1040.
 Overlap will be assumed to be unity.
 Two-electron integral symmetry not used.
 Keep J ints in memory in canonical form, NReq=888082.
 IVT=       79475 IEndB=       79475 NGot=    33554432 MDV=    33473473
 LenX=    33473473 LenY=    33472456
 Requested convergence on RMS density matrix=1.00D-08 within 128 cycles.
 Requested convergence on MAX density matrix=1.00D-06.
 Requested convergence on             energy=1.00D-06.
 No special actions if energy rises.
 FoFCou: FMM=F IPFlag=           0 FMFlag=           0 FMFlg1=           0
         NFxFlg=           0 DoJE=F BraDBF=F KetDBF=F FulRan=T
         wScrn=  0.000000 ICntrl=     600 IOpCl=  2 I1Cent=           0 NGrid=           0
         NMat0=    1 NMatS0=     54 NMatT0=    0 NMatD0=    1 NMtDS0=    0 NMtDT0=    0
 Symmetry not used in FoFCou.

 Cycle   1  Pass 1  IDiag  1:
 E=  2.13791562508239    
 DIIS: error= 6.39D-02 at cycle   1 NSaved=   1.
 NSaved= 1 IEnMin= 1 EnMin=  2.13791562508239     IErMin= 1 ErrMin= 6.39D-02
 ErrMax= 6.39D-02  0.00D+00 EMaxC= 1.00D-01 BMatC= 1.61D-01 BMatP= 1.61D-01
 IDIUse=3 WtCom= 3.61D-01 WtEn= 6.39D-01
 Coeff-Com:  0.100D+01
 Coeff-En:   0.100D+01
 Coeff:      0.100D+01
 GapD=    2.000 DampG=2.000 DampE=0.500 DampFc=1.0000 IDamp=-1.
 RMSDP=1.77D-02 MaxDP=1.24D-01              OVMax= 0.00D+00

 Cycle   2  Pass 1  IDiag  1:
 E=  1.83714583233076     Delta-E=       -0.300769792752 Rises=F Damp=F
 DIIS: error= 1.62D-02 at cycle   2 NSaved=   2.
 NSaved= 2 IEnMin= 2 EnMin=  1.83714583233076     IErMin= 2 ErrMin= 1.62D-02
 ErrMax= 1.62D-02  0.00D+00 EMaxC= 1.00D-01 BMatC= 1.19D-02 BMatP= 1.61D-01
 IDIUse=3 WtCom= 8.38D-01 WtEn= 1.62D-01
 Coeff-Com: -0.327D+00 0.133D+01
 Coeff-En:   0.000D+00 0.100D+01
 Coeff:     -0.274D+00 0.127D+01
 RMSDP=7.04D-03 MaxDP=3.92D-02 DE=-3.01D-01 OVMax= 0.00D+00

 Cycle   3  Pass 1  IDiag  3:
 E=  1.80813178459161     Delta-E=       -0.029014047739 Rises=F Damp=F
 DIIS: error= 2.78D-03 at cycle   3 NSaved=   3.
 NSaved= 3 IEnMin= 3 EnMin=  1.80813178459161     IErMin= 3 ErrMin= 2.78D-03
 ErrMax= 2.78D-03  0.00D+00 EMaxC= 1.00D-01 BMatC= 4.23D-04 BMatP= 1.19D-02
 IDIUse=3 WtCom= 9.72D-01 WtEn= 2.78D-02
 Coeff-Com:  0.806D-01-0.467D+00 0.139D+01
 Coeff-En:   0.000D+00 0.000D+00 0.100D+01
 Coeff:      0.784D-01-0.454D+00 0.138D+01
 Gap=     0.421 Goal=   None    Shift=    0.000
 RMSDP=2.07D-03 MaxDP=1.60D-02 DE=-2.90D-02 OVMax= 1.69D-02

 Cycle   4  Pass 1  IDiag  3:
 E=  1.80643032376831     Delta-E=       -0.001701460823 Rises=F Damp=F
 DIIS: error= 1.10D-03 at cycle   4 NSaved=   4.
 NSaved= 4 IEnMin= 4 EnMin=  1.80643032376831     IErMin= 4 ErrMin= 1.10D-03
 ErrMax= 1.10D-03  0.00D+00 EMaxC= 1.00D-01 BMatC= 3.05D-05 BMatP= 4.23D-04
 IDIUse=3 WtCom= 9.89D-01 WtEn= 1.10D-02
 Coeff-Com: -0.861D-02 0.836D-01-0.499D+00 0.142D+01
 Coeff-En:   0.000D+00 0.000D+00 0.000D+00 0.100D+01
 Coeff:     -0.852D-02 0.826D-01-0.494D+00 0.142D+01
 Gap=     0.421 Goal=   None    Shift=    0.000
 RMSDP=7.24D-04 MaxDP=7.04D-03 DE=-1.70D-03 OVMax= 7.73D-03

 Cycle   5  Pass 1  IDiag  3:
 E=  1.80627084760735     Delta-E=       -0.000159476161 Rises=F Damp=F
 DIIS: error= 3.07D-04 at cycle   5 NSaved=   5.
 NSaved= 5 IEnMin= 5 EnMin=  1.80627084760735     IErMin= 5 ErrMin= 3.07D-04
 ErrMax= 3.07D-04  0.00D+00 EMaxC= 1.00D-01 BMatC= 1.90D-06 BMatP= 3.05D-05
 IDIUse=3 WtCom= 9.97D-01 WtEn= 3.07D-03
 Coeff-Com: -0.222D-02 0.441D-02 0.436D-01-0.406D+00 0.136D+01
 Coeff-En:   0.000D+00 0.000D+00 0.000D+00 0.000D+00 0.100D+01
 Coeff:     -0.221D-02 0.439D-02 0.435D-01-0.405D+00 0.136D+01
 Gap=     0.421 Goal=   None    Shift=    0.000
 RMSDP=2.08D-04 MaxDP=2.15D-03 DE=-1.59D-04 OVMax= 2.36D-03

 Cycle   6  Pass 1  IDiag  3:
 E=  1.80626014510401     Delta-E=       -0.000010702503 Rises=F Damp=F
 DIIS: error= 4.24D-05 at cycle   6 NSaved=   6.
 NSaved= 6 IEnMin= 6 EnMin=  1.80626014510401     IErMin= 6 ErrMin= 4.24D-05
 ErrMax= 4.24D-05  0.00D+00 EMaxC= 1.00D-01 BMatC= 1.07D-07 BMatP= 1.90D-06
 IDIUse=1 WtCom= 1.00D+00 WtEn= 0.00D+00
 Coeff-Com:  0.207D-02-0.992D-02 0.186D-01 0.770D-01-0.556D+00 0.147D+01
 Coeff:      0.207D-02-0.992D-02 0.186D-01 0.770D-01-0.556D+00 0.147D+01
 Gap=     0.421 Goal=   None    Shift=    0.000
 RMSDP=4.54D-05 MaxDP=4.00D-04 DE=-1.07D-05 OVMax= 4.13D-04

 Cycle   7  Pass 1  IDiag  3:
 E=  1.80625962898253     Delta-E=       -0.000000516121 Rises=F Damp=F
 DIIS: error= 8.50D-06 at cycle   7 NSaved=   7.
 NSaved= 7 IEnMin= 7 EnMin=  1.80625962898253     IErMin= 7 ErrMin= 8.50D-06
 ErrMax= 8.50D-06  0.00D+00 EMaxC= 1.00D-01 BMatC= 3.67D-09 BMatP= 1.07D-07
 IDIUse=1 WtCom= 1.00D+00 WtEn= 0.00D+00
 Coeff-Com: -0.348D-03 0.194D-02-0.516D-02-0.900D-02 0.109D+00-0.439D+00
 Coeff-Com:  0.134D+01
 Coeff:     -0.348D-03 0.194D-02-0.516D-02-0.900D-02 0.109D+00-0.439D+00
 Coeff:      0.134D+01
 Gap=     0.421 Goal=   None    Shift=    0.000
 RMSDP=7.11D-06 MaxDP=3.87D-05 DE=-5.16D-07 OVMax= 6.17D-05

 Cycle   8  Pass 1  IDiag  3:
 E=  1.80625961468719     Delta-E=       -0.000000014295 Rises=F Damp=F
 DIIS: error= 1.04D-06 at cycle   8 NSaved=   8.
 NSaved= 8 IEnMin= 8 EnMin=  1.80625961468719     IErMin= 8 ErrMin= 1.04D-06
 ErrMax= 1.04D-06  0.00D+00 EMaxC= 1.00D-01 BMatC= 8.77D-11 BMatP= 3.67D-09
 IDIUse=1 WtCom= 1.00D+00 WtEn= 0.00D+00
 Coeff-Com:  0.600D-04-0.419D-03 0.158D-02-0.125D-02-0.129D-01 0.804D-01
 Coeff-Com: -0.361D+00 0.129D+01
 Coeff:      0.600D-04-0.419D-03 0.158D-02-0.125D-02-0.129D-01 0.804D-01
 Coeff:     -0.361D+00 0.129D+01
 Gap=     0.421 Goal=   None    Shift=    0.000
 RMSDP=9.22D-07 MaxDP=5.90D-06 DE=-1.43D-08 OVMax= 5.10D-06

 Cycle   9  Pass 1  IDiag  3:
 E=  1.80625961437559     Delta-E=       -0.000000000312 Rises=F Damp=F
 DIIS: error= 2.76D-07 at cycle   9 NSaved=   9.
 NSaved= 9 IEnMin= 9 EnMin=  1.80625961437559     IErMin= 9 ErrMin= 2.76D-07
 ErrMax= 2.76D-07  0.00D+00 EMaxC= 1.00D-01 BMatC= 3.18D-12 BMatP= 8.77D-11
 IDIUse=1 WtCom= 1.00D+00 WtEn= 0.00D+00
 Coeff-Com: -0.743D-05 0.689D-04-0.310D-03 0.406D-03 0.204D-02-0.162D-01
 Coeff-Com:  0.879D-01-0.466D+00 0.139D+01
 Coeff:     -0.743D-05 0.689D-04-0.310D-03 0.406D-03 0.204D-02-0.162D-01
 Coeff:      0.879D-01-0.466D+00 0.139D+01
 Gap=     0.421 Goal=   None    Shift=    0.000
 RMSDP=2.22D-07 MaxDP=1.71D-06 DE=-3.12D-10 OVMax= 1.20D-06

 Cycle  10  Pass 1  IDiag  3:
 E=  1.80625961436118     Delta-E=       -0.000000000014 Rises=F Damp=F
 DIIS: error= 5.95D-08 at cycle  10 NSaved=  10.
 NSaved=10 IEnMin=10 EnMin=  1.80625961436118     IErMin=10 ErrMin= 5.95D-08
 ErrMax= 5.95D-08  0.00D+00 EMaxC= 1.00D-01 BMatC= 1.04D-13 BMatP= 3.18D-12
 IDIUse=1 WtCom= 1.00D+00 WtEn= 0.00D+00
 Coeff-Com:  0.184D-05-0.197D-04 0.951D-04-0.154D-03-0.467D-03 0.439D-02
 Coeff-Com: -0.251D-01 0.146D+00-0.553D+00 0.143D+01
 Coeff:      0.184D-05-0.197D-04 0.951D-04-0.154D-03-0.467D-03 0.439D-02
 Coeff:     -0.251D-01 0.146D+00-0.553D+00 0.143D+01
 Gap=     0.421 Goal=   None    Shift=    0.000
 RMSDP=4.47D-08 MaxDP=3.83D-07 DE=-1.44D-11 OVMax= 3.78D-07

 Cycle  11  Pass 1  IDiag  3:
 E=  1.80625961436088     Delta-E=        0.000000000000 Rises=F Damp=F
 DIIS: error= 1.06D-08 at cycle  11 NSaved=  11.
 NSaved=11 IEnMin=11 EnMin=  1.80625961436088     IErMin=11 ErrMin= 1.06D-08
 ErrMax= 1.06D-08  0.00D+00 EMaxC= 1.00D-01 BMatC= 4.40D-15 BMatP= 1.04D-13
 IDIUse=1 WtCom= 1.00D+00 WtEn= 0.00D+00
 Coeff-Com: -0.733D-06 0.827D-05-0.410D-04 0.721D-04 0.167D-03-0.176D-02
 Coeff-Com:  0.104D-01-0.623D-01 0.243D+00-0.722D+00 0.153D+01
 Coeff:     -0.733D-06 0.827D-05-0.410D-04 0.721D-04 0.167D-03-0.176D-02
 Coeff:      0.104D-01-0.623D-01 0.243D+00-0.722D+00 0.153D+01
 Gap=     0.421 Goal=   None    Shift=    0.000
 RMSDP=1.05D-08 MaxDP=9.49D-08 DE=-2.98D-13 OVMax= 1.19D-07

 Cycle  12  Pass 1  IDiag  3:
 E=  1.80625961436085     Delta-E=        0.000000000000 Rises=F Damp=F
 DIIS: error= 3.39D-09 at cycle  12 NSaved=  12.
 NSaved=12 IEnMin=12 EnMin=  1.80625961436085     IErMin=12 ErrMin= 3.39D-09
 ErrMax= 3.39D-09  0.00D+00 EMaxC= 1.00D-01 BMatC= 2.39D-16 BMatP= 4.40D-15
 IDIUse=1 WtCom= 1.00D+00 WtEn= 0.00D+00
 Coeff-Com:  0.289D-06-0.307D-05 0.147D-04-0.237D-04-0.688D-04 0.641D-03
 Coeff-Com: -0.363D-02 0.217D-01-0.843D-01 0.261D+00-0.727D+00 0.153D+01
 Coeff:      0.289D-06-0.307D-05 0.147D-04-0.237D-04-0.688D-04 0.641D-03
 Coeff:     -0.363D-02 0.217D-01-0.843D-01 0.261D+00-0.727D+00 0.153D+01
 Gap=     0.421 Goal=   None    Shift=    0.000
 RMSDP=2.81D-09 MaxDP=2.76D-08 DE=-2.84D-14 OVMax= 3.52D-08

 Cycle  13  Pass 2  IDiag  1:
 SCF Done:  E(RAM1) =   1.80625961436     A.U. after   13 cycles
            NFock= 12  Conv=0.28D-08     -V/T= 1.1405
 KE=-1.286043340675D+01 PE=-1.693937715785D+02 EE= 8.163513645630D+01
 Leave Link  502 at Tue Dec  1 17:37:51 2015, MaxMem=    33554432 cpu:         0.0
 (Enter /home/Applications/g09/g09/l601.exe)
 Copying SCF densities to generalized density rwf, IOpCl= 0 IROHF=0.

 **********************************************************************

            Population analysis using the SCF density.

 **********************************************************************

 Orbital symmetries:
       Occupied  (A) (A) (A) (A) (A) (A) (A) (A) (A) (A) (A) (A)
                 (A)
       Virtual   (A) (A) (A) (A) (A) (A) (A) (A) (A) (A) (A)
 The electronic state is 1-A.
 Alpha  occ. eigenvalues --   -1.45406  -1.06704  -0.90155  -0.82472  -0.78432
 Alpha  occ. eigenvalues --   -0.70475  -0.67882  -0.58361  -0.55893  -0.54936
 Alpha  occ. eigenvalues --   -0.51712  -0.46217  -0.40551
 Alpha virt. eigenvalues --    0.01537   0.06209   0.12281   0.14238   0.19433
 Alpha virt. eigenvalues --    0.20371   0.21339   0.40045   0.47462   0.58432
 Alpha virt. eigenvalues --    0.66644
          Condensed to atoms (all electrons):
               1          2          3          4          5          6
     1  C    4.044774   0.000000   0.000000   0.000000   0.000000   0.000000
     2  C    0.000000   3.627294   0.000000   0.000000   0.000000   0.000000
     3  O    0.000000   0.000000   6.316425   0.000000   0.000000   0.000000
     4  C    0.000000   0.000000   0.000000   3.608072   0.000000   0.000000
     5  C    0.000000   0.000000   0.000000   0.000000   4.075404   0.000000
     6  H    0.000000   0.000000   0.000000   0.000000   0.000000   1.054938
     7  H    0.000000   0.000000   0.000000   0.000000   0.000000   0.000000
     8  H    0.000000   0.000000   0.000000   0.000000   0.000000   0.000000
     9  H    0.000000   0.000000   0.000000   0.000000   0.000000   0.000000
               7          8          9
     1  C    0.000000   0.000000   0.000000
     2  C    0.000000   0.000000   0.000000
     3  O    0.000000   0.000000   0.000000
     4  C    0.000000   0.000000   0.000000
     5  C    0.000000   0.000000   0.000000
     6  H    0.000000   0.000000   0.000000
     7  H    1.112942   0.000000   0.000000
     8  H    0.000000   1.106297   0.000000
     9  H    0.000000   0.000000   1.053854
 Mulliken charges:
               1
     1  C   -0.044774
     2  C    0.372706
     3  O   -0.316425
     4  C    0.391928
     5  C   -0.075404
     6  H   -0.054938
     7  H   -0.112942
     8  H   -0.106297
     9  H   -0.053854
 Sum of Mulliken charges =   0.00000
 Mulliken charges with hydrogens summed into heavy atoms:
               1
     1  C   -0.098629
     2  C    0.266409
     3  O   -0.316425
     4  C    0.278986
     5  C   -0.130342
 Charge=              0.0000 electrons
 Dipole moment (field-independent basis, Debye):
    X=              0.0511    Y=              0.5691    Z=              0.0698  Tot=              0.5757
 N-N= 1.024253281433D+02 E-N=-1.693937715752D+02  KE=-1.286043340675D+01
 Leave Link  601 at Tue Dec  1 17:37:51 2015, MaxMem=    33554432 cpu:         0.0
 (Enter /home/Applications/g09/g09/l701.exe)
 Compute integral first derivatives.
 ... and contract with generalized density number  0.
 Leave Link  701 at Tue Dec  1 17:37:51 2015, MaxMem=    33554432 cpu:         0.0
 (Enter /home/Applications/g09/g09/l702.exe)
 L702 exits ... SP integral derivatives will be done elsewhere.
 Leave Link  702 at Tue Dec  1 17:37:51 2015, MaxMem=    33554432 cpu:         0.0
 (Enter /home/Applications/g09/g09/l703.exe)
 Compute integral first derivatives, UseDBF=F ICtDFT=           0.
 Integral derivatives from FoFJK, PRISM(SPDF).
 Calling FoFJK, ICntrl=      2127 FMM=F ISym2X=0 I1Cent= 0 IOpClX= 0 NMat=1 NMatS=1 NMatT=0.
 FoFJK:  IHMeth= 8 ICntrl=    2127 DoSepK=F KAlg= 0 I1Cent=   0 FoldK=F
 IRaf=         0 NMat=   1 IRICut=       1 DoRegI=T DoRafI=F ISym2E= 0.
 FoFCou: FMM=F IPFlag=           0 FMFlag=      100000 FMFlg1=         800
         NFxFlg=           0 DoJE=F BraDBF=F KetDBF=F FulRan=T
         wScrn=  0.000000 ICntrl=    2127 IOpCl=  0 I1Cent=           0 NGrid=           0
         NMat0=    1 NMatS0=      1 NMatT0=    0 NMatD0=    1 NMtDS0=    0 NMtDT0=    0
 Symmetry not used in FoFCou.
 Leave Link  703 at Tue Dec  1 17:37:51 2015, MaxMem=    33554432 cpu:         0.0
 (Enter /home/Applications/g09/g09/l716.exe)
 Dipole        = 2.00907194D-02 2.23916493D-01 2.74540498D-02
 ***** Axes restored to original set *****
 -------------------------------------------------------------------
 Center     Atomic                   Forces (Hartrees/Bohr)
 Number     Number              X              Y              Z
 -------------------------------------------------------------------
      1        6          -0.129131934    0.090084918    0.031354015
      2        6           0.031252763    0.133600325   -0.034340340
      3        8           0.140260685   -0.039982214    0.002901028
      4        6           0.061730627   -0.105305371   -0.000761022
      5        6          -0.117973749   -0.106156918    0.004475927
      6        1          -0.007044548   -0.005655801   -0.006423391
      7        1          -0.002643105    0.022418109    0.000735645
      8        1           0.014691130    0.010557482    0.008613247
      9        1           0.008858132    0.000439469   -0.006555109
 -------------------------------------------------------------------
 Cartesian Forces:  Max     0.140260685 RMS     0.063339824
 Leave Link  716 at Tue Dec  1 17:37:51 2015, MaxMem=    33554432 cpu:         0.0
 (Enter /home/Applications/g09/g09/l103.exe)

 GradGradGradGradGradGradGradGradGradGradGradGradGradGradGradGradGradGrad
 Berny optimization.
 FormGI is forming the generalized inverse of G from B-inverse, IUseBI=4.
 Internal  Forces:  Max     0.134285484 RMS     0.044755493
 Search for a local minimum.
 Step number   1 out of a maximum of   48
 All quantities printed in internal units (Hartrees-Bohrs-Radians)
 RMS Force = .44755D-01 SwitMx=.10000D-02 MixMth= 1
 Mixed Optimization -- RFO/linear search
 Second derivative matrix not updated -- first step.
 ITU=  0
     Eigenvalues ---    0.01550   0.01652   0.02024   0.02181   0.02366
     Eigenvalues ---    0.02459   0.15620   0.15770   0.15912   0.15998
     Eigenvalues ---    0.22004   0.22828   0.34037   0.35770   0.36287
     Eigenvalues ---    0.36831   0.38529   0.42319   0.42343   0.49235
     Eigenvalues ---    0.53154
 RFO step:  Lambda=-1.35471773D-01 EMin= 1.54967924D-02
 Linear search not attempted -- first point.
 Maximum step size (   0.300) exceeded in Quadratic search.
    -- Step size scaled by   0.608
 Iteration  1 RMS(Cart)=  0.05500915 RMS(Int)=  0.00046920
 Iteration  2 RMS(Cart)=  0.00040036 RMS(Int)=  0.00016302
 Iteration  3 RMS(Cart)=  0.00000014 RMS(Int)=  0.00016302
 ITry= 1 IFail=0 DXMaxC= 1.14D-01 DCOld= 1.00D+10 DXMaxT= 3.00D-01 DXLimC= 3.00D+00 Rises=F
 Variable       Old X    -DE/DX   Delta X   Delta X   Delta X     New X
                                 (Linear)    (Quad)   (Total)
    R1        2.56766  -0.13145   0.00000  -0.12051  -0.12030   2.44737
    R2        2.77738  -0.13429   0.00000  -0.16740  -0.16721   2.61018
    R3        2.00303   0.00620   0.00000   0.00724   0.00724   2.01027
    R4        2.76553  -0.12666   0.00000  -0.15257  -0.15262   2.61291
    R5        2.02801  -0.01698   0.00000  -0.02049  -0.02049   2.00752
    R6        2.65601  -0.08675   0.00000  -0.08901  -0.08926   2.56675
    R7        2.56207  -0.12372   0.00000  -0.11169  -0.11179   2.45028
    R8        1.95219   0.02115   0.00000   0.02302   0.02302   1.97521
    R9        2.03635  -0.00945   0.00000  -0.01152  -0.01152   2.02483
    A1        1.89671   0.00523   0.00000   0.00534   0.00564   1.90235
    A2        2.15270   0.00406   0.00000   0.01211   0.01187   2.16456
    A3        2.22077  -0.00837   0.00000  -0.01386  -0.01416   2.20661
    A4        1.89309   0.00131   0.00000   0.00248   0.00257   1.89566
    A5        2.38519  -0.00672   0.00000  -0.01288  -0.01307   2.37212
    A6        1.98941   0.00640   0.00000   0.01425   0.01412   2.00353
    A7        1.82708  -0.00085   0.00000   0.00370   0.00330   1.83038
    A8        1.96179  -0.01617   0.00000  -0.02590  -0.02618   1.93561
    A9        1.99642   0.01566   0.00000   0.02853   0.02866   2.02509
   A10        2.32484   0.00050   0.00000  -0.00267  -0.00253   2.32231
   A11        1.84361   0.01084   0.00000   0.01576   0.01586   1.85947
   A12        2.19117  -0.00612   0.00000  -0.00920  -0.00925   2.18192
   A13        2.24485  -0.00459   0.00000  -0.00612  -0.00618   2.23867
    D1        0.06769  -0.00476   0.00000  -0.01871  -0.01876   0.04892
    D2        3.00075   0.00291   0.00000   0.00922   0.00898   3.00973
    D3        3.04769   0.00002   0.00000   0.00184   0.00208   3.04977
    D4       -0.30243   0.00769   0.00000   0.02978   0.02983  -0.27261
    D5       -0.06157   0.00386   0.00000   0.01584   0.01584  -0.04572
    D6        2.99583   0.00526   0.00000   0.02097   0.02094   3.01677
    D7       -3.03351  -0.00271   0.00000  -0.00893  -0.00879  -3.04230
    D8        0.02389  -0.00131   0.00000  -0.00380  -0.00369   0.02019
    D9       -0.04830   0.00368   0.00000   0.01481   0.01481  -0.03349
   D10       -3.03376  -0.00046   0.00000  -0.00283  -0.00309  -3.03685
   D11        0.00875  -0.00091   0.00000  -0.00411  -0.00423   0.00452
   D12        3.13538  -0.00185   0.00000  -0.00684  -0.00692   3.12846
   D13        0.03063  -0.00203   0.00000  -0.00665  -0.00659   0.02404
   D14       -3.02327  -0.00343   0.00000  -0.01185  -0.01176  -3.03503
   D15       -3.09226  -0.00098   0.00000  -0.00353  -0.00358  -3.09584
   D16        0.13702  -0.00238   0.00000  -0.00872  -0.00874   0.12828
         Item               Value     Threshold  Converged?
 Maximum Force            0.134285     0.000450     NO 
 RMS     Force            0.044755     0.000300     NO 
 Maximum Displacement     0.113583     0.001800     NO 
 RMS     Displacement     0.055138     0.001200     NO 
 Predicted change in Energy=-6.360126D-02
 Lowest energy point so far.  Saving SCF results.
 GradGradGradGradGradGradGradGradGradGradGradGradGradGradGradGradGradGrad

 Leave Link  103 at Tue Dec  1 17:37:51 2015, MaxMem=    33554432 cpu:         0.0
 (Enter /home/Applications/g09/g09/l202.exe)
                          Input orientation:                          
 ---------------------------------------------------------------------
 Center     Atomic      Atomic             Coordinates (Angstroms)
 Number     Number       Type             X           Y           Z
 ---------------------------------------------------------------------
      1          6           0        0.916447   -0.678152   -0.039655
      2          6           0       -0.310686   -1.087090    0.024935
      3          8           0       -1.144536    0.015827    0.014705
      4          6           0       -0.307737    1.085261   -0.016301
      5          6           0        0.931181    0.702985   -0.030404
      6          1           0        1.813109    1.307995    0.034869
      7          1           0       -0.764961    2.024875   -0.040602
      8          1           0       -0.808306   -2.022527   -0.051806
      9          1           0        1.762109   -1.319422    0.032990
 ---------------------------------------------------------------------
                    Distance matrix (angstroms):
                    1          2          3          4          5
     1  C    0.000000
     2  C    1.295090   0.000000
     3  O    2.175365   1.382691   0.000000
     4  C    2.146811   2.172744   1.358265   0.000000
     5  C    1.381246   2.179373   2.186966   1.296631   0.000000
     6  H    2.180444   3.201100   3.227657   2.133123   1.071492
     7  H    3.183314   3.145630   2.045339   1.045237   2.150441
     8  H    2.186840   1.062336   2.066969   3.148043   3.233371
     9  H    1.063789   2.085790   3.198719   3.173198   2.187370
                    6          7          8          9
     6  H    0.000000
     7  H    2.676949   0.000000
     8  H    4.239306   4.047650   0.000000
     9  H    2.627913   4.192352   2.666192   0.000000
 Stoichiometry    C4H4O
 Framework group  C1[X(C4H4O)]
 Deg. of freedom    21
 Full point group                 C1      NOp   1
 RotChk:  IX=0 Diff= 6.93D-03
 Largest Abelian subgroup         C1      NOp   1
 Largest concise Abelian subgroup C1      NOp   1
                         Standard orientation:                         
 ---------------------------------------------------------------------
 Center     Atomic      Atomic             Coordinates (Angstroms)
 Number     Number       Type             X           Y           Z
 ---------------------------------------------------------------------
      1          6           0        0.588640    0.975751   -0.025906
      2          6           0        1.120998   -0.203901    0.021800
      3          8           0        0.108763   -1.145735    0.009077
      4          6           0       -1.040593   -0.422093   -0.005277
      5          6           0       -0.786695    0.849434   -0.007507
      6          1           0       -1.477922    1.664291    0.071913
      7          1           0       -1.928874   -0.972480   -0.028766
      8          1           0        2.101666   -0.602650   -0.066783
      9          1           0        1.140920    1.881571    0.052363
 ---------------------------------------------------------------------
 Rotational constants (GHZ):      9.8765615      9.7584613      4.9111990
 Leave Link  202 at Tue Dec  1 17:37:51 2015, MaxMem=    33554432 cpu:         0.0
 (Enter /home/Applications/g09/g09/l301.exe)

 Semi-emprical parameters in input format:
 Method=8 CoreType=1 PeptideFC=0.0120930000 RIJScale=0.5388840000
 ****
 H       
 PQN=1 NValence=1 F0ss=0.5586300000 ZetaOverlap=1.0950750000 U=-0.4119510000
 Beta=-0.2338190000 CoreKO=1.1007910000 KON=0,0,0,0.9764370000 KON=1,0,1,1.1361190000
 KON=0,1,1,1.0139660000 KON=2,1,1,1.2635130000 EISol=-0.4188110042 EHeat=0.0830298228
 Alpha=1.4078420000
 GCore=0.0080140000,1.2229470000,2.2663690000
 GCore=0.0002960000,1.5853770000,2.7382840000
 GCore=-0.0012210000,0.6561060000,3.9519220000
 ****
 C       
 PQN=2,2 NValence=4 F0ss=0.4805700000 F0sp=0.4819370000 F0pp=0.3439950000 F2pp=0.1961420000
 G1sp=0.2678900000
 ZetaOverlap=1.8366850000,1.4875730000
 U=-1.4842670000,-1.3886060000
 Beta=-0.6376780000,-0.3536670000 DDN=0,1,0.9094820000 DDN=1,1,0.8346670000
 CoreKO=1.1045690000 KON=0,0,0,1.0182330000 KON=1,0,1,0.7342900000 KON=0,1,1,1.1944780000
 KON=2,1,1,0.7056720000 EISol=-4.4398989268 EHeat=0.2723305520 Alpha=1.4025920000
 DipHyp=1.8188593534
 GCore=0.0007870000,1.5590290000,2.8992300000
 GCore=0.0031100000,1.3744800000,3.7653660000
 GCore=-0.0013700000,1.3772400000,4.0631190000
 GCore=-0.0000820000,1.5210550000,5.3709760000
 ****
 O       
 PQN=2,2 NValence=6 F0ss=0.7455940000 F0sp=0.5814220000 F0pp=0.4393740000 F2pp=0.2294290000
 G1sp=0.3535640000
 ZetaOverlap=2.7714830000,2.5744810000
 U=-3.8069400000,-2.7329690000
 Beta=-1.1272460000,-1.1587550000 DDN=0,1,0.5172290000 DDN=1,1,0.4110560000
 CoreKO=0.8743200000 KON=0,0,0,0.8886000000 KON=1,0,1,0.5063100000 KON=0,1,1,0.8996480000
 KON=2,1,1,0.5582300000 EISol=-11.6164441184 EHeat=0.0949133088 Alpha=2.3820330000
 DipHyp=1.0343984867
 GCore=0.0192970000,1.5130470000,1.5620930000
 GCore=0.0058890000,1.6294880000,2.3818730000
 ****
 
 Standard basis: VSTO-6G (5D, 7F)
 Ernie: Thresh=  0.10000D-02 Tol=  0.10000D-05 Strict=F.
  NNHCO=     0 NNPyr=     0 NCTC=     0               EPep=         0.000000000
    EC=        69.775919983  ECS=         2.077788597   EG=         0.337871437
   EHC=         0.000000000  EAt=       -31.051283842  AtH=         1.516354808
 EPDDG=         0.000000000  ECC=        72.191580017 EAtT=        32.567638650
 There are    24 symmetry adapted cartesian basis functions of A   symmetry.
 There are    24 symmetry adapted basis functions of A   symmetry.
    24 basis functions,   144 primitive gaussians,    24 cartesian basis functions
    13 alpha electrons       13 beta electrons
       nuclear repulsion energy       104.7592186673 Hartrees.
 IExCor=    0 DFT=F Ex=HF Corr=None ExCW=0 ScaHFX=  1.000000
 ScaDFX=  1.000000  1.000000  1.000000  1.000000 ScalE2=  1.000000  1.000000
 IRadAn=      0 IRanWt=     -1 IRanGd=            0 ICorTp=0 IEmpDi=  4
 Integral buffers will be    131072 words long.
 Regular integral format.
 Two-electron integral symmetry is turned off.
 Leave Link  301 at Tue Dec  1 17:37:51 2015, MaxMem=    33554432 cpu:         0.0
 (Enter /home/Applications/g09/g09/l302.exe)
 Do NDO integrals.
 NPDir=0 NMtPBC=     1 NCelOv=     1 NCel=       1 NClECP=     1 NCelD=      1
         NCelK=      1 NCelE2=     1 NClLst=     1 CellRange=     0.0.
 One-electron integrals computed using PRISM.
 NBasis=    24 RedAO= F EigKep=  0.00D+00  NBF=    24
 NBsUse=    24 1.00D-04 EigRej=  0.00D+00 NBFU=    24
 Leave Link  302 at Tue Dec  1 17:37:51 2015, MaxMem=    33554432 cpu:         0.0
 (Enter /home/Applications/g09/g09/l303.exe)
 DipDrv:  MaxL=1.
 Leave Link  303 at Tue Dec  1 17:37:51 2015, MaxMem=    33554432 cpu:         0.0
 (Enter /home/Applications/g09/g09/l401.exe)
 Initial guess from the checkpoint file:  "/home/Applications/g09/scratch/Gau-23892.chk"
 B after Tr=     0.000000    0.000000    0.000000
         Rot=    0.999996    0.000219   -0.000020   -0.002973 Ang=   0.34 deg.
 Guess basis will be translated and rotated to current coordinates.
 JPrj=0 DoOrth=T DoCkMO=T.
 Leave Link  401 at Tue Dec  1 17:37:51 2015, MaxMem=    33554432 cpu:         0.0
 (Enter /home/Applications/g09/g09/l502.exe)
 Closed shell SCF:
 Using DIIS extrapolation, IDIIS=  1040.
 Overlap will be assumed to be unity.
 Two-electron integral symmetry not used.
 Keep J ints in memory in canonical form, NReq=888082.
 IVT=       79475 IEndB=       79475 NGot=    33554432 MDV=    33473473
 LenX=    33473473 LenY=    33472456
 Requested convergence on RMS density matrix=1.00D-08 within 128 cycles.
 Requested convergence on MAX density matrix=1.00D-06.
 Requested convergence on             energy=1.00D-06.
 No special actions if energy rises.
 FoFCou: FMM=F IPFlag=           0 FMFlag=           0 FMFlg1=           0
         NFxFlg=           0 DoJE=F BraDBF=F KetDBF=F FulRan=T
         wScrn=  0.000000 ICntrl=     600 IOpCl=  2 I1Cent=           0 NGrid=           0
         NMat0=    1 NMatS0=     54 NMatT0=    0 NMatD0=    1 NMtDS0=    0 NMtDT0=    0
 Symmetry not used in FoFCou.

 Cycle   1  Pass 1  IDiag  1:
 E=  1.76423028080029    
 DIIS: error= 7.30D-03 at cycle   1 NSaved=   1.
 NSaved= 1 IEnMin= 1 EnMin=  1.76423028080029     IErMin= 1 ErrMin= 7.30D-03
 ErrMax= 7.30D-03  0.00D+00 EMaxC= 1.00D-01 BMatC= 2.91D-03 BMatP= 2.91D-03
 IDIUse=3 WtCom= 9.27D-01 WtEn= 7.30D-02
 Coeff-Com:  0.100D+01
 Coeff-En:   0.100D+01
 Coeff:      0.100D+01
 GapD=    2.000 DampG=2.000 DampE=1.000 DampFc=2.0000 IDamp=-1.
 RMSDP=2.84D-03 MaxDP=1.44D-02              OVMax= 0.00D+00

 Cycle   2  Pass 1  IDiag  3:
 E=  1.75811068783200     Delta-E=       -0.006119592968 Rises=F Damp=F
 DIIS: error= 1.93D-03 at cycle   2 NSaved=   2.
 NSaved= 2 IEnMin= 2 EnMin=  1.75811068783200     IErMin= 2 ErrMin= 1.93D-03
 ErrMax= 1.93D-03  0.00D+00 EMaxC= 1.00D-01 BMatC= 1.76D-04 BMatP= 2.91D-03
 IDIUse=3 WtCom= 9.81D-01 WtEn= 1.93D-02
 Coeff-Com: -0.259D+00 0.126D+01
 Coeff-En:   0.000D+00 0.100D+01
 Coeff:     -0.254D+00 0.125D+01
 Gap=     0.439 Goal=   None    Shift=    0.000
 RMSDP=1.02D-03 MaxDP=5.62D-03 DE=-6.12D-03 OVMax= 6.09D-03

 Cycle   3  Pass 1  IDiag  3:
 E=  1.75760117708556     Delta-E=       -0.000509510746 Rises=F Damp=F
 DIIS: error= 4.83D-04 at cycle   3 NSaved=   3.
 NSaved= 3 IEnMin= 3 EnMin=  1.75760117708556     IErMin= 3 ErrMin= 4.83D-04
 ErrMax= 4.83D-04  0.00D+00 EMaxC= 1.00D-01 BMatC= 7.62D-06 BMatP= 1.76D-04
 IDIUse=3 WtCom= 9.95D-01 WtEn= 4.83D-03
 Coeff-Com:  0.866D-01-0.494D+00 0.141D+01
 Coeff-En:   0.000D+00 0.000D+00 0.100D+01
 Coeff:      0.862D-01-0.492D+00 0.141D+01
 Gap=     0.439 Goal=   None    Shift=    0.000
 RMSDP=3.17D-04 MaxDP=2.52D-03 DE=-5.10D-04 OVMax= 2.41D-03

 Cycle   4  Pass 1  IDiag  3:
 E=  1.75756675518332     Delta-E=       -0.000034421902 Rises=F Damp=F
 DIIS: error= 1.17D-04 at cycle   4 NSaved=   4.
 NSaved= 4 IEnMin= 4 EnMin=  1.75756675518332     IErMin= 4 ErrMin= 1.17D-04
 ErrMax= 1.17D-04  0.00D+00 EMaxC= 1.00D-01 BMatC= 4.77D-07 BMatP= 7.62D-06
 IDIUse=3 WtCom= 9.99D-01 WtEn= 1.17D-03
 Coeff-Com: -0.101D-01 0.737D-01-0.420D+00 0.136D+01
 Coeff-En:   0.000D+00 0.000D+00 0.000D+00 0.100D+01
 Coeff:     -0.101D-01 0.737D-01-0.420D+00 0.136D+01
 Gap=     0.439 Goal=   None    Shift=    0.000
 RMSDP=9.60D-05 MaxDP=8.21D-04 DE=-3.44D-05 OVMax= 8.06D-04

 Cycle   5  Pass 1  IDiag  3:
 E=  1.75756422587439     Delta-E=       -0.000002529309 Rises=F Damp=F
 DIIS: error= 2.42D-05 at cycle   5 NSaved=   5.
 NSaved= 5 IEnMin= 5 EnMin=  1.75756422587439     IErMin= 5 ErrMin= 2.42D-05
 ErrMax= 2.42D-05  0.00D+00 EMaxC= 1.00D-01 BMatC= 2.50D-08 BMatP= 4.77D-07
 IDIUse=1 WtCom= 1.00D+00 WtEn= 0.00D+00
 Coeff-Com: -0.305D-02 0.137D-01 0.103D-01-0.342D+00 0.132D+01
 Coeff:     -0.305D-02 0.137D-01 0.103D-01-0.342D+00 0.132D+01
 Gap=     0.439 Goal=   None    Shift=    0.000
 RMSDP=2.21D-05 MaxDP=1.93D-04 DE=-2.53D-06 OVMax= 1.92D-04

 Cycle   6  Pass 1  IDiag  3:
 E=  1.75756410652305     Delta-E=       -0.000000119351 Rises=F Damp=F
 DIIS: error= 4.33D-06 at cycle   6 NSaved=   6.
 NSaved= 6 IEnMin= 6 EnMin=  1.75756410652305     IErMin= 6 ErrMin= 4.33D-06
 ErrMax= 4.33D-06  0.00D+00 EMaxC= 1.00D-01 BMatC= 1.04D-09 BMatP= 2.50D-08
 IDIUse=1 WtCom= 1.00D+00 WtEn= 0.00D+00
 Coeff-Com:  0.164D-02-0.865D-02 0.146D-01 0.879D-01-0.559D+00 0.146D+01
 Coeff:      0.164D-02-0.865D-02 0.146D-01 0.879D-01-0.559D+00 0.146D+01
 Gap=     0.439 Goal=   None    Shift=    0.000
 RMSDP=3.90D-06 MaxDP=2.56D-05 DE=-1.19D-07 OVMax= 2.42D-05

 Cycle   7  Pass 1  IDiag  3:
 E=  1.75756410186527     Delta-E=       -0.000000004658 Rises=F Damp=F
 DIIS: error= 8.85D-07 at cycle   7 NSaved=   7.
 NSaved= 7 IEnMin= 7 EnMin=  1.75756410186527     IErMin= 7 ErrMin= 8.85D-07
 ErrMax= 8.85D-07  0.00D+00 EMaxC= 1.00D-01 BMatC= 3.88D-11 BMatP= 1.04D-09
 IDIUse=1 WtCom= 1.00D+00 WtEn= 0.00D+00
 Coeff-Com: -0.566D-03 0.295D-02-0.518D-02-0.283D-01 0.187D+00-0.597D+00
 Coeff-Com:  0.144D+01
 Coeff:     -0.566D-03 0.295D-02-0.518D-02-0.283D-01 0.187D+00-0.597D+00
 Coeff:      0.144D+01
 Gap=     0.439 Goal=   None    Shift=    0.000
 RMSDP=9.16D-07 MaxDP=7.92D-06 DE=-4.66D-09 OVMax= 7.17D-06

 Cycle   8  Pass 1  IDiag  3:
 E=  1.75756410164945     Delta-E=       -0.000000000216 Rises=F Damp=F
 DIIS: error= 2.60D-07 at cycle   8 NSaved=   8.
 NSaved= 8 IEnMin= 8 EnMin=  1.75756410164945     IErMin= 8 ErrMin= 2.60D-07
 ErrMax= 2.60D-07  0.00D+00 EMaxC= 1.00D-01 BMatC= 1.95D-12 BMatP= 3.88D-11
 IDIUse=1 WtCom= 1.00D+00 WtEn= 0.00D+00
 Coeff-Com:  0.234D-03-0.122D-02 0.221D-02 0.106D-01-0.725D-01 0.237D+00
 Coeff-Com: -0.696D+00 0.152D+01
 Coeff:      0.234D-03-0.122D-02 0.221D-02 0.106D-01-0.725D-01 0.237D+00
 Coeff:     -0.696D+00 0.152D+01
 Gap=     0.439 Goal=   None    Shift=    0.000
 RMSDP=2.44D-07 MaxDP=2.08D-06 DE=-2.16D-10 OVMax= 2.29D-06

 Cycle   9  Pass 1  IDiag  3:
 E=  1.75756410163693     Delta-E=       -0.000000000013 Rises=F Damp=F
 DIIS: error= 5.22D-08 at cycle   9 NSaved=   9.
 NSaved= 9 IEnMin= 9 EnMin=  1.75756410163693     IErMin= 9 ErrMin= 5.22D-08
 ErrMax= 5.22D-08  0.00D+00 EMaxC= 1.00D-01 BMatC= 7.61D-14 BMatP= 1.95D-12
 IDIUse=1 WtCom= 1.00D+00 WtEn= 0.00D+00
 Coeff-Com: -0.675D-04 0.346D-03-0.614D-03-0.297D-02 0.201D-01-0.664D-01
 Coeff-Com:  0.218D+00-0.650D+00 0.148D+01
 Coeff:     -0.675D-04 0.346D-03-0.614D-03-0.297D-02 0.201D-01-0.664D-01
 Coeff:      0.218D+00-0.650D+00 0.148D+01
 Gap=     0.439 Goal=   None    Shift=    0.000
 RMSDP=5.05D-08 MaxDP=4.30D-07 DE=-1.25D-11 OVMax= 5.50D-07

 Cycle  10  Pass 1  IDiag  3:
 E=  1.75756410163669     Delta-E=        0.000000000000 Rises=F Damp=F
 DIIS: error= 5.59D-09 at cycle  10 NSaved=  10.
 NSaved=10 IEnMin=10 EnMin=  1.75756410163669     IErMin=10 ErrMin= 5.59D-09
 ErrMax= 5.59D-09  0.00D+00 EMaxC= 1.00D-01 BMatC= 1.53D-15 BMatP= 7.61D-14
 IDIUse=1 WtCom= 1.00D+00 WtEn= 0.00D+00
 Coeff-Com:  0.162D-04-0.816D-04 0.145D-03 0.654D-03-0.440D-02 0.144D-01
 Coeff-Com: -0.484D-01 0.156D+00-0.431D+00 0.131D+01
 Coeff:      0.162D-04-0.816D-04 0.145D-03 0.654D-03-0.440D-02 0.144D-01
 Coeff:     -0.484D-01 0.156D+00-0.431D+00 0.131D+01
 Gap=     0.439 Goal=   None    Shift=    0.000
 RMSDP=4.93D-09 MaxDP=3.79D-08 DE=-2.42D-13 OVMax= 5.74D-08

 Cycle  11  Pass 2  IDiag  1:
 SCF Done:  E(RAM1) =   1.75756410164     A.U. after   11 cycles
            NFock= 10  Conv=0.49D-08     -V/T= 1.1335
 KE=-1.316698843713D+01 PE=-1.731792684998D+02 EE= 8.334460237123D+01
 Leave Link  502 at Tue Dec  1 17:37:51 2015, MaxMem=    33554432 cpu:         0.0
 (Enter /home/Applications/g09/g09/l701.exe)
 Compute integral first derivatives.
 ... and contract with generalized density number  0.
 Leave Link  701 at Tue Dec  1 17:37:51 2015, MaxMem=    33554432 cpu:         0.0
 (Enter /home/Applications/g09/g09/l702.exe)
 L702 exits ... SP integral derivatives will be done elsewhere.
 Leave Link  702 at Tue Dec  1 17:37:51 2015, MaxMem=    33554432 cpu:         0.0
 (Enter /home/Applications/g09/g09/l703.exe)
 Compute integral first derivatives, UseDBF=F ICtDFT=           0.
 Integral derivatives from FoFJK, PRISM(SPDF).
 Calling FoFJK, ICntrl=      2127 FMM=F ISym2X=0 I1Cent= 0 IOpClX= 0 NMat=1 NMatS=1 NMatT=0.
 FoFJK:  IHMeth= 8 ICntrl=    2127 DoSepK=F KAlg= 0 I1Cent=   0 FoldK=F
 IRaf=         0 NMat=   1 IRICut=       1 DoRegI=T DoRafI=F ISym2E= 0.
 FoFCou: FMM=F IPFlag=           0 FMFlag=      100000 FMFlg1=         800
         NFxFlg=           0 DoJE=F BraDBF=F KetDBF=F FulRan=T
         wScrn=  0.000000 ICntrl=    2127 IOpCl=  0 I1Cent=           0 NGrid=           0
         NMat0=    1 NMatS0=      1 NMatT0=    0 NMatD0=    1 NMtDS0=    0 NMtDT0=    0
 Symmetry not used in FoFCou.
 Leave Link  703 at Tue Dec  1 17:37:51 2015, MaxMem=    33554432 cpu:         0.0
 (Enter /home/Applications/g09/g09/l716.exe)
 Dipole        = 4.29610433D-03 2.00370389D-01 2.74023569D-02
 ***** Axes restored to original set *****
 -------------------------------------------------------------------
 Center     Atomic                   Forces (Hartrees/Bohr)
 Number     Number              X              Y              Z
 -------------------------------------------------------------------
      1        6          -0.011633552    0.024164375    0.020003560
      2        6          -0.026845898    0.032479209   -0.022687540
      3        8           0.030701737   -0.020647198    0.002664294
      4        6          -0.002439644   -0.014175933   -0.001660980
      5        6          -0.011259207   -0.033402698    0.004522713
      6        1           0.004350558    0.003710602   -0.005253898
      7        1          -0.002730171    0.018759795    0.000866474
      8        1           0.006375104   -0.005579671    0.007230770
      9        1           0.013481073   -0.005308482   -0.005685393
 -------------------------------------------------------------------
 Cartesian Forces:  Max     0.033402698 RMS     0.016153310
 Leave Link  716 at Tue Dec  1 17:37:51 2015, MaxMem=    33554432 cpu:         0.0
 (Enter /home/Applications/g09/g09/l103.exe)

 GradGradGradGradGradGradGradGradGradGradGradGradGradGradGradGradGradGrad
 Berny optimization.
 Using GEDIIS/GDIIS optimizer.
 FormGI is forming the generalized inverse of G from B-inverse, IUseBI=4.
 Internal  Forces:  Max     0.028265618 RMS     0.008202652
 Search for a local minimum.
 Step number   2 out of a maximum of   48
 All quantities printed in internal units (Hartrees-Bohrs-Radians)
 RMS Force = .82027D-02 SwitMx=.10000D-02 MixMth= 1
 Mixed Optimization -- RFO/linear search
 Update second derivatives using D2CorX and points    1    2
 DE= -4.87D-02 DEPred=-6.36D-02 R= 7.66D-01
 TightC=F SS=  1.41D+00  RLast= 3.04D-01 DXNew= 5.0454D-01 9.1313D-01
 Trust test= 7.66D-01 RLast= 3.04D-01 DXMaxT set to 5.05D-01
 ITU=  1  0
 Use linear search instead of GDIIS.
     Eigenvalues ---    0.01545   0.01652   0.02014   0.02177   0.02343
     Eigenvalues ---    0.02451   0.15708   0.15755   0.15927   0.15981
     Eigenvalues ---    0.21970   0.22816   0.33931   0.36089   0.36725
     Eigenvalues ---    0.37884   0.38975   0.42000   0.44145   0.49111
     Eigenvalues ---    0.90605
 RFO step:  Lambda=-8.73477293D-03 EMin= 1.54543544D-02
 Quartic linear search produced a step of  0.14478.
 Iteration  1 RMS(Cart)=  0.03834676 RMS(Int)=  0.00449300
 Iteration  2 RMS(Cart)=  0.00262652 RMS(Int)=  0.00232843
 Iteration  3 RMS(Cart)=  0.00001534 RMS(Int)=  0.00232838
 Iteration  4 RMS(Cart)=  0.00000004 RMS(Int)=  0.00232838
 ITry= 1 IFail=0 DXMaxC= 1.13D-01 DCOld= 1.00D+10 DXMaxT= 5.05D-01 DXLimC= 3.00D+00 Rises=F
 Variable       Old X    -DE/DX   Delta X   Delta X   Delta X     New X
                                 (Linear)    (Quad)   (Total)
    R1        2.44737  -0.00247  -0.01742   0.02665   0.00991   2.45728
    R2        2.61018  -0.02565  -0.02421  -0.02703  -0.05089   2.55929
    R3        2.01027   0.01353   0.00105   0.03695   0.03800   2.04827
    R4        2.61291  -0.02827  -0.02210  -0.03922  -0.06112   2.55178
    R5        2.00752   0.00140  -0.00297   0.01069   0.00772   2.01524
    R6        2.56675  -0.00609  -0.01292   0.01199  -0.00160   2.56514
    R7        2.45028  -0.00392  -0.01618   0.02384   0.00712   2.45739
    R8        1.97521   0.01804   0.00333   0.04081   0.04414   2.01935
    R9        2.02483   0.00536  -0.00167   0.02009   0.01842   2.04325
    A1        1.90235  -0.00105   0.00082  -0.00653  -0.00941   1.89293
    A2        2.16456   0.00523   0.00172   0.03835   0.03529   2.19985
    A3        2.20661  -0.00350  -0.00205  -0.00975  -0.01648   2.19013
    A4        1.89566   0.00117   0.00037   0.00528   0.00179   1.89745
    A5        2.37212  -0.00743  -0.00189  -0.03279  -0.03956   2.33256
    A6        2.00353   0.00705   0.00204   0.05249   0.04956   2.05309
    A7        1.83038   0.00420   0.00048   0.01761   0.01728   1.84766
    A8        1.93561  -0.00817  -0.00379  -0.02612  -0.03118   1.90443
    A9        2.02509   0.00969   0.00415   0.04355   0.04822   2.07331
   A10        2.32231  -0.00154  -0.00037  -0.01774  -0.01750   2.30481
   A11        1.85947   0.00407   0.00230   0.01682   0.01836   1.87782
   A12        2.18192  -0.00149  -0.00134  -0.00279  -0.00432   2.17760
   A13        2.23867  -0.00247  -0.00089  -0.01033  -0.01143   2.22724
    D1        0.04892  -0.00401  -0.00272  -0.13739  -0.14040  -0.09148
    D2        3.00973   0.00295   0.00130   0.05793   0.05503   3.06476
    D3        3.04977   0.00050   0.00030   0.02083   0.02448   3.07425
    D4       -0.27261   0.00747   0.00432   0.21615   0.21991  -0.05269
    D5       -0.04572   0.00352   0.00229   0.11060   0.11195   0.06623
    D6        3.01677   0.00483   0.00303   0.15681   0.15872  -3.10769
    D7       -3.04230  -0.00203  -0.00127  -0.05732  -0.05704  -3.09934
    D8        0.02019  -0.00072  -0.00053  -0.01111  -0.01026   0.00993
    D9       -0.03349   0.00312   0.00214   0.11097   0.11438   0.08088
   D10       -3.03685  -0.00067  -0.00045  -0.02962  -0.03583  -3.07267
   D11        0.00452  -0.00079  -0.00061  -0.04139  -0.04401  -0.03949
   D12        3.12846  -0.00136  -0.00100  -0.05737  -0.06007   3.06839
   D13        0.02404  -0.00141  -0.00095  -0.03808  -0.03880  -0.01476
   D14       -3.03503  -0.00285  -0.00170  -0.08681  -0.08780  -3.12283
   D15       -3.09584  -0.00083  -0.00052  -0.01925  -0.02072  -3.11656
   D16        0.12828  -0.00227  -0.00127  -0.06798  -0.06972   0.05856
         Item               Value     Threshold  Converged?
 Maximum Force            0.028266     0.000450     NO 
 RMS     Force            0.008203     0.000300     NO 
 Maximum Displacement     0.112983     0.001800     NO 
 RMS     Displacement     0.038209     0.001200     NO 
 Predicted change in Energy=-6.534843D-03
 Lowest energy point so far.  Saving SCF results.
 GradGradGradGradGradGradGradGradGradGradGradGradGradGradGradGradGradGrad

 Leave Link  103 at Tue Dec  1 17:37:51 2015, MaxMem=    33554432 cpu:         0.0
 (Enter /home/Applications/g09/g09/l202.exe)
                          Input orientation:                          
 ---------------------------------------------------------------------
 Center     Atomic      Atomic             Coordinates (Angstroms)
 Number     Number       Type             X           Y           Z
 ---------------------------------------------------------------------
      1          6           0        0.905856   -0.672678    0.019205
      2          6           0       -0.329933   -1.075069   -0.023021
      3          8           0       -1.139225    0.004584    0.030153
      4          6           0       -0.318409    1.085332    0.001452
      5          6           0        0.917433    0.681112   -0.016743
      6          1           0        1.810846    1.290067   -0.024919
      7          1           0       -0.753032    2.060904   -0.033987
      8          1           0       -0.789785   -2.035777   -0.076209
      9          1           0        1.782869   -1.308723    0.052802
 ---------------------------------------------------------------------
                    Distance matrix (angstroms):
                    1          2          3          4          5
     1  C    0.000000
     2  C    1.300336   0.000000
     3  O    2.154335   1.350345   0.000000
     4  C    2.142368   2.160571   1.357416   0.000000
     5  C    1.354317   2.154097   2.165579   1.300397   0.000000
     6  H    2.161788   3.190111   3.218450   2.139239   1.081240
     7  H    3.198000   3.164405   2.093253   1.068593   2.166697
     8  H    2.177691   1.066421   2.072799   3.157460   3.209302
     9  H    1.083898   2.127035   3.203736   3.185830   2.171004
                    6          7          8          9
     6  H    0.000000
     7  H    2.677264   0.000000
     8  H    4.222222   4.097064   0.000000
     9  H    2.600103   4.218141   2.676527   0.000000
 Stoichiometry    C4H4O
 Framework group  C1[X(C4H4O)]
 Deg. of freedom    21
 Full point group                 C1      NOp   1
 RotChk:  IX=2 Diff= 3.28D-02
 Largest Abelian subgroup         C1      NOp   1
 Largest concise Abelian subgroup C1      NOp   1
                         Standard orientation:                         
 ---------------------------------------------------------------------
 Center     Atomic      Atomic             Coordinates (Angstroms)
 Number     Number       Type             X           Y           Z
 ---------------------------------------------------------------------
      1          6           0        0.600870    0.958340    0.020549
      2          6           0        1.102649   -0.240405   -0.025303
      3          8           0        0.092580   -1.135168    0.025614
      4          6           0       -1.051493   -0.405108   -0.000607
      5          6           0       -0.749369    0.859621   -0.015246
      6          1           0       -1.429132    1.700438   -0.020774
      7          1           0       -1.988398   -0.917709   -0.037223
      8          1           0        2.097630   -0.620253   -0.079911
      9          1           0        1.163315    1.884184    0.056638
 ---------------------------------------------------------------------
 Rotational constants (GHZ):      9.9827097      9.8732421      4.9674467
 Leave Link  202 at Tue Dec  1 17:37:51 2015, MaxMem=    33554432 cpu:         0.0
 (Enter /home/Applications/g09/g09/l301.exe)

 Semi-emprical parameters in input format:
 Method=8 CoreType=1 PeptideFC=0.0120930000 RIJScale=0.5388840000
 ****
 H       
 PQN=1 NValence=1 F0ss=0.5586300000 ZetaOverlap=1.0950750000 U=-0.4119510000
 Beta=-0.2338190000 CoreKO=1.1007910000 KON=0,0,0,0.9764370000 KON=1,0,1,1.1361190000
 KON=0,1,1,1.0139660000 KON=2,1,1,1.2635130000 EISol=-0.4188110042 EHeat=0.0830298228
 Alpha=1.4078420000
 GCore=0.0080140000,1.2229470000,2.2663690000
 GCore=0.0002960000,1.5853770000,2.7382840000
 GCore=-0.0012210000,0.6561060000,3.9519220000
 ****
 C       
 PQN=2,2 NValence=4 F0ss=0.4805700000 F0sp=0.4819370000 F0pp=0.3439950000 F2pp=0.1961420000
 G1sp=0.2678900000
 ZetaOverlap=1.8366850000,1.4875730000
 U=-1.4842670000,-1.3886060000
 Beta=-0.6376780000,-0.3536670000 DDN=0,1,0.9094820000 DDN=1,1,0.8346670000
 CoreKO=1.1045690000 KON=0,0,0,1.0182330000 KON=1,0,1,0.7342900000 KON=0,1,1,1.1944780000
 KON=2,1,1,0.7056720000 EISol=-4.4398989268 EHeat=0.2723305520 Alpha=1.4025920000
 DipHyp=1.8188593534
 GCore=0.0007870000,1.5590290000,2.8992300000
 GCore=0.0031100000,1.3744800000,3.7653660000
 GCore=-0.0013700000,1.3772400000,4.0631190000
 GCore=-0.0000820000,1.5210550000,5.3709760000
 ****
 O       
 PQN=2,2 NValence=6 F0ss=0.7455940000 F0sp=0.5814220000 F0pp=0.4393740000 F2pp=0.2294290000
 G1sp=0.3535640000
 ZetaOverlap=2.7714830000,2.5744810000
 U=-3.8069400000,-2.7329690000
 Beta=-1.1272460000,-1.1587550000 DDN=0,1,0.5172290000 DDN=1,1,0.4110560000
 CoreKO=0.8743200000 KON=0,0,0,0.8886000000 KON=1,0,1,0.5063100000 KON=0,1,1,0.8996480000
 KON=2,1,1,0.5582300000 EISol=-11.6164441184 EHeat=0.0949133088 Alpha=2.3820330000
 DipHyp=1.0343984867
 GCore=0.0192970000,1.5130470000,1.5620930000
 GCore=0.0058890000,1.6294880000,2.3818730000
 ****
 
 Standard basis: VSTO-6G (5D, 7F)
 Ernie: Thresh=  0.10000D-02 Tol=  0.10000D-05 Strict=F.
  NNHCO=     0 NNPyr=     0 NCTC=     0               EPep=         0.000000000
    EC=        69.988012886  ECS=         2.088607729   EG=         0.351106052
   EHC=         0.000000000  EAt=       -31.051283842  AtH=         1.516354808
 EPDDG=         0.000000000  ECC=        72.427726667 EAtT=        32.567638650
 There are    24 symmetry adapted cartesian basis functions of A   symmetry.
 There are    24 symmetry adapted basis functions of A   symmetry.
    24 basis functions,   144 primitive gaussians,    24 cartesian basis functions
    13 alpha electrons       13 beta electrons
       nuclear repulsion energy       104.9953653173 Hartrees.
 IExCor=    0 DFT=F Ex=HF Corr=None ExCW=0 ScaHFX=  1.000000
 ScaDFX=  1.000000  1.000000  1.000000  1.000000 ScalE2=  1.000000  1.000000
 IRadAn=      0 IRanWt=     -1 IRanGd=            0 ICorTp=0 IEmpDi=  4
 Integral buffers will be    131072 words long.
 Regular integral format.
 Two-electron integral symmetry is turned off.
 Leave Link  301 at Tue Dec  1 17:37:51 2015, MaxMem=    33554432 cpu:         0.0
 (Enter /home/Applications/g09/g09/l302.exe)
 Do NDO integrals.
 NPDir=0 NMtPBC=     1 NCelOv=     1 NCel=       1 NClECP=     1 NCelD=      1
         NCelK=      1 NCelE2=     1 NClLst=     1 CellRange=     0.0.
 One-electron integrals computed using PRISM.
 NBasis=    24 RedAO= F EigKep=  0.00D+00  NBF=    24
 NBsUse=    24 1.00D-04 EigRej=  0.00D+00 NBFU=    24
 Leave Link  302 at Tue Dec  1 17:37:51 2015, MaxMem=    33554432 cpu:         0.0
 (Enter /home/Applications/g09/g09/l303.exe)
 DipDrv:  MaxL=1.
 Leave Link  303 at Tue Dec  1 17:37:51 2015, MaxMem=    33554432 cpu:         0.0
 (Enter /home/Applications/g09/g09/l401.exe)
 Initial guess from the checkpoint file:  "/home/Applications/g09/scratch/Gau-23892.chk"
 B after Tr=     0.000000    0.000000    0.000000
         Rot=    0.999944    0.000057   -0.000004    0.010604 Ang=   1.22 deg.
 Guess basis will be translated and rotated to current coordinates.
 JPrj=0 DoOrth=T DoCkMO=T.
 Leave Link  401 at Tue Dec  1 17:37:51 2015, MaxMem=    33554432 cpu:         0.0
 (Enter /home/Applications/g09/g09/l502.exe)
 Closed shell SCF:
 Using DIIS extrapolation, IDIIS=  1040.
 Overlap will be assumed to be unity.
 Two-electron integral symmetry not used.
 Keep J ints in memory in canonical form, NReq=888082.
 IVT=       79475 IEndB=       79475 NGot=    33554432 MDV=    33473473
 LenX=    33473473 LenY=    33472456
 Requested convergence on RMS density matrix=1.00D-08 within 128 cycles.
 Requested convergence on MAX density matrix=1.00D-06.
 Requested convergence on             energy=1.00D-06.
 No special actions if energy rises.
 FoFCou: FMM=F IPFlag=           0 FMFlag=           0 FMFlg1=           0
         NFxFlg=           0 DoJE=F BraDBF=F KetDBF=F FulRan=T
         wScrn=  0.000000 ICntrl=     600 IOpCl=  2 I1Cent=           0 NGrid=           0
         NMat0=    1 NMatS0=     54 NMatT0=    0 NMatD0=    1 NMtDS0=    0 NMtDT0=    0
 Symmetry not used in FoFCou.

 Cycle   1  Pass 1  IDiag  1:
 E=  1.76267761694983    
 DIIS: error= 1.23D-02 at cycle   1 NSaved=   1.
 NSaved= 1 IEnMin= 1 EnMin=  1.76267761694983     IErMin= 1 ErrMin= 1.23D-02
 ErrMax= 1.23D-02  0.00D+00 EMaxC= 1.00D-01 BMatC= 3.55D-03 BMatP= 3.55D-03
 IDIUse=3 WtCom= 8.77D-01 WtEn= 1.23D-01
 Coeff-Com:  0.100D+01
 Coeff-En:   0.100D+01
 Coeff:      0.100D+01
 GapD=    2.000 DampG=2.000 DampE=0.500 DampFc=1.0000 IDamp=-1.
 RMSDP=3.34D-03 MaxDP=1.86D-02              OVMax= 0.00D+00

 Cycle   2  Pass 1  IDiag  3:
 E=  1.75446088286752     Delta-E=       -0.008216734082 Rises=F Damp=F
 DIIS: error= 3.16D-03 at cycle   2 NSaved=   2.
 NSaved= 2 IEnMin= 2 EnMin=  1.75446088286752     IErMin= 2 ErrMin= 3.16D-03
 ErrMax= 3.16D-03  0.00D+00 EMaxC= 1.00D-01 BMatC= 2.75D-04 BMatP= 3.55D-03
 IDIUse=3 WtCom= 9.68D-01 WtEn= 3.16D-02
 Coeff-Com: -0.337D+00 0.134D+01
 Coeff-En:   0.000D+00 0.100D+01
 Coeff:     -0.326D+00 0.133D+01
 Gap=     0.436 Goal=   None    Shift=    0.000
 RMSDP=1.54D-03 MaxDP=6.74D-03 DE=-8.22D-03 OVMax= 6.92D-03

 Cycle   3  Pass 1  IDiag  3:
 E=  1.75351921362237     Delta-E=       -0.000941669245 Rises=F Damp=F
 DIIS: error= 3.76D-04 at cycle   3 NSaved=   3.
 NSaved= 3 IEnMin= 3 EnMin=  1.75351921362237     IErMin= 3 ErrMin= 3.76D-04
 ErrMax= 3.76D-04  0.00D+00 EMaxC= 1.00D-01 BMatC= 8.88D-06 BMatP= 2.75D-04
 IDIUse=3 WtCom= 9.96D-01 WtEn= 3.76D-03
 Coeff-Com:  0.160D+00-0.714D+00 0.155D+01
 Coeff-En:   0.000D+00 0.000D+00 0.100D+01
 Coeff:      0.159D+00-0.712D+00 0.155D+01
 Gap=     0.435 Goal=   None    Shift=    0.000
 RMSDP=4.47D-04 MaxDP=1.94D-03 DE=-9.42D-04 OVMax= 2.59D-03

 Cycle   4  Pass 1  IDiag  3:
 E=  1.75347056209195     Delta-E=       -0.000048651530 Rises=F Damp=F
 DIIS: error= 5.73D-05 at cycle   4 NSaved=   4.
 NSaved= 4 IEnMin= 4 EnMin=  1.75347056209195     IErMin= 4 ErrMin= 5.73D-05
 ErrMax= 5.73D-05  0.00D+00 EMaxC= 1.00D-01 BMatC= 1.93D-07 BMatP= 8.88D-06
 IDIUse=1 WtCom= 1.00D+00 WtEn= 0.00D+00
 Coeff-Com: -0.383D-01 0.176D+00-0.468D+00 0.133D+01
 Coeff:     -0.383D-01 0.176D+00-0.468D+00 0.133D+01
 Gap=     0.436 Goal=   None    Shift=    0.000
 RMSDP=6.40D-05 MaxDP=4.41D-04 DE=-4.87D-05 OVMax= 3.88D-04

 Cycle   5  Pass 1  IDiag  3:
 E=  1.75346953428350     Delta-E=       -0.000001027808 Rises=F Damp=F
 DIIS: error= 1.44D-05 at cycle   5 NSaved=   5.
 NSaved= 5 IEnMin= 5 EnMin=  1.75346953428350     IErMin= 5 ErrMin= 1.44D-05
 ErrMax= 1.44D-05  0.00D+00 EMaxC= 1.00D-01 BMatC= 9.29D-09 BMatP= 1.93D-07
 IDIUse=1 WtCom= 1.00D+00 WtEn= 0.00D+00
 Coeff-Com:  0.695D-03-0.404D-02 0.273D-01-0.283D+00 0.126D+01
 Coeff:      0.695D-03-0.404D-02 0.273D-01-0.283D+00 0.126D+01
 Gap=     0.435 Goal=   None    Shift=    0.000
 RMSDP=1.32D-05 MaxDP=1.19D-04 DE=-1.03D-06 OVMax= 1.26D-04

 Cycle   6  Pass 1  IDiag  3:
 E=  1.75346948574968     Delta-E=       -0.000000048534 Rises=F Damp=F
 DIIS: error= 4.59D-06 at cycle   6 NSaved=   6.
 NSaved= 6 IEnMin= 6 EnMin=  1.75346948574968     IErMin= 6 ErrMin= 4.59D-06
 ErrMax= 4.59D-06  0.00D+00 EMaxC= 1.00D-01 BMatC= 8.15D-10 BMatP= 9.29D-09
 IDIUse=1 WtCom= 1.00D+00 WtEn= 0.00D+00
 Coeff-Com:  0.198D-02-0.878D-02 0.166D-01 0.469D-01-0.587D+00 0.153D+01
 Coeff:      0.198D-02-0.878D-02 0.166D-01 0.469D-01-0.587D+00 0.153D+01
 Gap=     0.435 Goal=   None    Shift=    0.000
 RMSDP=4.74D-06 MaxDP=4.38D-05 DE=-4.85D-08 OVMax= 5.24D-05

 Cycle   7  Pass 1  IDiag  3:
 E=  1.75346948095158     Delta-E=       -0.000000004798 Rises=F Damp=F
 DIIS: error= 8.53D-07 at cycle   7 NSaved=   7.
 NSaved= 7 IEnMin= 7 EnMin=  1.75346948095158     IErMin= 7 ErrMin= 8.53D-07
 ErrMax= 8.53D-07  0.00D+00 EMaxC= 1.00D-01 BMatC= 2.65D-11 BMatP= 8.15D-10
 IDIUse=1 WtCom= 1.00D+00 WtEn= 0.00D+00
 Coeff-Com: -0.710D-03 0.318D-02-0.682D-02-0.411D-02 0.146D+00-0.518D+00
 Coeff-Com:  0.138D+01
 Coeff:     -0.710D-03 0.318D-02-0.682D-02-0.411D-02 0.146D+00-0.518D+00
 Coeff:      0.138D+01
 Gap=     0.435 Goal=   None    Shift=    0.000
 RMSDP=8.34D-07 MaxDP=7.22D-06 DE=-4.80D-09 OVMax= 9.78D-06

 Cycle   8  Pass 1  IDiag  3:
 E=  1.75346948079815     Delta-E=       -0.000000000153 Rises=F Damp=F
 DIIS: error= 1.90D-07 at cycle   8 NSaved=   8.
 NSaved= 8 IEnMin= 8 EnMin=  1.75346948079815     IErMin= 8 ErrMin= 1.90D-07
 ErrMax= 1.90D-07  0.00D+00 EMaxC= 1.00D-01 BMatC= 1.19D-12 BMatP= 2.65D-11
 IDIUse=1 WtCom= 1.00D+00 WtEn= 0.00D+00
 Coeff-Com:  0.189D-03-0.850D-03 0.194D-02-0.778D-03-0.292D-01 0.126D+00
 Coeff-Com: -0.502D+00 0.140D+01
 Coeff:      0.189D-03-0.850D-03 0.194D-02-0.778D-03-0.292D-01 0.126D+00
 Coeff:     -0.502D+00 0.140D+01
 Gap=     0.435 Goal=   None    Shift=    0.000
 RMSDP=1.76D-07 MaxDP=1.73D-06 DE=-1.53D-10 OVMax= 1.98D-06

 Cycle   9  Pass 1  IDiag  3:
 E=  1.75346948079105     Delta-E=       -0.000000000007 Rises=F Damp=F
 DIIS: error= 4.18D-08 at cycle   9 NSaved=   9.
 NSaved= 9 IEnMin= 9 EnMin=  1.75346948079105     IErMin= 9 ErrMin= 4.18D-08
 ErrMax= 4.18D-08  0.00D+00 EMaxC= 1.00D-01 BMatC= 6.08D-14 BMatP= 1.19D-12
 IDIUse=1 WtCom= 1.00D+00 WtEn= 0.00D+00
 Coeff-Com: -0.442D-04 0.200D-03-0.466D-03 0.331D-03 0.643D-02-0.316D-01
 Coeff-Com:  0.155D+00-0.625D+00 0.150D+01
 Coeff:     -0.442D-04 0.200D-03-0.466D-03 0.331D-03 0.643D-02-0.316D-01
 Coeff:      0.155D+00-0.625D+00 0.150D+01
 Gap=     0.435 Goal=   None    Shift=    0.000
 RMSDP=4.28D-08 MaxDP=4.11D-07 DE=-7.09D-12 OVMax= 3.80D-07

 Cycle  10  Pass 1  IDiag  3:
 E=  1.75346948079098     Delta-E=        0.000000000000 Rises=F Damp=F
 DIIS: error= 5.37D-09 at cycle  10 NSaved=  10.
 NSaved=10 IEnMin=10 EnMin=  1.75346948079098     IErMin=10 ErrMin= 5.37D-09
 ErrMax= 5.37D-09  0.00D+00 EMaxC= 1.00D-01 BMatC= 1.44D-15 BMatP= 6.08D-14
 IDIUse=1 WtCom= 1.00D+00 WtEn= 0.00D+00
 Coeff-Com:  0.108D-04-0.490D-04 0.118D-03-0.150D-03-0.115D-02 0.721D-02
 Coeff-Com: -0.410D-01 0.187D+00-0.542D+00 0.139D+01
 Coeff:      0.108D-04-0.490D-04 0.118D-03-0.150D-03-0.115D-02 0.721D-02
 Coeff:     -0.410D-01 0.187D+00-0.542D+00 0.139D+01
 Gap=     0.435 Goal=   None    Shift=    0.000
 RMSDP=5.56D-09 MaxDP=3.88D-08 DE=-7.11D-14 OVMax= 5.36D-08

 Cycle  11  Pass 2  IDiag  1:
 SCF Done:  E(RAM1) =   1.75346948079     A.U. after   11 cycles
            NFock= 10  Conv=0.56D-08     -V/T= 1.1330
 KE=-1.318352596486D+01 PE=-1.735767320831D+02 EE= 8.351836221145D+01
 Leave Link  502 at Tue Dec  1 17:37:51 2015, MaxMem=    33554432 cpu:         0.0
 (Enter /home/Applications/g09/g09/l701.exe)
 Compute integral first derivatives.
 ... and contract with generalized density number  0.
 Leave Link  701 at Tue Dec  1 17:37:51 2015, MaxMem=    33554432 cpu:         0.0
 (Enter /home/Applications/g09/g09/l702.exe)
 L702 exits ... SP integral derivatives will be done elsewhere.
 Leave Link  702 at Tue Dec  1 17:37:51 2015, MaxMem=    33554432 cpu:         0.0
 (Enter /home/Applications/g09/g09/l703.exe)
 Compute integral first derivatives, UseDBF=F ICtDFT=           0.
 Integral derivatives from FoFJK, PRISM(SPDF).
 Calling FoFJK, ICntrl=      2127 FMM=F ISym2X=0 I1Cent= 0 IOpClX= 0 NMat=1 NMatS=1 NMatT=0.
 FoFJK:  IHMeth= 8 ICntrl=    2127 DoSepK=F KAlg= 0 I1Cent=   0 FoldK=F
 IRaf=         0 NMat=   1 IRICut=       1 DoRegI=T DoRafI=F ISym2E= 0.
 FoFCou: FMM=F IPFlag=           0 FMFlag=      100000 FMFlg1=         800
         NFxFlg=           0 DoJE=F BraDBF=F KetDBF=F FulRan=T
         wScrn=  0.000000 ICntrl=    2127 IOpCl=  0 I1Cent=           0 NGrid=           0
         NMat0=    1 NMatS0=      1 NMatT0=    0 NMatD0=    1 NMtDS0=    0 NMtDT0=    0
 Symmetry not used in FoFCou.
 Leave Link  703 at Tue Dec  1 17:37:51 2015, MaxMem=    33554432 cpu:         0.0
 (Enter /home/Applications/g09/g09/l716.exe)
 Dipole        =-5.52967892D-03 1.75291775D-01-1.81567225D-02
 ***** Axes restored to original set *****
 -------------------------------------------------------------------
 Center     Atomic                   Forces (Hartrees/Bohr)
 Number     Number              X              Y              Z
 -------------------------------------------------------------------
      1        6           0.000144369   -0.011727621   -0.011257851
      2        6          -0.000041049   -0.000776242    0.012442655
      3        8          -0.000312136    0.009278141   -0.010402426
      4        6          -0.001414350   -0.001500799   -0.001158950
      5        6          -0.004179645    0.005845173    0.009010021
      6        1          -0.000338555    0.001232261   -0.000776458
      7        1           0.002154723   -0.001878026    0.001826447
      8        1           0.004196162   -0.001396903    0.001671027
      9        1          -0.000209518    0.000924015   -0.001354465
 -------------------------------------------------------------------
 Cartesian Forces:  Max     0.012442655 RMS     0.005413803
 Leave Link  716 at Tue Dec  1 17:37:51 2015, MaxMem=    33554432 cpu:         0.0
 (Enter /home/Applications/g09/g09/l103.exe)

 GradGradGradGradGradGradGradGradGradGradGradGradGradGradGradGradGradGrad
 Berny optimization.
 Using GEDIIS/GDIIS optimizer.
 FormGI is forming the generalized inverse of G from B-inverse, IUseBI=4.
 Internal  Forces:  Max     0.006541603 RMS     0.002909110
 Search for a local minimum.
 Step number   3 out of a maximum of   48
 All quantities printed in internal units (Hartrees-Bohrs-Radians)
 RMS Force = .29091D-02 SwitMx=.10000D-02 MixMth= 1
 Mixed Optimization -- RFO/linear search
 Update second derivatives using D2CorX and points    1    2    3
 DE= -4.09D-03 DEPred=-6.53D-03 R= 6.27D-01
 TightC=F SS=  1.41D+00  RLast= 4.09D-01 DXNew= 8.4853D-01 1.2278D+00
 Trust test= 6.27D-01 RLast= 4.09D-01 DXMaxT set to 8.49D-01
 ITU=  1  1  0
 Use linear search instead of GDIIS.
     Eigenvalues ---    0.01557   0.01742   0.01923   0.02188   0.02403
     Eigenvalues ---    0.03521   0.14089   0.15985   0.15993   0.16075
     Eigenvalues ---    0.21567   0.22849   0.33829   0.36006   0.36865
     Eigenvalues ---    0.37980   0.40981   0.42472   0.44835   0.49029
     Eigenvalues ---    0.84809
 RFO step:  Lambda=-4.03166214D-03 EMin= 1.55687945D-02
 Quartic linear search produced a step of -0.20244.
 Iteration  1 RMS(Cart)=  0.05197217 RMS(Int)=  0.00290152
 Iteration  2 RMS(Cart)=  0.00267985 RMS(Int)=  0.00163469
 Iteration  3 RMS(Cart)=  0.00000337 RMS(Int)=  0.00163469
 Iteration  4 RMS(Cart)=  0.00000000 RMS(Int)=  0.00163469
 ITry= 1 IFail=0 DXMaxC= 1.74D-01 DCOld= 1.00D+10 DXMaxT= 8.49D-01 DXLimC= 3.00D+00 Rises=F
 Variable       Old X    -DE/DX   Delta X   Delta X   Delta X     New X
                                 (Linear)    (Quad)   (Total)
    R1        2.45728  -0.00309  -0.00201  -0.00646  -0.00967   2.44761
    R2        2.55929   0.00641   0.01030  -0.02697  -0.01665   2.54264
    R3        2.04827  -0.00075  -0.00769   0.02060   0.01291   2.06118
    R4        2.55178   0.00635   0.01237  -0.03153  -0.01990   2.53188
    R5        2.01524  -0.00063  -0.00156   0.00149  -0.00007   2.01517
    R6        2.56514  -0.00370   0.00032  -0.01482  -0.01377   2.55138
    R7        2.45739  -0.00300  -0.00144  -0.00922  -0.00947   2.44793
    R8        2.01935  -0.00265  -0.00894   0.02178   0.01285   2.03219
    R9        2.04325   0.00042  -0.00373   0.01055   0.00682   2.05007
    A1        1.89293  -0.00218   0.00191  -0.00772  -0.00947   1.88347
    A2        2.19985   0.00175  -0.00714   0.02306   0.01797   2.21783
    A3        2.19013   0.00051   0.00334  -0.01458  -0.00911   2.18102
    A4        1.89745   0.00026  -0.00036   0.00753   0.00290   1.90035
    A5        2.33256  -0.00451   0.00801  -0.05185  -0.04132   2.29125
    A6        2.05309   0.00429  -0.01003   0.04474   0.03704   2.09013
    A7        1.84766   0.00033  -0.00350   0.01448   0.00677   1.85443
    A8        1.90443   0.00067   0.00631  -0.01794  -0.01273   1.89170
    A9        2.07331   0.00086  -0.00976   0.03483   0.02565   2.09896
   A10        2.30481  -0.00153   0.00354  -0.01716  -0.01308   2.29173
   A11        1.87782   0.00154  -0.00372   0.01884   0.01241   1.89024
   A12        2.17760   0.00046   0.00087  -0.00019   0.00051   2.17811
   A13        2.22724  -0.00193   0.00231  -0.01577  -0.01357   2.21368
    D1       -0.09148   0.00654   0.02842   0.15290   0.18087   0.08939
    D2        3.06476   0.00214  -0.01114   0.11598   0.10650  -3.11192
    D3        3.07425   0.00316  -0.00496   0.11993   0.11331  -3.09562
    D4       -0.05269  -0.00124  -0.04452   0.08300   0.03894  -0.01375
    D5        0.06623  -0.00470  -0.02266  -0.10035  -0.12253  -0.05631
    D6       -3.10769  -0.00239  -0.03213  -0.01040  -0.04144   3.13405
    D7       -3.09934  -0.00132   0.01155  -0.06696  -0.05629   3.12756
    D8        0.00993   0.00099   0.00208   0.02299   0.02480   0.03473
    D9        0.08088  -0.00543  -0.02315  -0.14413  -0.16866  -0.08778
   D10       -3.07267  -0.00191   0.00725  -0.11485  -0.10501   3.10551
   D11       -0.03949   0.00261   0.00891   0.08194   0.09165   0.05216
[...]
     38 -0.650327D-05  0.278462D-05  0.122572D-05  0.624978D-05 -0.692979D-05
               16            17            18            19            20 
     16  0.133617D+00
     17 -0.560540D-01  0.112128D+00
     18  0.270850D-01 -0.617650D-01  0.945787D-01
     19  0.289691D-01 -0.503626D-01 -0.328138D-01  0.831764D-01
     20 -0.107585D-01 -0.258098D-01  0.193144D-01  0.649539D-02  0.938242D-01
     21  0.965656D-02  0.148932D-01 -0.959769D-02 -0.529546D-02 -0.470707D-01
     22  0.110195D-02  0.109166D-01 -0.971667D-02 -0.119992D-02 -0.467534D-01
     23 -0.227238D-04  0.317101D-05  0.332710D-05 -0.737039D-05  0.205087D-04
     24  0.000000D+00  0.157636D-04 -0.617625D-05 -0.764181D-05  0.145517D-04
     25 -0.967054D-05 -0.194996D-04  0.132604D-04  0.358722D-05  0.517458D-05
     26  0.129713D-04 -0.690701D-05  0.375709D-05  0.331580D-05  0.000000D+00
     27  0.885828D-05 -0.169743D-04  0.106074D-04  0.352222D-05 -0.959118D-05
     28  0.117522D-04 -0.209104D-04  0.897770D-05  0.980586D-05  0.000000D+00
     29  0.393018D-05 -0.296588D-05  0.434299D-05 -0.247846D-05  0.000000D+00
     30  0.682414D-05 -0.690196D-05  0.271331D-05  0.380518D-05  0.938273D-05
     31  0.488578D-05  0.161976D-04 -0.118016D-04  0.000000D+00 -0.177784D-05
     32 -0.460348D-05  0.109389D-04 -0.541200D-05 -0.387755D-05  0.212021D-05
     33  0.280649D-05  0.969349D-05  0.000000D+00 -0.149786D-04 -0.180716D-04
     34  0.145942D-04  0.000000D+00 -0.190921D-04  0.212484D-04 -0.169719D-04
     35  0.226923D-04 -0.156811D-04  0.637801D-05  0.147394D-04  0.304429D-05
     36  0.146542D-04 -0.136279D-04  0.760269D-05  0.107282D-04 -0.778158D-05
     37  0.125138D-04 -0.770483D-05  0.000000D+00  0.406011D-05  0.000000D+00
     38  0.447567D-05 -0.565167D-05  0.000000D+00  0.000000D+00 -0.108232D-04
               21            22            23            24            25 
     21  0.739116D-01
     22 -0.268409D-01  0.735943D-01
     23 -0.141020D-04  0.160849D-05  0.228215D-01
     24 -0.100479D-05 -0.106013D-04  0.325143D-02  0.172866D-01
     25 -0.146146D-04  0.135480D-04  0.917151D-02 -0.775551D-02  0.154801D-01
     26 -0.151740D-05  0.133822D-05 -0.103985D-01  0.627963D-02 -0.144688D-02
     27  0.616369D-05 -0.829940D-05 -0.178003D-01 -0.755717D-02 -0.297906D-02
     28 -0.288445D-04  0.331275D-04 -0.788004D-02 -0.391146D-02  0.210531D-02
     29  0.112897D-04 -0.195247D-04 -0.442930D-02  0.322479D-02 -0.915866D-02
     30 -0.237185D-04  0.219023D-04  0.549097D-02  0.687049D-02 -0.407430D-02
     31  0.738042D-05 -0.712208D-05 -0.191128D-01  0.203950D-02 -0.116406D-01
     32 -0.212698D-05  0.284950D-05 -0.227346D-02 -0.100372D-01  0.292446D-02
     33  0.597187D-05  0.618562D-05  0.783202D-02 -0.683044D-02  0.975406D-02
     34 -0.544379D-05  0.182985D-04  0.512959D-02 -0.802872D-03  0.153801D-02
     35  0.144631D-05  0.630909D-05  0.573818D-02  0.887342D-02 -0.439158D-02
     36 -0.241576D-04  0.269407D-04 -0.439521D-02  0.514939D-02 -0.958516D-02
     37  0.149598D-04 -0.625021D-05  0.887728D-02  0.187187D-02  0.515209D-02
     38 -0.106441D-04  0.143814D-04 -0.125610D-02 -0.185216D-02 -0.414882D-04
               26            27            28            29            30 
     26  0.152313D-01
     27  0.726409D-02  0.221879D-01
     28  0.607389D-02  0.767381D-02  0.123016D-01
     29 -0.150457D-02  0.766952D-02 -0.210751D-02  0.123023D-01
     30 -0.269477D-02 -0.684457D-02  0.252025D-02  0.252528D-02  0.118901D-01
     31  0.951167D-02  0.703126D-02  0.515061D-02 -0.288193D-03 -0.216884D-02
     32 -0.483928D-02 -0.178260D-02  0.173578D-02 -0.687425D-02 -0.335587D-02
     33 -0.490840D-02  0.703285D-02 -0.286906D-03  0.515007D-02 -0.216969D-02
     34 -0.439446D-02 -0.178025D-02 -0.687590D-02  0.173795D-02 -0.335770D-02
     35 -0.125634D-02 -0.177986D-01 -0.443210D-02 -0.787584D-02  0.549067D-02
     36 -0.405648D-04 -0.297272D-02 -0.915924D-02  0.211121D-02 -0.407531D-02
     37 -0.185332D-02 -0.756142D-02  0.322161D-02 -0.391237D-02  0.687066D-02
     38 -0.637548D-03  0.726447D-02 -0.150553D-02  0.607469D-02 -0.269532D-02
               31            32            33            34            35 
     31  0.234776D-01
     32  0.527677D-02  0.119573D-01
     33 -0.190242D-01 -0.640764D-02  0.234855D-01
     34 -0.640238D-02 -0.129769D-02  0.527490D-02  0.119649D-01
     35  0.783119D-02  0.513341D-02 -0.191153D-01 -0.227318D-02  0.228182D-01
     36  0.975223D-02  0.153944D-02 -0.116383D-01  0.293196D-02  0.916452D-02
     37 -0.683016D-02 -0.802255D-03  0.203797D-02 -0.100442D-01  0.325459D-02
     38 -0.490912D-02 -0.439622D-02  0.951498D-02 -0.483904D-02 -0.103991D-01
               36            37            38 
     36  0.154840D-01
     37 -0.776011D-02  0.172891D-01
     38 -0.144065D-02  0.627439D-02  0.152328D-01
 Leave Link  716 at Tue Dec  1 17:37:53 2015, MaxMem=    33554432 cpu:         0.0
 (Enter /home/Applications/g09/g09/l103.exe)

 GradGradGradGradGradGradGradGradGradGradGradGradGradGradGradGradGradGrad
 Berny optimization.
 Red2BG is reusing G-inverse.
 Internal  Forces:  Max     0.000155968 RMS     0.000048110
 Search for a local minimum.
 Step number   1 out of a maximum of    2
 All quantities printed in internal units (Hartrees-Bohrs-Radians)
 Second derivative matrix not updated -- analytic derivatives used.
 ITU=  0
     Eigenvalues ---    0.01639   0.02070   0.03753   0.04041   0.07368
     Eigenvalues ---    0.08250   0.09709   0.09911   0.11460   0.11682
     Eigenvalues ---    0.16702   0.24984   0.37611   0.38142   0.40485
     Eigenvalues ---    0.41274   0.61518   0.62102   0.66480   0.78789
     Eigenvalues ---    1.04166
 Angle between quadratic step and forces=  56.36 degrees.
 Linear search not attempted -- first point.
 Iteration  1 RMS(Cart)=  0.00038227 RMS(Int)=  0.00000027
 Iteration  2 RMS(Cart)=  0.00000021 RMS(Int)=  0.00000015
 ITry= 1 IFail=0 DXMaxC= 1.02D-03 DCOld= 1.00D+10 DXMaxT= 3.00D-01 DXLimC= 3.00D+00 Rises=F
 Variable       Old X    -DE/DX   Delta X   Delta X   Delta X     New X
                                 (Linear)    (Quad)   (Total)
    R1        2.45425   0.00001   0.00000  -0.00002  -0.00002   2.45423
    R2        2.56900   0.00011   0.00000   0.00013   0.00013   2.56912
    R3        2.04474   0.00005   0.00000   0.00009   0.00009   2.04483
    R4        2.55819   0.00016   0.00000   0.00019   0.00019   2.55838
    R5        2.01346  -0.00005   0.00000  -0.00011  -0.00011   2.01335
    R6        2.55845  -0.00004   0.00000  -0.00007  -0.00007   2.55838
    R7        2.45410   0.00013   0.00000   0.00014   0.00014   2.45423
    R8        2.01333   0.00001   0.00000   0.00002   0.00002   2.01335
    R9        2.04473   0.00004   0.00000   0.00010   0.00010   2.04483
    A1        1.88420  -0.00005   0.00000  -0.00020  -0.00020   1.88399
    A2        2.21369   0.00003   0.00000   0.00020   0.00020   2.21389
    A3        2.18530   0.00002   0.00000   0.00001   0.00001   2.18531
    A4        1.90482   0.00004   0.00000   0.00017   0.00017   1.90500
    A5        2.29421  -0.00005   0.00000  -0.00035  -0.00035   2.29386
    A6        2.08415   0.00001   0.00000   0.00018   0.00018   2.08433
    A7        1.84687  -0.00001   0.00000  -0.00007  -0.00007   1.84680
    A8        1.90503   0.00000   0.00000  -0.00003  -0.00003   1.90500
    A9        2.08437  -0.00001   0.00000  -0.00004  -0.00004   2.08433
   A10        2.29379   0.00001   0.00000   0.00007   0.00007   2.29386
   A11        1.88386   0.00002   0.00000   0.00013   0.00013   1.88399
   A12        2.18505   0.00002   0.00000   0.00025   0.00025   2.18531
   A13        2.21427  -0.00004   0.00000  -0.00038  -0.00038   2.21389
    D1        0.00000   0.00000   0.00000   0.00000   0.00000   0.00000
    D2       -3.14046  -0.00004   0.00000  -0.00113  -0.00113   3.14159
    D3        3.14025   0.00005   0.00000   0.00134   0.00134  -3.14159
    D4       -0.00021   0.00000   0.00000   0.00021   0.00021   0.00000
    D5        0.00030  -0.00002   0.00000  -0.00030  -0.00030   0.00000
    D6        3.14106   0.00002   0.00000   0.00053   0.00053  -3.14159
    D7       -3.13998  -0.00006   0.00000  -0.00161  -0.00161   3.14159
    D8        0.00078  -0.00002   0.00000  -0.00078  -0.00078   0.00000
    D9       -0.00028   0.00001   0.00000   0.00028   0.00028   0.00000
   D10        3.14034   0.00005   0.00000   0.00125   0.00125   3.14159
   D11        0.00047  -0.00003   0.00000  -0.00047  -0.00047   0.00000
   D12       -3.14141  -0.00001   0.00000  -0.00018  -0.00018  -3.14159
   D13       -0.00048   0.00003   0.00000   0.00048   0.00048   0.00000
   D14       -3.14122  -0.00001   0.00000  -0.00037  -0.00037   3.14159
   D15        3.14146   0.00001   0.00000   0.00014   0.00014   3.14159
   D16        0.00071  -0.00003   0.00000  -0.00071  -0.00071   0.00000
         Item               Value     Threshold  Converged?
 Maximum Force            0.000156     0.000450     YES
 RMS     Force            0.000048     0.000300     YES
 Maximum Displacement     0.001025     0.001800     YES
 RMS     Displacement     0.000382     0.001200     YES
 Predicted change in Energy=-2.609492D-07
 Optimization completed.
    -- Stationary point found.
                           ----------------------------
                           !   Optimized Parameters   !
                           ! (Angstroms and Degrees)  !
 --------------------------                            --------------------------
 ! Name  Definition              Value          Derivative Info.                !
 --------------------------------------------------------------------------------
 ! R1    R(1,2)                  1.2987         -DE/DX =    0.0                 !
 ! R2    R(1,5)                  1.3595         -DE/DX =    0.0001              !
 ! R3    R(1,9)                  1.082          -DE/DX =    0.0                 !
 ! R4    R(2,3)                  1.3537         -DE/DX =    0.0002              !
 ! R5    R(2,8)                  1.0655         -DE/DX =    0.0                 !
 ! R6    R(3,4)                  1.3539         -DE/DX =    0.0                 !
 ! R7    R(4,5)                  1.2987         -DE/DX =    0.0001              !
 ! R8    R(4,7)                  1.0654         -DE/DX =    0.0                 !
 ! R9    R(5,6)                  1.082          -DE/DX =    0.0                 !
 ! A1    A(2,1,5)              107.9565         -DE/DX =    0.0                 !
 ! A2    A(2,1,9)              126.8352         -DE/DX =    0.0                 !
 ! A3    A(5,1,9)              125.2083         -DE/DX =    0.0                 !
 ! A4    A(1,2,3)              109.1384         -DE/DX =    0.0                 !
 ! A5    A(1,2,8)              131.4484         -DE/DX =   -0.0001              !
 ! A6    A(3,2,8)              119.4132         -DE/DX =    0.0                 !
 ! A7    A(2,3,4)              105.8178         -DE/DX =    0.0                 !
 ! A8    A(3,4,5)              109.1501         -DE/DX =    0.0                 !
 ! A9    A(3,4,7)              119.4256         -DE/DX =    0.0                 !
 ! A10   A(5,4,7)              131.4243         -DE/DX =    0.0                 !
 ! A11   A(1,5,4)              107.9373         -DE/DX =    0.0                 !
 ! A12   A(1,5,6)              125.1943         -DE/DX =    0.0                 !
 ! A13   A(4,5,6)              126.8684         -DE/DX =    0.0                 !
 ! D1    D(5,1,2,3)              0.0001         -DE/DX =    0.0                 !
 ! D2    D(5,1,2,8)            180.0646         -DE/DX =    0.0                 !
 ! D3    D(9,1,2,3)           -180.0766         -DE/DX =    0.0                 !
 ! D4    D(9,1,2,8)             -0.0121         -DE/DX =    0.0                 !
 ! D5    D(2,1,5,4)              0.017          -DE/DX =    0.0                 !
 ! D6    D(2,1,5,6)           -180.0306         -DE/DX =    0.0                 !
 ! D7    D(9,1,5,4)            180.0922         -DE/DX =   -0.0001              !
 ! D8    D(9,1,5,6)              0.0446         -DE/DX =    0.0                 !
 ! D9    D(1,2,3,4)             -0.0163         -DE/DX =    0.0                 !
 ! D10   D(8,2,3,4)            179.9282         -DE/DX =    0.0001              !
 ! D11   D(2,3,4,5)              0.0271         -DE/DX =    0.0                 !
 ! D12   D(2,3,4,7)           -179.9898         -DE/DX =    0.0                 !
 ! D13   D(3,4,5,1)             -0.0274         -DE/DX =    0.0                 !
 ! D14   D(3,4,5,6)            180.0213         -DE/DX =    0.0                 !
 ! D15   D(7,4,5,1)            179.9922         -DE/DX =    0.0                 !
 ! D16   D(7,4,5,6)              0.0409         -DE/DX =    0.0                 !
 --------------------------------------------------------------------------------
 GradGradGradGradGradGradGradGradGradGradGradGradGradGradGradGradGradGrad

 Leave Link  103 at Tue Dec  1 17:37:53 2015, MaxMem=    33554432 cpu:         0.0
 (Enter /home/Applications/g09/g09/l9999.exe)
 1\1\GINC-DUSTIN-DESKTOP\Freq\RAM1\ZDO\C4H4O1\DUSTIN\01-Dec-2015\0\\#P 
 Geom=AllCheck Guess=TCheck SCRF=Check GenChk RAM1/ZDO Freq\\AM1-Repara
 m Input\\0,1\C,0.9016025912,-0.6813770234,0.0003102449\C,-0.3367970853
 ,-1.0723548397,-0.0142475753\O,-1.1449724655,0.0136170118,-0.024865084
 4\C,-0.3203998468,1.0873812996,-0.0154787097\C,0.9119614459,0.67803717
 58,-0.0006948777\H,1.8008503506,1.2949151416,0.0099478469\H,-0.7375235
 702,2.067723442,-0.0210713958\H,-0.7689315144,-2.0462580337,-0.0177303
 645\H,1.7808310946,-1.3119331738,0.0125609155\\Version=ES64L-G09RevD.0
 1\State=1-A\HF=1.7520188\RMSD=3.833e-10\RMSF=7.185e-05\ZeroPoint=0.078
 7222\Thermal=0.0821464\Dipole=0.1735154,-0.0014464,0.0021611\DipoleDer
 iv=-0.5399736,0.3215392,-0.0059608,0.1352489,-0.2499004,0.0019505,-0.0
 053282,0.0044172,-0.1203176,0.6210102,-0.1821354,0.0038471,-0.3542926,
 -0.0475899,-0.0037553,0.003573,-0.0018533,0.3540919,-0.614974,0.004263
 ,-0.0032256,0.0045723,-0.0353216,0.0000372,-0.0034686,-0.0002308,-0.34
 44031,0.6287386,0.1719356,0.0032743,0.3438542,-0.0555773,0.004215,0.00
 32173,0.0025552,0.3539375,-0.5467025,-0.3171399,-0.005002,-0.1306645,-
 0.2428005,-0.0016098,-0.0050923,-0.0040664,-0.1201906,0.2097464,0.1171
 93,0.002346,0.1085694,0.1739564,0.0012423,0.0023741,0.001439,0.0108772
 ,0.0167161,-0.0719072,0.0011002,-0.0884658,0.1411328,-0.0012096,0.0011
 082,-0.0010375,-0.0724419,0.0192113,0.0738858,0.0009804,0.0903106,0.13
 86024,0.0007208,0.0009526,0.0005807,-0.072488,0.2062275,-0.117634,0.00
 26403,-0.109134,0.1774958,-0.001591,0.0026641,-0.0018042,0.0109355\Pol
 ar=36.4991542,-0.0023889,35.606491,0.3627921,-0.023488,6.3901653\Hyper
 Polar=2.4526527,-0.2397953,-13.159838,0.3073205,-0.0808898,-0.0012618,
 -0.1511398,4.237565,-0.0292915,0.1536508\PG=C01 [X(C4H4O1)]\NImag=0\\1
 .13758379,0.01672269,0.92632428,0.01107277,-0.00052956,0.23163738,-0.6
 9916227,-0.14322151,-0.00681680,1.05840577,-0.24463199,-0.14844650,-0.
 00292158,0.11141505,0.95041327,-0.00672264,-0.00168408,-0.12175998,0.0
 0961561,0.00055989,0.24334285,-0.11639247,0.01613493,-0.00178343,-0.23
 444031,0.26155807,-0.00170813,0.70151069,0.07317478,0.00662068,0.00088
 605,0.21123890,-0.39185351,0.00279480,0.00096177,0.86065220,-0.0018463
 0,0.00017676,0.03085956,-0.00163958,0.00337307,-0.11021320,0.00697929,
 -0.00050485,0.12651913,0.01183219,0.08716107,-0.00002213,-0.00139578,-
 0.01216771,-0.00033791,-0.24148188,-0.21327273,-0.00144692,1.05516403,
 0.01157406,-0.02352064,0.00016785,0.01063217,-0.10306346,0.00020623,-0
 .26358716,-0.38441615,-0.00303289,-0.11319262,0.95351129,0.00005002,0.
 00109407,0.00910254,-0.00036914,-0.00004209,0.02571625,-0.00141992,-0.
 00245246,-0.11025806,0.00970012,-0.00171582,0.24332190,-0.08249429,-0.
 06119511,0.00045010,0.01029221,-0.01212488,0.00003491,-0.11766567,-0.0
 7129732,-0.00174143,-0.69355354,0.25284867,-0.00688294,1.13750518,0.05
 358655,-0.58137202,0.00104025,-0.08768314,-0.02208019,-0.00105200,-0.0
 1425975,0.00793094,-0.00011804,0.15140547,-0.15433521,0.00176044,-0.01
 980650,0.92677854,0.00034984,-0.00034974,-0.11583451,0.00010763,-0.000
 13421,0.00910424,-0.00178482,-0.00082275,0.03084476,-0.00681548,0.0030
 0197,-0.12171213,0.01081035,-0.00070386,0.23160144,-0.00159919,-0.0152
 1435,-0.00009328,0.00000639,-0.00169692,-0.00008204,-0.00371164,-0.000
 36976,-0.00014150,-0.04004622,-0.01163359,-0.00052993,-0.22842527,-0.1
 2925210,-0.00203077,0.27611893,-0.02441779,-0.02890770,-0.00027409,-0.
 00151237,-0.00439142,-0.00001045,0.00139564,0.00041434,0.00001970,-0.0
 0310292,0.00897928,-0.00004005,-0.12953764,-0.13056658,-0.00155965,0.1
 5773602,0.15721457,-0.00008598,-0.00016258,0.00673969,-0.00008478,-0.0
 0001087,0.00688804,-0.00014255,-0.00000274,0.00799275,-0.00053960,-0.0
 0014449,0.00469361,-0.00202311,-0.00155144,-0.05869560,0.00288874,0.00
 186700,0.03364023,-0.00313725,0.00180498,-0.00017315,0.00116811,-0.001
 96302,-0.00005413,0.00778515,-0.02055498,0.00000585,-0.09175279,0.1098
 6981,-0.00040290,-0.02146624,0.03301472,-0.00035108,-0.00249921,-0.000
 11226,-0.00003229,0.11061386,0.00199333,-0.00187131,0.00002950,0.00091
 001,-0.00551982,0.00001794,-0.00252090,-0.04970420,-0.00000140,0.10273
 418,-0.28718060,0.00136641,0.01909354,-0.01504258,0.00023814,0.0011620
 5,0.00017657,0.00001428,-0.12328009,0.36012468,-0.00017766,0.00002924,
 0.01132860,-0.00005437,-0.00001632,0.00591872,-0.00000582,-0.00021375,
 0.00812797,-0.00039598,0.00144855,-0.06367370,-0.00034486,0.00040877,0
 .00663046,-0.00003285,-0.00000130,0.00017938,0.00097827,-0.00166480,0.
 03491873,-0.02224261,-0.03289901,-0.00030562,-0.09506000,-0.11275809,-
 0.00018374,0.00812456,0.01968311,-0.00002103,0.00118271,0.00185916,-0.
 00005615,-0.00319361,-0.00178392,-0.00017018,-0.00044113,-0.00109669,0
 .00000693,-0.00028797,-0.00012863,0.00002491,0.11443205,-0.01897419,-0
 .01425071,-0.00019601,-0.10563234,-0.28379673,-0.00088007,0.00164922,-
 0.05007531,0.00009191,-0.00100953,-0.00553312,0.00000023,-0.00197169,-
 0.00181030,-0.00000516,-0.00004010,-0.00066514,-0.00000204,0.00012795,
 -0.00030000,-0.00000208,0.12697195,0.35623933,-0.00032100,-0.00036503,
 0.00662686,-0.00019529,-0.00096040,-0.06369178,0.00000310,0.00029814,0
 .00813394,-0.00005106,0.00003774,0.00592039,-0.00017652,-0.00000633,0.
 01132362,0.00000761,-0.00001215,-0.00100945,0.00002489,-0.00000153,-0.
 00242029,0.00073874,0.00100779,0.03493809,-0.22438805,0.13070607,-0.00
 232847,-0.03981397,0.01236959,-0.00056193,-0.00372848,0.00043623,-0.00
 014837,0.00005143,0.00162941,-0.00008917,-0.00099892,0.01477891,-0.000
 11549,0.00059737,0.00064801,0.00001264,-0.00042367,0.00003653,0.000008
 37,-0.00251401,-0.00112128,-0.00003046,0.27121833,0.13097251,-0.134576
 25,0.00179759,0.00385329,0.00873852,0.00004774,-0.00133184,0.00043095,
 -0.00000426,0.00144477,-0.00444122,0.00002927,0.02399094,-0.02950270,0
 .00033526,-0.00069130,-0.00225387,-0.00000712,0.00109293,-0.00068278,0
 .00001170,0.00015210,0.00019194,0.00000177,-0.15948340,0.16209544,-0.0
 0231906,0.00179094,-0.05870007,-0.00056326,0.00015252,0.00469488,-0.00
 013772,0.00001756,0.00799310,-0.00009101,0.00003086,0.00688922,-0.0001
 2652,0.00022219,0.00673776,0.00001402,0.00001099,-0.00042867,0.0000045
 3,0.00000146,-0.00100992,-0.00003387,-0.00001457,0.00017858,0.00325290
 ,-0.00221195,0.03364509\\-0.00001060,0.00014920,-0.00009257,-0.0000234
 0,0.00008170,-0.00006725,0.00008846,-0.00015030,-0.00002804,0.00011798
 ,-0.00002918,0.00012748,-0.00007850,0.00000811,-0.00009617,-0.00001757
 ,-0.00004831,0.00003062,0.00001562,-0.00000621,-0.00001045,-0.00005037
 ,-0.00002798,0.00005970,-0.00004162,0.00002296,0.00007667\\\@


 IF YOU GIVE A BOY AND A PIG EVERYTHING THEY WANT,
 YOU'LL GET A BAD BOY AND A GOOD PIG.
 Job cpu time:       0 days  0 hours  0 minutes  0.3 seconds.
 File lengths (MBytes):  RWF=      5 Int=      0 D2E=      0 Chk=      2 Scr=      1
 Normal termination of Gaussian 09 at Tue Dec  1 17:37:53 2015.
