 Entering Gaussian System, Link 0=g09
 Input=FuranAM1_35.com
 Output=FuranAM1_35.log
 Initial command:
 /home/Applications/g09/g09/l1.exe "/home/Applications/g09/scratch/Gau-5780.inp" -scrdir="/home/Applications/g09/scratch/"
 Entering Link 1 = /home/Applications/g09/g09/l1.exe PID=      5782.
  
 Copyright (c) 1988,1990,1992,1993,1995,1998,2003,2009,2013,
            Gaussian, Inc.  All Rights Reserved.
  
 This is part of the Gaussian(R) 09 program.  It is based on
 the Gaussian(R) 03 system (copyright 2003, Gaussian, Inc.),
 the Gaussian(R) 98 system (copyright 1998, Gaussian, Inc.),
 the Gaussian(R) 94 system (copyright 1995, Gaussian, Inc.),
 the Gaussian 92(TM) system (copyright 1992, Gaussian, Inc.),
 the Gaussian 90(TM) system (copyright 1990, Gaussian, Inc.),
 the Gaussian 88(TM) system (copyright 1988, Gaussian, Inc.),
 the Gaussian 86(TM) system (copyright 1986, Carnegie Mellon
 University), and the Gaussian 82(TM) system (copyright 1983,
 Carnegie Mellon University). Gaussian is a federally registered
 trademark of Gaussian, Inc.
  
 This software contains proprietary and confidential information,
 including trade secrets, belonging to Gaussian, Inc.
  
 This software is provided under written license and may be
 used, copied, transmitted, or stored only in accord with that
 written license.
  
 The following legend is applicable only to US Government
 contracts under FAR:
  
                    RESTRICTED RIGHTS LEGEND
  
 Use, reproduction and disclosure by the US Government is
 subject to restrictions as set forth in subparagraphs (a)
 and (c) of the Commercial Computer Software - Restricted
 Rights clause in FAR 52.227-19.
  
 Gaussian, Inc.
 340 Quinnipiac St., Bldg. 40, Wallingford CT 06492
  
  
 ---------------------------------------------------------------
 Warning -- This program may not be used in any manner that
 competes with the business of Gaussian, Inc. or will provide
 assistance to any competitor of Gaussian, Inc.  The licensee
 of this program is prohibited from giving any competitor of
 Gaussian, Inc. access to this program.  By using this program,
 the user acknowledges that Gaussian, Inc. is engaged in the
 business of creating and licensing software in the field of
 computational chemistry and represents and warrants to the
 licensee that it is not a competitor of Gaussian, Inc. and that
 it will not use this program in any manner prohibited above.
 ---------------------------------------------------------------
  

 Cite this work as:
 Gaussian 09, Revision D.01,
 M. J. Frisch, G. W. Trucks, H. B. Schlegel, G. E. Scuseria, 
 M. A. Robb, J. R. Cheeseman, G. Scalmani, V. Barone, B. Mennucci, 
 G. A. Petersson, H. Nakatsuji, M. Caricato, X. Li, H. P. Hratchian, 
 A. F. Izmaylov, J. Bloino, G. Zheng, J. L. Sonnenberg, M. Hada, 
 M. Ehara, K. Toyota, R. Fukuda, J. Hasegawa, M. Ishida, T. Nakajima, 
 Y. Honda, O. Kitao, H. Nakai, T. Vreven, J. A. Montgomery, Jr., 
 J. E. Peralta, F. Ogliaro, M. Bearpark, J. J. Heyd, E. Brothers, 
 K. N. Kudin, V. N. Staroverov, T. Keith, R. Kobayashi, J. Normand, 
 K. Raghavachari, A. Rendell, J. C. Burant, S. S. Iyengar, J. Tomasi, 
 M. Cossi, N. Rega, J. M. Millam, M. Klene, J. E. Knox, J. B. Cross, 
 V. Bakken, C. Adamo, J. Jaramillo, R. Gomperts, R. E. Stratmann, 
 O. Yazyev, A. J. Austin, R. Cammi, C. Pomelli, J. W. Ochterski, 
 R. L. Martin, K. Morokuma, V. G. Zakrzewski, G. A. Voth, 
 P. Salvador, J. J. Dannenberg, S. Dapprich, A. D. Daniels, 
 O. Farkas, J. B. Foresman, J. V. Ortiz, J. Cioslowski, 
 and D. J. Fox, Gaussian, Inc., Wallingford CT, 2013.
 
 ******************************************
 Gaussian 09:  ES64L-G09RevD.01 24-Apr-2013
                15-Dec-2015 
 ******************************************
 ------------------------------------------------------------
 #P AM1(Input,print) CIS(Singlets,NStates=15) pop(full) force
 ------------------------------------------------------------
 1/10=7,30=1,38=1/1,3;
 2/12=2,17=6,18=5,40=1/2;
 3/5=2,16=1,25=1,41=700000,71=1,135=100,136=1/1,2,8,3;
 4/35=1/1;
 5/5=2,35=1,38=5/2;
 8/6=1,10=1,108=15/1;
 9/15=2,41=15,42=1,48=1,49=10/14;
 10/5=4/2;
 6/7=3,18=1/1;
 7/12=6,13=5,29=1/1,2,3,16;
 1/10=7,30=1/3;
 99//99;
 Leave Link    1 at Tue Dec 15 16:17:16 2015, MaxMem=           0 cpu:         0.0
 (Enter /home/Applications/g09/g09/l101.exe)
 -----------------
 AM1-Reparam Input
 -----------------
 Symbolic Z-matrix:
 Charge =  0 Multiplicity = 1
 6                     0.99889  -0.7237    0.04313 
 6                    -0.38683  -1.11821  -0.01311 
 8                    -1.12367  -0.02553   0.04626 
 6                    -0.36447   1.1153   -0.02338 
 6                     0.94467   0.74959   0.04154 
 1                     1.81988   1.32981  -0.00689 
 1                    -0.84225   2.04493   0.00704 
 1                    -0.82148  -2.08705  -0.01346 
 1                     1.85421  -1.32119   0.03511 
 
 NAtoms=      9 NQM=        9 NQMF=       0 NMMI=      0 NMMIF=      0
                NMic=       0 NMicF=      0.
                    Isotopes and Nuclear Properties:
 (Nuclear quadrupole moments (NQMom) in fm**2, nuclear magnetic moments (NMagM)
  in nuclear magnetons)

  Atom         1           2           3           4           5           6           7           8           9
 IAtWgt=          12          12          16          12          12           1           1           1           1
 AtmWgt=  12.0000000  12.0000000  15.9949146  12.0000000  12.0000000   1.0078250   1.0078250   1.0078250   1.0078250
 NucSpn=           0           0           0           0           0           1           1           1           1
 AtZEff=   0.0000000   0.0000000   0.0000000   0.0000000   0.0000000   0.0000000   0.0000000   0.0000000   0.0000000
 NQMom=    0.0000000   0.0000000   0.0000000   0.0000000   0.0000000   0.0000000   0.0000000   0.0000000   0.0000000
 NMagM=    0.0000000   0.0000000   0.0000000   0.0000000   0.0000000   2.7928460   2.7928460   2.7928460   2.7928460
 AtZNuc=   6.0000000   6.0000000   8.0000000   6.0000000   6.0000000   1.0000000   1.0000000   1.0000000   1.0000000
 Leave Link  101 at Tue Dec 15 16:17:16 2015, MaxMem=    33554432 cpu:         0.0
 (Enter /home/Applications/g09/g09/l103.exe)

 GradGradGradGradGradGradGradGradGradGradGradGradGradGradGradGradGradGrad
 Berny optimization.
 Initialization pass.
 Trust Radius=3.00D-01 FncErr=1.00D-07 GrdErr=1.00D-07
 Number of steps in this run=      2 maximum allowed number of steps=      2.
 GradGradGradGradGradGradGradGradGradGradGradGradGradGradGradGradGradGrad

 Leave Link  103 at Tue Dec 15 16:17:16 2015, MaxMem=    33554432 cpu:         0.0
 (Enter /home/Applications/g09/g09/l202.exe)
                          Input orientation:                          
 ---------------------------------------------------------------------
 Center     Atomic      Atomic             Coordinates (Angstroms)
 Number     Number       Type             X           Y           Z
 ---------------------------------------------------------------------
      1          6           0        0.998891   -0.723700    0.043126
      2          6           0       -0.386830   -1.118215   -0.013112
      3          8           0       -1.123672   -0.025527    0.046263
      4          6           0       -0.364473    1.115298   -0.023375
      5          6           0        0.944674    0.749585    0.041542
      6          1           0        1.819876    1.329811   -0.006885
      7          1           0       -0.842245    2.044927    0.007042
      8          1           0       -0.821475   -2.087052   -0.013458
      9          1           0        1.854206   -1.321193    0.035112
 ---------------------------------------------------------------------
                    Distance matrix (angstroms):
                    1          2          3          4          5
     1  C    0.000000
     2  C    1.441883   0.000000
     3  O    2.234442   1.319253   0.000000
     4  C    2.290218   2.233648   1.372120   0.000000
     5  C    1.474283   2.294464   2.208818   1.360818   0.000000
     6  H    2.212109   3.295819   3.241025   2.194919   1.051183
     7  H    3.325113   3.195822   2.089861   1.045658   2.207302
     8  H    2.275008   1.061867   2.084412   3.234810   3.341978
     9  H    1.043372   2.250726   3.247558   3.295822   2.261728
                    6          7          8          9
     6  H    0.000000
     7  H    2.756533   0.000000
     8  H    4.318765   4.132082   0.000000
     9  H    2.651559   4.313050   2.783553   0.000000
 Stoichiometry    C4H4O
 Framework group  C1[X(C4H4O)]
 Deg. of freedom    21
 Full point group                 C1      NOp   1
 Largest Abelian subgroup         C1      NOp   1
 Largest concise Abelian subgroup C1      NOp   1
                         Standard orientation:                         
 ---------------------------------------------------------------------
 Center     Atomic      Atomic             Coordinates (Angstroms)
 Number     Number       Type             X           Y           Z
 ---------------------------------------------------------------------
      1          6           0       -0.604638    1.068931   -0.015413
      2          6           0       -1.152340   -0.264023    0.032375
      3          8           0       -0.149541   -1.118586   -0.035039
      4          6           0        1.069541   -0.492961    0.036707
      5          6           0        0.853211    0.849429   -0.018215
      6          1           0        1.528250    1.653489    0.034645
      7          1           0        1.939498   -1.071980    0.000474
      8          1           0       -2.163899   -0.586992    0.032373
      9          1           0       -1.102162    1.985913    0.000107
 ---------------------------------------------------------------------
 Rotational constants (GHZ):      9.3276742      9.1094212      4.6134562
 Leave Link  202 at Tue Dec 15 16:17:16 2015, MaxMem=    33554432 cpu:         0.0
 (Enter /home/Applications/g09/g09/l301.exe)

 Semi-emprical parameters in input format:
 Method=8 CoreType=1 PeptideFC=0.0114510000 RIJScale=0.5291770000
 ****
 H       
 PQN=1 NValence=1 F0ss=0.4721550000 ZetaOverlap=1.1880780000 U=-0.4188110000
 Beta=-0.2268830000 CoreKO=1.0589200000 KON=0,0,0,1.0589200000 KON=1,0,1,1.0589200000
 KON=0,1,1,1.0589200000 KON=2,1,1,1.0589200000 EISol=-0.4188110042 EHeat=0.0830298228
 Alpha=1.5252600000
 GCore=0.0085280000,1.4001430000,2.2676710000
 GCore=0.0003530000,1.4001430000,3.4015070000
 GCore=-0.0012730000,0.5600570000,3.9684250000
 ****
 C       
 PQN=2,2 NValence=4 F0ss=0.4494440000 F0sp=0.4215150000 F0pp=0.3768030000 F2pp=0.1898720000
 G1sp=0.2679030000
 ZetaOverlap=1.8086650000,1.6851160000
 U=-1.9120180000,-1.4557970000
 Beta=-0.5775440000,-0.2836780000 DDN=0,1,0.8236740000 DDN=1,1,0.7268010000
 CoreKO=1.1124280000 KON=0,0,0,1.1124280000 KON=1,0,1,0.8219700000 KON=0,1,1,1.1124280000
 KON=2,1,1,0.7783930000 EISol=-4.4398989268 EHeat=0.2723305520 Alpha=1.4014060000
 DipHyp=1.6472532266
 GCore=0.0007890000,1.4001430000,3.0235620000
 GCore=0.0031890000,1.4001430000,3.4959930000
 GCore=-0.0013930000,1.4001430000,3.8739390000
 GCore=-0.0000880000,1.4001430000,5.0077740000
 ****
 O       
 PQN=2,2 NValence=6 F0ss=0.5666750000 F0sp=0.5321300000 F0pp=0.4958710000 F2pp=0.2358080000
 G1sp=0.4343770000
 ZetaOverlap=3.1080320000,2.5240390000
 U=-3.5951870000,-2.8760900000
 Beta=-1.0757550000,-1.0757550000 DDN=0,1,0.4988900000 DDN=1,1,0.4852320000
 CoreKO=0.8822960000 KON=0,0,0,0.8822960000 KON=1,0,1,0.5019540000 KON=0,1,1,0.8822960000
 KON=2,1,1,0.5515580000 EISol=-11.6164441184 EHeat=0.0949133088 Alpha=2.3576810000
 DipHyp=0.9977225968
 GCore=0.0195120000,1.4001430000,1.6023330000
 GCore=0.0056550000,1.9602000000,2.7307880000
 ****
 
 Standard basis: VSTO-6G (5D, 7F)
 Ernie: Thresh=  0.10000D-02 Tol=  0.10000D-05 Strict=F.
  NNHCO=     0 NNPyr=     0 NCTC=     0               EPep=         0.000000000
    EC=        68.489071312  ECS=         1.804722731   EG=         0.364096355
   EHC=         0.000000000  EAt=       -31.051283842  AtH=         1.516354808
 EPDDG=         0.000000000  ECC=        70.657890398 EAtT=        32.567638650
 There are    24 symmetry adapted cartesian basis functions of A   symmetry.
 There are    24 symmetry adapted basis functions of A   symmetry.
    24 basis functions,   144 primitive gaussians,    24 cartesian basis functions
    13 alpha electrons       13 beta electrons
       nuclear repulsion energy       103.2255290487 Hartrees.
 IExCor=    0 DFT=F Ex=HF Corr=None ExCW=0 ScaHFX=  1.000000
 ScaDFX=  1.000000  1.000000  1.000000  1.000000 ScalE2=  1.000000  1.000000
 IRadAn=      0 IRanWt=     -1 IRanGd=            0 ICorTp=0 IEmpDi=  4
 Integral buffers will be    131072 words long.
 Regular integral format.
 Two-electron integral symmetry is turned off.
 Leave Link  301 at Tue Dec 15 16:17:16 2015, MaxMem=    33554432 cpu:         0.0
 (Enter /home/Applications/g09/g09/l302.exe)
 Do NDO integrals.
 NPDir=0 NMtPBC=     1 NCelOv=     1 NCel=       1 NClECP=     1 NCelD=      1
         NCelK=      1 NCelE2=     1 NClLst=     1 CellRange=     0.0.
 One-electron integrals computed using PRISM.
 NBasis=    24 RedAO= F EigKep=  0.00D+00  NBF=    24
 NBsUse=    24 1.00D-04 EigRej=  0.00D+00 NBFU=    24
 Leave Link  302 at Tue Dec 15 16:17:16 2015, MaxMem=    33554432 cpu:         0.0
 (Enter /home/Applications/g09/g09/l308.exe)
 Leave Link  308 at Tue Dec 15 16:17:16 2015, MaxMem=    33554432 cpu:         0.0
 (Enter /home/Applications/g09/g09/l303.exe)
 DipDrv:  MaxL=1.
 Leave Link  303 at Tue Dec 15 16:17:16 2015, MaxMem=    33554432 cpu:         0.0
 (Enter /home/Applications/g09/g09/l401.exe)
 Simple Huckel Guess.
 JPrj=0 DoOrth=F DoCkMO=F.
 Leave Link  401 at Tue Dec 15 16:17:16 2015, MaxMem=    33554432 cpu:         0.0
 (Enter /home/Applications/g09/g09/l502.exe)
 Closed shell SCF:
 Using DIIS extrapolation, IDIIS=  1040.
 Overlap will be assumed to be unity.
 Two-electron integral symmetry not used.
 Keep J ints in memory in canonical form, NReq=888082.
 IVT=       79475 IEndB=       79475 NGot=    33554432 MDV=    33473473
 LenX=    33473473 LenY=    33472456
 Requested convergence on RMS density matrix=1.00D-08 within 128 cycles.
 Requested convergence on MAX density matrix=1.00D-06.
 Requested convergence on             energy=1.00D-06.
 No special actions if energy rises.
 FoFCou: FMM=F IPFlag=           0 FMFlag=           0 FMFlg1=           0
         NFxFlg=           0 DoJE=F BraDBF=F KetDBF=F FulRan=T
         wScrn=  0.000000 ICntrl=     600 IOpCl=  2 I1Cent=           0 NGrid=           0
         NMat0=    1 NMatS0=     54 NMatT0=    0 NMatD0=    1 NMtDS0=    0 NMtDT0=    0
 Symmetry not used in FoFCou.

 Cycle   1  Pass 1  IDiag  1:
 E= 0.333837495254812    
 DIIS: error= 6.03D-02 at cycle   1 NSaved=   1.
 NSaved= 1 IEnMin= 1 EnMin= 0.333837495254812     IErMin= 1 ErrMin= 6.03D-02
 ErrMax= 6.03D-02  0.00D+00 EMaxC= 1.00D-01 BMatC= 1.11D-01 BMatP= 1.11D-01
 IDIUse=3 WtCom= 3.97D-01 WtEn= 6.03D-01
 Coeff-Com:  0.100D+01
 Coeff-En:   0.100D+01
 Coeff:      0.100D+01
 GapD=    2.000 DampG=2.000 DampE=0.500 DampFc=1.0000 IDamp=-1.
 RMSDP=1.93D-02 MaxDP=1.64D-01              OVMax= 0.00D+00

 Cycle   2  Pass 1  IDiag  1:
 E= 0.577518762363241E-01 Delta-E=       -0.276085619018 Rises=F Damp=F
 DIIS: error= 1.97D-02 at cycle   2 NSaved=   2.
 NSaved= 2 IEnMin= 2 EnMin= 0.577518762363241E-01 IErMin= 2 ErrMin= 1.97D-02
 ErrMax= 1.97D-02  0.00D+00 EMaxC= 1.00D-01 BMatC= 9.68D-03 BMatP= 1.11D-01
 IDIUse=3 WtCom= 8.03D-01 WtEn= 1.97D-01
 Coeff-Com: -0.357D+00 0.136D+01
 Coeff-En:   0.000D+00 0.100D+01
 Coeff:     -0.286D+00 0.129D+01
 RMSDP=8.26D-03 MaxDP=7.44D-02 DE=-2.76D-01 OVMax= 0.00D+00

 Cycle   3  Pass 1  IDiag  3:
 E= 0.264145777171336E-01 Delta-E=       -0.031337298519 Rises=F Damp=F
 DIIS: error= 3.99D-03 at cycle   3 NSaved=   3.
 NSaved= 3 IEnMin= 3 EnMin= 0.264145777171336E-01 IErMin= 3 ErrMin= 3.99D-03
 ErrMax= 3.99D-03  0.00D+00 EMaxC= 1.00D-01 BMatC= 4.25D-04 BMatP= 9.68D-03
 IDIUse=3 WtCom= 9.60D-01 WtEn= 3.99D-02
 Coeff-Com:  0.114D+00-0.542D+00 0.143D+01
 Coeff-En:   0.000D+00 0.000D+00 0.100D+01
 Coeff:      0.110D+00-0.520D+00 0.141D+01
 Gap=     0.368 Goal=   None    Shift=    0.000
 RMSDP=2.74D-03 MaxDP=3.25D-02 DE=-3.13D-02 OVMax= 3.24D-02

 Cycle   4  Pass 1  IDiag  3:
 E= 0.240318146268805E-01 Delta-E=       -0.002382763090 Rises=F Damp=F
 DIIS: error= 1.30D-03 at cycle   4 NSaved=   4.
 NSaved= 4 IEnMin= 4 EnMin= 0.240318146268805E-01 IErMin= 4 ErrMin= 1.30D-03
 ErrMax= 1.30D-03  0.00D+00 EMaxC= 1.00D-01 BMatC= 3.53D-05 BMatP= 4.25D-04
 IDIUse=3 WtCom= 9.87D-01 WtEn= 1.30D-02
 Coeff-Com:  0.166D-01-0.468D-01-0.267D+00 0.130D+01
 Coeff-En:   0.000D+00 0.000D+00 0.000D+00 0.100D+01
 Coeff:      0.164D-01-0.462D-01-0.264D+00 0.129D+01
 Gap=     0.369 Goal=   None    Shift=    0.000
 RMSDP=9.95D-04 MaxDP=1.25D-02 DE=-2.38D-03 OVMax= 1.17D-02

 Cycle   5  Pass 1  IDiag  3:
 E= 0.238050295338610E-01 Delta-E=       -0.000226785093 Rises=F Damp=F
 DIIS: error= 1.85D-04 at cycle   5 NSaved=   5.
 NSaved= 5 IEnMin= 5 EnMin= 0.238050295338610E-01 IErMin= 5 ErrMin= 1.85D-04
 ErrMax= 1.85D-04  0.00D+00 EMaxC= 1.00D-01 BMatC= 1.67D-06 BMatP= 3.53D-05
 IDIUse=3 WtCom= 9.98D-01 WtEn= 1.85D-03
 Coeff-Com: -0.771D-02 0.270D-01 0.621D-01-0.513D+00 0.143D+01
 Coeff-En:   0.000D+00 0.000D+00 0.000D+00 0.000D+00 0.100D+01
 Coeff:     -0.769D-02 0.270D-01 0.620D-01-0.512D+00 0.143D+01
 Gap=     0.369 Goal=   None    Shift=    0.000
 RMSDP=2.25D-04 MaxDP=1.93D-03 DE=-2.27D-04 OVMax= 1.93D-03

 Cycle   6  Pass 1  IDiag  3:
 E= 0.237936936996732E-01 Delta-E=       -0.000011335834 Rises=F Damp=F
 DIIS: error= 7.66D-05 at cycle   6 NSaved=   6.
 NSaved= 6 IEnMin= 6 EnMin= 0.237936936996732E-01 IErMin= 6 ErrMin= 7.66D-05
 ErrMax= 7.66D-05  0.00D+00 EMaxC= 1.00D-01 BMatC= 1.36D-07 BMatP= 1.67D-06
 IDIUse=1 WtCom= 1.00D+00 WtEn= 0.00D+00
 Coeff-Com:  0.296D-02-0.108D-01-0.870D-02 0.147D+00-0.611D+00 0.148D+01
 Coeff:      0.296D-02-0.108D-01-0.870D-02 0.147D+00-0.611D+00 0.148D+01
 Gap=     0.369 Goal=   None    Shift=    0.000
 RMSDP=7.58D-05 MaxDP=6.05D-04 DE=-1.13D-05 OVMax= 9.22D-04

 Cycle   7  Pass 1  IDiag  3:
 E= 0.237925168125201E-01 Delta-E=       -0.000001176887 Rises=F Damp=F
 DIIS: error= 3.38D-05 at cycle   7 NSaved=   7.
 NSaved= 7 IEnMin= 7 EnMin= 0.237925168125201E-01 IErMin= 7 ErrMin= 3.38D-05
 ErrMax= 3.38D-05  0.00D+00 EMaxC= 1.00D-01 BMatC= 1.53D-08 BMatP= 1.36D-07
 IDIUse=1 WtCom= 1.00D+00 WtEn= 0.00D+00
 Coeff-Com: -0.582D-03 0.165D-02 0.336D-02-0.363D-01 0.175D+00-0.726D+00
 Coeff-Com:  0.158D+01
 Coeff:     -0.582D-03 0.165D-02 0.336D-02-0.363D-01 0.175D+00-0.726D+00
 Coeff:      0.158D+01
 Gap=     0.369 Goal=   None    Shift=    0.000
 RMSDP=3.33D-05 MaxDP=3.04D-04 DE=-1.18D-06 OVMax= 3.90D-04

 Cycle   8  Pass 1  IDiag  3:
 E= 0.237923545331284E-01 Delta-E=       -0.000000162279 Rises=F Damp=F
 DIIS: error= 8.97D-06 at cycle   8 NSaved=   8.
 NSaved= 8 IEnMin= 8 EnMin= 0.237923545331284E-01 IErMin= 8 ErrMin= 8.97D-06
 ErrMax= 8.97D-06  0.00D+00 EMaxC= 1.00D-01 BMatC= 9.77D-10 BMatP= 1.53D-08
 IDIUse=1 WtCom= 1.00D+00 WtEn= 0.00D+00
 Coeff-Com:  0.898D-04 0.150D-04-0.197D-02 0.114D-01-0.540D-01 0.276D+00
 Coeff-Com: -0.839D+00 0.161D+01
 Coeff:      0.898D-04 0.150D-04-0.197D-02 0.114D-01-0.540D-01 0.276D+00
 Coeff:     -0.839D+00 0.161D+01
 Gap=     0.369 Goal=   None    Shift=    0.000
 RMSDP=9.29D-06 MaxDP=8.92D-05 DE=-1.62D-07 OVMax= 1.07D-04

 Cycle   9  Pass 1  IDiag  3:
 E= 0.237923444169610E-01 Delta-E=       -0.000000010116 Rises=F Damp=F
 DIIS: error= 1.18D-06 at cycle   9 NSaved=   9.
 NSaved= 9 IEnMin= 9 EnMin= 0.237923444169610E-01 IErMin= 9 ErrMin= 1.18D-06
 ErrMax= 1.18D-06  0.00D+00 EMaxC= 1.00D-01 BMatC= 3.40D-11 BMatP= 9.77D-10
 IDIUse=1 WtCom= 1.00D+00 WtEn= 0.00D+00
 Coeff-Com:  0.207D-04-0.202D-03 0.540D-03-0.149D-02 0.896D-02-0.663D-01
 Coeff-Com:  0.249D+00-0.626D+00 0.143D+01
 Coeff:      0.207D-04-0.202D-03 0.540D-03-0.149D-02 0.896D-02-0.663D-01
 Coeff:      0.249D+00-0.626D+00 0.143D+01
 Gap=     0.369 Goal=   None    Shift=    0.000
 RMSDP=1.15D-06 MaxDP=9.98D-06 DE=-1.01D-08 OVMax= 1.49D-05

 Cycle  10  Pass 1  IDiag  3:
 E= 0.237923441905252E-01 Delta-E=       -0.000000000226 Rises=F Damp=F
 DIIS: error= 2.12D-07 at cycle  10 NSaved=  10.
 NSaved=10 IEnMin=10 EnMin= 0.237923441905252E-01 IErMin=10 ErrMin= 2.12D-07
 ErrMax= 2.12D-07  0.00D+00 EMaxC= 1.00D-01 BMatC= 1.61D-12 BMatP= 3.40D-11
 IDIUse=1 WtCom= 1.00D+00 WtEn= 0.00D+00
 Coeff-Com: -0.115D-04 0.870D-04-0.203D-03 0.421D-03-0.219D-02 0.183D-01
 Coeff-Com: -0.739D-01 0.199D+00-0.587D+00 0.145D+01
 Coeff:     -0.115D-04 0.870D-04-0.203D-03 0.421D-03-0.219D-02 0.183D-01
 Coeff:     -0.739D-01 0.199D+00-0.587D+00 0.145D+01
 Gap=     0.369 Goal=   None    Shift=    0.000
 RMSDP=2.06D-07 MaxDP=1.30D-06 DE=-2.26D-10 OVMax= 2.15D-06

 Cycle  11  Pass 1  IDiag  3:
 E= 0.237923441813166E-01 Delta-E=       -0.000000000009 Rises=F Damp=F
 DIIS: error= 3.73D-08 at cycle  11 NSaved=  11.
 NSaved=11 IEnMin=11 EnMin= 0.237923441813166E-01 IErMin=11 ErrMin= 3.73D-08
 ErrMax= 3.73D-08  0.00D+00 EMaxC= 1.00D-01 BMatC= 6.89D-14 BMatP= 1.61D-12
 IDIUse=1 WtCom= 1.00D+00 WtEn= 0.00D+00
 Coeff-Com:  0.412D-05-0.329D-04 0.800D-04-0.185D-03 0.889D-03-0.716D-02
 Coeff-Com:  0.283D-01-0.747D-01 0.221D+00-0.651D+00 0.148D+01
 Coeff:      0.412D-05-0.329D-04 0.800D-04-0.185D-03 0.889D-03-0.716D-02
 Coeff:      0.283D-01-0.747D-01 0.221D+00-0.651D+00 0.148D+01
 Gap=     0.369 Goal=   None    Shift=    0.000
 RMSDP=4.41D-08 MaxDP=2.22D-07 DE=-9.21D-12 OVMax= 3.87D-07

 Cycle  12  Pass 1  IDiag  3:
 E= 0.237923441807339E-01 Delta-E=       -0.000000000001 Rises=F Damp=F
 DIIS: error= 8.11D-09 at cycle  12 NSaved=  12.
 NSaved=12 IEnMin=12 EnMin= 0.237923441807339E-01 IErMin=12 ErrMin= 8.11D-09
 ErrMax= 8.11D-09  0.00D+00 EMaxC= 1.00D-01 BMatC= 3.53D-15 BMatP= 6.89D-14
 IDIUse=1 WtCom= 1.00D+00 WtEn= 0.00D+00
 Coeff-Com: -0.928D-06 0.776D-05-0.198D-04 0.513D-04-0.214D-03 0.165D-02
 Coeff-Com: -0.642D-02 0.167D-01-0.496D-01 0.161D+00-0.541D+00 0.142D+01
 Coeff:     -0.928D-06 0.776D-05-0.198D-04 0.513D-04-0.214D-03 0.165D-02
 Coeff:     -0.642D-02 0.167D-01-0.496D-01 0.161D+00-0.541D+00 0.142D+01
 Gap=     0.369 Goal=   None    Shift=    0.000
 RMSDP=1.02D-08 MaxDP=5.32D-08 DE=-5.83D-13 OVMax= 5.41D-08

 Cycle  13  Pass 1  IDiag  3:
 E= 0.237923441806345E-01 Delta-E=        0.000000000000 Rises=F Damp=F
 DIIS: error= 1.45D-09 at cycle  13 NSaved=  13.
 NSaved=13 IEnMin=13 EnMin= 0.237923441806345E-01 IErMin=13 ErrMin= 1.45D-09
 ErrMax= 1.45D-09  0.00D+00 EMaxC= 1.00D-01 BMatC= 1.79D-16 BMatP= 3.53D-15
 IDIUse=1 WtCom= 1.00D+00 WtEn= 0.00D+00
 Coeff-Com:  0.934D-07-0.783D-06 0.190D-05-0.583D-05 0.140D-04-0.112D-03
 Coeff-Com:  0.420D-03-0.101D-02 0.314D-02-0.158D-01 0.994D-01-0.461D+00
 Coeff-Com:  0.137D+01
 Coeff:      0.934D-07-0.783D-06 0.190D-05-0.583D-05 0.140D-04-0.112D-03
 Coeff:      0.420D-03-0.101D-02 0.314D-02-0.158D-01 0.994D-01-0.461D+00
 Coeff:      0.137D+01
 Gap=     0.369 Goal=   None    Shift=    0.000
 RMSDP=2.29D-09 MaxDP=1.30D-08 DE=-9.95D-14 OVMax= 1.79D-08

 Cycle  14  Pass 2  IDiag  1:
 SCF Done:  E(RAM1) =  0.237923441806E-01 A.U. after   14 cycles
            NFock= 13  Conv=0.23D-08     -V/T= 1.0014
 KE=-1.654700774421D+01 PE=-1.705923296946D+02 EE= 8.393760073430D+01
 Leave Link  502 at Tue Dec 15 16:17:16 2015, MaxMem=    33554432 cpu:         0.0
 (Enter /home/Applications/g09/g09/l801.exe)
 Range of M.O.s used for correlation:     1    24
 NBasis=    24 NAE=    13 NBE=    13 NFC=     0 NFV=     0
 NROrb=     24 NOA=    13 NOB=    13 NVA=    11 NVB=    11
 Leave Link  801 at Tue Dec 15 16:17:16 2015, MaxMem=    33554432 cpu:         0.0
 (Enter /home/Applications/g09/g09/l914.exe)
 RHF ground state
 MDV=    33554432 DFT=F DoStab=F Mixed=F DoRPA=F DoScal=F NonHer=F
 Making orbital integer symmetry assigments:
 Orbital symmetries:
       Occupied  (A) (A) (A) (A) (A) (A) (A) (A) (A) (A) (A) (A)
                 (A)
       Virtual   (A) (A) (A) (A) (A) (A) (A) (A) (A) (A) (A)
    60 initial guesses have been made.
 Convergence on wavefunction:    0.000001000000000
 Davidson Disk Diagonalization:  ConvIn= 1.00D-06 SkipCon=T Conv= 1.00D-06.
 Max sub-space:   240 roots to seek:    60 dimension of matrix:          286
 Iteration     1 Dimension    60 NMult     0 NNew     60
 CISAX will form    60 AO SS matrices at one time.
 NMat=    60 NSing=    60 JSym2X= 0.
 FoFJK:  IHMeth= 8 ICntrl=       0 DoSepK=F KAlg= 0 I1Cent=   0 FoldK=F
 IRaf=         1 NMat= 120 IRICut=       1 DoRegI=T DoRafI=F ISym2E= 0.
 FoFCou: FMM=F IPFlag=           0 FMFlag=      100000 FMFlg1=           0
         NFxFlg=           0 DoJE=F BraDBF=F KetDBF=F FulRan=T
         wScrn=  0.000000 ICntrl=       0 IOpCl=  0 I1Cent=           0 NGrid=           0
         NMat0=  120 NMatS0=     60 NMatT0=    0 NMatD0=  120 NMtDS0=    0 NMtDT0=    0
 Symmetry not used in FoFCou.
 New state      2 was old state      4
 New state      3 was old state      2
 New state      4 was old state      8
 New state      5 was old state      6
 New state      6 was old state      3
 New state      7 was old state      5
 New state      8 was old state      9
 New state      9 was old state      7
 New state     11 was old state     16
 New state     12 was old state     11
 New state     13 was old state     17
 New state     14 was old state     19
 New state     15 was old state     13
 Excitation Energies [eV] at current iteration:
 Root      1 :     4.387018318788247
 Root      2 :     4.597125118216964
 Root      3 :     4.827648805196286
 Root      4 :     5.593539962318617
 Root      5 :     5.757049083571526
 Root      6 :     6.075816411510877
 Root      7 :     6.211815920775730
 Root      8 :     6.231607180081297
 Root      9 :     6.412701589692211
 Root     10 :     6.744056514852593
 Root     11 :     6.981146140842688
 Root     12 :     7.316328970232566
 Root     13 :     7.450490935532547
 Root     14 :     7.477472817321269
 Root     15 :     7.702112840634588
 Root     16 :     7.733708631219474
 Root     17 :     7.846496332691000
 Root     18 :     7.917830311337337
 Root     19 :     8.088293514010861
 Root     20 :     8.098234660368894
 Root     21 :     8.415970097369033
 Root     22 :     8.585193986935524
 Root     23 :     8.701018005999615
 Root     24 :     8.921008308193663
 Root     25 :     9.168312714951989
 Root     26 :     9.210586787816359
 Root     27 :     9.485596466938581
 Root     28 :     9.592597799894907
 Root     29 :     9.707493794123078
 Root     30 :     9.757651723751261
 Root     31 :     9.855345627286113
 Root     32 :     9.869098145389316
 Root     33 :    10.062903750547400
 Root     34 :    10.270668949126680
 Root     35 :    10.297245072203890
 Root     36 :    10.369876131423790
 Root     37 :    10.508506347345300
 Root     38 :    10.741834907411950
 Root     39 :    10.807546016740040
 Root     40 :    10.863828291813360
 Root     41 :    10.978370130266080
 Root     42 :    11.176145728686430
 Root     43 :    11.379699934010610
 Root     44 :    11.446878182624640
 Root     45 :    11.581602669159900
 Root     46 :    11.615232560690230
 Root     47 :    11.749343756940730
 Root     48 :    11.790418965915880
 Root     49 :    11.821845660941720
 Root     50 :    11.930651898900190
 Root     51 :    12.216848641637110
 Root     52 :    12.414825783436500
 Root     53 :    12.686989777784770
 Root     54 :    12.974741282762310
 Root     55 :    13.097941470760290
 Root     56 :    13.117044452398510
 Root     57 :    13.236354740687580
 Root     58 :    13.445265159266820
 Root     59 :    13.555785831789910
 Root     60 :    13.857199195358370
 Iteration     2 Dimension   120 NMult    60 NNew     60
 CISAX will form    60 AO SS matrices at one time.
 NMat=    60 NSing=    60 JSym2X= 0.
 Root      1 not converged, maximum delta is    0.028379635673397
 Root      2 not converged, maximum delta is    0.033025750950949
 Root      3 not converged, maximum delta is    0.014776858110325
 Root      4 not converged, maximum delta is    0.036417927665403
 Root      5 not converged, maximum delta is    0.052268997072035
 Root      6 not converged, maximum delta is    0.147334514601566
 Root      7 not converged, maximum delta is    0.177138525494271
 Root      8 not converged, maximum delta is    0.283238994853409
 Root      9 not converged, maximum delta is    0.030327145026044
 Root     10 not converged, maximum delta is    0.023863232649826
 Root     11 not converged, maximum delta is    0.040062927506976
 Root     12 not converged, maximum delta is    0.038698380947770
 Root     13 not converged, maximum delta is    0.172004953592823
 Root     14 not converged, maximum delta is    0.230052592953373
 Root     15 not converged, maximum delta is    0.125157029588746
 Excitation Energies [eV] at current iteration:
 Root      1 :     4.316423700649380   Change is   -0.070594618138867
 Root      2 :     4.561552702952190   Change is   -0.035572415264774
 Root      3 :     4.813925151843705   Change is   -0.013723653352581
 Root      4 :     5.505487426117406   Change is   -0.088052536201212
 Root      5 :     5.696375891053104   Change is   -0.060673192518422
 Root      6 :     5.957778723968200   Change is   -0.118037687542678
 Root      7 :     6.111231857543853   Change is   -0.100584063231877
 Root      8 :     6.125793088896882   Change is   -0.105814091184415
 Root      9 :     6.373441824510213   Change is   -0.039259765181998
 Root     10 :     6.681464747019315   Change is   -0.062591767833278
 Root     11 :     6.904651231268419   Change is   -0.076494909574269
 Root     12 :     7.245382655333112   Change is   -0.070946314899453
 Root     13 :     7.342679797268648   Change is   -0.107811138263899
 Root     14 :     7.412955110128564   Change is   -0.064517707192704
 Root     15 :     7.626244192017769   Change is   -0.075868648616819
 Root     16 :     7.674786575642620   Change is   -0.058922055576854
 Root     17 :     7.760082692575204   Change is   -0.086413640115796
 Root     18 :     7.816411063449905   Change is   -0.101419247887432
 Root     19 :     7.831401359973648   Change is   -0.256892154037212
 Root     20 :     7.980909174495078   Change is   -0.117325485873817
 Root     21 :     8.318754043575742   Change is   -0.097216053793292
 Root     22 :     8.547301944595430   Change is   -0.037892042340094
 Root     23 :     8.654117039478296   Change is   -0.046900966521319
 Root     24 :     8.840406911653812   Change is   -0.370179876162547
 Root     25 :     8.867124894135571   Change is   -0.053883414058091
 Root     26 :     9.149177236365432   Change is   -0.019135478586558
 Root     27 :     9.211125245715680   Change is   -0.274471221222900
 Root     28 :     9.351711663918334   Change is   -0.405940059832927
 Root     29 :     9.357480654078662   Change is   -0.350013140044416
 Root     30 :     9.546420644422621   Change is   -0.046177155472286
 Root     31 :     9.569176404216851   Change is   -0.299921741172465
 Root     32 :     9.693504301946607   Change is   -0.577164647180075
 Root     33 :     9.750690956709459   Change is   -0.104654670576654
 Root     34 :     9.895502844977647   Change is   -0.474373286446144
 Root     35 :     9.976506293859549   Change is   -0.086397456687850
 Root     36 :    10.100664147969510   Change is   -0.196580924234388
 Root     37 :    10.221712148810890   Change is   -0.286794198534416
 Root     38 :    10.282062505013730   Change is   -0.525483511726312
 Root     39 :    10.341631929064900   Change is   -0.400202978347056
 Root     40 :    10.576748047706340   Change is   -0.287080244107014
 Root     41 :    10.640891408409600   Change is   -0.337478721856483
 Root     42 :    10.732997988498860   Change is   -0.443147740187571
 Root     43 :    10.825552745427890   Change is   -0.554147188582715
 Root     44 :    11.009418828005730   Change is   -0.605813732684500
 Root     45 :    11.150725956319010   Change is   -0.430876712840883
 Root     46 :    11.365371594374430   Change is   -0.081506588250214
 Root     47 :    11.371711637777400   Change is   -0.377632119163338
 Root     48 :    11.519850023007500   Change is   -0.270568942908380
 Root     49 :    11.622677853761530   Change is   -0.199167807180196
 Root     50 :    11.697296143609400   Change is   -0.233355755290786
 Root     51 :    11.966219198616240   Change is   -0.250629443020870
 Root     52 :    12.040605634147750   Change is   -0.374220149288755
 Root     53 :    12.362469886067980   Change is   -0.324519891716786
 Root     54 :    12.495392659324680   Change is   -0.479348623437627
 Root     55 :    12.737921862005510   Change is   -0.379122590392998
 Root     56 :    12.987972102414520   Change is   -0.248382638273059
 Root     57 :    13.005399034691060   Change is   -0.092542436069221
 Root     58 :    13.046322058528640
 Root     59 :    13.242703999587310   Change is   -0.313081832202599
 Root     60 :    13.273508794764450   Change is   -0.583690400593924
 Iteration     3 Dimension   135 NMult   120 NNew     15
 CISAX will form    15 AO SS matrices at one time.
 NMat=    15 NSing=    15 JSym2X= 0.
 Root      1 not converged, maximum delta is    0.000518759184889
 Root      2 not converged, maximum delta is    0.000185576836699
 Root      3 not converged, maximum delta is    0.000385993268051
 Root      4 not converged, maximum delta is    0.000188624148022
 Root      5 not converged, maximum delta is    0.000200478871163
 Root      6 not converged, maximum delta is    0.001230400418295
 Root      7 not converged, maximum delta is    0.006241690113325
 Root      8 not converged, maximum delta is    0.003926863111528
 Root      9 not converged, maximum delta is    0.000234360010716
 Root     10 not converged, maximum delta is    0.000571034697349
 Root     11 not converged, maximum delta is    0.000303064474980
 Root     12 not converged, maximum delta is    0.000214509014962
 Root     13 not converged, maximum delta is    0.000624216522514
 Root     14 not converged, maximum delta is    0.000408703131550
 Root     15 not converged, maximum delta is    0.001097746062755
 Excitation Energies [eV] at current iteration:
 Root      1 :     4.316325518211768   Change is   -0.000098182437612
 Root      2 :     4.561541185082999   Change is   -0.000011517869191
 Root      3 :     4.813878685585870   Change is   -0.000046466257835
 Root      4 :     5.505479169906172   Change is   -0.000008256211234
 Root      5 :     5.696364333840753   Change is   -0.000011557212351
 Root      6 :     5.957269363682754   Change is   -0.000509360285446
 Root      7 :     6.111105073494969   Change is   -0.000126784048885
 Root      8 :     6.125529111025611   Change is   -0.000263977871271
 Root      9 :     6.373429412807982   Change is   -0.000012411702230
 Root     10 :     6.681402042161711   Change is   -0.000062704857604
 Root     11 :     6.904632152493759   Change is   -0.000019078774660
 Root     12 :     7.245370870603339   Change is   -0.000011784729774
 Root     13 :     7.342625911119948   Change is   -0.000053886148699
 Root     14 :     7.412931526373034   Change is   -0.000023583755531
 Root     15 :     7.626082925065888   Change is   -0.000161266951881
 Iteration     4 Dimension   143 NMult   135 NNew      8
 CISAX will form     8 AO SS matrices at one time.
 NMat=     8 NSing=     8 JSym2X= 0.
 Root      1 not converged, maximum delta is    0.000022905673247
 Root      2 not converged, maximum delta is    0.000006283921157
 Root      3 not converged, maximum delta is    0.000011281118328
 Root      4 not converged, maximum delta is    0.000005716187230
 Root      5 not converged, maximum delta is    0.000012063077738
 Root      6 not converged, maximum delta is    0.000091440346471
 Root      7 not converged, maximum delta is    0.000030286993945
 Root      8 not converged, maximum delta is    0.000047296603984
 Root      9 not converged, maximum delta is    0.000009596240993
 Root     10 not converged, maximum delta is    0.000011615768206
 Root     11 not converged, maximum delta is    0.000010660275177
 Root     12 not converged, maximum delta is    0.000007500022454
 Root     13 not converged, maximum delta is    0.000012319790102
 Root     14 not converged, maximum delta is    0.000008254071186
 Root     15 not converged, maximum delta is    0.000031156042763
 Excitation Energies [eV] at current iteration:
 Root      1 :     4.316325270790179   Change is   -0.000000247421589
 Root      2 :     4.561541170294731   Change is   -0.000000014788267
 Root      3 :     4.813878638842128   Change is   -0.000000046743743
 Root      4 :     5.505479159138696   Change is   -0.000000010767476
 Root      5 :     5.696364302325054   Change is   -0.000000031515699
 Root      6 :     5.957267795998481   Change is   -0.000001567684273
 Root      7 :     6.111104743960473   Change is   -0.000000329534496
 Root      8 :     6.125528276528458   Change is   -0.000000834497154
 Root      9 :     6.373429385166934   Change is   -0.000000027641049
 Root     10 :     6.681402002410949   Change is   -0.000000039750762
 Root     11 :     6.904632118781658   Change is   -0.000000033712101
 Root     12 :     7.245370856628060   Change is   -0.000000013975279
 Root     13 :     7.342625853281487   Change is   -0.000000057838461
 Root     14 :     7.412931509749370   Change is   -0.000000016623664
 Root     15 :     7.626082538685909   Change is   -0.000000386379979
 Convergence achieved on expansion vectors.
 ***********************************************************************
 Excited states from <AA,BB:AA,BB> singles matrix:
 ***********************************************************************
 
 1PDM for each excited state written to RWF  633
 Ground to excited state transition densities written to RWF  633
 Ground to excited state transition electric dipole moments (Au):
       state          X           Y           Z        Dip. S.      Osc.
         1         0.8430      0.1978      0.0160      0.7501      0.0793
         2        -0.2078     -0.0192     -0.0032      0.0436      0.0049
         3        -0.0598      0.3197     -0.0753      0.1115      0.0131
         4        -0.0122      0.0196     -0.0407      0.0022      0.0003
         5        -0.0832      0.2303      0.0932      0.0687      0.0096
         6        -0.5787      1.2988     -0.0952      2.0308      0.2964
         7        -0.4240     -0.4787      0.0132      0.4091      0.0612
         8        -0.6872     -0.6836      0.0787      0.9457      0.1419
         9         0.0866     -0.1198     -0.0848      0.0290      0.0045
        10        -0.0623      0.2151      0.0848      0.0573      0.0094
        11         0.0822     -0.0289     -0.0545      0.0106      0.0018
        12        -0.0331     -0.0239     -0.1602      0.0273      0.0049
        13        -0.0623     -0.0456      0.0514      0.0086      0.0015
        14         0.0432      0.0298     -0.1885      0.0383      0.0070
        15         0.0106      0.0790      0.0325      0.0074      0.0014
 Ground to excited state transition velocity dipole moments (Au):
       state          X           Y           Z        Dip. S.      Osc.
         1        -0.0374     -0.0335     -0.0014      0.0025      0.0106
         2         0.0018      0.0082      0.0014      0.0001      0.0003
         3         0.0191     -0.0236      0.0166      0.0012      0.0045
         4         0.0000     -0.0084      0.0099      0.0002      0.0006
         5         0.0158     -0.0413     -0.0732      0.0073      0.0233
         6         0.0727     -0.2570      0.0272      0.0721      0.2194
         7         0.0757      0.0956     -0.0092      0.0150      0.0444
         8         0.1204      0.1430     -0.0060      0.0350      0.1035
         9        -0.0087      0.0242      0.1542      0.0244      0.0695
        10         0.0110     -0.0510      0.0095      0.0028      0.0076
        11        -0.0084      0.0090     -0.0865      0.0076      0.0201
        12         0.0103      0.0083     -0.0013      0.0002      0.0004
        13         0.0155      0.0098     -0.0027      0.0003      0.0009
        14        -0.0083      0.0022      0.0889      0.0080      0.0195
        15         0.0038     -0.0161      0.0437      0.0022      0.0052
 Ground to excited state transition magnetic dipole moments (Au):
       state          X           Y           Z
         1        -0.0239     -0.0631      0.5880
         2        -0.0180     -0.5779     -0.0815
         3         0.0674      0.0407     -0.0059
         4        -0.3551      0.1751     -0.0319
         5         0.0496      0.2285     -0.0452
         6        -0.2348      0.0892     -0.1568
         7        -0.0948     -0.0430      0.0079
         8         0.1401      0.1756      0.0067
         9         0.0420      0.3734      0.0021
        10         1.4943     -0.4206     -0.0192
        11        -0.2184      0.6976      0.0136
        12        -0.4493     -0.7539      0.0028
        13        -0.7254     -0.5296     -0.0158
        14         0.4794     -0.2604     -0.0415
        15         0.5181     -0.1172     -0.0027
 Ground to excited state transition velocity quadrupole moments (Au):
       state          XX          YY          ZZ          XY          XZ          YZ
         1         0.1684     -0.1408     -0.0091      0.4682     -0.0649      0.0071
         2        -0.0381      0.0179      0.0162     -0.0990     -0.1731      0.0228
         3         0.1254     -0.1516      0.0639      0.1070      0.0108     -0.0045
         4        -0.0032     -0.0089      0.0225     -0.0426     -0.0975     -0.2144
         5         0.0749     -0.0812      0.0171      0.0229      0.0162      0.1083
         6         0.3682     -0.2064     -0.0298      0.1180      0.0056      0.0044
         7        -0.0859      0.0003      0.0327      0.2988      0.0663     -0.1808
         8        -0.1431      0.0410     -0.0141      0.4145     -0.0747      0.0939
         9        -0.0542      0.0383      0.0065     -0.0244     -0.1512     -0.0716
        10         0.0784     -0.0415      0.0087      0.0120     -0.1390     -0.0932
        11        -0.0011      0.0143      0.0021     -0.0359     -0.2790      0.0835
        12        -0.0011     -0.0160      0.0032      0.0409     -0.0267      0.0437
        13        -0.0195      0.0000     -0.0086      0.0544     -0.1691     -0.0015
        14        -0.0211      0.0374     -0.0149     -0.0059      0.0351      0.4350
        15         0.0021      0.0122      0.0040      0.0021     -0.0655      0.1179
 <0|del|b> * <b|rxdel|0> + <0|del|b> * <b|delr+rdel|0>
 Rotatory Strengths (R) in cgs (10**-40 erg-esu-cm/Gauss)
       state          XX          YY          ZZ    R(velocity)    E-M Angle
         1        -3.3430      1.0331     12.1293      3.2731       85.75
         2        -7.5413      0.0708    -13.1454     -6.8720      169.25
         3         1.9540     -1.3472      0.3260      0.3109       85.10
         4        -5.2777      0.1569     -1.1434     -2.0880      110.41
         5       -12.0350     12.6365    -18.6207     -6.0064      105.19
         6       -36.4195    -39.1117    -67.4114    -47.6475      123.83
         7       -20.9004    -28.6375     13.7719    -11.9220      152.84
         8        52.2485     48.0686     31.3681     43.8951        3.84
         9        13.9824      6.5607      6.6230      9.0554       81.19
        10        20.5892     21.7658     66.2513     36.2021       62.74
        11        14.9700     -4.3989      8.7979      6.4563       83.76
        12        -8.1290     -5.4599    -15.3623     -9.6504      159.19
        13        -4.7559    -14.5582    -23.6996    -14.3379      169.76
        14        -6.2907    -14.0025     -1.1099     -7.1344       99.72
        15         1.0170      2.7527      5.5996      3.1231       81.39
 1/2[<0|r|b>*<b|rxdel|0> + (<0|rxdel|b>*<b|r|0>)*]
 Rotatory Strengths (R) in cgs (10**-40 erg-esu-cm/Gauss)
       state          XX          YY          ZZ     R(length)
         1        14.2270      8.8294     -6.6665      5.4633
         2        -2.6414     -7.8329     -0.1862     -3.5535
         3         2.8506     -9.2035     -0.3163     -2.2231
         4        -3.0550     -2.4320     -0.9164     -2.1345
         5         2.9182    -37.2131      2.9823    -10.4375
         6       -96.0871    -81.9389    -10.5520    -62.8593
         7       -28.4176    -14.5444     -0.0739    -14.3453
         8        68.0631     84.8708     -0.3707     50.8544
         9        -2.5702     31.6375      0.1263      9.7312
        10        65.8298     63.9742      1.1517     43.6519
        11        12.6945     14.2787      0.5261      9.1664
        12       -10.5061    -12.7592      0.3130     -7.6508
        13       -31.9533    -17.0617      0.5746    -16.1468
        14       -14.6345      5.4815     -5.5337     -4.8956
        15        -3.8998      6.5482      0.0613      0.9033
  1/2[<0|del|b>*<b|r|0> + (<0|r|b>*<b|del|0>)*] (Au)
       state          X           Y           Z        Dip. S.   Osc.(frdel)
         1        -0.0315     -0.0066      0.0000      0.0382      0.0254
         2        -0.0004     -0.0002      0.0000      0.0005      0.0004
         3        -0.0011     -0.0075     -0.0013      0.0099      0.0066
         4         0.0000     -0.0002     -0.0004      0.0006      0.0004
         5        -0.0013     -0.0095     -0.0068      0.0176      0.0118
         6        -0.0420     -0.3338     -0.0026      0.3784      0.2523
         7        -0.0321     -0.0458     -0.0001      0.0780      0.0520
         8        -0.0827     -0.0977     -0.0005      0.1809      0.1206
         9        -0.0008     -0.0029     -0.0131      0.0167      0.0112
        10        -0.0007     -0.0110      0.0008      0.0109      0.0072
        11        -0.0007     -0.0003      0.0047     -0.0038     -0.0025
        12        -0.0003     -0.0002      0.0002      0.0003      0.0002
        13        -0.0010     -0.0004     -0.0001      0.0016      0.0010
        14        -0.0004      0.0001     -0.0168      0.0170      0.0114
        15         0.0000     -0.0013      0.0014     -0.0002     -0.0001

 Excitation energies and oscillator strengths:
 
 Excited State   1:      Singlet-A      4.3163 eV  287.24 nm  f=0.0793  <S**2>=0.000
      12 -> 15         0.22361
      13 -> 14         0.64840
      13 -> 16         0.13346
 This state for optimization and/or second-order correction.
 Total Energy, E(CIS) =  0.182414386078    
 Copying the excited state density for this state as the 1-particle RhoCI density.
 
 Excited State   2:      Singlet-A      4.5615 eV  271.80 nm  f=0.0049  <S**2>=0.000
      13 -> 14        -0.12314
      13 -> 16         0.67603
 
 Excited State   3:      Singlet-A      4.8139 eV  257.56 nm  f=0.0131  <S**2>=0.000
      12 -> 14        -0.39299
      13 -> 15         0.57903
 
 Excited State   4:      Singlet-A      5.5055 eV  225.20 nm  f=0.0003  <S**2>=0.000
      12 -> 17        -0.12520
      12 -> 18         0.14731
      13 -> 17        -0.40412
      13 -> 18         0.41648
      13 -> 20        -0.16958
      13 -> 21         0.12921
      13 -> 22        -0.15122
      13 -> 23         0.16013
 
 Excited State   5:      Singlet-A      5.6964 eV  217.65 nm  f=0.0096  <S**2>=0.000
       7 -> 16        -0.15961
      12 -> 16         0.65150
      12 -> 22         0.12562
 
 Excited State   6:      Singlet-A      5.9573 eV  208.12 nm  f=0.2964  <S**2>=0.000
      11 -> 18        -0.10740
      12 -> 14         0.51973
      12 -> 15         0.19592
      12 -> 16        -0.12005
      13 -> 15         0.34080
 
 Excited State   7:      Singlet-A      6.1111 eV  202.88 nm  f=0.0612  <S**2>=0.000
      12 -> 15         0.33832
      12 -> 17         0.11488
      12 -> 19         0.25062
      12 -> 23        -0.13573
      13 -> 14        -0.10419
      13 -> 17        -0.21483
      13 -> 18        -0.10036
      13 -> 19        -0.33682
      13 -> 22         0.11192
      13 -> 23         0.17380
 
 Excited State   8:      Singlet-A      6.1255 eV  202.41 nm  f=0.1419  <S**2>=0.000
      12 -> 14        -0.11943
      12 -> 15         0.52000
      12 -> 19        -0.18914
      13 -> 14        -0.17076
      13 -> 15        -0.11149
      13 -> 17         0.12648
      13 -> 19         0.20589
      13 -> 23        -0.11115
 
 Excited State   9:      Singlet-A      6.3734 eV  194.53 nm  f=0.0045  <S**2>=0.000
      12 -> 17         0.13618
      12 -> 21         0.13858
      12 -> 23        -0.10105
      13 -> 17         0.34558
      13 -> 18         0.41739
      13 -> 19        -0.31990
      13 -> 20         0.10477
      13 -> 21         0.11853
 
 Excited State  10:      Singlet-A      6.6814 eV  185.57 nm  f=0.0094  <S**2>=0.000
       9 -> 15         0.15091
      10 -> 14        -0.27203
      11 -> 14         0.56540
      11 -> 15         0.21513
 
 Excited State  11:      Singlet-A      6.9046 eV  179.57 nm  f=0.0018  <S**2>=0.000
      12 -> 17         0.31144
      12 -> 18         0.46331
      12 -> 20         0.22646
      12 -> 21         0.12236
      12 -> 23        -0.11454
      13 -> 17        -0.11466
      13 -> 18        -0.19731
      13 -> 21         0.11202
 
 Excited State  12:      Singlet-A      7.2454 eV  171.12 nm  f=0.0049  <S**2>=0.000
      10 -> 15         0.15510
      11 -> 15         0.21104
      12 -> 18        -0.12476
      12 -> 19         0.27469
      13 -> 18         0.14434
      13 -> 19         0.33232
      13 -> 20         0.34370
      13 -> 22         0.12738
      13 -> 24        -0.10221
 
 Excited State  13:      Singlet-A      7.3426 eV  168.86 nm  f=0.0015  <S**2>=0.000
       9 -> 14         0.35574
       9 -> 15        -0.20225
      10 -> 14         0.16455
      10 -> 15         0.13066
      11 -> 15         0.42614
      13 -> 19        -0.16809
      13 -> 20        -0.20449
 
 Excited State  14:      Singlet-A      7.4129 eV  167.25 nm  f=0.0070  <S**2>=0.000
      12 -> 19        -0.25935
      12 -> 22         0.17850
      13 -> 17        -0.25830
      13 -> 19        -0.12306
      13 -> 20         0.16029
      13 -> 22         0.40934
      13 -> 23        -0.23121
      13 -> 24         0.11568
 
 Excited State  15:      Singlet-A      7.6261 eV  162.58 nm  f=0.0014  <S**2>=0.000
       9 -> 14        -0.20836
       9 -> 15         0.11946
      10 -> 15         0.24234
      12 -> 17         0.30881
      12 -> 18        -0.28110
      12 -> 19        -0.13360
      12 -> 20         0.11800
      12 -> 21         0.12249
      12 -> 22         0.15183
      12 -> 24        -0.10208
      13 -> 17        -0.11572
      13 -> 20        -0.15657
      13 -> 21        -0.16846
      13 -> 24         0.17102
 SavETr:  write IOETrn=   770 NScale= 10 NData=  16 NLR=1 NState=   15 LETran=     280.
 The selected state is a singlet
 CISAX will form     1 AO SS matrices at one time.
 NMat=     1 NSing=     1 JSym2X= 0.
 Leave Link  914 at Tue Dec 15 16:17:16 2015, MaxMem=    33554432 cpu:         0.1
 (Enter /home/Applications/g09/g09/l1002.exe)
 Minotr:  Closed shell wavefunction.
          Computing CIS/TD-HF/TD-KS derivatives.
          Using Z-Vector for PSCF gradient.
          Skipping F1 and S1 gradient terms here.
          IDoAtm=111111111
          Direct CPHF calculation.
          Differentiating once with respect to electric field.
                with respect to dipole field.
          Differentiating once with respect to nuclear coordinates.
          Electric field/nuclear overlap derivatives assumed to be zero.
          Requested convergence is 1.0D-10 RMS, and 1.0D-09 maximum.
          NewPWx=T KeepS1=F KeepF1=F KeepIn=T MapXYZ=F SortEE=F KeepMc=T.
          MDV=      33495423 using IRadAn=       0.
 Keep J ints in memory in canonical form, NReq=871704.
 FoFCou: FMM=F IPFlag=           0 FMFlag=           0 FMFlg1=           0
         NFxFlg=           0 DoJE=F BraDBF=F KetDBF=F FulRan=T
         wScrn=  0.000000 ICntrl=     600 IOpCl=  2 I1Cent=           0 NGrid=           0
         NMat0=    1 NMatS0=     54 NMatT0=    0 NMatD0=    1 NMtDS0=    0 NMtDT0=    0
 Symmetry not used in FoFCou.
          Solving linear equations separately, MaxMat=       0.
          There are     1 degrees of freedom in the 1st order CPHF.  IDoFFX=0 NUNeed=     1.
 LinEq1:  Iter=  0 NonCon=     1 RMS=1.43D-02 Max=8.97D-02 NDo=     1
 AX will form     1 AO Fock derivatives at one time.
 LinEq1:  Iter=  1 NonCon=     1 RMS=2.94D-03 Max=1.33D-02 NDo=     1
 LinEq1:  Iter=  2 NonCon=     1 RMS=4.13D-04 Max=2.20D-03 NDo=     1
 LinEq1:  Iter=  3 NonCon=     1 RMS=5.27D-05 Max=2.28D-04 NDo=     1
 LinEq1:  Iter=  4 NonCon=     1 RMS=4.69D-06 Max=1.51D-05 NDo=     1
 LinEq1:  Iter=  5 NonCon=     1 RMS=5.75D-07 Max=2.11D-06 NDo=     1
 LinEq1:  Iter=  6 NonCon=     1 RMS=8.99D-08 Max=4.15D-07 NDo=     1
 LinEq1:  Iter=  7 NonCon=     1 RMS=1.50D-08 Max=6.78D-08 NDo=     1
 LinEq1:  Iter=  8 NonCon=     1 RMS=2.36D-09 Max=8.92D-09 NDo=     1
 LinEq1:  Iter=  9 NonCon=     1 RMS=2.73D-10 Max=9.02D-10 NDo=     1
 LinEq1:  Iter= 10 NonCon=     0 RMS=3.74D-11 Max=1.47D-10 NDo=     1
 Linear equations converged to 1.000D-10 1.000D-09 after    10 iterations.
 End of Minotr F.D. properties file   721 does not exist.
 End of Minotr F.D. properties file   722 does not exist.
 End of Minotr F.D. properties file   788 does not exist.
 Leave Link 1002 at Tue Dec 15 16:17:16 2015, MaxMem=    33554432 cpu:         0.0
 (Enter /home/Applications/g09/g09/l601.exe)
 Copying SCF densities to generalized density rwf, IOpCl= 0 IROHF=0.

 **********************************************************************

            Population analysis using the SCF density.

 **********************************************************************

 Orbital symmetries:
       Occupied  (A) (A) (A) (A) (A) (A) (A) (A) (A) (A) (A) (A)
                 (A)
       Virtual   (A) (A) (A) (A) (A) (A) (A) (A) (A) (A) (A)
 The electronic state is 1-A.
 Alpha  occ. eigenvalues --   -1.56460  -1.21940  -1.10073  -0.82929  -0.81492
 Alpha  occ. eigenvalues --   -0.68883  -0.60741  -0.58640  -0.51177  -0.50020
 Alpha  occ. eigenvalues --   -0.48404  -0.38545  -0.33902
 Alpha virt. eigenvalues --    0.02989   0.05697   0.08727   0.14147   0.14894
 Alpha virt. eigenvalues --    0.16093   0.18119   0.18392   0.19439   0.20882
 Alpha virt. eigenvalues --    0.22942
     Molecular Orbital Coefficients:
                           1         2         3         4         5
                           O         O         O         O         O
     Eigenvalues --    -1.56460  -1.21940  -1.10073  -0.82929  -0.81492
   1 1   C  1S          0.24131  -0.44151   0.35045   0.43876  -0.08584
   2        1PX         0.04614  -0.10601  -0.12382  -0.09623  -0.26548
   3        1PY        -0.10793   0.03376  -0.09460   0.12257  -0.20612
   4        1PZ         0.00220  -0.00392   0.00395   0.00202   0.00802
   5 2   C  1S          0.36062  -0.05367   0.52635  -0.23025   0.35169
   6        1PX         0.18982   0.03231  -0.00061   0.00615  -0.15834
   7        1PY        -0.05353  -0.22633   0.03676   0.32537   0.14502
   8        1PZ        -0.01028  -0.00396  -0.01038   0.00576   0.01075
   9 3   O  1S          0.68192   0.53182  -0.08509   0.11698  -0.26681
  10        1PX         0.00920  -0.06261  -0.36161   0.45258   0.18203
  11        1PY         0.19637  -0.04101   0.05646  -0.09861   0.14149
  12        1PZ         0.01394   0.00461   0.00020  -0.00740   0.01892
  13 4   C  1S          0.35092  -0.22493  -0.49740  -0.05642   0.39350
  14        1PX        -0.18141  -0.06701   0.01175  -0.19309   0.07863
  15        1PY         0.00768  -0.22070   0.02468  -0.30370  -0.14795
  16        1PZ        -0.01083   0.00108   0.01390  -0.01090  -0.00080
  17 5   C  1S          0.25724  -0.52941  -0.18958  -0.25271  -0.35790
  18        1PX        -0.06888   0.07335  -0.14059  -0.24268   0.05523
  19        1PY        -0.09862   0.04397   0.14303   0.10124  -0.27988
  20        1PZ         0.00324  -0.00748  -0.00398  -0.01091   0.00061
  21 6   H  1S          0.05707  -0.17849  -0.06980  -0.15455  -0.25963
  22 7   H  1S          0.07854  -0.06622  -0.20491  -0.02152   0.26566
  23 8   H  1S          0.07727  -0.00984   0.20864  -0.16135   0.22306
  24 9   H  1S          0.05294  -0.14587   0.13519   0.28218  -0.06976
                           6         7         8         9        10
                           O         O         O         O         O
     Eigenvalues --    -0.68883  -0.60741  -0.58640  -0.51177  -0.50020
   1 1   C  1S         -0.09231  -0.00888  -0.18012  -0.03485  -0.06993
   2        1PX         0.13713   0.01952   0.07130   0.07893  -0.36935
   3        1PY        -0.25097   0.02057  -0.17908  -0.27704   0.36051
   4        1PZ        -0.00004   0.18993  -0.00225  -0.00504  -0.00232
   5 2   C  1S         -0.07874   0.01499   0.15169   0.10641   0.01864
   6        1PX         0.36905   0.00266  -0.40881   0.24998   0.04364
   7        1PY         0.08173  -0.02770   0.12376   0.14821  -0.12188
   8        1PZ        -0.00524   0.39172   0.00680  -0.01741  -0.01573
   9 3   O  1S         -0.18895  -0.01987   0.02545  -0.07608  -0.10068
  10        1PX         0.05748   0.02017   0.43138   0.05019   0.09627
  11        1PY         0.49455  -0.02028  -0.09462   0.19904   0.49206
  12        1PZ         0.01792   0.79217  -0.04001  -0.00827  -0.00936
  13 4   C  1S         -0.09028   0.00577  -0.14935  -0.05606   0.02999
  14        1PX        -0.34294  -0.04561  -0.39009   0.16015  -0.20419
  15        1PY         0.16604  -0.02935  -0.00428  -0.44694   0.01591
  16        1PZ        -0.00217   0.36591  -0.03481  -0.00699  -0.01801
  17 5   C  1S         -0.06654   0.00531   0.17829   0.00027  -0.04193
  18        1PX        -0.19484  -0.00609   0.04994   0.07643   0.42052
  19        1PY        -0.20441   0.03931   0.12743   0.50754   0.11603
  20        1PZ        -0.00156   0.20046  -0.01057  -0.01293   0.00429
  21 6   H  1S         -0.20707   0.02641   0.19281   0.34732   0.27128
  22 7   H  1S         -0.27547  -0.01738  -0.31040   0.27522  -0.12405
  23 8   H  1S         -0.26636   0.01357   0.33300  -0.15404   0.01592
  24 9   H  1S         -0.22240   0.00241  -0.23843  -0.24370   0.35394
                          11        12        13        14        15
                           O         O         O         V         V
     Eigenvalues --    -0.48404  -0.38545  -0.33902   0.02989   0.05697
   1 1   C  1S          0.01695  -0.00847  -0.00941  -0.00387   0.01406
   2        1PX        -0.43130   0.03735   0.01680   0.00115  -0.00315
   3        1PY        -0.31274   0.02060   0.01883   0.00863  -0.00421
   4        1PZ         0.04769   0.49391   0.52027  -0.37733  -0.55091
   5 2   C  1S         -0.00892  -0.00226   0.01973   0.01587   0.00520
   6        1PX         0.15776  -0.01344   0.02730   0.01221   0.00844
   7        1PY         0.44618  -0.00805  -0.00508   0.01059  -0.01282
   8        1PZ         0.02026   0.01948   0.60433   0.62248   0.29924
   9 3   O  1S          0.16512   0.00279   0.00306   0.01162   0.00469
  10        1PX        -0.02591   0.00263   0.00140   0.00481   0.01891
  11        1PY        -0.29190   0.03779   0.01167   0.02225   0.00631
  12        1PZ         0.00445  -0.44936  -0.11411  -0.38709   0.02915
  13 4   C  1S         -0.07741   0.01716  -0.02874   0.01733  -0.02911
  14        1PX         0.08272  -0.00271   0.02905   0.00924   0.02085
  15        1PY         0.25633  -0.00440   0.00442   0.01106   0.02613
  16        1PZ         0.03364   0.32620  -0.54915   0.50576  -0.44174
  17 5   C  1S          0.01306  -0.02334   0.00760  -0.00201  -0.02200
  18        1PX         0.40459  -0.04020   0.00432   0.00410  -0.01443
  19        1PY        -0.15397   0.02375  -0.01075   0.01239  -0.00559
  20        1PZ         0.05186   0.66359  -0.21223  -0.24975   0.63744
  21 6   H  1S          0.12755   0.00131  -0.01111  -0.00386   0.01736
  22 7   H  1S         -0.13076   0.00804   0.01683  -0.01217   0.02583
  23 8   H  1S         -0.26516   0.01722  -0.00800  -0.00552  -0.00104
  24 9   H  1S         -0.04887  -0.00092   0.00955   0.00086  -0.00880
                          16        17        18        19        20
                           V         V         V         V         V
     Eigenvalues --     0.08727   0.14147   0.14894   0.16093   0.18119
   1 1   C  1S          0.03263   0.38866  -0.03708   0.02375   0.46955
   2        1PX         0.05584   0.04374   0.50384  -0.11682   0.04402
   3        1PY         0.04310  -0.17105   0.25718   0.25048   0.09861
   4        1PZ         0.00805   0.01073  -0.01542   0.00462   0.01301
   5 2   C  1S         -0.28024  -0.38145   0.29650   0.10057   0.05680
   6        1PX        -0.15117   0.15544   0.17994  -0.33542  -0.27424
   7        1PY         0.34370  -0.14963   0.19147   0.17435  -0.31505
   8        1PZ        -0.00338   0.01825  -0.03057   0.00144   0.00309
   9 3   O  1S          0.25136  -0.01980   0.01116   0.07208   0.00217
  10        1PX         0.09088  -0.11158   0.21582  -0.15548   0.09688
  11        1PY         0.45626  -0.00269  -0.03911   0.09839   0.07389
  12        1PZ         0.05587  -0.00537   0.01095   0.02106  -0.00487
  13 4   C  1S         -0.28672   0.27647   0.10189   0.36442  -0.19148
  14        1PX         0.33264   0.07953   0.34087   0.05913  -0.08066
  15        1PY         0.29708  -0.03397  -0.01937   0.31542  -0.03813
  16        1PZ         0.03000  -0.01923  -0.00669  -0.03321   0.02212
  17 5   C  1S          0.03034  -0.32031  -0.07683  -0.22364   0.00697
  18        1PX         0.03115   0.13352   0.36675  -0.27662   0.40282
  19        1PY         0.02720  -0.01060   0.05848   0.37111  -0.14377
  20        1PZ        -0.01328  -0.01198   0.01664  -0.01880   0.00259
  21 6   H  1S         -0.12350   0.23698  -0.23254   0.09441  -0.13752
  22 7   H  1S          0.26412  -0.33972  -0.37791  -0.17941   0.17597
  23 8   H  1S          0.33983   0.43548  -0.03528  -0.31022  -0.31537
  24 9   H  1S         -0.07944  -0.21498   0.05401  -0.30278  -0.44462
                          21        22        23        24
                           V         V         V         V
     Eigenvalues --     0.18392   0.19439   0.20882   0.22942
   1 1   C  1S         -0.00587  -0.01673  -0.02955   0.02471
   2        1PX         0.39706   0.02566  -0.20803  -0.24673
   3        1PY         0.05680  -0.35050   0.47294  -0.02016
   4        1PZ         0.00255   0.00621  -0.00301   0.01868
   5 2   C  1S          0.13423  -0.03874   0.08307   0.14060
   6        1PX        -0.01451  -0.40874   0.14651   0.29700
   7        1PY         0.08151  -0.17185   0.18512  -0.42586
   8        1PZ        -0.01440   0.00992  -0.00668  -0.02962
   9 3   O  1S          0.00199   0.10177   0.00456  -0.02532
  10        1PX         0.06377   0.07297  -0.00549   0.56067
  11        1PY        -0.06288   0.25334   0.02194  -0.10183
  12        1PZ         0.00184   0.01902   0.00028  -0.00236
  13 4   C  1S         -0.11197  -0.03185  -0.12583  -0.10074
  14        1PX        -0.13326   0.42638   0.16954   0.31640
  15        1PY         0.24797  -0.20982  -0.33772   0.36221
  16        1PZ         0.01617   0.00916   0.01169   0.02577
  17 5   C  1S         -0.44742   0.02960   0.15545  -0.04109
  18        1PX        -0.03262  -0.12277  -0.24152  -0.22998
  19        1PY        -0.30609  -0.24102  -0.44255   0.11751
  20        1PZ        -0.03280   0.00180   0.00485  -0.02164
  21 6   H  1S          0.56313   0.18833   0.25905   0.06339
  22 7   H  1S          0.27887  -0.32254  -0.14634   0.01146
  23 8   H  1S         -0.08321  -0.28668   0.07940   0.02064
  24 9   H  1S          0.12683   0.27405  -0.37013  -0.08143
     Density Matrix:
                           1         2         3         4         5
   1 1   C  1S          1.24690
   2        1PX        -0.03054   0.92610
   3        1PY         0.06280  -0.03951   0.96007
   4        1PZ        -0.01073   0.01666   0.01557   1.10623
   5 2   C  1S          0.27689  -0.21627  -0.43596   0.03219   1.25650
   6        1PX         0.15585   0.00778  -0.21585   0.02834  -0.11033
   7        1PY         0.42329  -0.33891  -0.52679   0.02278   0.01927
   8        1PZ        -0.02157   0.02363   0.02641   0.79911   0.02072
   9 3   O  1S         -0.00074  -0.03833  -0.00510   0.00963   0.11771
  10        1PX        -0.01211  -0.04261  -0.02646   0.00876  -0.31047
  11        1PY        -0.09058   0.00098   0.07555   0.01353   0.30941
  12        1PZ         0.00189  -0.01386  -0.00218  -0.26068   0.03062
  13 4   C  1S         -0.03002  -0.00457   0.02690  -0.01159   0.01483
  14        1PX         0.02127  -0.05596  -0.02408   0.01953  -0.00660
  15        1PY        -0.01621  -0.08142  -0.01893   0.01635  -0.03623
  16        1PZ         0.00955  -0.00432  -0.01134  -0.10667  -0.01400
  17 5   C  1S          0.25293   0.44724  -0.03929  -0.01547  -0.02918
  18        1PX        -0.45072  -0.66668   0.05011  -0.00395   0.01578
  19        1PY         0.08482   0.16756   0.09528   0.00259   0.01781
  20        1PZ        -0.00895   0.00303   0.00660   0.51593  -0.00745
  21 6   H  1S         -0.04416  -0.05613   0.01695   0.00264   0.04859
  22 7   H  1S          0.04452   0.06367  -0.00790   0.00902   0.05041
  23 8   H  1S         -0.05931   0.03880   0.08975  -0.00645   0.62315
  24 9   H  1S          0.60128  -0.36735   0.66932   0.00965  -0.05751
                           6         7         8         9        10
   6        1PX         0.91144
   7        1PY         0.08625   0.88218
   8        1PZ         0.01396  -0.00158   1.04090
   9 3   O  1S          0.22428  -0.19548  -0.01779   1.83984
  10        1PX        -0.33703   0.43138   0.03397  -0.01988   1.14999
  11        1PY         0.51807  -0.28506  -0.04401  -0.30036   0.03465
  12        1PZ         0.05196  -0.04155   0.46522  -0.02684  -0.00633
  13 4   C  1S         -0.00237  -0.03994  -0.02007   0.10396   0.35171
  14        1PX         0.05509  -0.03151   0.00525  -0.25205  -0.55487
  15        1PY         0.01680  -0.01954   0.00023  -0.13292  -0.35971
  16        1PZ        -0.00834  -0.00221  -0.36285  -0.01934  -0.04179
  17 5   C  1S         -0.01931  -0.01488   0.00963  -0.00151  -0.01334
  18        1PX        -0.02250   0.08458   0.00425   0.03528  -0.02042
  19        1PY         0.01432  -0.03368  -0.01109  -0.00825   0.04838
  20        1PZ        -0.01018   0.01473  -0.07136   0.00698  -0.00725
  21 6   H  1S          0.01712   0.05683  -0.00903   0.02385   0.06354
  22 7   H  1S          0.07798  -0.05652   0.00335  -0.04619  -0.05439
  23 8   H  1S         -0.67317  -0.27701   0.00017  -0.04758   0.04556
  24 9   H  1S         -0.03894  -0.06402   0.00687   0.01883  -0.03346
                          11        12        13        14        15
  11        1PY         1.39125
  12        1PZ        -0.04662   1.69041
  13 4   C  1S          0.21435   0.03190   1.24164
  14        1PX        -0.45263  -0.05545   0.10795   0.85580
  15        1PY        -0.10397  -0.03079  -0.02011  -0.09345   0.91541
  16        1PZ        -0.03954   0.41520   0.03096  -0.01953   0.00019
  17 5   C  1S         -0.07853   0.00431   0.30716  -0.05953   0.46913
  18        1PX         0.01775   0.01335   0.10195   0.12965   0.17879
  19        1PY         0.05441  -0.00045  -0.48835   0.07629  -0.59305
  20        1PZ         0.01009  -0.22875   0.04571  -0.01816   0.02797
  21 6   H  1S          0.07442   0.00304  -0.05873   0.03053  -0.06160
  22 7   H  1S         -0.05564  -0.01517   0.62378   0.57647  -0.44994
  23 8   H  1S         -0.06711  -0.01548   0.05397  -0.10303  -0.04222
  24 9   H  1S          0.07767   0.00392   0.04848  -0.00821   0.05331
                          16        17        18        19        20
  16        1PZ         1.09004
  17 5   C  1S         -0.03532   1.22622
  18        1PX        -0.02412   0.04429   0.96066
  19        1PY         0.03089   0.05595   0.04025   0.95142
  20        1PZ         0.81702  -0.01847  -0.00953   0.01670   1.05753
  21 6   H  1S          0.01403   0.58591   0.51581   0.57952   0.02684
  22 7   H  1S         -0.01882  -0.05826  -0.01514   0.09001  -0.01384
  23 8   H  1S         -0.00107   0.03802  -0.05709   0.01085   0.00488
  24 9   H  1S         -0.00813  -0.04855   0.07249  -0.00851   0.00089
                          21        22        23        24
  21 6   H  1S          0.84532
  22 7   H  1S          0.01355   0.80940
  23 8   H  1S         -0.00909  -0.02644   0.80413
  24 9   H  1S         -0.00140  -0.01539   0.01711   0.84061
    Full Mulliken population analysis:
                           1         2         3         4         5
   1 1   C  1S          1.24690
   2        1PX         0.00000   0.92610
   3        1PY         0.00000   0.00000   0.96007
   4        1PZ         0.00000   0.00000   0.00000   1.10623
   5 2   C  1S          0.00000   0.00000   0.00000   0.00000   1.25650
   6        1PX         0.00000   0.00000   0.00000   0.00000   0.00000
   7        1PY         0.00000   0.00000   0.00000   0.00000   0.00000
   8        1PZ         0.00000   0.00000   0.00000   0.00000   0.00000
   9 3   O  1S          0.00000   0.00000   0.00000   0.00000   0.00000
  10        1PX         0.00000   0.00000   0.00000   0.00000   0.00000
  11        1PY         0.00000   0.00000   0.00000   0.00000   0.00000
  12        1PZ         0.00000   0.00000   0.00000   0.00000   0.00000
  13 4   C  1S          0.00000   0.00000   0.00000   0.00000   0.00000
  14        1PX         0.00000   0.00000   0.00000   0.00000   0.00000
  15        1PY         0.00000   0.00000   0.00000   0.00000   0.00000
  16        1PZ         0.00000   0.00000   0.00000   0.00000   0.00000
  17 5   C  1S          0.00000   0.00000   0.00000   0.00000   0.00000
  18        1PX         0.00000   0.00000   0.00000   0.00000   0.00000
  19        1PY         0.00000   0.00000   0.00000   0.00000   0.00000
  20        1PZ         0.00000   0.00000   0.00000   0.00000   0.00000
  21 6   H  1S          0.00000   0.00000   0.00000   0.00000   0.00000
  22 7   H  1S          0.00000   0.00000   0.00000   0.00000   0.00000
  23 8   H  1S          0.00000   0.00000   0.00000   0.00000   0.00000
  24 9   H  1S          0.00000   0.00000   0.00000   0.00000   0.00000
                           6         7         8         9        10
   6        1PX         0.91144
   7        1PY         0.00000   0.88218
   8        1PZ         0.00000   0.00000   1.04090
   9 3   O  1S          0.00000   0.00000   0.00000   1.83984
  10        1PX         0.00000   0.00000   0.00000   0.00000   1.14999
  11        1PY         0.00000   0.00000   0.00000   0.00000   0.00000
  12        1PZ         0.00000   0.00000   0.00000   0.00000   0.00000
  13 4   C  1S          0.00000   0.00000   0.00000   0.00000   0.00000
  14        1PX         0.00000   0.00000   0.00000   0.00000   0.00000
  15        1PY         0.00000   0.00000   0.00000   0.00000   0.00000
  16        1PZ         0.00000   0.00000   0.00000   0.00000   0.00000
  17 5   C  1S          0.00000   0.00000   0.00000   0.00000   0.00000
  18        1PX         0.00000   0.00000   0.00000   0.00000   0.00000
  19        1PY         0.00000   0.00000   0.00000   0.00000   0.00000
  20        1PZ         0.00000   0.00000   0.00000   0.00000   0.00000
  21 6   H  1S          0.00000   0.00000   0.00000   0.00000   0.00000
  22 7   H  1S          0.00000   0.00000   0.00000   0.00000   0.00000
  23 8   H  1S          0.00000   0.00000   0.00000   0.00000   0.00000
  24 9   H  1S          0.00000   0.00000   0.00000   0.00000   0.00000
                          11        12        13        14        15
  11        1PY         1.39125
  12        1PZ         0.00000   1.69041
  13 4   C  1S          0.00000   0.00000   1.24164
  14        1PX         0.00000   0.00000   0.00000   0.85580
  15        1PY         0.00000   0.00000   0.00000   0.00000   0.91541
  16        1PZ         0.00000   0.00000   0.00000   0.00000   0.00000
  17 5   C  1S          0.00000   0.00000   0.00000   0.00000   0.00000
  18        1PX         0.00000   0.00000   0.00000   0.00000   0.00000
  19        1PY         0.00000   0.00000   0.00000   0.00000   0.00000
  20        1PZ         0.00000   0.00000   0.00000   0.00000   0.00000
  21 6   H  1S          0.00000   0.00000   0.00000   0.00000   0.00000
  22 7   H  1S          0.00000   0.00000   0.00000   0.00000   0.00000
  23 8   H  1S          0.00000   0.00000   0.00000   0.00000   0.00000
  24 9   H  1S          0.00000   0.00000   0.00000   0.00000   0.00000
                          16        17        18        19        20
  16        1PZ         1.09004
  17 5   C  1S          0.00000   1.22622
  18        1PX         0.00000   0.00000   0.96066
  19        1PY         0.00000   0.00000   0.00000   0.95142
  20        1PZ         0.00000   0.00000   0.00000   0.00000   1.05753
  21 6   H  1S          0.00000   0.00000   0.00000   0.00000   0.00000
  22 7   H  1S          0.00000   0.00000   0.00000   0.00000   0.00000
  23 8   H  1S          0.00000   0.00000   0.00000   0.00000   0.00000
  24 9   H  1S          0.00000   0.00000   0.00000   0.00000   0.00000
                          21        22        23        24
  21 6   H  1S          0.84532
  22 7   H  1S          0.00000   0.80940
  23 8   H  1S          0.00000   0.00000   0.80413
  24 9   H  1S          0.00000   0.00000   0.00000   0.84061
     Gross orbital populations:
                           1
   1 1   C  1S          1.24690
   2        1PX         0.92610
   3        1PY         0.96007
   4        1PZ         1.10623
   5 2   C  1S          1.25650
   6        1PX         0.91144
   7        1PY         0.88218
   8        1PZ         1.04090
   9 3   O  1S          1.83984
  10        1PX         1.14999
  11        1PY         1.39125
  12        1PZ         1.69041
  13 4   C  1S          1.24164
  14        1PX         0.85580
  15        1PY         0.91541
  16        1PZ         1.09004
  17 5   C  1S          1.22622
  18        1PX         0.96066
  19        1PY         0.95142
  20        1PZ         1.05753
  21 6   H  1S          0.84532
  22 7   H  1S          0.80940
  23 8   H  1S          0.80413
  24 9   H  1S          0.84061
          Condensed to atoms (all electrons):
               1          2          3          4          5          6
     1  C    4.239303   0.000000   0.000000   0.000000   0.000000   0.000000
     2  C    0.000000   4.091021   0.000000   0.000000   0.000000   0.000000
     3  O    0.000000   0.000000   6.071492   0.000000   0.000000   0.000000
     4  C    0.000000   0.000000   0.000000   4.102889   0.000000   0.000000
     5  C    0.000000   0.000000   0.000000   0.000000   4.195837   0.000000
     6  H    0.000000   0.000000   0.000000   0.000000   0.000000   0.845321
     7  H    0.000000   0.000000   0.000000   0.000000   0.000000   0.000000
     8  H    0.000000   0.000000   0.000000   0.000000   0.000000   0.000000
     9  H    0.000000   0.000000   0.000000   0.000000   0.000000   0.000000
               7          8          9
     1  C    0.000000   0.000000   0.000000
     2  C    0.000000   0.000000   0.000000
     3  O    0.000000   0.000000   0.000000
     4  C    0.000000   0.000000   0.000000
     5  C    0.000000   0.000000   0.000000
     6  H    0.000000   0.000000   0.000000
     7  H    0.809395   0.000000   0.000000
     8  H    0.000000   0.804134   0.000000
     9  H    0.000000   0.000000   0.840608
 Mulliken charges:
               1
     1  C   -0.239303
     2  C   -0.091021
     3  O   -0.071492
     4  C   -0.102889
     5  C   -0.195837
     6  H    0.154679
     7  H    0.190605
     8  H    0.195866
     9  H    0.159392
 Sum of Mulliken charges =   0.00000
 Mulliken charges with hydrogens summed into heavy atoms:
               1
     1  C   -0.079911
     2  C    0.104845
     3  O   -0.071492
     4  C    0.087716
     5  C   -0.041159
 Charge=              0.0000 electrons
 Dipole moment (field-independent basis, Debye):
    X=             -0.0467    Y=              0.1987    Z=              0.0452  Tot=              0.2091
 N-N= 1.032255290487D+02 E-N=-1.705923296875D+02  KE=-1.654700774421D+01
 Orbital energies and kinetic energies (alpha):
                                 1                 2
   1         O                -1.564602         -1.301791
   2         O                -1.219402         -1.047397
   3         O                -1.100734         -0.961295
   4         O                -0.829294         -0.713913
   5         O                -0.814923         -0.728853
   6         O                -0.688829         -0.602926
   7         O                -0.607406         -0.488235
   8         O                -0.586402         -0.521457
   9         O                -0.511766         -0.438268
  10         O                -0.500199         -0.424125
  11         O                -0.484044         -0.395924
  12         O                -0.385447         -0.338930
  13         O                -0.339020         -0.310390
  14         V                 0.029894         -0.192922
  15         V                 0.056974         -0.196812
  16         V                 0.087272         -0.194008
  17         V                 0.141469         -0.243427
  18         V                 0.148936         -0.163459
  19         V                 0.160926         -0.163258
  20         V                 0.181189         -0.186776
  21         V                 0.183916         -0.198241
  22         V                 0.194392         -0.139686
  23         V                 0.208818         -0.134292
  24         V                 0.229417         -0.034601
 Total kinetic energy from orbitals=-1.654700774421D+01
 Leave Link  601 at Tue Dec 15 16:17:16 2015, MaxMem=    33554432 cpu:         0.0
 (Enter /home/Applications/g09/g09/l701.exe)
 Compute integral first derivatives.
 ... and contract with generalized density number  6.
 Leave Link  701 at Tue Dec 15 16:17:16 2015, MaxMem=    33554432 cpu:         0.0
 (Enter /home/Applications/g09/g09/l702.exe)
 L702 exits ... SP integral derivatives will be done elsewhere.
 Leave Link  702 at Tue Dec 15 16:17:16 2015, MaxMem=    33554432 cpu:         0.0
 (Enter /home/Applications/g09/g09/l703.exe)
 Compute integral first derivatives, UseDBF=F ICtDFT=           0.
 Integral derivatives from FoFJK, PRISM(SPDF).
 Calling FoFJK, ICntrl=  10005127 FMM=F ISym2X=0 I1Cent= 0 IOpClX= 0 NMat=1 NMatS=1 NMatT=0.
 FoFJK:  IHMeth= 8 ICntrl=10005127 DoSepK=F KAlg= 0 I1Cent=   0 FoldK=F
 IRaf=         0 NMat=   1 IRICut=       1 DoRegI=T DoRafI=F ISym2E= 0.
 FoFCou: FMM=F IPFlag=           0 FMFlag=      100000 FMFlg1=         800
         NFxFlg=           0 DoJE=F BraDBF=F KetDBF=F FulRan=T
         wScrn=  0.000000 ICntrl=10005127 IOpCl=  0 I1Cent=           0 NGrid=           0
         NMat0=    1 NMatS0=      1 NMatT0=    0 NMatD0=    1 NMtDS0=    0 NMtDT0=    0
 Symmetry not used in FoFCou.
 Leave Link  703 at Tue Dec 15 16:17:16 2015, MaxMem=    33554432 cpu:         0.0
 (Enter /home/Applications/g09/g09/l716.exe)
 Dipole        =-8.08781859D-02 2.03404260D-01 9.08880835D-02
 ***** Axes restored to original set *****
 -------------------------------------------------------------------
 Center     Atomic                   Forces (Hartrees/Bohr)
 Number     Number              X              Y              Z
 -------------------------------------------------------------------
      1        6          -0.012272395    0.066965006   -0.001384556
      2        6           0.061610799   -0.039140829    0.002449240
      3        8          -0.130275436    0.011007288    0.006608092
      4        6           0.010258183    0.024489669    0.005161439
      5        6           0.060283614   -0.075700347   -0.005014547
      6        1           0.020922813    0.018817429    0.001357642
      7        1          -0.020821492    0.024242829   -0.005271951
      8        1          -0.013160686   -0.013268576   -0.004602526
      9        1           0.023454599   -0.017412469    0.000697166
 -------------------------------------------------------------------
 Cartesian Forces:  Max     0.130275436 RMS     0.038632003
 Z-matrix is all fixed cartesians, so copy forces.
 Force constants in Cartesian coordinates: 
                1             2             3             4             5 
      1  0.820594D+00
      2 -0.848288D-01  0.718763D+00
      3  0.118441D-01  0.734436D-02  0.158017D+00
      4 -0.374764D+00 -0.716211D-01 -0.148771D-01  0.814265D+00
      5 -0.501870D-01 -0.184822D+00 -0.587517D-02 -0.503934D-01  0.970377D+00
      6 -0.128959D-01 -0.534723D-02 -0.771275D-01 -0.347356D-02  0.261679D-01
      7 -0.842714D-02  0.292391D-01  0.250707D-02 -0.308670D+00  0.201891D+00
      8 -0.561400D-02  0.196403D-01  0.624746D-03  0.245316D+00 -0.459627D+00
      9 -0.712916D-03  0.141995D-02  0.852577D-02  0.199359D-01 -0.217114D-01
     10  0.934440D-02  0.370356D-03  0.330625D-03  0.263724D-01  0.179376D-01
     11  0.334902D-01  0.123678D-02  0.298230D-02 -0.177011D-01 -0.120397D-01
     12  0.477221D-03  0.318968D-03 -0.183337D-02 -0.236237D-02 -0.167933D-02
     13 -0.156767D+00  0.158976D-01 -0.839568D-03  0.901093D-02 -0.316132D-01
     14 -0.134281D-02 -0.352055D+00 -0.362788D-02  0.306910D-03 -0.116628D-02
     15 -0.687455D-03  0.220185D-02 -0.645326D-01  0.637269D-05 -0.171358D-02
     16  0.159223D-01  0.585545D-03 -0.370078D-03 -0.530692D-05  0.000000D+00
     17 -0.240597D-01 -0.883574D-03  0.169811D-02  0.000000D+00  0.000000D+00
     18 -0.512601D-03 -0.417992D-05  0.136575D-01 -0.995319D-04 -0.101830D-05
     19  0.229318D-04  0.000000D+00 -0.460490D-03  0.351136D-04  0.152212D-05
     20  0.227275D-04  0.000000D+00 -0.456387D-03  0.359425D-05  0.000000D+00
     21 -0.334418D-03 -0.508658D-05  0.671537D-02  0.441693D-03  0.191467D-04
     22  0.728032D-02 -0.256265D-01  0.382696D-03 -0.161570D+00 -0.103996D+00
     23 -0.326607D-02  0.114974D-01 -0.178530D-03 -0.992374D-01 -0.336118D+00
     24 -0.187272D-03 -0.207364D-02  0.191612D-01  0.167658D-02  0.305325D-02
     25 -0.313206D+00  0.135983D+00  0.148279D-02 -0.467318D-02  0.163598D-01
     26  0.135785D+00 -0.213376D+00 -0.251154D-02 -0.667295D-02  0.233958D-01
     27  0.300933D-02 -0.385499D-02 -0.625836D-01 -0.124795D-02  0.174014D-02
                6             7             8             9            10 
      6  0.158483D+00
      7  0.177862D-01  0.542009D+00
      8 -0.225305D-01 -0.505122D-01  0.814981D+00
      9 -0.467943D-01 -0.348141D-01  0.235153D-02  0.612850D-01
     10 -0.270099D-02 -0.263442D+00 -0.195697D+00  0.199107D-01  0.913005D+00
     11  0.190072D-02 -0.151732D+00 -0.379539D+00  0.207197D-01 -0.453443D-01
     12 -0.956535D-03  0.161921D-01  0.201290D-01 -0.494361D-01  0.440958D-03
     13  0.501075D-04 -0.849006D-02  0.556587D-02 -0.115114D-02 -0.501142D+00
     14 -0.284469D-03 -0.299038D-01  0.197366D-01 -0.268118D-02  0.100270D+00
     15  0.468137D-03  0.275945D-02 -0.102612D-02  0.766601D-02 -0.239120D-01
     16  0.131145D-03  0.351516D-05 -0.101604D-04 -0.128128D-03 -0.470747D-02
     17  0.747062D-05 -0.211749D-04  0.612052D-04  0.771826D-03  0.690080D-02
     18  0.245964D-02 -0.190178D-03  0.549702D-03  0.693200D-02 -0.239461D-02
     19  0.407747D-03  0.229119D-01 -0.153640D-01 -0.190829D-02 -0.179457D+00
     20  0.417372D-04  0.118470D-01 -0.795195D-02 -0.111366D-02  0.115576D+00
     21  0.512904D-02 -0.219047D-02  0.170570D-02  0.406242D-02  0.789057D-02
     22  0.312248D-03  0.241022D-01  0.163086D-01 -0.102191D-02  0.277597D-04
     23 -0.255281D-03 -0.108122D-01 -0.731591D-02  0.457186D-03 -0.126600D-04
     24 -0.602037D-01 -0.196123D-02 -0.151526D-02  0.354674D-02  0.577480D-03
     25  0.383053D-03  0.231819D-05  0.754208D-05 -0.110029D-03 -0.148217D-05
     26  0.299636D-03  0.450890D-05  0.146694D-04 -0.214008D-03  0.000000D+00
     27  0.185427D-01 -0.887514D-04 -0.288746D-03  0.421244D-02 -0.142685D-03
               11            12            13            14            15 
     11  0.920525D+00
     12 -0.184331D-01  0.196780D+00
     13  0.780835D-01 -0.225110D-01  0.944557D+00
     14 -0.212049D+00  0.747526D-02  0.325678D-01  0.732211D+00
     15  0.968168D-02 -0.105661D+00  0.907612D-02 -0.166368D-01  0.193111D+00
     16 -0.165716D-01  0.157640D-02 -0.311275D+00 -0.129272D+00  0.120962D-01
     17  0.247108D-01  0.444076D-04 -0.128192D+00 -0.201173D+00  0.832151D-02
     18 -0.342044D-02  0.290216D-01  0.157361D-01  0.116054D-01 -0.788185D-01
     19  0.119774D+00  0.583460D-02  0.742565D-02  0.267601D-01  0.100519D-02
     20 -0.342845D+00 -0.771231D-02  0.382745D-02  0.136179D-01 -0.469230D-03
     21 -0.134537D-01 -0.774850D-01 -0.339929D-03  0.413144D-02  0.301299D-01
     22  0.120334D-05  0.322352D-03  0.691667D-05  0.000000D+00 -0.170925D-03
     23  0.000000D+00 -0.147010D-03 -0.304977D-05  0.000000D+00  0.753661D-04
     24  0.250329D-04  0.670583D-02 -0.149034D-03 -0.152476D-05  0.368295D-02
     25  0.000000D+00  0.297632D-04  0.166734D-01  0.613396D-03 -0.172927D-03
     26  0.000000D+00  0.417582D-05  0.238663D-01  0.877815D-03 -0.434709D-03
     27 -0.217027D-05  0.286522D-02  0.128350D-03  0.197260D-04  0.139541D-01
               16            17            18            19            20 
     16  0.300079D+00
     17  0.145283D+00  0.177196D+00
     18 -0.133021D-01 -0.952216D-02  0.426398D-01
     19 -0.148963D-04  0.897334D-04  0.805922D-03  0.149076D+00
     20 -0.147635D-04  0.889339D-04  0.798742D-03 -0.131262D+00  0.337089D+00
     21  0.217234D-03 -0.130859D-02 -0.117529D-01 -0.568467D-02  0.891111D-02
     22  0.000000D+00  0.000000D+00  0.000000D+00  0.000000D+00  0.000000D+00
     23  0.000000D+00  0.000000D+00  0.000000D+00  0.000000D+00  0.000000D+00
     24  0.000000D+00  0.000000D+00  0.000000D+00  0.000000D+00  0.000000D+00
     25 -0.229257D-05  0.000000D+00 -0.429974D-04  0.000000D+00  0.000000D+00
     26  0.000000D+00  0.000000D+00 -0.603261D-05  0.000000D+00  0.000000D+00
     27 -0.220699D-03 -0.125720D-04 -0.413924D-02  0.000000D+00  0.000000D+00
               21            22            23            24            25 
     21  0.432011D-01
     22  0.000000D+00  0.130161D+00
     23  0.000000D+00  0.113328D+00  0.331930D+00
     24  0.000000D+00 -0.126543D-03  0.181464D-03  0.336159D-01
     25  0.000000D+00 -0.789029D-05  0.347907D-05  0.170013D-03  0.301215D+00
     26  0.000000D+00 -0.153467D-04  0.676682D-05  0.330677D-03 -0.152968D+00
     27  0.000000D+00  0.302078D-03 -0.133195D-03 -0.650890D-02 -0.173967D-02
               26            27 
     26  0.189081D+00
     27  0.253180D-02  0.336573D-01
 Leave Link  716 at Tue Dec 15 16:17:16 2015, MaxMem=    33554432 cpu:         0.0
 (Enter /home/Applications/g09/g09/l103.exe)

 GradGradGradGradGradGradGradGradGradGradGradGradGradGradGradGradGradGrad
 Berny optimization.
 Search for a local minimum.
 Step number   1 out of a maximum of    2
 All quantities printed in internal units (Hartrees-Bohrs-Radians)
 Second derivative matrix not updated -- first step.
 ITU=  0
     Eigenvalues ---    0.01420   0.03163   0.07288   0.07586   0.08000
     Eigenvalues ---    0.08343   0.12589   0.12871   0.16381   0.24720
     Eigenvalues ---    0.26153   0.27626   0.35405   0.45151   0.65736
     Eigenvalues ---    0.87001   1.11493   1.31362   1.32914   1.56167
     Eigenvalues ---    1.65604
 Quadratic step=4.136D-01 exceeds max=3.000D-01 adjusted using Lamda=-7.653D-02.
 Angle between NR and scaled steps=  17.90 degrees.
 Angle between quadratic step and forces=  35.09 degrees.
 Linear search not attempted -- first point.
 TrRot= -0.014035 -0.001680  0.004947  0.015017  0.001945 -0.015252
 Variable       Old X    -DE/DX   Delta X   Delta X   Delta X     New X
                                 (Linear)    (Quad)   (Total)
    X1        1.88763  -0.01227   0.00000   0.04434   0.03015   1.91778
    Y1       -1.36759   0.06697   0.00000   0.05790   0.05577  -1.31183
    Z1        0.08150  -0.00138   0.00000  -0.00011   0.00112   0.08262
    X2       -0.73100   0.06161   0.00000   0.02183   0.00729  -0.72371
    Y2       -2.11312  -0.03914   0.00000   0.00506   0.00355  -2.10957
    Z2       -0.02478   0.00245   0.00000   0.01755   0.02394  -0.00084
    X3       -2.12343  -0.13028   0.00000  -0.20614  -0.22000  -2.34343
    Y3       -0.04824   0.01101   0.00000  -0.00732  -0.00845  -0.05669
    Z3        0.08742   0.00661   0.00000   0.00523   0.01471   0.10213
    X4       -0.68875   0.01026   0.00000   0.00162  -0.01195  -0.70071
    Y4        2.10761   0.02449   0.00000  -0.00941  -0.01093   2.09668
    Z4       -0.04417   0.00516   0.00000   0.02708   0.03331  -0.01087
    X5        1.78518   0.06028   0.00000   0.10502   0.09142   1.87660
    Y5        1.41651  -0.07570   0.00000  -0.05901  -0.06113   1.35538
    Z5        0.07850  -0.00501   0.00000  -0.01546  -0.01423   0.06427
    X6        3.43907   0.02092   0.00000   0.11345   0.09997   3.53904
    Y6        2.51298   0.01882   0.00000   0.02150   0.01899   2.53197
    Z6       -0.01301   0.00136   0.00000  -0.00232  -0.00436  -0.01737
    X7       -1.59161  -0.02082   0.00000  -0.03288  -0.04604  -1.63765
    Y7        3.86435   0.02424   0.00000   0.04803   0.04674   3.91109
    Z7        0.01331  -0.00527   0.00000  -0.03440  -0.02641  -0.01310
    X8       -1.55236  -0.01316   0.00000   0.00700  -0.00809  -1.56045
    Y8       -3.94396  -0.01327   0.00000  -0.03164  -0.03296  -3.97692
    Z8       -0.02543  -0.00460   0.00000  -0.03954  -0.03147  -0.05690
    X9        3.50394   0.02345   0.00000   0.07174   0.05725   3.56119
    Y9       -2.49669  -0.01741   0.00000  -0.00905  -0.01156  -2.50826
    Z9        0.06635   0.00070   0.00000   0.00533   0.00339   0.06975
         Item               Value     Threshold  Converged?
 Maximum Force            0.130275     0.000450     NO 
 RMS     Force            0.038632     0.000300     NO 
 Maximum Displacement     0.220001     0.001800     NO 
 RMS     Displacement     0.057076     0.001200     NO 
 Predicted change in Energy=-2.809287D-02
 GradGradGradGradGradGradGradGradGradGradGradGradGradGradGradGradGradGrad

 Leave Link  103 at Tue Dec 15 16:17:16 2015, MaxMem=    33554432 cpu:         0.0
 (Enter /home/Applications/g09/g09/l9999.exe)
 1\1\GINC-DUSTIN-DESKTOP\Force\RAM1-FC\STO-3G\C4H4O1\DUSTIN\15-Dec-2015
 \0\\#P AM1(Input,print) CIS(Singlets,NStates=15) pop(full) force\\AM1-
 Reparam Input\\0,1\C,0.998891,-0.7237,0.043126\C,-0.38683,-1.118215,-0
 .013112\O,-1.123672,-0.025527,0.046263\C,-0.364473,1.115298,-0.023375\
 C,0.944674,0.749585,0.041542\H,1.819876,1.329811,-0.006885\H,-0.842245
 ,2.044927,0.007042\H,-0.821475,-2.087052,-0.013458\H,1.854206,-1.32119
 3,0.035112\\Version=ES64L-G09RevD.01\State=1-A\HF=0.0237923\RMSD=2.291
 e-09\RMSF=3.863e-02\Dipole=0.1936412,-0.1034785,-0.0892778\PG=C01 [X(C
 4H4O1)]\\@


 Cherishing children is the mark of a civilized society.
 -- Joan Ganz Cooney
 Job cpu time:       0 days  0 hours  0 minutes  0.4 seconds.
 File lengths (MBytes):  RWF=      7 Int=      0 D2E=      0 Chk=      2 Scr=      1
 Normal termination of Gaussian 09 at Tue Dec 15 16:17:16 2015.
