 Entering Gaussian System, Link 0=g09
 Input=FuranAM1Best2.com
 Output=FuranAM1Best2.log
 Initial command:
 /home/Applications/g09/g09/l1.exe "/home/Applications/g09/scratch/Gau-23880.inp" -scrdir="/home/Applications/g09/scratch/"
 Entering Link 1 = /home/Applications/g09/g09/l1.exe PID=     23882.
  
 Copyright (c) 1988,1990,1992,1993,1995,1998,2003,2009,2013,
            Gaussian, Inc.  All Rights Reserved.
  
 This is part of the Gaussian(R) 09 program.  It is based on
 the Gaussian(R) 03 system (copyright 2003, Gaussian, Inc.),
 the Gaussian(R) 98 system (copyright 1998, Gaussian, Inc.),
 the Gaussian(R) 94 system (copyright 1995, Gaussian, Inc.),
 the Gaussian 92(TM) system (copyright 1992, Gaussian, Inc.),
 the Gaussian 90(TM) system (copyright 1990, Gaussian, Inc.),
 the Gaussian 88(TM) system (copyright 1988, Gaussian, Inc.),
 the Gaussian 86(TM) system (copyright 1986, Carnegie Mellon
 University), and the Gaussian 82(TM) system (copyright 1983,
 Carnegie Mellon University). Gaussian is a federally registered
 trademark of Gaussian, Inc.
  
 This software contains proprietary and confidential information,
 including trade secrets, belonging to Gaussian, Inc.
  
 This software is provided under written license and may be
 used, copied, transmitted, or stored only in accord with that
 written license.
  
 The following legend is applicable only to US Government
 contracts under FAR:
  
                    RESTRICTED RIGHTS LEGEND
  
 Use, reproduction and disclosure by the US Government is
 subject to restrictions as set forth in subparagraphs (a)
 and (c) of the Commercial Computer Software - Restricted
 Rights clause in FAR 52.227-19.
  
 Gaussian, Inc.
 340 Quinnipiac St., Bldg. 40, Wallingford CT 06492
  
  
 ---------------------------------------------------------------
 Warning -- This program may not be used in any manner that
 competes with the business of Gaussian, Inc. or will provide
 assistance to any competitor of Gaussian, Inc.  The licensee
 of this program is prohibited from giving any competitor of
 Gaussian, Inc. access to this program.  By using this program,
 the user acknowledges that Gaussian, Inc. is engaged in the
 business of creating and licensing software in the field of
 computational chemistry and represents and warrants to the
 licensee that it is not a competitor of Gaussian, Inc. and that
 it will not use this program in any manner prohibited above.
 ---------------------------------------------------------------
  

 Cite this work as:
 Gaussian 09, Revision D.01,
 M. J. Frisch, G. W. Trucks, H. B. Schlegel, G. E. Scuseria, 
 M. A. Robb, J. R. Cheeseman, G. Scalmani, V. Barone, B. Mennucci, 
 G. A. Petersson, H. Nakatsuji, M. Caricato, X. Li, H. P. Hratchian, 
 A. F. Izmaylov, J. Bloino, G. Zheng, J. L. Sonnenberg, M. Hada, 
 M. Ehara, K. Toyota, R. Fukuda, J. Hasegawa, M. Ishida, T. Nakajima, 
 Y. Honda, O. Kitao, H. Nakai, T. Vreven, J. A. Montgomery, Jr., 
 J. E. Peralta, F. Ogliaro, M. Bearpark, J. J. Heyd, E. Brothers, 
 K. N. Kudin, V. N. Staroverov, T. Keith, R. Kobayashi, J. Normand, 
 K. Raghavachari, A. Rendell, J. C. Burant, S. S. Iyengar, J. Tomasi, 
 M. Cossi, N. Rega, J. M. Millam, M. Klene, J. E. Knox, J. B. Cross, 
 V. Bakken, C. Adamo, J. Jaramillo, R. Gomperts, R. E. Stratmann, 
 O. Yazyev, A. J. Austin, R. Cammi, C. Pomelli, J. W. Ochterski, 
 R. L. Martin, K. Morokuma, V. G. Zakrzewski, G. A. Voth, 
 P. Salvador, J. J. Dannenberg, S. Dapprich, A. D. Daniels, 
 O. Farkas, J. B. Foresman, J. V. Ortiz, J. Cioslowski, 
 and D. J. Fox, Gaussian, Inc., Wallingford CT, 2013.
 
 ******************************************
 Gaussian 09:  ES64L-G09RevD.01 24-Apr-2013
                 1-Dec-2015 
 ******************************************
 ----------------------------
 #P AM1(Input,print) Opt Freq
 ----------------------------
 1/14=-1,18=20,19=15,26=1,38=1/1,3;
 2/9=110,12=2,17=6,18=5,40=1/2;
 3/5=2,16=1,25=1,41=700000,71=1,135=100,136=1/1,2,3;
 4/35=1/1;
 5/5=2,35=1,38=5/2;
 6/7=2,8=2,9=2,10=2,28=1/1;
 7//1,2,3,16;
 1/14=-1,18=20,19=15,26=1/3(2);
 2/9=110/2;
 99//99;
 2/9=110/2;
 3/5=2,16=1,25=1,41=700000,71=1,135=20,136=1/1,2,3;
 4/5=5,16=3,35=1/1;
 5/5=2,35=1,38=5/2;
 7//1,2,3,16;
 1/14=-1,18=20,19=15,26=1/3(-5);
 2/9=110/2;
 6/7=2,8=2,9=2,10=2,19=2,28=1/1;
 99/9=1/99;
 Leave Link    1 at Tue Dec  1 17:37:46 2015, MaxMem=           0 cpu:         0.0
 (Enter /home/Applications/g09/g09/l101.exe)
 -----------------
 AM1-Reparam Input
 -----------------
 Symbolic Z-matrix:
 Charge =  0 Multiplicity = 1
 6                     0.97203  -0.73182   0.01054 
 6                    -0.33425  -1.05013  -0.049 
 8                    -1.12324   0.03042   0.04475 
 6                    -0.32102   1.13207   0.01719 
 6                     0.93406   0.72915  -0.03047 
 1                     1.77484   1.38166  -0.02756 
 1                    -0.81243   2.00773   0.02255 
 1                    -0.82578  -2.02785  -0.03424 
 1                     1.76374  -1.38362   0.01066 
 
 NAtoms=      9 NQM=        9 NQMF=       0 NMMI=      0 NMMIF=      0
                NMic=       0 NMicF=      0.
                    Isotopes and Nuclear Properties:
 (Nuclear quadrupole moments (NQMom) in fm**2, nuclear magnetic moments (NMagM)
  in nuclear magnetons)

  Atom         1           2           3           4           5           6           7           8           9
 IAtWgt=          12          12          16          12          12           1           1           1           1
 AtmWgt=  12.0000000  12.0000000  15.9949146  12.0000000  12.0000000   1.0078250   1.0078250   1.0078250   1.0078250
 NucSpn=           0           0           0           0           0           1           1           1           1
 AtZEff=   0.0000000   0.0000000   0.0000000   0.0000000   0.0000000   0.0000000   0.0000000   0.0000000   0.0000000
 NQMom=    0.0000000   0.0000000   0.0000000   0.0000000   0.0000000   0.0000000   0.0000000   0.0000000   0.0000000
 NMagM=    0.0000000   0.0000000   0.0000000   0.0000000   0.0000000   2.7928460   2.7928460   2.7928460   2.7928460
 AtZNuc=   6.0000000   6.0000000   8.0000000   6.0000000   6.0000000   1.0000000   1.0000000   1.0000000   1.0000000
 Leave Link  101 at Tue Dec  1 17:37:46 2015, MaxMem=    33554432 cpu:         0.0
 (Enter /home/Applications/g09/g09/l103.exe)

 GradGradGradGradGradGradGradGradGradGradGradGradGradGradGradGradGradGrad
 Berny optimization.
 Initialization pass.
                           ----------------------------
                           !    Initial Parameters    !
                           ! (Angstroms and Degrees)  !
 --------------------------                            --------------------------
 ! Name  Definition              Value          Derivative Info.                !
 --------------------------------------------------------------------------------
 ! R1    R(1,2)                  1.3458         estimate D2E/DX2                !
 ! R2    R(1,5)                  1.462          estimate D2E/DX2                !
 ! R3    R(1,9)                  1.0255         estimate D2E/DX2                !
 ! R4    R(2,3)                  1.3412         estimate D2E/DX2                !
 ! R5    R(2,8)                  1.0944         estimate D2E/DX2                !
 ! R6    R(3,4)                  1.3631         estimate D2E/DX2                !
 ! R7    R(4,5)                  1.319          estimate D2E/DX2                !
 ! R8    R(4,7)                  1.0041         estimate D2E/DX2                !
 ! R9    R(5,6)                  1.0643         estimate D2E/DX2                !
 ! A1    A(2,1,5)              102.1159         estimate D2E/DX2                !
 ! A2    A(2,1,9)              126.7997         estimate D2E/DX2                !
 ! A3    A(5,1,9)              130.9338         estimate D2E/DX2                !
 ! A4    A(1,2,3)              112.169          estimate D2E/DX2                !
 ! A5    A(1,2,8)              130.2878         estimate D2E/DX2                !
 ! A6    A(3,2,8)              117.0385         estimate D2E/DX2                !
 ! A7    A(2,3,4)              107.6681         estimate D2E/DX2                !
 ! A8    A(3,4,5)              108.2915         estimate D2E/DX2                !
 ! A9    A(3,4,7)              114.6244         estimate D2E/DX2                !
 ! A10   A(5,4,7)              137.0745         estimate D2E/DX2                !
 ! A11   A(1,5,4)              109.2049         estimate D2E/DX2                !
 ! A12   A(1,5,6)              126.3029         estimate D2E/DX2                !
 ! A13   A(4,5,6)              124.3548         estimate D2E/DX2                !
 ! D1    D(5,1,2,3)             -7.5611         estimate D2E/DX2                !
 ! D2    D(5,1,2,8)           -179.0239         estimate D2E/DX2                !
 ! D3    D(9,1,2,3)            176.5194         estimate D2E/DX2                !
 ! D4    D(9,1,2,8)              5.0566         estimate D2E/DX2                !
 ! D5    D(2,1,5,4)              5.694          estimate D2E/DX2                !
 ! D6    D(2,1,5,6)           -178.4361         estimate D2E/DX2                !
 ! D7    D(9,1,5,4)           -178.6314         estimate D2E/DX2                !
 ! D8    D(9,1,5,6)             -2.7616         estimate D2E/DX2                !
 ! D9    D(1,2,3,4)              6.8825         estimate D2E/DX2                !
 ! D10   D(8,2,3,4)            179.5784         estimate D2E/DX2                !
 ! D11   D(2,3,4,5)             -2.78           estimate D2E/DX2                !
 ! D12   D(2,3,4,7)            176.29           estimate D2E/DX2                !
 ! D13   D(3,4,5,1)             -1.8889         estimate D2E/DX2                !
 ! D14   D(3,4,5,6)           -177.8573         estimate D2E/DX2                !
 ! D15   D(7,4,5,1)            179.3525         estimate D2E/DX2                !
 ! D16   D(7,4,5,6)              3.3841         estimate D2E/DX2                !
 --------------------------------------------------------------------------------
 Trust Radius=3.00D-01 FncErr=1.00D-07 GrdErr=1.00D-07
 Number of steps in this run=     48 maximum allowed number of steps=    100.
 GradGradGradGradGradGradGradGradGradGradGradGradGradGradGradGradGradGrad

 Leave Link  103 at Tue Dec  1 17:37:46 2015, MaxMem=    33554432 cpu:         0.0
 (Enter /home/Applications/g09/g09/l202.exe)
                          Input orientation:                          
 ---------------------------------------------------------------------
 Center     Atomic      Atomic             Coordinates (Angstroms)
 Number     Number       Type             X           Y           Z
 ---------------------------------------------------------------------
      1          6           0        0.972031   -0.731821    0.010539
      2          6           0       -0.334250   -1.050127   -0.049000
      3          8           0       -1.123240    0.030420    0.044750
      4          6           0       -0.321015    1.132074    0.017187
      5          6           0        0.934056    0.729152   -0.030470
      6          1           0        1.774840    1.381662   -0.027555
      7          1           0       -0.812425    2.007725    0.022552
      8          1           0       -0.825783   -2.027850   -0.034237
      9          1           0        1.763741   -1.383624    0.010660
 ---------------------------------------------------------------------
                    Distance matrix (angstroms):
                    1          2          3          4          5
     1  C    0.000000
     2  C    1.345821   0.000000
     3  O    2.229875   1.341222   0.000000
     4  C    2.268505   2.183245   1.363072   0.000000
     5  C    1.462042   2.185126   2.174017   1.319023   0.000000
     6  H    2.261142   3.219055   3.198429   2.111138   1.064282
     7  H    3.269486   3.095841   2.001708   1.004130   2.165123
     8  H    2.216716   1.094424   2.081152   3.200399   3.270796
     9  H    1.025501   2.125170   3.214863   3.267260   2.270218
                    6          7          8          9
     6  H    0.000000
     7  H    2.662406   0.000000
     8  H    4.288130   4.035997   0.000000
     9  H    2.765572   4.258876   2.668834   0.000000
 Stoichiometry    C4H4O
 Framework group  C1[X(C4H4O)]
 Deg. of freedom    21
 Full point group                 C1      NOp   1
 Largest Abelian subgroup         C1      NOp   1
 Largest concise Abelian subgroup C1      NOp   1
                         Standard orientation:                         
 ---------------------------------------------------------------------
 Center     Atomic      Atomic             Coordinates (Angstroms)
 Number     Number       Type             X           Y           Z
 ---------------------------------------------------------------------
      1          6           0       -0.901252    0.820624   -0.032025
      2          6           0       -0.996957   -0.519596    0.044687
      3          8           0        0.201521   -1.117469   -0.026549
      4          6           0        1.152833   -0.141604   -0.000915
      5          6           0        0.544845    1.028685    0.023476
      6          1           0        1.047298    1.966844    0.013764
      7          1           0        2.098423   -0.479281    0.009664
      8          1           0       -1.878291   -1.168244    0.028223
      9          1           0       -1.676405    1.491776   -0.050604
 ---------------------------------------------------------------------
 Rotational constants (GHZ):      9.7683069      9.3456357      4.7813562
 Leave Link  202 at Tue Dec  1 17:37:46 2015, MaxMem=    33554432 cpu:         0.0
 (Enter /home/Applications/g09/g09/l301.exe)

 Semi-emprical parameters in input format:
 Method=8 CoreType=1 PeptideFC=0.0120930000 RIJScale=0.5388840000
 ****
 H       
 PQN=1 NValence=1 F0ss=0.5586300000 ZetaOverlap=1.0950750000 U=-0.4119510000
 Beta=-0.2338190000 CoreKO=1.1007910000 KON=0,0,0,0.9764370000 KON=1,0,1,1.1361190000
 KON=0,1,1,1.0139660000 KON=2,1,1,1.2635130000 EISol=-0.4188110042 EHeat=0.0830298228
 Alpha=1.4078420000
 GCore=0.0080140000,1.2229470000,2.2663690000
 GCore=0.0002960000,1.5853770000,2.7382840000
 GCore=-0.0012210000,0.6561060000,3.9519220000
 ****
 C       
 PQN=2,2 NValence=4 F0ss=0.4805700000 F0sp=0.4819370000 F0pp=0.3439950000 F2pp=0.1961420000
 G1sp=0.2678900000
 ZetaOverlap=1.8366850000,1.4875730000
 U=-1.4842670000,-1.3886060000
 Beta=-0.6376780000,-0.3536670000 DDN=0,1,0.9094820000 DDN=1,1,0.8346670000
 CoreKO=1.1045690000 KON=0,0,0,1.0182330000 KON=1,0,1,0.7342900000 KON=0,1,1,1.1944780000
 KON=2,1,1,0.7056720000 EISol=-4.4398989268 EHeat=0.2723305520 Alpha=1.4025920000
 DipHyp=1.8188593534
 GCore=0.0007870000,1.5590290000,2.8992300000
 GCore=0.0031100000,1.3744800000,3.7653660000
 GCore=-0.0013700000,1.3772400000,4.0631190000
 GCore=-0.0000820000,1.5210550000,5.3709760000
 ****
 O       
 PQN=2,2 NValence=6 F0ss=0.7455940000 F0sp=0.5814220000 F0pp=0.4393740000 F2pp=0.2294290000
 G1sp=0.3535640000
 ZetaOverlap=2.7714830000,2.5744810000
 U=-3.8069400000,-2.7329690000
 Beta=-1.1272460000,-1.1587550000 DDN=0,1,0.5172290000 DDN=1,1,0.4110560000
 CoreKO=0.8743200000 KON=0,0,0,0.8886000000 KON=1,0,1,0.5063100000 KON=0,1,1,0.8996480000
 KON=2,1,1,0.5582300000 EISol=-11.6164441184 EHeat=0.0949133088 Alpha=2.3820330000
 DipHyp=1.0343984867
 GCore=0.0192970000,1.5130470000,1.5620930000
 GCore=0.0058890000,1.6294880000,2.3818730000
 ****
 
 Standard basis: VSTO-6G (5D, 7F)
 Ernie: Thresh=  0.10000D-02 Tol=  0.10000D-05 Strict=F.
  NNHCO=     0 NNPyr=     0 NCTC=     0               EPep=         0.000000000
    EC=        69.283945838  ECS=         2.002703043   EG=         0.346277980
   EHC=         0.000000000  EAt=       -31.051283842  AtH=         1.516354808
 EPDDG=         0.000000000  ECC=        71.632926861 EAtT=        32.567638650
 There are    24 symmetry adapted cartesian basis functions of A   symmetry.
 There are    24 symmetry adapted basis functions of A   symmetry.
    24 basis functions,   144 primitive gaussians,    24 cartesian basis functions
    13 alpha electrons       13 beta electrons
       nuclear repulsion energy       104.2005655110 Hartrees.
 IExCor=    0 DFT=F Ex=HF Corr=None ExCW=0 ScaHFX=  1.000000
 ScaDFX=  1.000000  1.000000  1.000000  1.000000 ScalE2=  1.000000  1.000000
 IRadAn=      0 IRanWt=     -1 IRanGd=            0 ICorTp=0 IEmpDi=  4
 Integral buffers will be    131072 words long.
 Regular integral format.
 Two-electron integral symmetry is turned off.
 Leave Link  301 at Tue Dec  1 17:37:46 2015, MaxMem=    33554432 cpu:         0.0
 (Enter /home/Applications/g09/g09/l302.exe)
 Do NDO integrals.
 NPDir=0 NMtPBC=     1 NCelOv=     1 NCel=       1 NClECP=     1 NCelD=      1
         NCelK=      1 NCelE2=     1 NClLst=     1 CellRange=     0.0.
 One-electron integrals computed using PRISM.
 NBasis=    24 RedAO= F EigKep=  0.00D+00  NBF=    24
 NBsUse=    24 1.00D-04 EigRej=  0.00D+00 NBFU=    24
 Leave Link  302 at Tue Dec  1 17:37:46 2015, MaxMem=    33554432 cpu:         0.0
 (Enter /home/Applications/g09/g09/l303.exe)
 DipDrv:  MaxL=1.
 Leave Link  303 at Tue Dec  1 17:37:46 2015, MaxMem=    33554432 cpu:         0.0
 (Enter /home/Applications/g09/g09/l401.exe)
 Simple Huckel Guess.
 JPrj=0 DoOrth=F DoCkMO=F.
 Leave Link  401 at Tue Dec  1 17:37:46 2015, MaxMem=    33554432 cpu:         0.0
 (Enter /home/Applications/g09/g09/l502.exe)
 Closed shell SCF:
 Using DIIS extrapolation, IDIIS=  1040.
 Overlap will be assumed to be unity.
 Two-electron integral symmetry not used.
 Keep J ints in memory in canonical form, NReq=888082.
 IVT=       79475 IEndB=       79475 NGot=    33554432 MDV=    33473473
 LenX=    33473473 LenY=    33472456
 Requested convergence on RMS density matrix=1.00D-08 within 128 cycles.
 Requested convergence on MAX density matrix=1.00D-06.
 Requested convergence on             energy=1.00D-06.
 No special actions if energy rises.
 FoFCou: FMM=F IPFlag=           0 FMFlag=           0 FMFlg1=           0
         NFxFlg=           0 DoJE=F BraDBF=F KetDBF=F FulRan=T
         wScrn=  0.000000 ICntrl=     600 IOpCl=  2 I1Cent=           0 NGrid=           0
         NMat0=    1 NMatS0=     54 NMatT0=    0 NMatD0=    1 NMtDS0=    0 NMtDT0=    0
 Symmetry not used in FoFCou.

 Cycle   1  Pass 1  IDiag  1:
 E=  2.11190104241217    
 DIIS: error= 6.75D-02 at cycle   1 NSaved=   1.
 NSaved= 1 IEnMin= 1 EnMin=  2.11190104241217     IErMin= 1 ErrMin= 6.75D-02
 ErrMax= 6.75D-02  0.00D+00 EMaxC= 1.00D-01 BMatC= 1.68D-01 BMatP= 1.68D-01
 IDIUse=3 WtCom= 3.25D-01 WtEn= 6.75D-01
 Coeff-Com:  0.100D+01
 Coeff-En:   0.100D+01
 Coeff:      0.100D+01
 GapD=    2.000 DampG=2.000 DampE=0.500 DampFc=1.0000 IDamp=-1.
 RMSDP=1.78D-02 MaxDP=1.23D-01              OVMax= 0.00D+00

 Cycle   2  Pass 1  IDiag  1:
 E=  1.80839065118585     Delta-E=       -0.303510391226 Rises=F Damp=F
 DIIS: error= 1.66D-02 at cycle   2 NSaved=   2.
 NSaved= 2 IEnMin= 2 EnMin=  1.80839065118585     IErMin= 2 ErrMin= 1.66D-02
 ErrMax= 1.66D-02  0.00D+00 EMaxC= 1.00D-01 BMatC= 1.14D-02 BMatP= 1.68D-01
 IDIUse=3 WtCom= 8.34D-01 WtEn= 1.66D-01
 Coeff-Com: -0.306D+00 0.131D+01
 Coeff-En:   0.000D+00 0.100D+01
 Coeff:     -0.256D+00 0.126D+01
 RMSDP=6.55D-03 MaxDP=3.70D-02 DE=-3.04D-01 OVMax= 0.00D+00

 Cycle   3  Pass 1  IDiag  3:
 E=  1.78196730414797     Delta-E=       -0.026423347038 Rises=F Damp=F
 DIIS: error= 2.43D-03 at cycle   3 NSaved=   3.
 NSaved= 3 IEnMin= 3 EnMin=  1.78196730414797     IErMin= 3 ErrMin= 2.43D-03
 ErrMax= 2.43D-03  0.00D+00 EMaxC= 1.00D-01 BMatC= 3.97D-04 BMatP= 1.14D-02
 IDIUse=3 WtCom= 9.76D-01 WtEn= 2.43D-02
 Coeff-Com:  0.625D-01-0.400D+00 0.134D+01
 Coeff-En:   0.000D+00 0.000D+00 0.100D+01
 Coeff:      0.610D-01-0.390D+00 0.133D+01
 Gap=     0.437 Goal=   None    Shift=    0.000
 RMSDP=1.83D-03 MaxDP=1.20D-02 DE=-2.64D-02 OVMax= 1.14D-02

 Cycle   4  Pass 1  IDiag  3:
 E=  1.78049925773728     Delta-E=       -0.001468046411 Rises=F Damp=F
 DIIS: error= 1.03D-03 at cycle   4 NSaved=   4.
 NSaved= 4 IEnMin= 4 EnMin=  1.78049925773728     IErMin= 4 ErrMin= 1.03D-03
 ErrMax= 1.03D-03  0.00D+00 EMaxC= 1.00D-01 BMatC= 3.05D-05 BMatP= 3.97D-04
 IDIUse=3 WtCom= 9.90D-01 WtEn= 1.03D-02
 Coeff-Com: -0.232D-02 0.526D-01-0.454D+00 0.140D+01
 Coeff-En:   0.000D+00 0.000D+00 0.000D+00 0.100D+01
 Coeff:     -0.230D-02 0.521D-01-0.449D+00 0.140D+01
 Gap=     0.437 Goal=   None    Shift=    0.000
 RMSDP=6.85D-04 MaxDP=5.69D-03 DE=-1.47D-03 OVMax= 5.58D-03

 Cycle   5  Pass 1  IDiag  3:
 E=  1.78034645214058     Delta-E=       -0.000152805597 Rises=F Damp=F
 DIIS: error= 3.24D-04 at cycle   5 NSaved=   5.
 NSaved= 5 IEnMin= 5 EnMin=  1.78034645214058     IErMin= 5 ErrMin= 3.24D-04
 ErrMax= 3.24D-04  0.00D+00 EMaxC= 1.00D-01 BMatC= 2.11D-06 BMatP= 3.05D-05
 IDIUse=3 WtCom= 9.97D-01 WtEn= 3.24D-03
 Coeff-Com: -0.265D-02 0.510D-02 0.675D-01-0.515D+00 0.144D+01
 Coeff-En:   0.000D+00 0.000D+00 0.000D+00 0.000D+00 0.100D+01
 Coeff:     -0.264D-02 0.509D-02 0.673D-01-0.513D+00 0.144D+01
 Gap=     0.437 Goal=   None    Shift=    0.000
 RMSDP=2.21D-04 MaxDP=1.97D-03 DE=-1.53D-04 OVMax= 1.97D-03

 Cycle   6  Pass 1  IDiag  3:
 E=  1.78033473584721     Delta-E=       -0.000011716293 Rises=F Damp=F
 DIIS: error= 4.05D-05 at cycle   6 NSaved=   6.
 NSaved= 6 IEnMin= 6 EnMin=  1.78033473584721     IErMin= 6 ErrMin= 4.05D-05
 ErrMax= 4.05D-05  0.00D+00 EMaxC= 1.00D-01 BMatC= 8.79D-08 BMatP= 2.11D-06
 IDIUse=1 WtCom= 1.00D+00 WtEn= 0.00D+00
 Coeff-Com:  0.192D-02-0.795D-02-0.164D-02 0.161D+00-0.658D+00 0.151D+01
 Coeff:      0.192D-02-0.795D-02-0.164D-02 0.161D+00-0.658D+00 0.151D+01
 Gap=     0.437 Goal=   None    Shift=    0.000
 RMSDP=4.23D-05 MaxDP=3.21D-04 DE=-1.17D-05 OVMax= 3.83D-04

 Cycle   7  Pass 1  IDiag  3:
 E=  1.78033429767754     Delta-E=       -0.000000438170 Rises=F Damp=F
 DIIS: error= 8.72D-06 at cycle   7 NSaved=   7.
 NSaved= 7 IEnMin= 7 EnMin=  1.78033429767754     IErMin= 7 ErrMin= 8.72D-06
 ErrMax= 8.72D-06  0.00D+00 EMaxC= 1.00D-01 BMatC= 2.84D-09 BMatP= 8.79D-08
 IDIUse=1 WtCom= 1.00D+00 WtEn= 0.00D+00
 Coeff-Com: -0.249D-03 0.124D-02-0.129D-02-0.173D-01 0.923D-01-0.359D+00
 Coeff-Com:  0.128D+01
 Coeff:     -0.249D-03 0.124D-02-0.129D-02-0.173D-01 0.923D-01-0.359D+00
 Coeff:      0.128D+01
 Gap=     0.437 Goal=   None    Shift=    0.000
 RMSDP=6.47D-06 MaxDP=4.09D-05 DE=-4.38D-07 OVMax= 6.56D-05

 Cycle   8  Pass 1  IDiag  3:
 E=  1.78033428612990     Delta-E=       -0.000000011548 Rises=F Damp=F
 DIIS: error= 9.55D-07 at cycle   8 NSaved=   8.
 NSaved= 8 IEnMin= 8 EnMin=  1.78033428612990     IErMin= 8 ErrMin= 9.55D-07
 ErrMax= 9.55D-07  0.00D+00 EMaxC= 1.00D-01 BMatC= 8.73D-11 BMatP= 2.84D-09
 IDIUse=1 WtCom= 1.00D+00 WtEn= 0.00D+00
 Coeff-Com:  0.126D-04-0.154D-03 0.861D-03-0.219D-02 0.450D-03 0.382D-01
 Coeff-Com: -0.310D+00 0.127D+01
 Coeff:      0.126D-04-0.154D-03 0.861D-03-0.219D-02 0.450D-03 0.382D-01
 Coeff:     -0.310D+00 0.127D+01
 Gap=     0.437 Goal=   None    Shift=    0.000
 RMSDP=9.51D-07 MaxDP=5.96D-06 DE=-1.15D-08 OVMax= 8.14D-06

 Cycle   9  Pass 1  IDiag  3:
 E=  1.78033428581246     Delta-E=       -0.000000000317 Rises=F Damp=F
 DIIS: error= 2.98D-07 at cycle   9 NSaved=   9.
 NSaved= 9 IEnMin= 9 EnMin=  1.78033428581246     IErMin= 9 ErrMin= 2.98D-07
 ErrMax= 2.98D-07  0.00D+00 EMaxC= 1.00D-01 BMatC= 3.55D-12 BMatP= 8.73D-11
 IDIUse=1 WtCom= 1.00D+00 WtEn= 0.00D+00
 Coeff-Com: -0.537D-06 0.292D-04-0.212D-03 0.732D-03-0.845D-03-0.104D-01
 Coeff-Com:  0.106D+00-0.576D+00 0.148D+01
 Coeff:     -0.537D-06 0.292D-04-0.212D-03 0.732D-03-0.845D-03-0.104D-01
 Coeff:      0.106D+00-0.576D+00 0.148D+01
 Gap=     0.437 Goal=   None    Shift=    0.000
 RMSDP=2.44D-07 MaxDP=1.76D-06 DE=-3.17D-10 OVMax= 2.44D-06

 Cycle  10  Pass 1  IDiag  3:
 E=  1.78033428579620     Delta-E=       -0.000000000016 Rises=F Damp=F
 DIIS: error= 4.84D-08 at cycle  10 NSaved=  10.
 NSaved=10 IEnMin=10 EnMin=  1.78033428579620     IErMin=10 ErrMin= 4.84D-08
 ErrMax= 4.84D-08  0.00D+00 EMaxC= 1.00D-01 BMatC= 8.72D-14 BMatP= 3.55D-12
 IDIUse=1 WtCom= 1.00D+00 WtEn= 0.00D+00
 Coeff-Com:  0.437D-06-0.120D-04 0.802D-04-0.261D-03 0.264D-03 0.372D-02
 Coeff-Com: -0.372D-01 0.204D+00-0.614D+00 0.144D+01
 Coeff:      0.437D-06-0.120D-04 0.802D-04-0.261D-03 0.264D-03 0.372D-02
 Coeff:     -0.372D-01 0.204D+00-0.614D+00 0.144D+01
 Gap=     0.437 Goal=   None    Shift=    0.000
 RMSDP=4.31D-08 MaxDP=3.13D-07 DE=-1.63D-11 OVMax= 4.92D-07

 Cycle  11  Pass 1  IDiag  3:
 E=  1.78033428579589     Delta-E=        0.000000000000 Rises=F Damp=F
 DIIS: error= 9.94D-09 at cycle  11 NSaved=  11.
 NSaved=11 IEnMin=11 EnMin=  1.78033428579589     IErMin=11 ErrMin= 9.94D-09
 ErrMax= 9.94D-09  0.00D+00 EMaxC= 1.00D-01 BMatC= 2.18D-15 BMatP= 8.72D-14
 IDIUse=1 WtCom= 1.00D+00 WtEn= 0.00D+00
 Coeff-Com: -0.338D-06 0.477D-05-0.268D-04 0.750D-04-0.416D-04-0.133D-02
 Coeff-Com:  0.124D-01-0.679D-01 0.209D+00-0.575D+00 0.142D+01
 Coeff:     -0.338D-06 0.477D-05-0.268D-04 0.750D-04-0.416D-04-0.133D-02
 Coeff:      0.124D-01-0.679D-01 0.209D+00-0.575D+00 0.142D+01
 Gap=     0.437 Goal=   None    Shift=    0.000
 RMSDP=7.34D-09 MaxDP=6.32D-08 DE=-3.13D-13 OVMax= 7.84D-08

 Cycle  12  Pass 2  IDiag  1:
 SCF Done:  E(RAM1) =   1.78033428580     A.U. after   12 cycles
            NFock= 11  Conv=0.73D-08     -V/T= 1.1357
 KE=-1.311664289707D+01 PE=-1.721733553178D+02 EE= 8.286976698968D+01
 Leave Link  502 at Tue Dec  1 17:37:46 2015, MaxMem=    33554432 cpu:         0.0
 (Enter /home/Applications/g09/g09/l601.exe)
 Copying SCF densities to generalized density rwf, IOpCl= 0 IROHF=0.

 **********************************************************************

            Population analysis using the SCF density.

 **********************************************************************

 Orbital symmetries:
       Occupied  (A) (A) (A) (A) (A) (A) (A) (A) (A) (A) (A) (A)
                 (A)
       Virtual   (A) (A) (A) (A) (A) (A) (A) (A) (A) (A) (A)
 The electronic state is 1-A.
 Alpha  occ. eigenvalues --   -1.55890  -1.09375  -0.93087  -0.87174  -0.78464
 Alpha  occ. eigenvalues --   -0.72141  -0.71296  -0.59161  -0.56885  -0.54771
 Alpha  occ. eigenvalues --   -0.51408  -0.46985  -0.40886
 Alpha virt. eigenvalues --    0.02810   0.06568   0.13006   0.14478   0.19866
 Alpha virt. eigenvalues --    0.20835   0.21623   0.40942   0.48835   0.59658
 Alpha virt. eigenvalues --    0.67666
          Condensed to atoms (all electrons):
               1          2          3          4          5          6
     1  C    4.065318   0.000000   0.000000   0.000000   0.000000   0.000000
     2  C    0.000000   3.629047   0.000000   0.000000   0.000000   0.000000
     3  O    0.000000   0.000000   6.297837   0.000000   0.000000   0.000000
     4  C    0.000000   0.000000   0.000000   3.616238   0.000000   0.000000
     5  C    0.000000   0.000000   0.000000   0.000000   4.075254   0.000000
     6  H    0.000000   0.000000   0.000000   0.000000   0.000000   1.041203
     7  H    0.000000   0.000000   0.000000   0.000000   0.000000   0.000000
     8  H    0.000000   0.000000   0.000000   0.000000   0.000000   0.000000
     9  H    0.000000   0.000000   0.000000   0.000000   0.000000   0.000000
               7          8          9
     1  C    0.000000   0.000000   0.000000
     2  C    0.000000   0.000000   0.000000
     3  O    0.000000   0.000000   0.000000
     4  C    0.000000   0.000000   0.000000
     5  C    0.000000   0.000000   0.000000
     6  H    0.000000   0.000000   0.000000
     7  H    1.119384   0.000000   0.000000
     8  H    0.000000   1.084446   0.000000
     9  H    0.000000   0.000000   1.071272
 Mulliken charges:
               1
     1  C   -0.065318
     2  C    0.370953
     3  O   -0.297837
     4  C    0.383762
     5  C   -0.075254
     6  H   -0.041203
     7  H   -0.119384
     8  H   -0.084446
     9  H   -0.071272
 Sum of Mulliken charges =   0.00000
 Mulliken charges with hydrogens summed into heavy atoms:
               1
     1  C   -0.136590
     2  C    0.286507
     3  O   -0.297837
     4  C    0.264378
     5  C   -0.116457
 Charge=              0.0000 electrons
 Dipole moment (field-independent basis, Debye):
    X=              0.0239    Y=              0.2191    Z=              0.1231  Tot=              0.2524
 N-N= 1.042005655110D+02 E-N=-1.721733552893D+02  KE=-1.311664289707D+01
 Leave Link  601 at Tue Dec  1 17:37:46 2015, MaxMem=    33554432 cpu:         0.0
 (Enter /home/Applications/g09/g09/l701.exe)
 Compute integral first derivatives.
 ... and contract with generalized density number  0.
 Leave Link  701 at Tue Dec  1 17:37:46 2015, MaxMem=    33554432 cpu:         0.0
 (Enter /home/Applications/g09/g09/l702.exe)
 L702 exits ... SP integral derivatives will be done elsewhere.
 Leave Link  702 at Tue Dec  1 17:37:46 2015, MaxMem=    33554432 cpu:         0.0
 (Enter /home/Applications/g09/g09/l703.exe)
 Compute integral first derivatives, UseDBF=F ICtDFT=           0.
 Integral derivatives from FoFJK, PRISM(SPDF).
 Calling FoFJK, ICntrl=      2127 FMM=F ISym2X=0 I1Cent= 0 IOpClX= 0 NMat=1 NMatS=1 NMatT=0.
 FoFJK:  IHMeth= 8 ICntrl=    2127 DoSepK=F KAlg= 0 I1Cent=   0 FoldK=F
 IRaf=         0 NMat=   1 IRICut=       1 DoRegI=T DoRafI=F ISym2E= 0.
 FoFCou: FMM=F IPFlag=           0 FMFlag=      100000 FMFlg1=         800
         NFxFlg=           0 DoJE=F BraDBF=F KetDBF=F FulRan=T
         wScrn=  0.000000 ICntrl=    2127 IOpCl=  0 I1Cent=           0 NGrid=           0
         NMat0=    1 NMatS0=      1 NMatT0=    0 NMatD0=    1 NMtDS0=    0 NMtDT0=    0
 Symmetry not used in FoFCou.
 Leave Link  703 at Tue Dec  1 17:37:46 2015, MaxMem=    33554432 cpu:         0.0
 (Enter /home/Applications/g09/g09/l716.exe)
 Dipole        = 9.41240826D-03 8.61978880D-02 4.84172767D-02
 ***** Axes restored to original set *****
 -------------------------------------------------------------------
 Center     Atomic                   Forces (Hartrees/Bohr)
 Number     Number              X              Y              Z
 -------------------------------------------------------------------
      1        6          -0.129670426    0.122997878   -0.027989004
      2        6           0.070393260   -0.011591142    0.031754195
      3        8           0.008998721    0.005910359   -0.015049064
      4        6           0.051997117   -0.075000848   -0.001809584
      5        6          -0.039661904   -0.094861109    0.018394868
      6        1           0.009076775   -0.000319951   -0.002050275
      7        1          -0.013502701    0.051236947    0.000516159
      8        1           0.012854805    0.016691043   -0.004195844
      9        1           0.029514354   -0.015063177    0.000428549
 -------------------------------------------------------------------
 Cartesian Forces:  Max     0.129670426 RMS     0.048251985
 Leave Link  716 at Tue Dec  1 17:37:46 2015, MaxMem=    33554432 cpu:         0.0
 (Enter /home/Applications/g09/g09/l103.exe)

 GradGradGradGradGradGradGradGradGradGradGradGradGradGradGradGradGradGrad
 Berny optimization.
 FormGI is forming the generalized inverse of G from B-inverse, IUseBI=4.
 Internal  Forces:  Max     0.109011036 RMS     0.027389843
 Search for a local minimum.
 Step number   1 out of a maximum of   48
 All quantities printed in internal units (Hartrees-Bohrs-Radians)
 RMS Force = .27390D-01 SwitMx=.10000D-02 MixMth= 1
 Mixed Optimization -- RFO/linear search
 Second derivative matrix not updated -- first step.
 ITU=  0
     Eigenvalues ---    0.01813   0.02181   0.02299   0.02627   0.02756
     Eigenvalues ---    0.02977   0.15854   0.15922   0.15953   0.15997
     Eigenvalues ---    0.21979   0.22830   0.34306   0.35264   0.37962
     Eigenvalues ---    0.43472   0.46970   0.47938   0.51369   0.55347
     Eigenvalues ---    0.60434
 RFO step:  Lambda=-6.35580376D-02 EMin= 1.81303286D-02
 Linear search not attempted -- first point.
 Maximum step size (   0.300) exceeded in Quadratic search.
    -- Step size scaled by   0.816
 Iteration  1 RMS(Cart)=  0.05770400 RMS(Int)=  0.00366094
 Iteration  2 RMS(Cart)=  0.00451582 RMS(Int)=  0.00116223
 Iteration  3 RMS(Cart)=  0.00000964 RMS(Int)=  0.00116220
 Iteration  4 RMS(Cart)=  0.00000002 RMS(Int)=  0.00116220
 ITry= 1 IFail=0 DXMaxC= 1.66D-01 DCOld= 1.00D+10 DXMaxT= 3.00D-01 DXLimC= 3.00D+00 Rises=F
 Variable       Old X    -DE/DX   Delta X   Delta X   Delta X     New X
                                 (Linear)    (Quad)   (Total)
    R1        2.54323  -0.08318   0.00000  -0.11210  -0.11155   2.43169
    R2        2.76286  -0.10901   0.00000  -0.21473  -0.21410   2.54876
    R3        1.93792   0.03236   0.00000   0.05301   0.05301   1.99092
    R4        2.53454  -0.00551   0.00000  -0.00361  -0.00387   2.53067
    R5        2.06816  -0.02074   0.00000  -0.04164  -0.04164   2.02653
    R6        2.57583  -0.01296   0.00000  -0.01207  -0.01281   2.56302
    R7        2.49259  -0.04786   0.00000  -0.05706  -0.05722   2.43537
    R8        1.89753   0.05129   0.00000   0.07851   0.07851   1.97604
    R9        2.01120   0.00697   0.00000   0.01284   0.01284   2.02404
    A1        1.78226   0.03074   0.00000   0.06971   0.07012   1.85238
    A2        2.21307  -0.00836   0.00000  -0.00797  -0.00865   2.20443
    A3        2.28523  -0.02208   0.00000  -0.05842  -0.05917   2.22606
    A4        1.95772  -0.00884   0.00000  -0.02452  -0.02582   1.93190
    A5        2.27395   0.00126   0.00000   0.00369   0.00259   2.27654
    A6        2.04271   0.00876   0.00000   0.03167   0.03072   2.07343
    A7        1.87916  -0.02229   0.00000  -0.03542  -0.03748   1.84169
    A8        1.89004  -0.00664   0.00000  -0.00951  -0.01073   1.87932
    A9        2.00057   0.01597   0.00000   0.05088   0.05146   2.05204
   A10        2.39240  -0.00931   0.00000  -0.04137  -0.04077   2.35163
   A11        1.90599   0.00845   0.00000   0.01278   0.01250   1.91849
   A12        2.20440  -0.00991   0.00000  -0.02666  -0.02700   2.17740
   A13        2.17040   0.00178   0.00000   0.01670   0.01649   2.18689
    D1       -0.13197   0.00876   0.00000   0.08760   0.08863  -0.04334
    D2       -3.12456  -0.00175   0.00000  -0.00579  -0.00352  -3.12808
    D3        3.08085   0.00534   0.00000   0.04478   0.04321   3.12406
    D4        0.08825  -0.00517   0.00000  -0.04862  -0.04894   0.03932
    D5        0.09938  -0.00622   0.00000  -0.06646  -0.06748   0.03190
    D6       -3.11430  -0.00124   0.00000  -0.02302  -0.02482  -3.13911
    D7       -3.11771  -0.00162   0.00000  -0.01767  -0.01821  -3.13591
    D8       -0.04820   0.00337   0.00000   0.02576   0.02445  -0.02374
    D9        0.12012  -0.01013   0.00000  -0.08384  -0.08157   0.03855
   D10        3.13423  -0.00159   0.00000  -0.00576  -0.00346   3.13077
   D11       -0.04852   0.00319   0.00000   0.02992   0.03105  -0.01747
   D12        3.07684   0.00362   0.00000   0.02931   0.02875   3.10559
   D13       -0.03297   0.00400   0.00000   0.02669   0.02463  -0.00834
   D14       -3.10420  -0.00027   0.00000  -0.01352  -0.01612  -3.12031
   D15        3.13029   0.00305   0.00000   0.02604   0.02609  -3.12680
   D16        0.05906  -0.00122   0.00000  -0.01417  -0.01465   0.04441
         Item               Value     Threshold  Converged?
 Maximum Force            0.109011     0.000450     NO 
 RMS     Force            0.027390     0.000300     NO 
 Maximum Displacement     0.165997     0.001800     NO 
 RMS     Displacement     0.060771     0.001200     NO 
 Predicted change in Energy=-3.447098D-02
 Lowest energy point so far.  Saving SCF results.
 GradGradGradGradGradGradGradGradGradGradGradGradGradGradGradGradGradGrad

 Leave Link  103 at Tue Dec  1 17:37:46 2015, MaxMem=    33554432 cpu:         0.0
 (Enter /home/Applications/g09/g09/l202.exe)
                          Input orientation:                          
 ---------------------------------------------------------------------
 Center     Atomic      Atomic             Coordinates (Angstroms)
 Number     Number       Type             X           Y           Z
 ---------------------------------------------------------------------
      1          6           0        0.909609   -0.673912   -0.008753
      2          6           0       -0.322930   -1.043379   -0.021971
      3          8           0       -1.136060    0.019782    0.021577
      4          6           0       -0.318908    1.102244    0.013427
      5          6           0        0.896629    0.674771   -0.010971
      6          1           0        1.770662    1.293820   -0.004329
      7          1           0       -0.767076    2.047005    0.009983
      8          1           0       -0.754974   -2.024859   -0.014262
      9          1           0        1.751004   -1.307862   -0.020273
 ---------------------------------------------------------------------
                    Distance matrix (angstroms):
                    1          2          3          4          5
     1  C    0.000000
     2  C    1.286792   0.000000
     3  O    2.160299   1.339174   0.000000
     4  C    2.159740   2.145919   1.356292   0.000000
     5  C    1.348747   2.107009   2.135860   1.288743   0.000000
     6  H    2.147882   3.137824   3.173780   2.098409   1.071074
     7  H    3.196093   3.122301   2.060563   1.045676   2.156706
     8  H    2.143811   1.072392   2.080161   3.157483   3.164776
     9  H    1.053552   2.090732   3.177976   3.177151   2.158907
                    6          7          8          9
     6  H    0.000000
     7  H    2.647189   0.000000
     8  H    4.170440   4.071955   0.000000
     9  H    2.601805   4.194851   2.606539   0.000000
 Stoichiometry    C4H4O
 Framework group  C1[X(C4H4O)]
 Deg. of freedom    21
 Full point group                 C1      NOp   1
 RotChk:  IX=0 Diff= 2.05D-02
 Largest Abelian subgroup         C1      NOp   1
 Largest concise Abelian subgroup C1      NOp   1
                         Standard orientation:                         
 ---------------------------------------------------------------------
 Center     Atomic      Atomic             Coordinates (Angstroms)
 Number     Number       Type             X           Y           Z
 ---------------------------------------------------------------------
      1          6           0       -0.820694    0.795638   -0.008621
      2          6           0       -0.996296   -0.478897    0.015027
      3          8           0        0.179700   -1.119069   -0.009501
      4          6           0        1.123430   -0.144995   -0.000491
      5          6           0        0.513829    0.990435    0.006266
      6          1           0        0.991100    1.949234   -0.004458
      7          1           0        2.125791   -0.442342    0.016765
      8          1           0       -1.899494   -1.056923    0.003065
      9          1           0       -1.576612    1.529495   -0.012451
 ---------------------------------------------------------------------
 Rotational constants (GHZ):     10.2034955      9.9393857      5.0354486
 Leave Link  202 at Tue Dec  1 17:37:46 2015, MaxMem=    33554432 cpu:         0.0
 (Enter /home/Applications/g09/g09/l301.exe)

 Semi-emprical parameters in input format:
 Method=8 CoreType=1 PeptideFC=0.0120930000 RIJScale=0.5388840000
 ****
 H       
 PQN=1 NValence=1 F0ss=0.5586300000 ZetaOverlap=1.0950750000 U=-0.4119510000
 Beta=-0.2338190000 CoreKO=1.1007910000 KON=0,0,0,0.9764370000 KON=1,0,1,1.1361190000
 KON=0,1,1,1.0139660000 KON=2,1,1,1.2635130000 EISol=-0.4188110042 EHeat=0.0830298228
 Alpha=1.4078420000
 GCore=0.0080140000,1.2229470000,2.2663690000
 GCore=0.0002960000,1.5853770000,2.7382840000
 GCore=-0.0012210000,0.6561060000,3.9519220000
 ****
 C       
 PQN=2,2 NValence=4 F0ss=0.4805700000 F0sp=0.4819370000 F0pp=0.3439950000 F2pp=0.1961420000
 G1sp=0.2678900000
 ZetaOverlap=1.8366850000,1.4875730000
 U=-1.4842670000,-1.3886060000
 Beta=-0.6376780000,-0.3536670000 DDN=0,1,0.9094820000 DDN=1,1,0.8346670000
 CoreKO=1.1045690000 KON=0,0,0,1.0182330000 KON=1,0,1,0.7342900000 KON=0,1,1,1.1944780000
 KON=2,1,1,0.7056720000 EISol=-4.4398989268 EHeat=0.2723305520 Alpha=1.4025920000
 DipHyp=1.8188593534
 GCore=0.0007870000,1.5590290000,2.8992300000
 GCore=0.0031100000,1.3744800000,3.7653660000
 GCore=-0.0013700000,1.3772400000,4.0631190000
 GCore=-0.0000820000,1.5210550000,5.3709760000
 ****
 O       
 PQN=2,2 NValence=6 F0ss=0.7455940000 F0sp=0.5814220000 F0pp=0.4393740000 F2pp=0.2294290000
 G1sp=0.3535640000
 ZetaOverlap=2.7714830000,2.5744810000
 U=-3.8069400000,-2.7329690000
 Beta=-1.1272460000,-1.1587550000 DDN=0,1,0.5172290000 DDN=1,1,0.4110560000
 CoreKO=0.8743200000 KON=0,0,0,0.8886000000 KON=1,0,1,0.5063100000 KON=0,1,1,0.8996480000
 KON=2,1,1,0.5582300000 EISol=-11.6164441184 EHeat=0.0949133088 Alpha=2.3820330000
 DipHyp=1.0343984867
 GCore=0.0192970000,1.5130470000,1.5620930000
 GCore=0.0058890000,1.6294880000,2.3818730000
 ****
 
 Standard basis: VSTO-6G (5D, 7F)
 Ernie: Thresh=  0.10000D-02 Tol=  0.10000D-05 Strict=F.
  NNHCO=     0 NNPyr=     0 NCTC=     0               EPep=         0.000000000
    EC=        70.342382545  ECS=         2.162635924   EG=         0.357631877
   EHC=         0.000000000  EAt=       -31.051283842  AtH=         1.516354808
 EPDDG=         0.000000000  ECC=        72.862650345 EAtT=        32.567638650
 There are    24 symmetry adapted cartesian basis functions of A   symmetry.
 There are    24 symmetry adapted basis functions of A   symmetry.
    24 basis functions,   144 primitive gaussians,    24 cartesian basis functions
    13 alpha electrons       13 beta electrons
       nuclear repulsion energy       105.4302889956 Hartrees.
 IExCor=    0 DFT=F Ex=HF Corr=None ExCW=0 ScaHFX=  1.000000
 ScaDFX=  1.000000  1.000000  1.000000  1.000000 ScalE2=  1.000000  1.000000
 IRadAn=      0 IRanWt=     -1 IRanGd=            0 ICorTp=0 IEmpDi=  4
 Integral buffers will be    131072 words long.
 Regular integral format.
 Two-electron integral symmetry is turned off.
 Leave Link  301 at Tue Dec  1 17:37:46 2015, MaxMem=    33554432 cpu:         0.0
 (Enter /home/Applications/g09/g09/l302.exe)
 Do NDO integrals.
 NPDir=0 NMtPBC=     1 NCelOv=     1 NCel=       1 NClECP=     1 NCelD=      1
         NCelK=      1 NCelE2=     1 NClLst=     1 CellRange=     0.0.
 One-electron integrals computed using PRISM.
 NBasis=    24 RedAO= F EigKep=  0.00D+00  NBF=    24
 NBsUse=    24 1.00D-04 EigRej=  0.00D+00 NBFU=    24
 Leave Link  302 at Tue Dec  1 17:37:46 2015, MaxMem=    33554432 cpu:         0.0
 (Enter /home/Applications/g09/g09/l303.exe)
 DipDrv:  MaxL=1.
 Leave Link  303 at Tue Dec  1 17:37:46 2015, MaxMem=    33554432 cpu:         0.0
 (Enter /home/Applications/g09/g09/l401.exe)
 Initial guess from the checkpoint file:  "/home/Applications/g09/scratch/Gau-23882.chk"
 B after Tr=     0.000000    0.000000    0.000000
         Rot=    0.999970    0.000276    0.000396    0.007745 Ang=   0.89 deg.
 Guess basis will be translated and rotated to current coordinates.
 JPrj=0 DoOrth=T DoCkMO=T.
 Leave Link  401 at Tue Dec  1 17:37:46 2015, MaxMem=    33554432 cpu:         0.0
 (Enter /home/Applications/g09/g09/l502.exe)
 Closed shell SCF:
 Using DIIS extrapolation, IDIIS=  1040.
 Overlap will be assumed to be unity.
 Two-electron integral symmetry not used.
 Keep J ints in memory in canonical form, NReq=888082.
 IVT=       79475 IEndB=       79475 NGot=    33554432 MDV=    33473473
 LenX=    33473473 LenY=    33472456
 Requested convergence on RMS density matrix=1.00D-08 within 128 cycles.
 Requested convergence on MAX density matrix=1.00D-06.
 Requested convergence on             energy=1.00D-06.
 No special actions if energy rises.
 FoFCou: FMM=F IPFlag=           0 FMFlag=           0 FMFlg1=           0
         NFxFlg=           0 DoJE=F BraDBF=F KetDBF=F FulRan=T
         wScrn=  0.000000 ICntrl=     600 IOpCl=  2 I1Cent=           0 NGrid=           0
         NMat0=    1 NMatS0=     54 NMatT0=    0 NMatD0=    1 NMtDS0=    0 NMtDT0=    0
 Symmetry not used in FoFCou.

 Cycle   1  Pass 1  IDiag  1:
 E=  1.76809065926429    
 DIIS: error= 1.23D-02 at cycle   1 NSaved=   1.
 NSaved= 1 IEnMin= 1 EnMin=  1.76809065926429     IErMin= 1 ErrMin= 1.23D-02
 ErrMax= 1.23D-02  0.00D+00 EMaxC= 1.00D-01 BMatC= 5.93D-03 BMatP= 5.93D-03
 IDIUse=3 WtCom= 8.77D-01 WtEn= 1.23D-01
 Coeff-Com:  0.100D+01
 Coeff-En:   0.100D+01
 Coeff:      0.100D+01
 GapD=    2.000 DampG=2.000 DampE=0.500 DampFc=1.0000 IDamp=-1.
 RMSDP=3.92D-03 MaxDP=1.64D-02              OVMax= 0.00D+00

 Cycle   2  Pass 1  IDiag  3:
 E=  1.75600547301346     Delta-E=       -0.012085186251 Rises=F Damp=F
 DIIS: error= 2.17D-03 at cycle   2 NSaved=   2.
 NSaved= 2 IEnMin= 2 EnMin=  1.75600547301346     IErMin= 2 ErrMin= 2.17D-03
 ErrMax= 2.17D-03  0.00D+00 EMaxC= 1.00D-01 BMatC= 3.33D-04 BMatP= 5.93D-03
 IDIUse=3 WtCom= 9.78D-01 WtEn= 2.17D-02
 Coeff-Com: -0.262D+00 0.126D+01
 Coeff-En:   0.000D+00 0.100D+01
 Coeff:     -0.256D+00 0.126D+01
 Gap=     0.441 Goal=   None    Shift=    0.000
 RMSDP=1.44D-03 MaxDP=5.30D-03 DE=-1.21D-02 OVMax= 6.83D-03

 Cycle   3  Pass 1  IDiag  3:
 E=  1.75503588508583     Delta-E=       -0.000969587928 Rises=F Damp=F
 DIIS: error= 3.52D-04 at cycle   3 NSaved=   3.
 NSaved= 3 IEnMin= 3 EnMin=  1.75503588508583     IErMin= 3 ErrMin= 3.52D-04
 ErrMax= 3.52D-04  0.00D+00 EMaxC= 1.00D-01 BMatC= 1.04D-05 BMatP= 3.33D-04
 IDIUse=3 WtCom= 9.96D-01 WtEn= 3.52D-03
 Coeff-Com:  0.945D-01-0.526D+00 0.143D+01
 Coeff-En:   0.000D+00 0.000D+00 0.100D+01
 Coeff:      0.942D-01-0.524D+00 0.143D+01
 Gap=     0.441 Goal=   None    Shift=    0.000
 RMSDP=4.03D-04 MaxDP=2.01D-03 DE=-9.70D-04 OVMax= 2.57D-03

 Cycle   4  Pass 1  IDiag  3:
 E=  1.75498670234343     Delta-E=       -0.000049182742 Rises=F Damp=F
 DIIS: error= 8.56D-05 at cycle   4 NSaved=   4.
 NSaved= 4 IEnMin= 4 EnMin=  1.75498670234343     IErMin= 4 ErrMin= 8.56D-05
 ErrMax= 8.56D-05  0.00D+00 EMaxC= 1.00D-01 BMatC= 4.06D-07 BMatP= 1.04D-05
 IDIUse=1 WtCom= 1.00D+00 WtEn= 0.00D+00
 Coeff-Com: -0.313D-01 0.181D+00-0.612D+00 0.146D+01
 Coeff:     -0.313D-01 0.181D+00-0.612D+00 0.146D+01
 Gap=     0.441 Goal=   None    Shift=    0.000
 RMSDP=9.91D-05 MaxDP=6.11D-04 DE=-4.92D-05 OVMax= 8.39D-04

 Cycle   5  Pass 1  IDiag  3:
 E=  1.75498434042265     Delta-E=       -0.000002361921 Rises=F Damp=F
 DIIS: error= 1.90D-05 at cycle   5 NSaved=   5.
 NSaved= 5 IEnMin= 5 EnMin=  1.75498434042265     IErMin= 5 ErrMin= 1.90D-05
 ErrMax= 1.90D-05  0.00D+00 EMaxC= 1.00D-01 BMatC= 1.90D-08 BMatP= 4.06D-07
 IDIUse=1 WtCom= 1.00D+00 WtEn= 0.00D+00
 Coeff-Com:  0.101D-01-0.594D-01 0.217D+00-0.664D+00 0.150D+01
 Coeff:      0.101D-01-0.594D-01 0.217D+00-0.664D+00 0.150D+01
 Gap=     0.441 Goal=   None    Shift=    0.000
 RMSDP=2.24D-05 MaxDP=1.56D-04 DE=-2.36D-06 OVMax= 2.44D-04

 Cycle   6  Pass 1  IDiag  3:
 E=  1.75498422605313     Delta-E=       -0.000000114370 Rises=F Damp=F
 DIIS: error= 5.24D-06 at cycle   6 NSaved=   6.
 NSaved= 6 IEnMin= 6 EnMin=  1.75498422605313     IErMin= 6 ErrMin= 5.24D-06
 ErrMax= 5.24D-06  0.00D+00 EMaxC= 1.00D-01 BMatC= 1.09D-09 BMatP= 1.90D-08
 IDIUse=1 WtCom= 1.00D+00 WtEn= 0.00D+00
 Coeff-Com: -0.255D-02 0.147D-01-0.529D-01 0.176D+00-0.573D+00 0.144D+01
 Coeff:     -0.255D-02 0.147D-01-0.529D-01 0.176D+00-0.573D+00 0.144D+01
 Gap=     0.441 Goal=   None    Shift=    0.000
 RMSDP=5.00D-06 MaxDP=3.12D-05 DE=-1.14D-07 OVMax= 4.64D-05

 Cycle   7  Pass 1  IDiag  3:
 E=  1.75498422005728     Delta-E=       -0.000000005996 Rises=F Damp=F
 DIIS: error= 1.25D-06 at cycle   7 NSaved=   7.
 NSaved= 7 IEnMin= 7 EnMin=  1.75498422005728     IErMin= 7 ErrMin= 1.25D-06
 ErrMax= 1.25D-06  0.00D+00 EMaxC= 1.00D-01 BMatC= 5.67D-11 BMatP= 1.09D-09
 IDIUse=1 WtCom= 1.00D+00 WtEn= 0.00D+00
 Coeff-Com: -0.101D-03 0.665D-03-0.241D-02 0.200D-02 0.489D-01-0.363D+00
 Coeff-Com:  0.131D+01
 Coeff:     -0.101D-03 0.665D-03-0.241D-02 0.200D-02 0.489D-01-0.363D+00
 Coeff:      0.131D+01
 Gap=     0.441 Goal=   None    Shift=    0.000
 RMSDP=9.96D-07 MaxDP=7.26D-06 DE=-6.00D-09 OVMax= 7.65D-06

 Cycle   8  Pass 1  IDiag  3:
 E=  1.75498421977942     Delta-E=       -0.000000000278 Rises=F Damp=F
 DIIS: error= 2.45D-07 at cycle   8 NSaved=   8.
 NSaved= 8 IEnMin= 8 EnMin=  1.75498421977942     IErMin= 8 ErrMin= 2.45D-07
 ErrMax= 2.45D-07  0.00D+00 EMaxC= 1.00D-01 BMatC= 2.59D-12 BMatP= 5.67D-11
 IDIUse=1 WtCom= 1.00D+00 WtEn= 0.00D+00
 Coeff-Com:  0.155D-03-0.918D-03 0.333D-02-0.923D-02 0.114D-01 0.405D-01
 Coeff-Com: -0.407D+00 0.136D+01
 Coeff:      0.155D-03-0.918D-03 0.333D-02-0.923D-02 0.114D-01 0.405D-01
 Coeff:     -0.407D+00 0.136D+01
 Gap=     0.441 Goal=   None    Shift=    0.000
 RMSDP=2.12D-07 MaxDP=1.79D-06 DE=-2.78D-10 OVMax= 1.61D-06

 Cycle   9  Pass 1  IDiag  3:
 E=  1.75498421976775     Delta-E=       -0.000000000012 Rises=F Damp=F
 DIIS: error= 3.82D-08 at cycle   9 NSaved=   9.
 NSaved= 9 IEnMin= 9 EnMin=  1.75498421976775     IErMin= 9 ErrMin= 3.82D-08
 ErrMax= 3.82D-08  0.00D+00 EMaxC= 1.00D-01 BMatC= 7.07D-14 BMatP= 2.59D-12
 IDIUse=1 WtCom= 1.00D+00 WtEn= 0.00D+00
 Coeff-Com: -0.575D-04 0.341D-03-0.123D-02 0.355D-02-0.526D-02-0.807D-02
 Coeff-Com:  0.136D+00-0.560D+00 0.144D+01
 Coeff:     -0.575D-04 0.341D-03-0.123D-02 0.355D-02-0.526D-02-0.807D-02
 Coeff:      0.136D+00-0.560D+00 0.144D+01
 Gap=     0.441 Goal=   None    Shift=    0.000
 RMSDP=3.77D-08 MaxDP=2.43D-07 DE=-1.17D-11 OVMax= 3.15D-07

 Cycle  10  Pass 1  IDiag  3:
 E=  1.75498421976734     Delta-E=        0.000000000000 Rises=F Damp=F
 DIIS: error= 7.40D-09 at cycle  10 NSaved=  10.
 NSaved=10 IEnMin=10 EnMin=  1.75498421976734     IErMin=10 ErrMin= 7.40D-09
 ErrMax= 7.40D-09  0.00D+00 EMaxC= 1.00D-01 BMatC= 2.93D-15 BMatP= 7.07D-14
 IDIUse=1 WtCom= 1.00D+00 WtEn= 0.00D+00
 Coeff-Com:  0.162D-04-0.949D-04 0.337D-03-0.951D-03 0.136D-02 0.188D-02
 Coeff-Com: -0.352D-01 0.150D+00-0.514D+00 0.140D+01
 Coeff:      0.162D-04-0.949D-04 0.337D-03-0.951D-03 0.136D-02 0.188D-02
 Coeff:     -0.352D-01 0.150D+00-0.514D+00 0.140D+01
 Gap=     0.441 Goal=   None    Shift=    0.000
 RMSDP=7.61D-09 MaxDP=5.21D-08 DE=-4.12D-13 OVMax= 5.65D-08

 Cycle  11  Pass 2  IDiag  1:
 SCF Done:  E(RAM1) =   1.75498421977     A.U. after   11 cycles
            NFock= 10  Conv=0.76D-08     -V/T= 1.1324
 KE=-1.325397060954D+01 PE=-1.742348111567D+02 EE= 8.381347699047D+01
 Leave Link  502 at Tue Dec  1 17:37:46 2015, MaxMem=    33554432 cpu:         0.0
 (Enter /home/Applications/g09/g09/l701.exe)
 Compute integral first derivatives.
 ... and contract with generalized density number  0.
 Leave Link  701 at Tue Dec  1 17:37:46 2015, MaxMem=    33554432 cpu:         0.0
 (Enter /home/Applications/g09/g09/l702.exe)
 L702 exits ... SP integral derivatives will be done elsewhere.
 Leave Link  702 at Tue Dec  1 17:37:46 2015, MaxMem=    33554432 cpu:         0.0
 (Enter /home/Applications/g09/g09/l703.exe)
 Compute integral first derivatives, UseDBF=F ICtDFT=           0.
 Integral derivatives from FoFJK, PRISM(SPDF).
 Calling FoFJK, ICntrl=      2127 FMM=F ISym2X=0 I1Cent= 0 IOpClX= 0 NMat=1 NMatS=1 NMatT=0.
 FoFJK:  IHMeth= 8 ICntrl=    2127 DoSepK=F KAlg= 0 I1Cent=   0 FoldK=F
 IRaf=         0 NMat=   1 IRICut=       1 DoRegI=T DoRafI=F ISym2E= 0.
 FoFCou: FMM=F IPFlag=           0 FMFlag=      100000 FMFlg1=         800
         NFxFlg=           0 DoJE=F BraDBF=F KetDBF=F FulRan=T
         wScrn=  0.000000 ICntrl=    2127 IOpCl=  0 I1Cent=           0 NGrid=           0
         NMat0=    1 NMatS0=      1 NMatT0=    0 NMatD0=    1 NMtDS0=    0 NMtDT0=    0
 Symmetry not used in FoFCou.
 Leave Link  703 at Tue Dec  1 17:37:46 2015, MaxMem=    33554432 cpu:         0.0
 (Enter /home/Applications/g09/g09/l716.exe)
 Dipole        =-1.65855941D-02 1.64579665D-01 1.36887004D-02
 ***** Axes restored to original set *****
 -------------------------------------------------------------------
 Center     Atomic                   Forces (Hartrees/Bohr)
 Number     Number              X              Y              Z
 -------------------------------------------------------------------
      1        6           0.000388812    0.002650921   -0.006978158
      2        6          -0.015736367   -0.031169357    0.009906508
      3        8          -0.014508742    0.012294058   -0.004788061
      4        6          -0.016000000   -0.010988582   -0.000960558
      5        6           0.018576980    0.014461336    0.004665599
      6        1           0.009638415    0.005917467   -0.001011571
      7        1          -0.002316285    0.016488273    0.001041888
      8        1           0.000577628    0.001565750   -0.001850237
      9        1           0.019379559   -0.011219866   -0.000025410
 -------------------------------------------------------------------
 Cartesian Forces:  Max     0.031169357 RMS     0.011589164
 Leave Link  716 at Tue Dec  1 17:37:46 2015, MaxMem=    33554432 cpu:         0.0
 (Enter /home/Applications/g09/g09/l103.exe)

 GradGradGradGradGradGradGradGradGradGradGradGradGradGradGradGradGradGrad
 Berny optimization.
 Using GEDIIS/GDIIS optimizer.
 FormGI is forming the generalized inverse of G from B-inverse, IUseBI=4.
 Internal  Forces:  Max     0.026503553 RMS     0.009111368
 Search for a local minimum.
 Step number   2 out of a maximum of   48
 All quantities printed in internal units (Hartrees-Bohrs-Radians)
 RMS Force = .91114D-02 SwitMx=.10000D-02 MixMth= 1
 Mixed Optimization -- RFO/linear search
 Update second derivatives using D2CorX and points    1    2
 DE= -2.54D-02 DEPred=-3.45D-02 R= 7.35D-01
 TightC=F SS=  1.41D+00  RLast= 3.44D-01 DXNew= 5.0454D-01 1.0312D+00
 Trust test= 7.35D-01 RLast= 3.44D-01 DXMaxT set to 5.05D-01
 ITU=  1  0
 Use linear search instead of GDIIS.
     Eigenvalues ---    0.01828   0.02195   0.02313   0.02655   0.02734
     Eigenvalues ---    0.02956   0.15819   0.15982   0.15994   0.16008
     Eigenvalues ---    0.21683   0.22894   0.34200   0.37017   0.40112
     Eigenvalues ---    0.42851   0.45973   0.47891   0.52804   0.56495
     Eigenvalues ---    0.84953
 RFO step:  Lambda=-7.40514021D-03 EMin= 1.82834898D-02
 Quartic linear search produced a step of -0.06289.
 Iteration  1 RMS(Cart)=  0.03477592 RMS(Int)=  0.00167305
 Iteration  2 RMS(Cart)=  0.00125126 RMS(Int)=  0.00101890
 Iteration  3 RMS(Cart)=  0.00000130 RMS(Int)=  0.00101889
 Iteration  4 RMS(Cart)=  0.00000000 RMS(Int)=  0.00101889
 ITry= 1 IFail=0 DXMaxC= 8.00D-02 DCOld= 1.00D+10 DXMaxT= 5.05D-01 DXLimC= 3.00D+00 Rises=F
 Variable       Old X    -DE/DX   Delta X   Delta X   Delta X     New X
                                 (Linear)    (Quad)   (Total)
    R1        2.43169   0.02650   0.00702   0.02640   0.03330   2.46498
    R2        2.54876   0.01931   0.01346   0.01141   0.02472   2.57348
    R3        1.99092   0.02223  -0.00333   0.05573   0.05239   2.04332
    R4        2.53067   0.02049   0.00024   0.03291   0.03321   2.56388
    R5        2.02653  -0.00168   0.00262  -0.01171  -0.00910   2.01743
    R6        2.56302   0.00832   0.00081   0.01138   0.01236   2.57538
    R7        2.43537   0.02180   0.00360   0.02189   0.02553   2.46090
    R8        1.97604   0.01589  -0.00494   0.04414   0.03920   2.01524
    R9        2.02404   0.01128  -0.00081   0.02931   0.02850   2.05254
    A1        1.85238   0.00201  -0.00441   0.02626   0.01970   1.87207
    A2        2.20443   0.00171   0.00054   0.00788   0.00818   2.21260
    A3        2.22606  -0.00368   0.00372  -0.03223  -0.02863   2.19742
    A4        1.93190  -0.00491   0.00162  -0.01914  -0.02118   1.91072
    A5        2.27654   0.00267  -0.00016   0.01089   0.00860   2.28514
    A6        2.07343   0.00242  -0.00193   0.01507   0.01099   2.08442
    A7        1.84169   0.00275   0.00236   0.00252   0.00366   1.84535
    A8        1.87932   0.00536   0.00067   0.01595   0.01576   1.89508
    A9        2.05204   0.00222  -0.00324   0.02862   0.02580   2.07784
   A10        2.35163  -0.00758   0.00256  -0.04442  -0.04145   2.31018
   A11        1.91849  -0.00505  -0.00079  -0.01903  -0.02149   1.89699
   A12        2.17740   0.00176   0.00170   0.00162   0.00341   2.18080
   A13        2.18689   0.00333  -0.00104   0.01910   0.01810   2.20499
    D1       -0.04334   0.00341  -0.00557   0.14164   0.13606   0.09272
    D2       -3.12808  -0.00042   0.00022  -0.00599  -0.00505  -3.13313
    D3        3.12406   0.00178  -0.00272   0.06630   0.06233  -3.09680
    D4        0.03932  -0.00205   0.00308  -0.08133  -0.07878  -0.03946
    D5        0.03190  -0.00246   0.00424  -0.10866  -0.10465  -0.07275
    D6       -3.13911  -0.00098   0.00156  -0.04784  -0.04654   3.09753
    D7       -3.13591  -0.00070   0.00114  -0.03128  -0.03103   3.11624
    D8       -0.02374   0.00078  -0.00154   0.02953   0.02708   0.00334
    D9        0.03855  -0.00308   0.00513  -0.12232  -0.11626  -0.07771
   D10        3.13077   0.00029   0.00022   0.00591   0.00618   3.13695
   D11       -0.01747   0.00132  -0.00195   0.05008   0.04867   0.03120
   D12        3.10559   0.00132  -0.00181   0.05630   0.05474  -3.12285
   D13       -0.00834   0.00061  -0.00155   0.03458   0.03256   0.02422
   D14       -3.12031  -0.00085   0.00101  -0.02627  -0.02625   3.13662
   D15       -3.12680   0.00041  -0.00164   0.02545   0.02418  -3.10262
   D16        0.04441  -0.00105   0.00092  -0.03540  -0.03463   0.00978
         Item               Value     Threshold  Converged?
 Maximum Force            0.026504     0.000450     NO 
 RMS     Force            0.009111     0.000300     NO 
 Maximum Displacement     0.080007     0.001800     NO 
 RMS     Displacement     0.034670     0.001200     NO 
 Predicted change in Energy=-3.927963D-03
 Lowest energy point so far.  Saving SCF results.
 GradGradGradGradGradGradGradGradGradGradGradGradGradGradGradGradGradGrad

 Leave Link  103 at Tue Dec  1 17:37:46 2015, MaxMem=    33554432 cpu:         0.0
 (Enter /home/Applications/g09/g09/l202.exe)
                          Input orientation:                          
 ---------------------------------------------------------------------
 Center     Atomic      Atomic             Coordinates (Angstroms)
 Number     Number       Type             X           Y           Z
 ---------------------------------------------------------------------
      1          6           0        0.904237   -0.676480   -0.034545
      2          6           0       -0.339145   -1.067190    0.018782
      3          8           0       -1.155579    0.015803   -0.017589
      4          6           0       -0.331286    1.100858    0.005050
      5          6           0        0.902582    0.684497    0.013592
      6          1           0        1.792045    1.307729    0.026871
      7          1           0       -0.760208    2.077207    0.000789
      8          1           0       -0.765523   -2.045915    0.014087
      9          1           0        1.780832   -1.308898   -0.062611
 ---------------------------------------------------------------------
                    Distance matrix (angstroms):
                    1          2          3          4          5
     1  C    0.000000
     2  C    1.304414   0.000000
     3  O    2.173104   1.356746   0.000000
     4  C    2.164951   2.168105   1.362834   0.000000
     5  C    1.361829   2.147165   2.164290   1.302252   0.000000
     6  H    2.174641   3.190968   3.218623   2.133496   1.086158
     7  H    3.217828   3.172515   2.099058   1.066419   2.169027
     8  H    2.160050   1.067579   2.098530   3.176606   3.199645
     9  H    1.081278   2.135264   3.221703   3.205082   2.179623
                    6          7          8          9
     6  H    0.000000
     7  H    2.665853   0.000000
     8  H    4.217612   4.123147   0.000000
     9  H    2.618182   4.233984   2.651981   0.000000
 Stoichiometry    C4H4O
 Framework group  C1[X(C4H4O)]
 Deg. of freedom    21
 Full point group                 C1      NOp   1
 RotChk:  IX=0 Diff= 1.41D-01
 Largest Abelian subgroup         C1      NOp   1
 Largest concise Abelian subgroup C1      NOp   1
                         Standard orientation:                         
 ---------------------------------------------------------------------
 Center     Atomic      Atomic             Coordinates (Angstroms)
 Number     Number       Type             X           Y           Z
 ---------------------------------------------------------------------
      1          6           0       -0.737260    0.875584    0.023883
      2          6           0       -1.058598   -0.387535   -0.028720
      3          8           0        0.067431   -1.143029    0.016533
      4          6           0        1.105599   -0.260306   -0.001401
      5          6           0        0.622026    0.948749   -0.015706
      6          1           0        1.195434    1.871140   -0.027344
      7          1           0        2.104027   -0.634819    0.010083
      8          1           0       -2.012384   -0.867135   -0.029079
      9          1           0       -1.417130    1.716096    0.045741
 ---------------------------------------------------------------------
 Rotational constants (GHZ):      9.9051429      9.8118372      4.9318157
 Leave Link  202 at Tue Dec  1 17:37:46 2015, MaxMem=    33554432 cpu:         0.0
 (Enter /home/Applications/g09/g09/l301.exe)

 Semi-emprical parameters in input format:
 Method=8 CoreType=1 PeptideFC=0.0120930000 RIJScale=0.5388840000
 ****
 H       
 PQN=1 NValence=1 F0ss=0.5586300000 ZetaOverlap=1.0950750000 U=-0.4119510000
 Beta=-0.2338190000 CoreKO=1.1007910000 KON=0,0,0,0.9764370000 KON=1,0,1,1.1361190000
 KON=0,1,1,1.0139660000 KON=2,1,1,1.2635130000 EISol=-0.4188110042 EHeat=0.0830298228
 Alpha=1.4078420000
 GCore=0.0080140000,1.2229470000,2.2663690000
 GCore=0.0002960000,1.5853770000,2.7382840000
 GCore=-0.0012210000,0.6561060000,3.9519220000
 ****
 C       
 PQN=2,2 NValence=4 F0ss=0.4805700000 F0sp=0.4819370000 F0pp=0.3439950000 F2pp=0.1961420000
 G1sp=0.2678900000
 ZetaOverlap=1.8366850000,1.4875730000
 U=-1.4842670000,-1.3886060000
 Beta=-0.6376780000,-0.3536670000 DDN=0,1,0.9094820000 DDN=1,1,0.8346670000
 CoreKO=1.1045690000 KON=0,0,0,1.0182330000 KON=1,0,1,0.7342900000 KON=0,1,1,1.1944780000
 KON=2,1,1,0.7056720000 EISol=-4.4398989268 EHeat=0.2723305520 Alpha=1.4025920000
 DipHyp=1.8188593534
 GCore=0.0007870000,1.5590290000,2.8992300000
 GCore=0.0031100000,1.3744800000,3.7653660000
 GCore=-0.0013700000,1.3772400000,4.0631190000
 GCore=-0.0000820000,1.5210550000,5.3709760000
 ****
 O       
 PQN=2,2 NValence=6 F0ss=0.7455940000 F0sp=0.5814220000 F0pp=0.4393740000 F2pp=0.2294290000
 G1sp=0.3535640000
 ZetaOverlap=2.7714830000,2.5744810000
 U=-3.8069400000,-2.7329690000
 Beta=-1.1272460000,-1.1587550000 DDN=0,1,0.5172290000 DDN=1,1,0.4110560000
 CoreKO=0.8743200000 KON=0,0,0,0.8886000000 KON=1,0,1,0.5063100000 KON=0,1,1,0.8996480000
 KON=2,1,1,0.5582300000 EISol=-11.6164441184 EHeat=0.0949133088 Alpha=2.3820330000
 DipHyp=1.0343984867
 GCore=0.0192970000,1.5130470000,1.5620930000
 GCore=0.0058890000,1.6294880000,2.3818730000
 ****
 
 Standard basis: VSTO-6G (5D, 7F)
 Ernie: Thresh=  0.10000D-02 Tol=  0.10000D-05 Strict=F.
  NNHCO=     0 NNPyr=     0 NCTC=     0               EPep=         0.000000000
    EC=        69.822501208  ECS=         2.064794840   EG=         0.345853343
   EHC=         0.000000000  EAt=       -31.051283842  AtH=         1.516354808
 EPDDG=         0.000000000  ECC=        72.233149391 EAtT=        32.567638650
 There are    24 symmetry adapted cartesian basis functions of A   symmetry.
 There are    24 symmetry adapted basis functions of A   symmetry.
    24 basis functions,   144 primitive gaussians,    24 cartesian basis functions
    13 alpha electrons       13 beta electrons
       nuclear repulsion energy       104.8007880411 Hartrees.
 IExCor=    0 DFT=F Ex=HF Corr=None ExCW=0 ScaHFX=  1.000000
 ScaDFX=  1.000000  1.000000  1.000000  1.000000 ScalE2=  1.000000  1.000000
 IRadAn=      0 IRanWt=     -1 IRanGd=            0 ICorTp=0 IEmpDi=  4
 Integral buffers will be    131072 words long.
 Regular integral format.
 Two-electron integral symmetry is turned off.
 Leave Link  301 at Tue Dec  1 17:37:46 2015, MaxMem=    33554432 cpu:         0.0
 (Enter /home/Applications/g09/g09/l302.exe)
 Do NDO integrals.
 NPDir=0 NMtPBC=     1 NCelOv=     1 NCel=       1 NClECP=     1 NCelD=      1
         NCelK=      1 NCelE2=     1 NClLst=     1 CellRange=     0.0.
 One-electron integrals computed using PRISM.
 NBasis=    24 RedAO= F EigKep=  0.00D+00  NBF=    24
 NBsUse=    24 1.00D-04 EigRej=  0.00D+00 NBFU=    24
 Leave Link  302 at Tue Dec  1 17:37:46 2015, MaxMem=    33554432 cpu:         0.0
 (Enter /home/Applications/g09/g09/l303.exe)
 DipDrv:  MaxL=1.
 Leave Link  303 at Tue Dec  1 17:37:46 2015, MaxMem=    33554432 cpu:         0.0
 (Enter /home/Applications/g09/g09/l401.exe)
 Initial guess from the checkpoint file:  "/home/Applications/g09/scratch/Gau-23882.chk"
 B after Tr=     0.000000    0.000000    0.000000
         Rot=    0.998745    0.000010   -0.000027    0.050089 Ang=   5.74 deg.
 Guess basis will be translated and rotated to current coordinates.
 JPrj=0 DoOrth=T DoCkMO=T.
 Leave Link  401 at Tue Dec  1 17:37:46 2015, MaxMem=    33554432 cpu:         0.0
 (Enter /home/Applications/g09/g09/l502.exe)
 Closed shell SCF:
 Using DIIS extrapolation, IDIIS=  1040.
 Overlap will be assumed to be unity.
 Two-electron integral symmetry not used.
 Keep J ints in memory in canonical form, NReq=888082.
 IVT=       79475 IEndB=       79475 NGot=    33554432 MDV=    33473473
 LenX=    33473473 LenY=    33472456
 Requested convergence on RMS density matrix=1.00D-08 within 128 cycles.
 Requested convergence on MAX density matrix=1.00D-06.
 Requested convergence on             energy=1.00D-06.
 No special actions if energy rises.
 FoFCou: FMM=F IPFlag=           0 FMFlag=           0 FMFlg1=           0
         NFxFlg=           0 DoJE=F BraDBF=F KetDBF=F FulRan=T
         wScrn=  0.000000 ICntrl=     600 IOpCl=  2 I1Cent=           0 NGrid=           0
         NMat0=    1 NMatS0=     54 NMatT0=    0 NMatD0=    1 NMtDS0=    0 NMtDT0=    0
 Symmetry not used in FoFCou.

 Cycle   1  Pass 1  IDiag  1:
 E=  1.76034132085357    
 DIIS: error= 1.06D-02 at cycle   1 NSaved=   1.
 NSaved= 1 IEnMin= 1 EnMin=  1.76034132085357     IErMin= 1 ErrMin= 1.06D-02
 ErrMax= 1.06D-02  0.00D+00 EMaxC= 1.00D-01 BMatC= 2.66D-03 BMatP= 2.66D-03
 IDIUse=3 WtCom= 8.94D-01 WtEn= 1.06D-01
 Coeff-Com:  0.100D+01
 Coeff-En:   0.100D+01
 Coeff:      0.100D+01
 GapD=    2.000 DampG=2.000 DampE=0.500 DampFc=1.0000 IDamp=-1.
 RMSDP=2.88D-03 MaxDP=1.67D-02              OVMax= 0.00D+00

 Cycle   2  Pass 1  IDiag  3:
 E=  1.75419275796557     Delta-E=       -0.006148562888 Rises=F Damp=F
 DIIS: error= 2.76D-03 at cycle   2 NSaved=   2.
 NSaved= 2 IEnMin= 2 EnMin=  1.75419275796557     IErMin= 2 ErrMin= 2.76D-03
 ErrMax= 2.76D-03  0.00D+00 EMaxC= 1.00D-01 BMatC= 2.10D-04 BMatP= 2.66D-03
 IDIUse=3 WtCom= 9.72D-01 WtEn= 2.76D-02
 Coeff-Com: -0.335D+00 0.134D+01
 Coeff-En:   0.000D+00 0.100D+01
 Coeff:     -0.326D+00 0.133D+01
 Gap=     0.435 Goal=   None    Shift=    0.000
 RMSDP=1.34D-03 MaxDP=7.94D-03 DE=-6.15D-03 OVMax= 7.88D-03

 Cycle   3  Pass 1  IDiag  3:
 E=  1.75346403167760     Delta-E=       -0.000728726288 Rises=F Damp=F
 DIIS: error= 4.08D-04 at cycle   3 NSaved=   3.
 NSaved= 3 IEnMin= 3 EnMin=  1.75346403167760     IErMin= 3 ErrMin= 4.08D-04
 ErrMax= 4.08D-04  0.00D+00 EMaxC= 1.00D-01 BMatC= 7.17D-06 BMatP= 2.10D-04
 IDIUse=3 WtCom= 9.96D-01 WtEn= 4.08D-03
 Coeff-Com:  0.155D+00-0.704D+00 0.155D+01
 Coeff-En:   0.000D+00 0.000D+00 0.100D+01
 Coeff:      0.155D+00-0.701D+00 0.155D+01
 Gap=     0.435 Goal=   None    Shift=    0.000
 RMSDP=3.89D-04 MaxDP=2.24D-03 DE=-7.29D-04 OVMax= 2.88D-03

 Cycle   4  Pass 1  IDiag  3:
 E=  1.75342646986205     Delta-E=       -0.000037561816 Rises=F Damp=F
 DIIS: error= 3.56D-05 at cycle   4 NSaved=   4.
 NSaved= 4 IEnMin= 4 EnMin=  1.75342646986205     IErMin= 4 ErrMin= 3.56D-05
 ErrMax= 3.56D-05  0.00D+00 EMaxC= 1.00D-01 BMatC= 9.97D-08 BMatP= 7.17D-06
 IDIUse=1 WtCom= 1.00D+00 WtEn= 0.00D+00
 Coeff-Com: -0.225D-01 0.107D+00-0.312D+00 0.123D+01
 Coeff:     -0.225D-01 0.107D+00-0.312D+00 0.123D+01
 Gap=     0.435 Goal=   None    Shift=    0.000
 RMSDP=4.20D-05 MaxDP=2.37D-04 DE=-3.76D-05 OVMax= 3.34D-04

 Cycle   5  Pass 1  IDiag  3:
 E=  1.75342598824213     Delta-E=       -0.000000481620 Rises=F Damp=F
 DIIS: error= 6.70D-06 at cycle   5 NSaved=   5.
 NSaved= 5 IEnMin= 5 EnMin=  1.75342598824213     IErMin= 5 ErrMin= 6.70D-06
 ErrMax= 6.70D-06  0.00D+00 EMaxC= 1.00D-01 BMatC= 3.33D-09 BMatP= 9.97D-08
 IDIUse=1 WtCom= 1.00D+00 WtEn= 0.00D+00
 Coeff-Com: -0.270D-02 0.117D-01-0.163D-01-0.164D+00 0.117D+01
 Coeff:     -0.270D-02 0.117D-01-0.163D-01-0.164D+00 0.117D+01
 Gap=     0.435 Goal=   None    Shift=    0.000
 RMSDP=7.04D-06 MaxDP=2.94D-05 DE=-4.82D-07 OVMax= 4.95D-05

 Cycle   6  Pass 1  IDiag  3:
 E=  1.75342597297906     Delta-E=       -0.000000015263 Rises=F Damp=F
 DIIS: error= 1.98D-06 at cycle   6 NSaved=   6.
 NSaved= 6 IEnMin= 6 EnMin=  1.75342597297906     IErMin= 6 ErrMin= 1.98D-06
 ErrMax= 1.98D-06  0.00D+00 EMaxC= 1.00D-01 BMatC= 1.90D-10 BMatP= 3.33D-09
 IDIUse=1 WtCom= 1.00D+00 WtEn= 0.00D+00
 Coeff-Com:  0.184D-02-0.824D-02 0.164D-01 0.335D-01-0.502D+00 0.146D+01
 Coeff:      0.184D-02-0.824D-02 0.164D-01 0.335D-01-0.502D+00 0.146D+01
 Gap=     0.435 Goal=   None    Shift=    0.000
 RMSDP=1.87D-06 MaxDP=8.38D-06 DE=-1.53D-08 OVMax= 1.06D-05

 Cycle   7  Pass 1  IDiag  3:
 E=  1.75342597203350     Delta-E=       -0.000000000946 Rises=F Damp=F
 DIIS: error= 4.37D-07 at cycle   7 NSaved=   7.
 NSaved= 7 IEnMin= 7 EnMin=  1.75342597203350     IErMin= 7 ErrMin= 4.37D-07
 ErrMax= 4.37D-07  0.00D+00 EMaxC= 1.00D-01 BMatC= 6.36D-12 BMatP= 1.90D-10
 IDIUse=1 WtCom= 1.00D+00 WtEn= 0.00D+00
 Coeff-Com: -0.660D-03 0.298D-02-0.615D-02-0.885D-02 0.172D+00-0.607D+00
 Coeff-Com:  0.145D+01
 Coeff:     -0.660D-03 0.298D-02-0.615D-02-0.885D-02 0.172D+00-0.607D+00
 Coeff:      0.145D+01
 Gap=     0.435 Goal=   None    Shift=    0.000
 RMSDP=3.42D-07 MaxDP=2.49D-06 DE=-9.46D-10 OVMax= 2.78D-06

 Cycle   8  Pass 1  IDiag  3:
 E=  1.75342597200165     Delta-E=       -0.000000000032 Rises=F Damp=F
 DIIS: error= 1.09D-07 at cycle   8 NSaved=   8.
 NSaved= 8 IEnMin= 8 EnMin=  1.75342597200165     IErMin= 8 ErrMin= 1.09D-07
 ErrMax= 1.09D-07  0.00D+00 EMaxC= 1.00D-01 BMatC= 2.67D-13 BMatP= 6.36D-12
 IDIUse=1 WtCom= 1.00D+00 WtEn= 0.00D+00
 Coeff-Com:  0.199D-03-0.899D-03 0.188D-02 0.242D-02-0.517D-01 0.192D+00
 Coeff-Com: -0.580D+00 0.144D+01
 Coeff:      0.199D-03-0.899D-03 0.188D-02 0.242D-02-0.517D-01 0.192D+00
 Coeff:     -0.580D+00 0.144D+01
 Gap=     0.435 Goal=   None    Shift=    0.000
 RMSDP=6.69D-08 MaxDP=6.53D-07 DE=-3.18D-11 OVMax= 6.70D-07

 Cycle   9  Pass 1  IDiag  3:
 E=  1.75342597200013     Delta-E=       -0.000000000002 Rises=F Damp=F
 DIIS: error= 2.27D-08 at cycle   9 NSaved=   9.
 NSaved= 9 IEnMin= 9 EnMin=  1.75342597200013     IErMin= 9 ErrMin= 2.27D-08
 ErrMax= 2.27D-08  0.00D+00 EMaxC= 1.00D-01 BMatC= 1.69D-14 BMatP= 2.67D-13
 IDIUse=1 WtCom= 1.00D+00 WtEn= 0.00D+00
 Coeff-Com: -0.424D-04 0.191D-03-0.396D-03-0.577D-03 0.116D-01-0.434D-01
 Coeff-Com:  0.152D+00-0.579D+00 0.146D+01
 Coeff:     -0.424D-04 0.191D-03-0.396D-03-0.577D-03 0.116D-01-0.434D-01
 Coeff:      0.152D+00-0.579D+00 0.146D+01
 Gap=     0.435 Goal=   None    Shift=    0.000
 RMSDP=1.84D-08 MaxDP=1.59D-07 DE=-1.52D-12 OVMax= 1.59D-07

 Cycle  10  Pass 1  IDiag  3:
 E=  1.75342597200049     Delta-E=        0.000000000000 Rises=F Damp=F
 DIIS: error= 3.20D-09 at cycle  10 NSaved=  10.
 NSaved=10 IEnMin= 9 EnMin=  1.75342597200013     IErMin=10 ErrMin= 3.20D-09
 ErrMax= 3.20D-09  0.00D+00 EMaxC= 1.00D-01 BMatC= 6.56D-16 BMatP= 1.69D-14
 IDIUse=1 WtCom= 1.00D+00 WtEn= 0.00D+00
 Coeff-Com:  0.141D-05-0.639D-05 0.136D-04 0.275D-04-0.565D-03 0.242D-02
 Coeff-Com: -0.149D-01 0.101D+00-0.447D+00 0.136D+01
 Coeff:      0.141D-05-0.639D-05 0.136D-04 0.275D-04-0.565D-03 0.242D-02
 Coeff:     -0.149D-01 0.101D+00-0.447D+00 0.136D+01
 Gap=     0.435 Goal=   None    Shift=    0.000
 RMSDP=3.81D-09 MaxDP=2.42D-08 DE= 3.55D-13 OVMax= 2.71D-08

 Cycle  11  Pass 2  IDiag  1:
 SCF Done:  E(RAM1) =   1.75342597200     A.U. after   11 cycles
            NFock= 10  Conv=0.38D-08     -V/T= 1.1333
 KE=-1.315881989577D+01 PE=-1.732672646285D+02 EE= 8.337872245525D+01
 Leave Link  502 at Tue Dec  1 17:37:46 2015, MaxMem=    33554432 cpu:         0.0
 (Enter /home/Applications/g09/g09/l701.exe)
 Compute integral first derivatives.
 ... and contract with generalized density number  0.
 Leave Link  701 at Tue Dec  1 17:37:46 2015, MaxMem=    33554432 cpu:         0.0
 (Enter /home/Applications/g09/g09/l702.exe)
 L702 exits ... SP integral derivatives will be done elsewhere.
 Leave Link  702 at Tue Dec  1 17:37:46 2015, MaxMem=    33554432 cpu:         0.0
 (Enter /home/Applications/g09/g09/l703.exe)
 Compute integral first derivatives, UseDBF=F ICtDFT=           0.
 Integral derivatives from FoFJK, PRISM(SPDF).
 Calling FoFJK, ICntrl=      2127 FMM=F ISym2X=0 I1Cent= 0 IOpClX= 0 NMat=1 NMatS=1 NMatT=0.
 FoFJK:  IHMeth= 8 ICntrl=    2127 DoSepK=F KAlg= 0 I1Cent=   0 FoldK=F
 IRaf=         0 NMat=   1 IRICut=       1 DoRegI=T DoRafI=F ISym2E= 0.
 FoFCou: FMM=F IPFlag=           0 FMFlag=      100000 FMFlg1=         800
         NFxFlg=           0 DoJE=F BraDBF=F KetDBF=F FulRan=T
         wScrn=  0.000000 ICntrl=    2127 IOpCl=  0 I1Cent=           0 NGrid=           0
         NMat0=    1 NMatS0=      1 NMatT0=    0 NMatD0=    1 NMtDS0=    0 NMtDT0=    0
 Symmetry not used in FoFCou.
 Leave Link  703 at Tue Dec  1 17:37:46 2015, MaxMem=    33554432 cpu:         0.0
 (Enter /home/Applications/g09/g09/l716.exe)
 Dipole        =-5.21202727D-03 1.79422269D-01-3.05193832D-02
 ***** Axes restored to original set *****
 -------------------------------------------------------------------
 Center     Atomic                   Forces (Hartrees/Bohr)
 Number     Number              X              Y              Z
 -------------------------------------------------------------------
      1        6          -0.012524466    0.002611654    0.016251343
      2        6           0.005642651    0.004635842   -0.019155051
      3        8           0.010842063    0.004566929    0.010846427
      4        6          -0.000592498   -0.013218378   -0.002747903
      5        6          -0.003163366    0.001990373   -0.008291442
      6        1          -0.002250373   -0.001740525    0.000160054
      7        1           0.001699381   -0.001565569    0.001128211
      8        1           0.000372655    0.001939426    0.001760939
      9        1          -0.000026049    0.000780248    0.000047421
 -------------------------------------------------------------------
 Cartesian Forces:  Max     0.019155051 RMS     0.007179641
 Leave Link  716 at Tue Dec  1 17:37:46 2015, MaxMem=    33554432 cpu:         0.0
 (Enter /home/Applications/g09/g09/l103.exe)

 GradGradGradGradGradGradGradGradGradGradGradGradGradGradGradGradGradGrad
 Berny optimization.
 Using GEDIIS/GDIIS optimizer.
 FormGI is forming the generalized inverse of G from B-inverse, IUseBI=4.
 Internal  Forces:  Max     0.011290513 RMS     0.003983663
 Search for a local minimum.
 Step number   3 out of a maximum of   48
 All quantities printed in internal units (Hartrees-Bohrs-Radians)
 RMS Force = .39837D-02 SwitMx=.10000D-02 MixMth= 1
 Mixed Optimization -- RFO/linear search
 Update second derivatives using D2CorX and points    1    2    3
 DE= -1.56D-03 DEPred=-3.93D-03 R= 3.97D-01
 Trust test= 3.97D-01 RLast= 2.83D-01 DXMaxT set to 5.05D-01
 ITU=  0  1  0
 Use linear search instead of GDIIS.
     Eigenvalues ---    0.01851   0.02235   0.02491   0.02703   0.02895
     Eigenvalues ---    0.05098   0.13642   0.15972   0.15982   0.16009
     Eigenvalues ---    0.19741   0.22901   0.32601   0.35491   0.38900
     Eigenvalues ---    0.42523   0.45834   0.49008   0.53173   0.56328
     Eigenvalues ---    0.92545
 RFO step:  Lambda=-1.91991999D-03 EMin= 1.85136749D-02
 Quartic linear search produced a step of -0.36827.
 Iteration  1 RMS(Cart)=  0.03099881 RMS(Int)=  0.00110336
 Iteration  2 RMS(Cart)=  0.00098730 RMS(Int)=  0.00060647
 Iteration  3 RMS(Cart)=  0.00000035 RMS(Int)=  0.00060647
 ITry= 1 IFail=0 DXMaxC= 9.23D-02 DCOld= 1.00D+10 DXMaxT= 5.05D-01 DXLimC= 3.00D+00 Rises=F
 Variable       Old X    -DE/DX   Delta X   Delta X   Delta X     New X
                                 (Linear)    (Quad)   (Total)
    R1        2.46498  -0.01093  -0.01226   0.00341  -0.00902   2.45596
    R2        2.57348  -0.00551  -0.00910  -0.00621  -0.01538   2.55810
    R3        2.04332  -0.00048  -0.01930   0.03926   0.01997   2.06329
    R4        2.56388  -0.00662  -0.01223   0.01528   0.00300   2.56687
    R5        2.01743  -0.00193   0.00335  -0.01262  -0.00927   2.00816
    R6        2.57538  -0.01129  -0.00455  -0.00624  -0.01064   2.56474
    R7        2.46090  -0.00889  -0.00940   0.00464  -0.00463   2.45627
    R8        2.01524  -0.00212  -0.01444   0.02983   0.01539   2.03063
    R9        2.05254  -0.00284  -0.01050   0.01599   0.00549   2.05804
    A1        1.87207   0.00148  -0.00725   0.02567   0.01699   1.88906
    A2        2.21260  -0.00002  -0.00301   0.00494   0.00183   2.21443
    A3        2.19742  -0.00129   0.01054  -0.02854  -0.01804   2.17939
    A4        1.91072  -0.00079   0.00780  -0.01590  -0.00954   1.90118
    A5        2.28514   0.00118  -0.00317   0.01036   0.00703   2.29217
    A6        2.08442   0.00007  -0.00405   0.00941   0.00519   2.08961
    A7        1.84535   0.00047  -0.00135   0.00092  -0.00129   1.84406
    A8        1.89508   0.00163  -0.00580   0.01486   0.00859   1.90367
    A9        2.07784   0.00012  -0.00950   0.02235   0.01302   2.09086
   A10        2.31018  -0.00173   0.01526  -0.03696  -0.02153   2.28865
   A11        1.89699  -0.00209   0.00792  -0.01798  -0.01081   1.88618
   A12        2.18080   0.00093  -0.00125   0.00232   0.00126   2.18207
   A13        2.20499   0.00124  -0.00667   0.01632   0.00981   2.21480
    D1        0.09272  -0.00701  -0.05011  -0.07662  -0.12707  -0.03435
    D2       -3.13313  -0.00043   0.00186  -0.02036  -0.01934   3.13072
    D3       -3.09680  -0.00326  -0.02295  -0.03153  -0.05340   3.13299
    D4       -0.03946   0.00332   0.02901   0.02473   0.05433   0.01487
    D5       -0.07275   0.00521   0.03854   0.06160   0.10053   0.02778
    D6        3.09753   0.00239   0.01714   0.03721   0.05493  -3.13072
    D7        3.11624   0.00146   0.01143   0.01586   0.02804  -3.13890
    D8        0.00334  -0.00136  -0.00997  -0.00854  -0.01756  -0.01422
    D9       -0.07771   0.00609   0.04282   0.06370   0.10546   0.02776
   D10        3.13695   0.00032  -0.00228   0.01467   0.01210  -3.13413
   D11        0.03120  -0.00275  -0.01793  -0.02304  -0.04152  -0.01031
   D12       -3.12285  -0.00157  -0.02016  -0.00559  -0.02532   3.13501
   D13        0.02422  -0.00150  -0.01199  -0.02317  -0.03434  -0.01012
   D14        3.13662   0.00137   0.00967   0.00135   0.01217  -3.13439
   D15       -3.10262  -0.00292  -0.00891  -0.04450  -0.05339   3.12718
   D16        0.00978  -0.00006   0.01275  -0.01998  -0.00688   0.00290
         Item               Value     Threshold  Converged?
 Maximum Force            0.011291     0.000450     NO 
 RMS     Force            0.003984     0.000300     NO 
 Maximum Displacement     0.092251     0.001800     NO 
 RMS     Displacement     0.031007     0.001200     NO 
 Predicted change in Energy=-1.733981D-03
 Lowest energy point so far.  Saving SCF results.
 GradGradGradGradGradGradGradGradGradGradGradGradGradGradGradGradGradGrad

 Leave Link  103 at Tue Dec  1 17:37:46 2015, MaxMem=    33554432 cpu:         0.0
[...]
     38  0.000000D+00  0.000000D+00  0.000000D+00  0.000000D+00  0.000000D+00
               16            17            18            19            20 
     16  0.133599D+00
     17 -0.560625D-01  0.112133D+00
     18  0.270896D-01 -0.617692D-01  0.945826D-01
     19  0.289728D-01 -0.503633D-01 -0.328133D-01  0.831766D-01
     20 -0.107355D-01 -0.258212D-01  0.193212D-01  0.649996D-02  0.938162D-01
     21  0.964374D-02  0.148966D-01 -0.959850D-02 -0.529815D-02 -0.470620D-01
     22  0.109172D-02  0.109246D-01 -0.972275D-02 -0.120181D-02 -0.467541D-01
     23  0.000000D+00  0.000000D+00  0.000000D+00  0.000000D+00  0.236042D-05
     24  0.000000D+00  0.109262D-05  0.000000D+00  0.000000D+00  0.000000D+00
     25  0.000000D+00 -0.142183D-05  0.000000D+00  0.000000D+00  0.161804D-05
     26  0.000000D+00  0.000000D+00  0.000000D+00  0.000000D+00  0.000000D+00
     27  0.000000D+00 -0.175614D-05  0.129530D-05  0.000000D+00  0.000000D+00
     28  0.000000D+00 -0.203877D-05  0.136934D-05  0.000000D+00  0.000000D+00
     29  0.000000D+00  0.000000D+00  0.000000D+00  0.000000D+00  0.000000D+00
     30  0.000000D+00  0.000000D+00  0.000000D+00  0.000000D+00  0.000000D+00
     31  0.000000D+00  0.163181D-05  0.000000D+00 -0.105123D-05  0.000000D+00
     32  0.000000D+00  0.000000D+00  0.000000D+00  0.000000D+00  0.110620D-05
     33  0.000000D+00  0.000000D+00  0.000000D+00  0.000000D+00 -0.182603D-05
     34  0.137914D-05  0.000000D+00  0.000000D+00  0.000000D+00 -0.174426D-05
     35  0.198302D-05 -0.191850D-05  0.101430D-05  0.000000D+00  0.000000D+00
     36  0.123746D-05 -0.179952D-05  0.000000D+00  0.000000D+00  0.000000D+00
     37  0.100201D-05  0.000000D+00  0.000000D+00  0.000000D+00  0.000000D+00
     38  0.000000D+00  0.000000D+00  0.000000D+00  0.000000D+00  0.000000D+00
               21            22            23            24            25 
     21  0.739026D-01
     22 -0.268406D-01  0.735947D-01
     23 -0.126847D-05  0.000000D+00  0.228207D-01
     24  0.000000D+00  0.000000D+00  0.325297D-02  0.172851D-01
     25 -0.169172D-05  0.000000D+00  0.917092D-02 -0.775453D-02  0.154809D-01
     26  0.000000D+00  0.000000D+00 -0.103968D-01  0.627760D-02 -0.144458D-02
     27  0.000000D+00  0.000000D+00 -0.177997D-01 -0.755901D-02 -0.297860D-02
     28 -0.220450D-05  0.230957D-05 -0.787666D-02 -0.391135D-02  0.210822D-02
     29  0.000000D+00 -0.160250D-05 -0.442979D-02  0.322273D-02 -0.915914D-02
     30 -0.173373D-05  0.150201D-05  0.549321D-02  0.687039D-02 -0.407231D-02
     31  0.000000D+00  0.000000D+00 -0.191146D-01  0.203865D-02 -0.116412D-01
     32  0.000000D+00  0.000000D+00 -0.226880D-02 -0.100415D-01  0.292983D-02
     33  0.000000D+00  0.000000D+00  0.783170D-02 -0.683043D-02  0.975333D-02
     34  0.000000D+00  0.181699D-05  0.513069D-02 -0.801937D-03  0.153791D-02
     35  0.000000D+00  0.000000D+00  0.573763D-02  0.887490D-02 -0.439189D-02
     36 -0.242942D-05  0.273439D-05 -0.439315D-02  0.515086D-02 -0.958524D-02
     37  0.171802D-05  0.000000D+00  0.887539D-02  0.187161D-02  0.515195D-02
     38 -0.134672D-05  0.151195D-05 -0.125539D-02 -0.185243D-02 -0.413993D-04
               26            27            28            29            30 
     26  0.152299D-01
     27  0.726204D-02  0.221871D-01
     28  0.607353D-02  0.766975D-02  0.123030D-01
     29 -0.150662D-02  0.767003D-02 -0.211034D-02  0.123024D-01
     30 -0.269513D-02 -0.684733D-02  0.252289D-02  0.252202D-02  0.118922D-01
     31  0.951203D-02  0.703251D-02  0.514987D-02 -0.287601D-03 -0.217024D-02
     32 -0.484292D-02 -0.178361D-02  0.173616D-02 -0.687562D-02 -0.335585D-02
     33 -0.490880D-02  0.703193D-02 -0.288071D-03  0.514971D-02 -0.217029D-02
     34 -0.439471D-02 -0.178233D-02 -0.687559D-02  0.173676D-02 -0.335650D-02
     35 -0.125462D-02 -0.177980D-01 -0.442893D-02 -0.787622D-02  0.549284D-02
     36 -0.412251D-04 -0.297664D-02 -0.915918D-02  0.210896D-02 -0.407358D-02
     37 -0.185184D-02 -0.755847D-02  0.322377D-02 -0.391139D-02  0.687085D-02
     38 -0.638438D-03  0.726288D-02 -0.150647D-02  0.607379D-02 -0.269557D-02
               31            32            33            34            35 
     31  0.234814D-01
     32  0.527069D-02  0.119622D-01
     33 -0.190240D-01 -0.640147D-02  0.234821D-01
     34 -0.640272D-02 -0.129535D-02  0.527304D-02  0.119620D-01
     35  0.783129D-02  0.513043D-02 -0.191138D-01 -0.227102D-02  0.228179D-01
     36  0.975336D-02  0.153696D-02 -0.116405D-01  0.292888D-02  0.916889D-02
     37 -0.683087D-02 -0.801345D-03  0.203965D-02 -0.100416D-01  0.325166D-02
     38 -0.490881D-02 -0.439482D-02  0.951293D-02 -0.484165D-02 -0.103973D-01
               36            37            38 
     36  0.154809D-01
     37 -0.775636D-02  0.172864D-01
     38 -0.144436D-02  0.627837D-02  0.152314D-01
 Leave Link  716 at Tue Dec  1 17:37:47 2015, MaxMem=    33554432 cpu:         0.0
 (Enter /home/Applications/g09/g09/l103.exe)

 GradGradGradGradGradGradGradGradGradGradGradGradGradGradGradGradGradGrad
 Berny optimization.
 Red2BG is reusing G-inverse.
 Internal  Forces:  Max     0.000060508 RMS     0.000017791
 Search for a local minimum.
 Step number   1 out of a maximum of    2
 All quantities printed in internal units (Hartrees-Bohrs-Radians)
 Second derivative matrix not updated -- analytic derivatives used.
 ITU=  0
     Eigenvalues ---    0.01639   0.02070   0.03753   0.04041   0.07368
     Eigenvalues ---    0.08250   0.09709   0.09910   0.11459   0.11681
     Eigenvalues ---    0.16703   0.24983   0.37608   0.38140   0.40489
     Eigenvalues ---    0.41279   0.61504   0.62084   0.66458   0.78785
     Eigenvalues ---    1.04156
 Angle between quadratic step and forces=  40.78 degrees.
 Linear search not attempted -- first point.
 Iteration  1 RMS(Cart)=  0.00005846 RMS(Int)=  0.00000000
 Iteration  2 RMS(Cart)=  0.00000000 RMS(Int)=  0.00000000
 ITry= 1 IFail=0 DXMaxC= 1.94D-04 DCOld= 1.00D+10 DXMaxT= 3.00D-01 DXLimC= 3.00D+00 Rises=F
 Variable       Old X    -DE/DX   Delta X   Delta X   Delta X     New X
                                 (Linear)    (Quad)   (Total)
    R1        2.45416   0.00006   0.00000   0.00007   0.00007   2.45423
    R2        2.56920  -0.00005   0.00000  -0.00007  -0.00007   2.56912
    R3        2.04477   0.00003   0.00000   0.00006   0.00006   2.04483
    R4        2.55839  -0.00001   0.00000  -0.00001  -0.00001   2.55838
    R5        2.01333   0.00001   0.00000   0.00002   0.00002   2.01335
    R6        2.55844  -0.00004   0.00000  -0.00006  -0.00006   2.55838
    R7        2.45424   0.00000   0.00000   0.00000   0.00000   2.45423
    R8        2.01333   0.00000   0.00000   0.00001   0.00001   2.01335
    R9        2.04476   0.00002   0.00000   0.00007   0.00007   2.04483
    A1        1.88407  -0.00003   0.00000  -0.00008  -0.00008   1.88399
    A2        2.21380   0.00002   0.00000   0.00009   0.00009   2.21389
    A3        2.18531   0.00001   0.00000   0.00000   0.00000   2.18531
    A4        1.90493   0.00001   0.00000   0.00006   0.00006   1.90500
    A5        2.29382   0.00001   0.00000   0.00004   0.00004   2.29386
    A6        2.08443  -0.00002   0.00000  -0.00010  -0.00010   2.08433
    A7        1.84686  -0.00002   0.00000  -0.00006  -0.00006   1.84680
    A8        1.90496   0.00002   0.00000   0.00003   0.00003   1.90500
    A9        2.08434  -0.00001   0.00000  -0.00002  -0.00002   2.08433
   A10        2.29388  -0.00001   0.00000  -0.00002  -0.00002   2.29386
   A11        1.88395   0.00001   0.00000   0.00004   0.00004   1.88399
   A12        2.18537  -0.00001   0.00000  -0.00007  -0.00007   2.18531
   A13        2.21386   0.00000   0.00000   0.00002   0.00002   2.21389
    D1       -0.00002   0.00000   0.00000   0.00002   0.00002   0.00000
    D2        3.14158   0.00000   0.00000   0.00002   0.00002  -3.14159
    D3        3.14156   0.00000   0.00000   0.00004   0.00004   3.14159
    D4       -0.00003   0.00000   0.00000   0.00003   0.00003   0.00000
    D5        0.00005   0.00000   0.00000  -0.00005  -0.00005   0.00000
    D6        3.14157   0.00000   0.00000   0.00003   0.00003   3.14159
    D7       -3.14153   0.00000   0.00000  -0.00006  -0.00006   3.14159
    D8       -0.00001   0.00000   0.00000   0.00001   0.00001   0.00000
    D9       -0.00001   0.00000   0.00000   0.00001   0.00001   0.00000
   D10        3.14158   0.00000   0.00000   0.00002   0.00002   3.14159
   D11        0.00004   0.00000   0.00000  -0.00004  -0.00004   0.00000
   D12       -3.14154   0.00000   0.00000  -0.00005  -0.00005   3.14159
   D13       -0.00005   0.00000   0.00000   0.00005   0.00005   0.00000
   D14       -3.14157   0.00000   0.00000  -0.00002  -0.00002   3.14159
   D15        3.14153   0.00000   0.00000   0.00006   0.00006   3.14159
   D16        0.00001   0.00000   0.00000  -0.00001  -0.00001   0.00000
         Item               Value     Threshold  Converged?
 Maximum Force            0.000061     0.000450     YES
 RMS     Force            0.000018     0.000300     YES
 Maximum Displacement     0.000194     0.001800     YES
 RMS     Displacement     0.000058     0.001200     YES
 Predicted change in Energy=-1.225156D-08
 Optimization completed.
    -- Stationary point found.
                           ----------------------------
                           !   Optimized Parameters   !
                           ! (Angstroms and Degrees)  !
 --------------------------                            --------------------------
 ! Name  Definition              Value          Derivative Info.                !
 --------------------------------------------------------------------------------
 ! R1    R(1,2)                  1.2987         -DE/DX =    0.0001              !
 ! R2    R(1,5)                  1.3596         -DE/DX =   -0.0001              !
 ! R3    R(1,9)                  1.082          -DE/DX =    0.0                 !
 ! R4    R(2,3)                  1.3538         -DE/DX =    0.0                 !
 ! R5    R(2,8)                  1.0654         -DE/DX =    0.0                 !
 ! R6    R(3,4)                  1.3539         -DE/DX =    0.0                 !
 ! R7    R(4,5)                  1.2987         -DE/DX =    0.0                 !
 ! R8    R(4,7)                  1.0654         -DE/DX =    0.0                 !
 ! R9    R(5,6)                  1.082          -DE/DX =    0.0                 !
 ! A1    A(2,1,5)              107.9494         -DE/DX =    0.0                 !
 ! A2    A(2,1,9)              126.8415         -DE/DX =    0.0                 !
 ! A3    A(5,1,9)              125.209          -DE/DX =    0.0                 !
 ! A4    A(1,2,3)              109.1447         -DE/DX =    0.0                 !
 ! A5    A(1,2,8)              131.4262         -DE/DX =    0.0                 !
 ! A6    A(3,2,8)              119.4291         -DE/DX =    0.0                 !
 ! A7    A(2,3,4)              105.8172         -DE/DX =    0.0                 !
 ! A8    A(3,4,5)              109.1464         -DE/DX =    0.0                 !
 ! A9    A(3,4,7)              119.4241         -DE/DX =    0.0                 !
 ! A10   A(5,4,7)              131.4295         -DE/DX =    0.0                 !
 ! A11   A(1,5,4)              107.9422         -DE/DX =    0.0                 !
 ! A12   A(1,5,6)              125.2127         -DE/DX =    0.0                 !
 ! A13   A(4,5,6)              126.8451         -DE/DX =    0.0                 !
 ! D1    D(5,1,2,3)             -0.0011         -DE/DX =    0.0                 !
 ! D2    D(5,1,2,8)           -180.0009         -DE/DX =    0.0                 !
 ! D3    D(9,1,2,3)            179.998          -DE/DX =    0.0                 !
 ! D4    D(9,1,2,8)             -0.0019         -DE/DX =    0.0                 !
 ! D5    D(2,1,5,4)              0.0026         -DE/DX =    0.0                 !
 ! D6    D(2,1,5,6)            179.9985         -DE/DX =    0.0                 !
 ! D7    D(9,1,5,4)            180.0035         -DE/DX =    0.0                 !
 ! D8    D(9,1,5,6)             -0.0006         -DE/DX =    0.0                 !
 ! D9    D(1,2,3,4)             -0.0007         -DE/DX =    0.0                 !
 ! D10   D(8,2,3,4)            179.9991         -DE/DX =    0.0                 !
 ! D11   D(2,3,4,5)              0.0024         -DE/DX =    0.0                 !
 ! D12   D(2,3,4,7)            180.0029         -DE/DX =    0.0                 !
 ! D13   D(3,4,5,1)             -0.0031         -DE/DX =    0.0                 !
 ! D14   D(3,4,5,6)            180.0011         -DE/DX =    0.0                 !
 ! D15   D(7,4,5,1)            179.9963         -DE/DX =    0.0                 !
 ! D16   D(7,4,5,6)              0.0005         -DE/DX =    0.0                 !
 --------------------------------------------------------------------------------
 GradGradGradGradGradGradGradGradGradGradGradGradGradGradGradGradGradGrad

 Leave Link  103 at Tue Dec  1 17:37:47 2015, MaxMem=    33554432 cpu:         0.0
 (Enter /home/Applications/g09/g09/l9999.exe)
 1\1\GINC-DUSTIN-DESKTOP\Freq\RAM1\ZDO\C4H4O1\DUSTIN\01-Dec-2015\0\\#P 
 Geom=AllCheck Guess=TCheck SCRF=Check GenChk RAM1/ZDO Freq\\AM1-Repara
 m Input\\0,1\C,0.8975657693,-0.6726643539,-0.0135542609\C,-0.339486752
 9,-1.0679555865,-0.0075282591\O,-1.1516400407,0.0151466866,0.005881772
 1\C,-0.3308611138,1.0918434723,0.0076351578\C,0.9030501502,0.686851184
 ,-0.0040453556\H,1.7895829643,1.307227506,-0.0059737679\H,-0.751519260
 2,2.0706425685,0.0175736474\H,-0.7678478376,-2.0434474345,-0.011344189
 4\H,1.7791111214,-1.3000330425,-0.0242187444\\Version=ES64L-G09RevD.01
 \State=1-A\HF=1.7520186\RMSD=3.137e-10\RMSF=2.619e-05\ZeroPoint=0.0787
 211\Thermal=0.0821452\Dipole=0.1735667,-0.0007123,-0.0012332\DipoleDer
 iv=-0.5415849,0.3205572,0.0052351,0.1340928,-0.2481709,-0.0018475,0.00
 3953,-0.0031674,-0.1202272,0.6229333,-0.17981,-0.0031631,-0.3517511,-0
 .0493952,-0.0003457,-0.0043981,-0.0015667,0.3540243,-0.6150715,0.00227
 35,0.0019464,0.0022645,-0.0356101,0.0021798,0.0019342,0.0021527,-0.344
 4168,0.6271336,0.1744646,-0.00071,0.3464093,-0.053477,-0.0053667,0.000
 5082,-0.0041148,0.3539743,-0.5451616,-0.318208,0.0007808,-0.1317475,-0
 .2446095,0.0000663,0.0020888,0.0013761,-0.1201676,0.2088465,0.1172871,
 -0.0005835,0.1087705,0.1748645,0.0003815,-0.0006388,0.0003266,0.010855
 9,0.0172853,-0.0723817,-0.0011536,-0.0888861,0.1404959,0.0021433,-0.00
 12708,0.0020247,-0.0724637,0.0185645,0.0733476,-0.0001324,0.0898638,0.
 1392384,0.0008506,-0.0000151,0.0009719,-0.0724787,0.2070547,-0.1175303
 ,-0.0022197,-0.1090165,0.1766614,0.0019385,-0.0021611,0.0019969,0.0109
 004\Polar=36.5025942,-0.0019851,35.6063782,-0.2147273,0.2060673,6.3889
 303\HyperPolar=2.4545121,-0.113267,-13.1528918,0.1569842,0.041928,-0.1
 227735,0.0958493,4.2371909,-0.0150038,-0.0909036\PG=C01 [X(C4H4O1)]\NI
 mag=0\\1.13778575,0.01749851,0.92607934,-0.00632483,0.00475339,0.23161
 285,-0.69802448,-0.14520909,0.00308107,1.05773364,-0.24661532,-0.14980
 272,0.00155783,0.11199954,0.95106392,0.00236845,0.00083651,-0.12166208
 ,-0.00501189,0.00418641,0.24328693,-0.11669867,0.01569294,0.00116232,-
 0.23605650,0.26193074,0.00274078,0.70148062,0.07272665,0.00693698,-0.0
 0068726,0.21161427,-0.38992711,-0.00347531,0.00060955,0.86040422,0.001
 56223,-0.00028214,0.03085745,0.00238772,-0.00383519,-0.11026871,-0.004
 08926,0.00516914,0.12654078,0.01145858,0.08728461,0.00059817,-0.001392
 37,-0.01180387,0.00010865,-0.23981269,-0.21277879,-0.00057792,1.055803
 45,0.01172222,-0.02319575,-0.00031024,0.01098992,-0.10305998,-0.000986
 44,-0.26309259,-0.38613732,-0.00007298,-0.11273811,0.95274249,0.000066
 92,-0.00084903,0.00909369,0.00026934,-0.00082280,0.02570577,-0.0009327
 7,-0.00043275,-0.11023027,-0.00660408,0.00582288,0.24334087,-0.0825245
 3,-0.05939575,-0.00065621,0.01065393,-0.01200353,-0.00009520,-0.117381
 19,-0.07174425,0.00055162,-0.69475575,0.25083692,0.00586850,1.13739966
 ,0.05537816,-0.58104212,-0.00366064,-0.08756047,-0.02242562,0.00040093
 ,-0.01471216,0.00762355,-0.00005698,0.14942399,-0.15291784,-0.00129140
 ,-0.01896867,0.92637228,0.00015164,-0.00284295,-0.11590256,-0.00062612
 ,-0.00013649,0.00910448,0.00095241,0.00034855,0.03086119,0.00515479,-0
 .00201409,-0.12172175,-0.00660436,0.00502703,0.23164226,-0.00144987,-0
 .01510232,-0.00004807,0.00001588,-0.00167962,0.00003720,-0.00371760,-0
 .00038678,0.00008079,-0.03999724,-0.01181285,0.00023561,-0.22742323,-0
 .12963571,0.00028538,0.27491576,-0.02431420,-0.02904480,-0.00007858,-0
 .00149706,-0.00440310,-0.00006881,0.00137923,0.00041922,-0.00006324,-0
 .00329308,0.00891984,0.00005316,-0.12990075,-0.13157674,0.00040949,0.1
 5818478,0.15842552,-0.00011319,-0.00014432,0.00673746,0.00003837,-0.00
 006765,0.00688740,0.00009327,-0.00005077,0.00799346,0.00029532,0.00011
 396,0.00470027,0.00028427,0.00040800,-0.05867296,-0.00060185,-0.000245
 67,0.03361364,-0.00315220,0.00179918,0.00011622,0.00117129,-0.00193880
 ,0.00002037,0.00786718,-0.02035171,-0.00014192,-0.09252376,0.11056507,
 0.00098927,-0.02165022,0.03298680,0.00043514,-0.00250406,-0.00012133,0
 .00001828,0.11150695,0.00198763,-0.00185521,-0.00010762,0.00093233,-0.
 00552159,-0.00008745,-0.00231667,-0.04978811,-0.00039321,0.10343031,-0
 .28639414,-0.00231656,0.01906572,-0.01485243,-0.00028827,0.00115256,0.
 00018053,-0.00000822,-0.12416116,0.35920950,0.00011719,-0.00010581,0.0
 1132716,0.00004049,-0.00006693,0.00591829,-0.00001456,-0.00026446,0.00
 812719,0.00093930,-0.00236770,-0.06369416,0.00033656,-0.00038758,0.006
 62854,0.00002735,0.00000090,0.00017930,-0.00142644,0.00318320,0.034943
 44,-0.02206415,-0.03293420,-0.00002726,-0.09422468,-0.11208794,-0.0005
 7139,0.00804487,0.01989241,0.00014054,0.00117907,0.00188542,0.00004703
 ,-0.00318220,-0.00178947,0.00009074,-0.00043648,-0.00109571,-0.0000118
 1,-0.00028772,-0.00012797,-0.00001607,0.11348397,-0.01901446,-0.014447
 99,-0.00001287,-0.10494956,-0.28472023,-0.00080855,0.00185610,-0.04995
 893,-0.00042201,-0.00098567,-0.00552895,-0.00007359,-0.00197878,-0.001
 82442,-0.00007850,-0.00003916,-0.00066967,0.00000264,0.00012809,-0.000
 30019,0.00001398,0.12611509,0.35726169,0.00007094,0.00008618,0.0066350
 0,-0.00052163,-0.00075737,-0.06367129,0.00001368,-0.00055109,0.0081244
 6,0.00002709,-0.00009395,0.00591846,0.00008941,-0.00007979,0.01132725,
 -0.00000435,0.00001019,-0.00100960,-0.00001439,0.00001597,-0.00242017,
 0.00032807,0.00137081,0.03491671,-0.22533057,0.13036588,0.00209859,-0.
 03987655,0.01219889,0.00040302,-0.00372608,0.00041864,0.00008619,0.000
 04087,0.00164390,0.00006018,-0.00113661,0.01487778,0.00016039,0.000596
 89,0.00065813,-0.00000265,-0.00042746,0.00003727,-0.00000382,-0.002512
 70,-0.00113165,0.00001117,0.27237224,0.13063077,-0.13362788,-0.0014540
 0,0.00368014,0.00879660,0.00000270,-0.00134715,0.00042746,-0.00004340,
 0.00146061,-0.00442819,-0.00008992,0.02408913,-0.02935679,-0.00042479,
 -0.00068094,-0.00225076,-0.00000798,0.00109389,-0.00067839,-0.00000560
 ,0.00014235,0.00018865,-0.00000094,-0.15906880,0.16092933,0.00210064,-
 0.00145181,-0.05869891,0.00034266,-0.00005783,0.00469922,0.00007412,-0
 .00005606,0.00799440,0.00005867,-0.00009145,0.00688713,0.00022542,-0.0
 0035958,0.00673361,-0.00001206,-0.00001744,-0.00042900,0.00000348,0.00
 000216,-0.00100963,0.00002015,0.00000808,0.00017915,-0.00281307,0.0020
 2392,0.03364401\\-0.00005917,-0.00005938,0.00000370,0.00004292,-0.0000
 1803,0.00000061,0.00000070,-0.00002700,-0.00000377,0.00000809,0.000053
 16,0.00000603,0.00003899,0.00005027,-0.00001249,-0.00002212,-0.0000080
 8,0.00000247,0.00000265,0.00000008,0.00000203,0.00001286,0.00000034,-0
 .00000056,-0.00002493,0.00000863,0.00000197\\\@


 THE PROMISED LAND ALWAYS LIES ON THE OTHER SIDE OF A WILDERNESS.

                         -- HAVELOCK ELLIS
 Job cpu time:       0 days  0 hours  0 minutes  0.3 seconds.
 File lengths (MBytes):  RWF=      5 Int=      0 D2E=      0 Chk=      2 Scr=      1
 Normal termination of Gaussian 09 at Tue Dec  1 17:37:47 2015.
