 Entering Gaussian System, Link 0=g09
 Input=FuranAM1_34P8.com
 Output=FuranAM1_34P8.log
 Initial command:
 /home/Applications/g09/g09/l1.exe "/home/Applications/g09/scratch/Gau-8795.inp" -scrdir="/home/Applications/g09/scratch/"
 Entering Link 1 = /home/Applications/g09/g09/l1.exe PID=      8799.
  
 Copyright (c) 1988,1990,1992,1993,1995,1998,2003,2009,2013,
            Gaussian, Inc.  All Rights Reserved.
  
 This is part of the Gaussian(R) 09 program.  It is based on
 the Gaussian(R) 03 system (copyright 2003, Gaussian, Inc.),
 the Gaussian(R) 98 system (copyright 1998, Gaussian, Inc.),
 the Gaussian(R) 94 system (copyright 1995, Gaussian, Inc.),
 the Gaussian 92(TM) system (copyright 1992, Gaussian, Inc.),
 the Gaussian 90(TM) system (copyright 1990, Gaussian, Inc.),
 the Gaussian 88(TM) system (copyright 1988, Gaussian, Inc.),
 the Gaussian 86(TM) system (copyright 1986, Carnegie Mellon
 University), and the Gaussian 82(TM) system (copyright 1983,
 Carnegie Mellon University). Gaussian is a federally registered
 trademark of Gaussian, Inc.
  
 This software contains proprietary and confidential information,
 including trade secrets, belonging to Gaussian, Inc.
  
 This software is provided under written license and may be
 used, copied, transmitted, or stored only in accord with that
 written license.
  
 The following legend is applicable only to US Government
 contracts under FAR:
  
                    RESTRICTED RIGHTS LEGEND
  
 Use, reproduction and disclosure by the US Government is
 subject to restrictions as set forth in subparagraphs (a)
 and (c) of the Commercial Computer Software - Restricted
 Rights clause in FAR 52.227-19.
  
 Gaussian, Inc.
 340 Quinnipiac St., Bldg. 40, Wallingford CT 06492
  
  
 ---------------------------------------------------------------
 Warning -- This program may not be used in any manner that
 competes with the business of Gaussian, Inc. or will provide
 assistance to any competitor of Gaussian, Inc.  The licensee
 of this program is prohibited from giving any competitor of
 Gaussian, Inc. access to this program.  By using this program,
 the user acknowledges that Gaussian, Inc. is engaged in the
 business of creating and licensing software in the field of
 computational chemistry and represents and warrants to the
 licensee that it is not a competitor of Gaussian, Inc. and that
 it will not use this program in any manner prohibited above.
 ---------------------------------------------------------------
  

 Cite this work as:
 Gaussian 09, Revision D.01,
 M. J. Frisch, G. W. Trucks, H. B. Schlegel, G. E. Scuseria, 
 M. A. Robb, J. R. Cheeseman, G. Scalmani, V. Barone, B. Mennucci, 
 G. A. Petersson, H. Nakatsuji, M. Caricato, X. Li, H. P. Hratchian, 
 A. F. Izmaylov, J. Bloino, G. Zheng, J. L. Sonnenberg, M. Hada, 
 M. Ehara, K. Toyota, R. Fukuda, J. Hasegawa, M. Ishida, T. Nakajima, 
 Y. Honda, O. Kitao, H. Nakai, T. Vreven, J. A. Montgomery, Jr., 
 J. E. Peralta, F. Ogliaro, M. Bearpark, J. J. Heyd, E. Brothers, 
 K. N. Kudin, V. N. Staroverov, T. Keith, R. Kobayashi, J. Normand, 
 K. Raghavachari, A. Rendell, J. C. Burant, S. S. Iyengar, J. Tomasi, 
 M. Cossi, N. Rega, J. M. Millam, M. Klene, J. E. Knox, J. B. Cross, 
 V. Bakken, C. Adamo, J. Jaramillo, R. Gomperts, R. E. Stratmann, 
 O. Yazyev, A. J. Austin, R. Cammi, C. Pomelli, J. W. Ochterski, 
 R. L. Martin, K. Morokuma, V. G. Zakrzewski, G. A. Voth, 
 P. Salvador, J. J. Dannenberg, S. Dapprich, A. D. Daniels, 
 O. Farkas, J. B. Foresman, J. V. Ortiz, J. Cioslowski, 
 and D. J. Fox, Gaussian, Inc., Wallingford CT, 2013.
 
 ******************************************
 Gaussian 09:  ES64L-G09RevD.01 24-Apr-2013
                15-Dec-2015 
 ******************************************
 ------------------------------------------------------------
 #P AM1(Input,print) CIS(Singlets,NStates=15) pop(full) force
 ------------------------------------------------------------
 1/10=7,30=1,38=1/1,3;
 2/12=2,17=6,18=5,40=1/2;
 3/5=2,16=1,25=1,41=700000,71=1,135=100,136=1/1,2,8,3;
 4/35=1/1;
 5/5=2,35=1,38=5/2;
 8/6=1,10=1,108=15/1;
 9/15=2,41=15,42=1,48=1,49=10/14;
 10/5=4/2;
 6/7=3,18=1/1;
 7/12=6,13=5,29=1/1,2,3,16;
 1/10=7,30=1/3;
 99//99;
 Leave Link    1 at Tue Dec 15 17:06:56 2015, MaxMem=           0 cpu:         0.0
 (Enter /home/Applications/g09/g09/l101.exe)
 -----------------
 AM1-Reparam Input
 -----------------
 Symbolic Z-matrix:
 Charge =  0 Multiplicity = 1
 6                     0.93312  -0.71347   0.04356 
 6                    -0.34095  -1.1317    0.03856 
 8                    -1.15131   0.04939   0.00099 
 6                    -0.38072   1.12257   0.00226 
 6                     0.93521   0.71114   0.04188 
 1                     1.83953   1.35569  -0.02428 
 1                    -0.87962   2.0933   -0.02127 
 1                    -0.79455  -2.09168  -0.01904 
 1                     1.81026  -1.40677  -0.01958 
 
 NAtoms=      9 NQM=        9 NQMF=       0 NMMI=      0 NMMIF=      0
                NMic=       0 NMicF=      0.
                    Isotopes and Nuclear Properties:
 (Nuclear quadrupole moments (NQMom) in fm**2, nuclear magnetic moments (NMagM)
  in nuclear magnetons)

  Atom         1           2           3           4           5           6           7           8           9
 IAtWgt=          12          12          16          12          12           1           1           1           1
 AtmWgt=  12.0000000  12.0000000  15.9949146  12.0000000  12.0000000   1.0078250   1.0078250   1.0078250   1.0078250
 NucSpn=           0           0           0           0           0           1           1           1           1
 AtZEff=   0.0000000   0.0000000   0.0000000   0.0000000   0.0000000   0.0000000   0.0000000   0.0000000   0.0000000
 NQMom=    0.0000000   0.0000000   0.0000000   0.0000000   0.0000000   0.0000000   0.0000000   0.0000000   0.0000000
 NMagM=    0.0000000   0.0000000   0.0000000   0.0000000   0.0000000   2.7928460   2.7928460   2.7928460   2.7928460
 AtZNuc=   6.0000000   6.0000000   8.0000000   6.0000000   6.0000000   1.0000000   1.0000000   1.0000000   1.0000000
 Leave Link  101 at Tue Dec 15 17:06:56 2015, MaxMem=    33554432 cpu:         0.1
 (Enter /home/Applications/g09/g09/l103.exe)

 GradGradGradGradGradGradGradGradGradGradGradGradGradGradGradGradGradGrad
 Berny optimization.
 Initialization pass.
 Trust Radius=3.00D-01 FncErr=1.00D-07 GrdErr=1.00D-07
 Number of steps in this run=      2 maximum allowed number of steps=      2.
 GradGradGradGradGradGradGradGradGradGradGradGradGradGradGradGradGradGrad

 Leave Link  103 at Tue Dec 15 17:06:56 2015, MaxMem=    33554432 cpu:         0.0
 (Enter /home/Applications/g09/g09/l202.exe)
                          Input orientation:                          
 ---------------------------------------------------------------------
 Center     Atomic      Atomic             Coordinates (Angstroms)
 Number     Number       Type             X           Y           Z
 ---------------------------------------------------------------------
      1          6           0        0.933117   -0.713469    0.043563
      2          6           0       -0.340954   -1.131697    0.038555
      3          8           0       -1.151305    0.049391    0.000987
      4          6           0       -0.380723    1.122565    0.002256
      5          6           0        0.935210    0.711138    0.041882
      6          1           0        1.839530    1.355690   -0.024278
      7          1           0       -0.879617    2.093296   -0.021265
      8          1           0       -0.794554   -2.091683   -0.019041
      9          1           0        1.810258   -1.406774   -0.019575
 ---------------------------------------------------------------------
                    Distance matrix (angstroms):
                    1          2          3          4          5
     1  C    0.000000
     2  C    1.340969   0.000000
     3  O    2.220041   1.432846   0.000000
     4  C    2.258075   2.254905   1.321174   0.000000
     5  C    1.424610   2.241572   2.189321   1.379319   0.000000
     6  H    2.260001   3.308406   3.263763   2.232616   1.112483
     7  H    3.341876   3.270217   2.062003   1.091681   2.282092
     8  H    2.210936   1.063317   2.170684   3.240849   3.294177
     9  H    1.119837   2.169507   3.300257   3.346406   2.292387
                    6          7          8          9
     6  H    0.000000
     7  H    2.817416   0.000000
     8  H    4.338526   4.185844   0.000000
     9  H    2.762623   4.414286   2.693352   0.000000
 Stoichiometry    C4H4O
 Framework group  C1[X(C4H4O)]
 Deg. of freedom    21
 Full point group                 C1      NOp   1
 Largest Abelian subgroup         C1      NOp   1
 Largest concise Abelian subgroup C1      NOp   1
                         Standard orientation:                         
 ---------------------------------------------------------------------
 Center     Atomic      Atomic             Coordinates (Angstroms)
 Number     Number       Type             X           Y           Z
 ---------------------------------------------------------------------
      1          6           0       -0.942754    0.721818   -0.008713
      2          6           0       -1.013396   -0.617276   -0.014587
      3          8           0        0.338747   -1.090956    0.005008
      4          6           0        1.173161   -0.066625    0.004058
      5          6           0        0.431732    1.096270   -0.017886
      6          1           0        0.818183    2.137040    0.053337
      7          1           0        2.240727   -0.294566    0.014654
      8          1           0       -1.820827   -1.306558    0.045322
      9          1           0       -1.840517    1.386614    0.069402
 ---------------------------------------------------------------------
 Rotational constants (GHZ):      9.6388382      8.9771671      4.6495490
 Leave Link  202 at Tue Dec 15 17:06:56 2015, MaxMem=    33554432 cpu:         0.0
 (Enter /home/Applications/g09/g09/l301.exe)

 Semi-emprical parameters in input format:
 Method=8 CoreType=1 PeptideFC=0.0106250000 RIJScale=0.5404210000
 ****
 H       
 PQN=1 NValence=1 F0ss=0.4721550000 ZetaOverlap=1.0856700000 U=-0.4186260000
 Beta=-0.2268830000 CoreKO=1.0354420000 KON=0,0,0,1.0458670000 KON=1,0,1,0.9802520000
 KON=0,1,1,1.0589200000 KON=2,1,1,1.0697690000 EISol=-0.4188110042 EHeat=0.0830298228
 Alpha=1.4609850000
 GCore=0.0085280000,1.5127750000,2.2676710000
 GCore=0.0003530000,1.4551640000,3.4779940000
 GCore=-0.0013010000,0.5600570000,3.8358530000
 ****
 C       
 PQN=2,2 NValence=4 F0ss=0.4494440000 F0sp=0.4261420000 F0pp=0.3497590000 F2pp=0.1898720000
 G1sp=0.2701540000
 ZetaOverlap=1.8086650000,1.3781170000
 U=-1.8586070000,-1.4557970000
 Beta=-0.5453250000,-0.3063130000 DDN=0,1,0.7859360000 DDN=1,1,0.7268010000
 CoreKO=1.1356210000 KON=0,0,0,1.1124280000 KON=1,0,1,0.8998210000 KON=0,1,1,1.1012040000
 KON=2,1,1,0.7783930000 EISol=-4.4398989268 EHeat=0.2723305520 Alpha=1.2756240000
 DipHyp=1.5717815688
 GCore=0.0007890000,1.4001430000,2.6678360000
 GCore=0.0035050000,1.4001430000,3.3106540000
 GCore=-0.0015090000,1.3017660000,3.8739390000
 GCore=-0.0001030000,1.4001430000,4.6088130000
 ****
 O       
 PQN=2,2 NValence=6 F0ss=0.5666750000 F0sp=0.5321300000 F0pp=0.4958710000 F2pp=0.2358080000
 G1sp=0.4216980000
 ZetaOverlap=2.6354490000,2.5240390000
 U=-3.5951870000,-2.0345890000
 Beta=-1.1573400000,-1.2994290000 DDN=0,1,0.4953610000 DDN=1,1,0.5082060000
 CoreKO=0.8822960000 KON=0,0,0,0.8891460000 KON=1,0,1,0.5019540000 KON=0,1,1,0.8682050000
 KON=2,1,1,0.5515580000 EISol=-11.6164441184 EHeat=0.0949133088 Alpha=2.3583550000
 DipHyp=0.9906650029
 GCore=0.0204720000,1.2640290000,1.6023330000
 GCore=0.0056550000,1.9602000000,2.7307880000
 ****
 
 Standard basis: VSTO-6G (5D, 7F)
 Ernie: Thresh=  0.10000D-02 Tol=  0.10000D-05 Strict=F.
  NNHCO=     0 NNPyr=     0 NCTC=     0               EPep=         0.000000000
    EC=        68.233291315  ECS=         2.385475027   EG=         0.388552362
   EHC=         0.000000000  EAt=       -31.051283842  AtH=         1.516354808
 EPDDG=         0.000000000  ECC=        71.007318704 EAtT=        32.567638650
 There are    24 symmetry adapted cartesian basis functions of A   symmetry.
 There are    24 symmetry adapted basis functions of A   symmetry.
    24 basis functions,   144 primitive gaussians,    24 cartesian basis functions
    13 alpha electrons       13 beta electrons
       nuclear repulsion energy       103.5749573543 Hartrees.
 IExCor=    0 DFT=F Ex=HF Corr=None ExCW=0 ScaHFX=  1.000000
 ScaDFX=  1.000000  1.000000  1.000000  1.000000 ScalE2=  1.000000  1.000000
 IRadAn=      0 IRanWt=     -1 IRanGd=            0 ICorTp=0 IEmpDi=  4
 Integral buffers will be    131072 words long.
 Regular integral format.
 Two-electron integral symmetry is turned off.
 Leave Link  301 at Tue Dec 15 17:06:56 2015, MaxMem=    33554432 cpu:         0.0
 (Enter /home/Applications/g09/g09/l302.exe)
 Do NDO integrals.
 NPDir=0 NMtPBC=     1 NCelOv=     1 NCel=       1 NClECP=     1 NCelD=      1
         NCelK=      1 NCelE2=     1 NClLst=     1 CellRange=     0.0.
 One-electron integrals computed using PRISM.
 NBasis=    24 RedAO= F EigKep=  0.00D+00  NBF=    24
 NBsUse=    24 1.00D-04 EigRej=  0.00D+00 NBFU=    24
 Leave Link  302 at Tue Dec 15 17:06:56 2015, MaxMem=    33554432 cpu:         0.0
 (Enter /home/Applications/g09/g09/l308.exe)
 Leave Link  308 at Tue Dec 15 17:06:56 2015, MaxMem=    33554432 cpu:         0.0
 (Enter /home/Applications/g09/g09/l303.exe)
 DipDrv:  MaxL=1.
 Leave Link  303 at Tue Dec 15 17:06:56 2015, MaxMem=    33554432 cpu:         0.0
 (Enter /home/Applications/g09/g09/l401.exe)
 Simple Huckel Guess.
 JPrj=0 DoOrth=F DoCkMO=F.
 Leave Link  401 at Tue Dec 15 17:06:56 2015, MaxMem=    33554432 cpu:         0.0
 (Enter /home/Applications/g09/g09/l502.exe)
 Closed shell SCF:
 Using DIIS extrapolation, IDIIS=  1040.
 Overlap will be assumed to be unity.
 Two-electron integral symmetry not used.
 Keep J ints in memory in canonical form, NReq=888082.
 IVT=       79475 IEndB=       79475 NGot=    33554432 MDV=    33473473
 LenX=    33473473 LenY=    33472456
 Requested convergence on RMS density matrix=1.00D-08 within 128 cycles.
 Requested convergence on MAX density matrix=1.00D-06.
 Requested convergence on             energy=1.00D-06.
 No special actions if energy rises.
 FoFCou: FMM=F IPFlag=           0 FMFlag=           0 FMFlg1=           0
         NFxFlg=           0 DoJE=F BraDBF=F KetDBF=F FulRan=T
         wScrn=  0.000000 ICntrl=     600 IOpCl=  2 I1Cent=           0 NGrid=           0
         NMat0=    1 NMatS0=     54 NMatT0=    0 NMatD0=    1 NMtDS0=    0 NMtDT0=    0
 Symmetry not used in FoFCou.

 Cycle   1  Pass 1  IDiag  1:
 E=  4.04382022391458    
 DIIS: error= 1.48D-01 at cycle   1 NSaved=   1.
 NSaved= 1 IEnMin= 1 EnMin=  4.04382022391458     IErMin= 1 ErrMin= 1.48D-01
 ErrMax= 1.48D-01  0.00D+00 EMaxC= 1.00D-01 BMatC= 4.98D-01 BMatP= 4.98D-01
 IDIUse=3 WtCom= 0.00D+00 WtEn= 1.00D+00
 Coeff-Com:  0.100D+01
 Coeff-En:   0.100D+01
 Coeff:      0.100D+01
 GapD=    2.000 DampG=2.000 DampE=0.250 DampFc=0.5000 IDamp=-1.
 Damping current iteration by 5.00D-01
 RMSDP=6.62D-02 MaxDP=7.13D-01              OVMax= 0.00D+00

 Cycle   2  Pass 1  IDiag  1:
 E=  3.01195174696525     Delta-E=       -1.031868476949 Rises=F Damp=T
 DIIS: error= 8.01D-02 at cycle   2 NSaved=   2.
 NSaved= 2 IEnMin= 2 EnMin=  3.01195174696525     IErMin= 2 ErrMin= 8.01D-02
 ErrMax= 8.01D-02  0.00D+00 EMaxC= 1.00D-01 BMatC= 1.68D-01 BMatP= 4.98D-01
 IDIUse=3 WtCom= 1.99D-01 WtEn= 8.01D-01
 Coeff-Com: -0.114D+01 0.214D+01
 Coeff-En:   0.000D+00 0.100D+01
 Coeff:     -0.226D+00 0.123D+01
 RMSDP=3.70D-02 MaxDP=3.73D-01 DE=-1.03D+00 OVMax= 0.00D+00

 Cycle   3  Pass 1  IDiag  1:
 E=  1.73000624151590     Delta-E=       -1.281945505449 Rises=F Damp=F
 DIIS: error= 1.73D-02 at cycle   3 NSaved=   3.
 NSaved= 3 IEnMin= 3 EnMin=  1.73000624151590     IErMin= 3 ErrMin= 1.73D-02
 ErrMax= 1.73D-02  0.00D+00 EMaxC= 1.00D-01 BMatC= 1.11D-02 BMatP= 1.68D-01
 IDIUse=3 WtCom= 8.27D-01 WtEn= 1.73D-01
 Coeff-Com:  0.336D+00-0.746D+00 0.141D+01
 Coeff-En:   0.000D+00 0.000D+00 0.100D+01
 Coeff:      0.278D+00-0.617D+00 0.134D+01
 RMSDP=9.94D-03 MaxDP=5.10D-02 DE=-1.28D+00 OVMax= 0.00D+00

 Cycle   4  Pass 1  IDiag  3:
 E=  1.68613149273611     Delta-E=       -0.043874748780 Rises=F Damp=F
 DIIS: error= 4.65D-03 at cycle   4 NSaved=   4.
 NSaved= 4 IEnMin= 4 EnMin=  1.68613149273611     IErMin= 4 ErrMin= 4.65D-03
 ErrMax= 4.65D-03  0.00D+00 EMaxC= 1.00D-01 BMatC= 9.85D-04 BMatP= 1.11D-02
 IDIUse=3 WtCom= 9.53D-01 WtEn= 4.65D-02
 Coeff-Com: -0.650D-01 0.122D+00-0.437D+00 0.138D+01
 Coeff-En:   0.000D+00 0.000D+00 0.000D+00 0.100D+01
 Coeff:     -0.620D-01 0.117D+00-0.417D+00 0.136D+01
 Gap=     0.403 Goal=   None    Shift=    0.000
 RMSDP=3.81D-03 MaxDP=2.10D-02 DE=-4.39D-02 OVMax= 3.35D-02

 Cycle   5  Pass 1  IDiag  3:
 E=  1.68158271561711     Delta-E=       -0.004548777119 Rises=F Damp=F
 DIIS: error= 1.14D-03 at cycle   5 NSaved=   5.
 NSaved= 5 IEnMin= 5 EnMin=  1.68158271561711     IErMin= 5 ErrMin= 1.14D-03
 ErrMax= 1.14D-03  0.00D+00 EMaxC= 1.00D-01 BMatC= 4.22D-05 BMatP= 9.85D-04
 IDIUse=3 WtCom= 9.89D-01 WtEn= 1.14D-02
 Coeff-Com:  0.160D-01-0.287D-01 0.130D+00-0.566D+00 0.145D+01
 Coeff-En:   0.000D+00 0.000D+00 0.000D+00 0.000D+00 0.100D+01
 Coeff:      0.158D-01-0.284D-01 0.128D+00-0.559D+00 0.144D+01
 Gap=     0.403 Goal=   None    Shift=    0.000
 RMSDP=8.86D-04 MaxDP=5.00D-03 DE=-4.55D-03 OVMax= 5.90D-03

 Cycle   6  Pass 1  IDiag  3:
 E=  1.68136391809586     Delta-E=       -0.000218797521 Rises=F Damp=F
 DIIS: error= 2.01D-04 at cycle   6 NSaved=   6.
 NSaved= 6 IEnMin= 6 EnMin=  1.68136391809586     IErMin= 6 ErrMin= 2.01D-04
 ErrMax= 2.01D-04  0.00D+00 EMaxC= 1.00D-01 BMatC= 1.63D-06 BMatP= 4.22D-05
 IDIUse=3 WtCom= 9.98D-01 WtEn= 2.01D-03
 Coeff-Com: -0.149D-02 0.299D-02-0.302D-01 0.155D+00-0.562D+00 0.144D+01
 Coeff-En:   0.000D+00 0.000D+00 0.000D+00 0.000D+00 0.000D+00 0.100D+01
 Coeff:     -0.149D-02 0.298D-02-0.302D-01 0.155D+00-0.561D+00 0.143D+01
 Gap=     0.404 Goal=   None    Shift=    0.000
 RMSDP=1.78D-04 MaxDP=1.09D-03 DE=-2.19D-04 OVMax= 9.67D-04

 Cycle   7  Pass 1  IDiag  3:
 E=  1.68135610509181     Delta-E=       -0.000007813004 Rises=F Damp=F
 DIIS: error= 2.12D-05 at cycle   7 NSaved=   7.
 NSaved= 7 IEnMin= 7 EnMin=  1.68135610509181     IErMin= 7 ErrMin= 2.12D-05
 ErrMax= 2.12D-05  0.00D+00 EMaxC= 1.00D-01 BMatC= 2.91D-08 BMatP= 1.63D-06
 IDIUse=1 WtCom= 1.00D+00 WtEn= 0.00D+00
 Coeff-Com:  0.176D-03-0.357D-03 0.105D-01-0.588D-01 0.229D+00-0.649D+00
 Coeff-Com:  0.147D+01
 Coeff:      0.176D-03-0.357D-03 0.105D-01-0.588D-01 0.229D+00-0.649D+00
 Coeff:      0.147D+01
 Gap=     0.404 Goal=   None    Shift=    0.000
 RMSDP=2.13D-05 MaxDP=1.33D-04 DE=-7.81D-06 OVMax= 1.20D-04

 Cycle   8  Pass 1  IDiag  3:
 E=  1.68135597538682     Delta-E=       -0.000000129705 Rises=F Damp=F
 DIIS: error= 2.87D-06 at cycle   8 NSaved=   8.
 NSaved= 8 IEnMin= 8 EnMin=  1.68135597538682     IErMin= 8 ErrMin= 2.87D-06
 ErrMax= 2.87D-06  0.00D+00 EMaxC= 1.00D-01 BMatC= 7.62D-10 BMatP= 2.91D-08
 IDIUse=1 WtCom= 1.00D+00 WtEn= 0.00D+00
 Coeff-Com:  0.513D-05-0.325D-04-0.161D-02 0.105D-01-0.460D-01 0.139D+00
 Coeff-Com: -0.388D+00 0.129D+01
 Coeff:      0.513D-05-0.325D-04-0.161D-02 0.105D-01-0.460D-01 0.139D+00
 Coeff:     -0.388D+00 0.129D+01
 Gap=     0.404 Goal=   None    Shift=    0.000
 RMSDP=3.14D-06 MaxDP=1.66D-05 DE=-1.30D-07 OVMax= 1.93D-05

 Cycle   9  Pass 1  IDiag  3:
 E=  1.68135597220565     Delta-E=       -0.000000003181 Rises=F Damp=F
 DIIS: error= 6.98D-07 at cycle   9 NSaved=   9.
 NSaved= 9 IEnMin= 9 EnMin=  1.68135597220565     IErMin= 9 ErrMin= 6.98D-07
 ErrMax= 6.98D-07  0.00D+00 EMaxC= 1.00D-01 BMatC= 2.60D-11 BMatP= 7.62D-10
 IDIUse=1 WtCom= 1.00D+00 WtEn= 0.00D+00
 Coeff-Com:  0.272D-05 0.719D-06 0.109D-03-0.852D-03 0.430D-02-0.131D-01
 Coeff-Com:  0.391D-01-0.264D+00 0.123D+01
 Coeff:      0.272D-05 0.719D-06 0.109D-03-0.852D-03 0.430D-02-0.131D-01
 Coeff:      0.391D-01-0.264D+00 0.123D+01
 Gap=     0.404 Goal=   None    Shift=    0.000
 RMSDP=6.49D-07 MaxDP=2.87D-06 DE=-3.18D-09 OVMax= 4.37D-06

 Cycle  10  Pass 1  IDiag  3:
 E=  1.68135597207488     Delta-E=       -0.000000000131 Rises=F Damp=F
 DIIS: error= 1.97D-07 at cycle  10 NSaved=  10.
 NSaved=10 IEnMin=10 EnMin=  1.68135597207488     IErMin=10 ErrMin= 1.97D-07
 ErrMax= 1.97D-07  0.00D+00 EMaxC= 1.00D-01 BMatC= 1.73D-12 BMatP= 2.60D-11
 IDIUse=1 WtCom= 1.00D+00 WtEn= 0.00D+00
 Coeff-Com:  0.119D-05-0.329D-05-0.700D-05 0.102D-03-0.644D-03 0.190D-02
 Coeff-Com: -0.630D-02 0.694D-01-0.504D+00 0.144D+01
 Coeff:      0.119D-05-0.329D-05-0.700D-05 0.102D-03-0.644D-03 0.190D-02
 Coeff:     -0.630D-02 0.694D-01-0.504D+00 0.144D+01
 Gap=     0.404 Goal=   None    Shift=    0.000
 RMSDP=2.03D-07 MaxDP=1.10D-06 DE=-1.31D-10 OVMax= 1.83D-06

 Cycle  11  Pass 1  IDiag  3:
 E=  1.68135597206474     Delta-E=       -0.000000000010 Rises=F Damp=F
 DIIS: error= 4.78D-08 at cycle  11 NSaved=  11.
 NSaved=11 IEnMin=11 EnMin=  1.68135597206474     IErMin=11 ErrMin= 4.78D-08
 ErrMax= 4.78D-08  0.00D+00 EMaxC= 1.00D-01 BMatC= 9.11D-14 BMatP= 1.73D-12
 IDIUse=1 WtCom= 1.00D+00 WtEn= 0.00D+00
 Coeff-Com: -0.563D-06 0.108D-05-0.573D-05 0.233D-04-0.526D-04 0.205D-03
 Coeff-Com: -0.993D-04-0.157D-01 0.160D+00-0.642D+00 0.150D+01
 Coeff:     -0.563D-06 0.108D-05-0.573D-05 0.233D-04-0.526D-04 0.205D-03
 Coeff:     -0.993D-04-0.157D-01 0.160D+00-0.642D+00 0.150D+01
 Gap=     0.404 Goal=   None    Shift=    0.000
 RMSDP=5.32D-08 MaxDP=3.03D-07 DE=-1.01D-11 OVMax= 5.18D-07

 Cycle  12  Pass 1  IDiag  3:
 E=  1.68135597206401     Delta-E=       -0.000000000001 Rises=F Damp=F
 DIIS: error= 7.10D-09 at cycle  12 NSaved=  12.
 NSaved=12 IEnMin=12 EnMin=  1.68135597206401     IErMin=12 ErrMin= 7.10D-09
 ErrMax= 7.10D-09  0.00D+00 EMaxC= 1.00D-01 BMatC= 2.58D-15 BMatP= 9.11D-14
 IDIUse=1 WtCom= 1.00D+00 WtEn= 0.00D+00
 Coeff-Com:  0.149D-09 0.129D-07 0.361D-06-0.163D-05 0.233D-06-0.304D-04
 Coeff-Com: -0.146D-04 0.479D-02-0.491D-01 0.208D+00-0.589D+00 0.143D+01
 Coeff:      0.149D-09 0.129D-07 0.361D-06-0.163D-05 0.233D-06-0.304D-04
 Coeff:     -0.146D-04 0.479D-02-0.491D-01 0.208D+00-0.589D+00 0.143D+01
 Gap=     0.404 Goal=   None    Shift=    0.000
 RMSDP=8.25D-09 MaxDP=4.85D-08 DE=-7.25D-13 OVMax= 7.52D-08

 Cycle  13  Pass 2  IDiag  1:
 SCF Done:  E(RAM1) =   1.68135597206     A.U. after   13 cycles
            NFock= 12  Conv=0.83D-08     -V/T= 1.1071
 KE=-1.569413439247D+01 PE=-1.687405610741D+02 EE= 8.254109408429D+01
 Leave Link  502 at Tue Dec 15 17:06:56 2015, MaxMem=    33554432 cpu:         0.0
 (Enter /home/Applications/g09/g09/l801.exe)
 Range of M.O.s used for correlation:     1    24
 NBasis=    24 NAE=    13 NBE=    13 NFC=     0 NFV=     0
 NROrb=     24 NOA=    13 NOB=    13 NVA=    11 NVB=    11
 Leave Link  801 at Tue Dec 15 17:06:56 2015, MaxMem=    33554432 cpu:         0.0
 (Enter /home/Applications/g09/g09/l914.exe)
 RHF ground state
 MDV=    33554432 DFT=F DoStab=F Mixed=F DoRPA=F DoScal=F NonHer=F
 Making orbital integer symmetry assigments:
 Orbital symmetries:
       Occupied  (A) (A) (A) (A) (A) (A) (A) (A) (A) (A) (A) (A)
                 (A)
       Virtual   (A) (A) (A) (A) (A) (A) (A) (A) (A) (A) (A)
    60 initial guesses have been made.
 Convergence on wavefunction:    0.000001000000000
 Davidson Disk Diagonalization:  ConvIn= 1.00D-06 SkipCon=T Conv= 1.00D-06.
 Max sub-space:   240 roots to seek:    60 dimension of matrix:          286
 Iteration     1 Dimension    60 NMult     0 NNew     60
 CISAX will form    60 AO SS matrices at one time.
 NMat=    60 NSing=    60 JSym2X= 0.
 FoFJK:  IHMeth= 8 ICntrl=       0 DoSepK=F KAlg= 0 I1Cent=   0 FoldK=F
 IRaf=         1 NMat= 120 IRICut=       1 DoRegI=T DoRafI=F ISym2E= 0.
 FoFCou: FMM=F IPFlag=           0 FMFlag=      100000 FMFlg1=           0
         NFxFlg=           0 DoJE=F BraDBF=F KetDBF=F FulRan=T
         wScrn=  0.000000 ICntrl=       0 IOpCl=  0 I1Cent=           0 NGrid=           0
         NMat0=  120 NMatS0=     60 NMatT0=    0 NMatD0=  120 NMtDS0=    0 NMtDT0=    0
 Symmetry not used in FoFCou.
 New state      4 was old state      5
 New state      5 was old state     10
 New state      6 was old state      4
 New state      7 was old state      9
 New state      8 was old state      6
 New state      9 was old state      8
 New state     10 was old state      7
 New state     12 was old state     13
 New state     13 was old state     12
 Excitation Energies [eV] at current iteration:
 Root      1 :     5.407311531752903
 Root      2 :     6.221246566996763
 Root      3 :     6.838772106712556
 Root      4 :     7.146928428869892
 Root      5 :     7.478039846168630
 Root      6 :     7.630962290777421
 Root      7 :     7.982561345392319
 Root      8 :     8.369021089633646
 Root      9 :     8.511856600717836
 Root     10 :     8.768883276594508
 Root     11 :     9.007991382010589
 Root     12 :     9.689432850946678
 Root     13 :     9.708084134546091
 Root     14 :     9.871209397125886
 Root     15 :    10.347134455635240
 Root     16 :    10.416835601904810
 Root     17 :    10.530566910654370
 Root     18 :    10.599703125927040
 Root     19 :    10.757232846154390
 Root     20 :    10.802730475587910
 Root     21 :    10.892718010648530
 Root     22 :    11.142330543465160
 Root     23 :    11.374089357044300
 Root     24 :    11.605559696467760
 Root     25 :    11.713963838477710
 Root     26 :    11.790771324278680
 Root     27 :    12.045202206932830
 Root     28 :    12.208513442077390
 Root     29 :    12.243385303293480
 Root     30 :    12.462276299462610
 Root     31 :    12.574654154914970
 Root     32 :    12.730961671420320
 Root     33 :    12.835521861703080
 Root     34 :    12.912892443910100
 Root     35 :    12.945561220817940
 Root     36 :    13.270959910285510
 Root     37 :    13.340442916279040
 Root     38 :    13.663497757338320
 Root     39 :    13.737318186761690
 Root     40 :    14.013262349453210
 Root     41 :    14.175978697002310
 Root     42 :    14.325171095993630
 Root     43 :    14.426815136483080
 Root     44 :    14.485446652599310
 Root     45 :    14.586885289808300
 Root     46 :    14.601561942639660
 Root     47 :    15.208281385963880
 Root     48 :    15.292750741615210
 Root     49 :    15.717031753889820
 Root     50 :    15.730970210027070
 Root     51 :    15.766316875073630
 Root     52 :    15.812599693489560
 Root     53 :    15.857351158386790
 Root     54 :    15.882668266947690
 Root     55 :    16.499275356925590
 Root     56 :    16.519986427082750
 Root     57 :    17.075044828021970
 Root     58 :    17.210967185080940
 Root     59 :    17.422611125197640
 Root     60 :    17.635574305950890
 Iteration     2 Dimension   120 NMult    60 NNew     60
 CISAX will form    60 AO SS matrices at one time.
 NMat=    60 NSing=    60 JSym2X= 0.
 Root      1 not converged, maximum delta is    0.021498772172529
 Root      2 not converged, maximum delta is    0.024268679292689
 Root      3 not converged, maximum delta is    0.033521640371256
 Root      4 not converged, maximum delta is    0.022529805094414
 Root      5 not converged, maximum delta is    0.057085714315435
 Root      6 not converged, maximum delta is    0.061100454085824
 Root      7 not converged, maximum delta is    0.017076902159976
 Root      8 not converged, maximum delta is    0.090027365990466
 Root      9 not converged, maximum delta is    0.116992859666791
 Root     10 not converged, maximum delta is    0.023230508316330
 Root     11 not converged, maximum delta is    0.023797407502206
 New state     12 was old state     13
 Root     12 not converged, maximum delta is    0.164563371091861
 New state     13 was old state     12
 Root     13 not converged, maximum delta is    0.062072507275094
 Root     14 not converged, maximum delta is    0.149906336480157
 New state     15 was old state     16
 Root     15 not converged, maximum delta is    0.125575306027890
 Excitation Energies [eV] at current iteration:
 Root      1 :     5.337308148807640   Change is   -0.070003382945263
 Root      2 :     6.196957987987616   Change is   -0.024288579009147
 Root      3 :     6.787052674113863   Change is   -0.051719432598693
 Root      4 :     7.112274309339937   Change is   -0.034654119529955
 Root      5 :     7.443305522536878   Change is   -0.034734323631753
 Root      6 :     7.601147731721817   Change is   -0.029814559055605
 Root      7 :     7.963273149272261   Change is   -0.019288196120057
 Root      8 :     8.332149143515235   Change is   -0.036871946118410
 Root      9 :     8.454122372806848   Change is   -0.057734227910988
 Root     10 :     8.733015291665085   Change is   -0.035867984929423
 Root     11 :     8.964612648127940   Change is   -0.043378733882651
 Root     12 :     9.451494732486577   Change is   -0.256589402059515
 Root     13 :     9.652190655932426   Change is   -0.037242195014253
 Root     14 :     9.781442889561768   Change is   -0.089766507564119
 Root     15 :    10.122749668185270   Change is   -0.294085933719545
 Root     16 :    10.204798511819340   Change is   -0.142335943815907
 Root     17 :    10.319673562563240   Change is   -0.210893348091138
 Root     18 :    10.465806685708890   Change is   -0.336923789879019
 Root     19 :    10.535256917524400   Change is   -0.064446208402641
 Root     20 :    10.626001196275630   Change is   -0.266716814372898
 Root     21 :    10.680273444500220   Change is   -0.076959401654171
 Root     22 :    11.045341337059540   Change is   -0.096989206405626
 Root     23 :    11.270946498028270   Change is   -0.103142859016029
 Root     24 :    11.437246205061020   Change is   -0.168313491406739
 Root     25 :    11.496139372721600   Change is   -0.217824465756107
 Root     26 :    11.660482608759250   Change is   -0.130288715519433
 Root     27 :    11.820597873648850   Change is   -0.224604333283976
 Root     28 :    11.987026489659080   Change is   -0.221486952418314
 Root     29 :    12.168234519211290   Change is   -0.294041780251317
 Root     30 :    12.194430881681330   Change is   -0.048954421612156
 Root     31 :    12.452688373725250   Change is   -0.121965781189725
 Root     32 :    12.585453517318140   Change is   -0.145508154102174
 Root     33 :    12.701578487794410   Change is   -0.133943373908666
 Root     34 :    12.821753520116320   Change is   -0.091138923793775
 Root     35 :    12.853306258899800   Change is   -0.092254961918143
 Root     36 :    13.101206440336890   Change is   -0.169753469948621
 Root     37 :    13.135575405050520   Change is   -0.204867511228521
 Root     38 :    13.517321431962590   Change is   -0.146176325375729
 Root     39 :    13.614756147097720   Change is   -0.122562039663969
 Root     40 :    13.907767505575460   Change is   -0.105494843877743
 Root     41 :    13.961089556614800   Change is   -0.465725579868284
 Root     42 :    14.027419035858700   Change is   -0.297752060134927
 Root     43 :    14.071884981251930   Change is   -0.104093715750381
 Root     44 :    14.331713148317380   Change is   -0.153733504281927
 Root     45 :    14.411341121624920   Change is   -0.175544168183381
 Root     46 :    14.437583546069270   Change is   -0.163978396570382
 Root     47 :    14.904209146022660   Change is   -0.304072239941218
 Root     48 :    15.085633094625980   Change is   -0.207117646989228
 Root     49 :    15.483214833824830   Change is   -0.247755376202237
 Root     50 :    15.587255436388090   Change is   -0.179061438685547
 Root     51 :    15.613180628296750   Change is   -0.199419065192809
 Root     52 :    15.620520226909090   Change is   -0.096511526980724
 Root     53 :    15.625574509117510   Change is   -0.257093757830186
 Root     54 :    15.710391291857830   Change is   -0.146959866528965
 Root     55 :    16.049764427975970   Change is   -1.025280400046001
 Root     56 :    16.214674188474780   Change is   -0.284601168450812
 Root     57 :    16.360608334473160   Change is   -0.159378092609595
 Root     58 :    16.703424284823530
 Root     59 :    16.843342648508490
 Root     60 :    17.037195472549400   Change is   -0.173771712531540
 Iteration     3 Dimension   135 NMult   120 NNew     15
 CISAX will form    15 AO SS matrices at one time.
 NMat=    15 NSing=    15 JSym2X= 0.
 Root      1 not converged, maximum delta is    0.001545592201166
 Root      2 not converged, maximum delta is    0.000069716431589
 Root      3 not converged, maximum delta is    0.000054702425091
 Root      4 not converged, maximum delta is    0.000153625874819
 Root      5 not converged, maximum delta is    0.000086064379610
 Root      6 not converged, maximum delta is    0.000097592004345
 Root      7 not converged, maximum delta is    0.000102883781471
 Root      8 not converged, maximum delta is    0.000105017515473
 Root      9 not converged, maximum delta is    0.000111648611607
 Root     10 not converged, maximum delta is    0.000676468497027
 Root     11 not converged, maximum delta is    0.000158303562654
 Root     12 not converged, maximum delta is    0.002405011936790
 Root     13 not converged, maximum delta is    0.000538301064297
 Root     14 not converged, maximum delta is    0.001334578644953
 Root     15 not converged, maximum delta is    0.002277514448165
 Excitation Energies [eV] at current iteration:
 Root      1 :     5.336841602005916   Change is   -0.000466546801724
 Root      2 :     6.196956851721983   Change is   -0.000001136265633
 Root      3 :     6.787051534405269   Change is   -0.000001139708593
 Root      4 :     7.112268491099419   Change is   -0.000005818240518
 Root      5 :     7.443304121819384   Change is   -0.000001400717494
 Root      6 :     7.601143937569480   Change is   -0.000003794152336
 Root      7 :     7.963269664466283   Change is   -0.000003484805979
 Root      8 :     8.332147835368144   Change is   -0.000001308147092
 Root      9 :     8.454119473145349   Change is   -0.000002899661500
 Root     10 :     8.732884227060143   Change is   -0.000131064604940
 Root     11 :     8.964604631011905   Change is   -0.000008017116033
 Root     12 :     9.450301956774238   Change is   -0.001192775712338
 Root     13 :     9.652117217481651   Change is   -0.000073438450775
 Root     14 :     9.781010655553674   Change is   -0.000432234008095
 Root     15 :    10.121330545747990   Change is   -0.001419122437277
 Iteration     4 Dimension   143 NMult   135 NNew      8
 CISAX will form     8 AO SS matrices at one time.
 NMat=     8 NSing=     8 JSym2X= 0.
 Root      1 not converged, maximum delta is    0.000067527076498
 Root      2 not converged, maximum delta is    0.000003331039077
 Root      3 not converged, maximum delta is    0.000003303789820
 Root      4 not converged, maximum delta is    0.000006480219753
 Root      5 not converged, maximum delta is    0.000002389388198
 Root      6 not converged, maximum delta is    0.000007451475452
 Root      7 not converged, maximum delta is    0.000007508706103
 Root      8 not converged, maximum delta is    0.000003608427518
 Root      9 not converged, maximum delta is    0.000008294480919
 Root     10 not converged, maximum delta is    0.000047762923967
 Root     11 not converged, maximum delta is    0.000013731196313
 Root     12 not converged, maximum delta is    0.000080342721548
 Root     13 not converged, maximum delta is    0.000034572254610
 Root     14 not converged, maximum delta is    0.000093077143084
 Root     15 not converged, maximum delta is    0.000122515356473
 Excitation Energies [eV] at current iteration:
 Root      1 :     5.336840661428755   Change is   -0.000000940577161
 Root      2 :     6.196956847853134   Change is   -0.000000003868849
 Root      3 :     6.787051531087414   Change is   -0.000000003317856
 Root      4 :     7.112268477243576   Change is   -0.000000013855844
 Root      5 :     7.443304121089321   Change is   -0.000000000730063
 Root      6 :     7.601143922134488   Change is   -0.000000015434992
 Root      7 :     7.963269651756607   Change is   -0.000000012709675
 Root      8 :     8.332147831360063   Change is   -0.000000004008081
 Root      9 :     8.454119465021018   Change is   -0.000000008124331
 Root     10 :     8.732883852278055   Change is   -0.000000374782088
 Root     11 :     8.964604595702752   Change is   -0.000000035309153
 Root     12 :     9.450300024378450   Change is   -0.000001932395788
 Root     13 :     9.652117054346901   Change is   -0.000000163134749
 Root     14 :     9.781009497970622   Change is   -0.000001157583051
 Root     15 :    10.121327298897110   Change is   -0.000003246850884
 Convergence achieved on expansion vectors.
 ***********************************************************************
 Excited states from <AA,BB:AA,BB> singles matrix:
 ***********************************************************************
 
 1PDM for each excited state written to RWF  633
 Ground to excited state transition densities written to RWF  633
 Ground to excited state transition electric dipole moments (Au):
       state          X           Y           Z        Dip. S.      Osc.
         1         1.4963      0.5621     -0.0216      2.5554      0.3341
         2         0.0402      0.0104      0.1647      0.0289      0.0044
         3         0.0108     -0.0048      0.1548      0.0241      0.0040
         4        -0.0889     -0.0386     -0.0158      0.0096      0.0017
         5         0.0236      0.0143      0.0064      0.0008      0.0001
         6        -0.0238     -0.0017     -0.2806      0.0793      0.0148
         7         0.0085      0.0751     -0.0595      0.0092      0.0018
         8         0.0087     -0.0403      0.1607      0.0275      0.0056
         9        -0.0354     -0.0311      0.0750      0.0078      0.0016
        10         0.1891     -0.6050      0.0103      0.4019      0.0860
        11        -0.0078      0.0210      0.6363      0.4054      0.0890
        12        -0.0720      0.0393     -0.0368      0.0081      0.0019
        13         0.2890     -0.1301     -0.0342      0.1016      0.0240
        14        -0.5662      0.3443     -0.0217      0.4396      0.1053
        15        -0.7442      0.5351      0.0638      0.8442      0.2093
 Ground to excited state transition velocity dipole moments (Au):
       state          X           Y           Z        Dip. S.      Osc.
         1        -0.1692     -0.0726      0.0081      0.0340      0.1154
         2        -0.0033     -0.0043     -0.1542      0.0238      0.0697
         3        -0.0060      0.0012     -0.1273      0.0162      0.0434
         4         0.0225      0.0086      0.0302      0.0015      0.0038
         5        -0.0037     -0.0037      0.0234      0.0006      0.0014
         6         0.0008     -0.0033      0.0302      0.0009      0.0022
         7         0.0017     -0.0159     -0.0119      0.0004      0.0009
         8        -0.0085      0.0042      0.0305      0.0010      0.0022
         9         0.0112      0.0101      0.0038      0.0002      0.0005
        10        -0.0749      0.2044      0.0004      0.0474      0.0985
        11         0.0012     -0.0085      0.0033      0.0001      0.0002
        12         0.0032     -0.0392      0.0057      0.0016      0.0030
        13        -0.0370      0.0038     -0.0880      0.0091      0.0172
        14         0.0683     -0.0162     -0.0323      0.0060      0.0111
        15         0.0649     -0.0892      0.0035      0.0122      0.0218
 Ground to excited state transition magnetic dipole moments (Au):
       state          X           Y           Z
         1         0.0157     -0.0314      0.5515
         2        -0.1726      0.1173      0.0031
         3        -0.1310     -0.3272      0.0104
         4         0.2012     -0.5839     -0.0699
         5        -0.2536      0.8102      0.0343
         6         0.6825      0.2287      0.0025
         7         0.7303      0.0333      0.0130
         8         0.1617     -0.3284      0.0150
         9        -0.0029      0.0408     -0.0501
        10         0.0996      0.0416     -0.0650
        11        -0.0656      0.1021      0.0100
        12         0.0072     -0.0174     -0.0123
        13         0.0407      0.3796      0.0518
        14         0.0203      0.1521     -0.1130
        15        -0.0214     -0.0085     -0.0480
 Ground to excited state transition velocity quadrupole moments (Au):
       state          XX          YY          ZZ          XY          XZ          YZ
         1         0.1743     -0.1919      0.0018     -0.2339     -0.0191      0.0074
         2         0.0307      0.0001     -0.0012     -0.0107     -0.0796     -0.1569
         3         0.0206      0.0127     -0.0001      0.0020      0.1561     -0.0519
         4        -0.0385      0.0156      0.0032      0.0280     -0.3017     -0.0736
         5         0.0033     -0.0071      0.0035     -0.0098     -0.2667     -0.0982
         6        -0.0089     -0.0007      0.0066      0.0022     -0.0299      0.0891
         7         0.0490      0.0099      0.0041      0.0133      0.0914     -0.1580
         8        -0.0028     -0.0115      0.0034     -0.0219      0.2489      0.1990
         9        -0.0327      0.0132     -0.0005      0.0210     -0.2494     -0.0492
        10        -0.1624      0.2054     -0.0230     -0.2445      0.0162     -0.0236
        11         0.0019     -0.0269      0.0186      0.0101     -0.0554      0.0304
        12        -0.0456     -0.0886     -0.0143      0.0885      0.0307      0.0028
        13        -0.0579     -0.0868     -0.0151     -0.1212     -0.2843      0.0556
        14         0.1987      0.2010      0.0072      0.1965     -0.1268      0.0223
        15        -0.1686     -0.1955     -0.1220      0.1200      0.0365     -0.0052
 <0|del|b> * <b|rxdel|0> + <0|del|b> * <b|delr+rdel|0>
 Rotatory Strengths (R) in cgs (10**-40 erg-esu-cm/Gauss)
       state          XX          YY          ZZ    R(velocity)    E-M Angle
         1         6.2598      4.4716      4.0815      4.9376       87.69
         2         0.5019     -1.6181     -0.1726     -0.4296       90.74
         3        -3.0696      0.0384      0.3810     -0.8834       91.19
         4        -4.9978     -0.1223     -1.9480     -2.3560       96.24
         5        -4.3629      3.0368     -1.8263     -1.0508       93.43
         6        -0.9026      0.7619     -0.2522     -0.1310       90.41
         7         0.7377      1.1527     -0.6132      0.4257       87.92
         8        -3.0510     -2.2610     -0.0193     -1.7771      101.37
         9         3.2248     -0.9763     -1.8157      0.1443       79.16
        10         5.5842     -6.1895      2.8483      0.7477       87.87
        11        -1.3642     -0.0445     -0.5460     -0.6516      144.56
        12         2.3594     -0.5521     -0.5174      0.4300       44.83
        13         8.5718    -18.7261      0.9086     -3.0819       97.24
        14        -7.1035     12.6869     -0.5364      1.6823       79.97
        15         4.0574     -2.1965     -3.3674     -0.5022       97.75
 1/2[<0|r|b>*<b|rxdel|0> + (<0|rxdel|b>*<b|r|0>)*]
 Rotatory Strengths (R) in cgs (10**-40 erg-esu-cm/Gauss)
       state          XX          YY          ZZ     R(length)
         1       -16.5929     12.4629      8.4261      1.4320
         2         4.9057     -0.8610     -0.3595      1.2284
         3         0.9970     -1.1066     -1.1409     -0.4168
         4        12.6443    -15.9571     -0.7817     -1.3648
         5         4.2406     -8.1644     -0.1565     -1.3601
         6        11.4637      0.2741      0.4866      4.0748
         7        -4.3892     -1.7694      0.5489     -1.8699
         8        -0.9897     -9.3590     -1.7003     -4.0163
         9        -0.0730      0.8974      2.6593      1.1612
        10       -13.3238     17.8082      0.4735      1.6526
        11        -0.3605     -1.5136     -4.4822     -2.1188
        12         0.3657      0.4819     -0.3204      0.1758
        13        -8.3123     34.9217      1.2526      9.2873
        14         8.1452    -37.0362     -1.7365    -10.2092
        15       -11.2507      3.2315      2.1618     -1.9525
  1/2[<0|del|b>*<b|r|0> + (<0|r|b>*<b|del|0>)*] (Au)
       state          X           Y           Z        Dip. S.   Osc.(frdel)
         1        -0.2531     -0.0408     -0.0002      0.2941      0.1961
         2        -0.0001      0.0000     -0.0254      0.0256      0.0171
         3        -0.0001      0.0000     -0.0197      0.0198      0.0132
         4        -0.0020     -0.0003     -0.0005      0.0028      0.0019
         5        -0.0001     -0.0001      0.0002      0.0000      0.0000
         6         0.0000      0.0000     -0.0085      0.0085      0.0057
         7         0.0000     -0.0012      0.0007      0.0005      0.0003
         8        -0.0001     -0.0002      0.0049     -0.0047     -0.0031
         9        -0.0004     -0.0003      0.0003      0.0004      0.0003
        10        -0.0142     -0.1237      0.0000      0.1379      0.0919
        11         0.0000     -0.0002      0.0021     -0.0019     -0.0013
        12        -0.0002     -0.0015     -0.0002      0.0020      0.0013
        13        -0.0107     -0.0005      0.0030      0.0082      0.0054
        14        -0.0387     -0.0056      0.0007      0.0436      0.0291
        15        -0.0483     -0.0477      0.0002      0.0958      0.0639

 Excitation energies and oscillator strengths:
 
 Excited State   1:      Singlet-A      5.3368 eV  232.32 nm  f=0.3341  <S**2>=0.000
      13 -> 14         0.69354
 This state for optimization and/or second-order correction.
 Total Energy, E(CIS) =   1.87748126612    
 Copying the excited state density for this state as the 1-particle RhoCI density.
 
 Excited State   2:      Singlet-A      6.1970 eV  200.07 nm  f=0.0044  <S**2>=0.000
      13 -> 15         0.64089
      13 -> 16         0.10041
      13 -> 17        -0.22328
 
 Excited State   3:      Singlet-A      6.7871 eV  182.68 nm  f=0.0040  <S**2>=0.000
      13 -> 15        -0.10528
      13 -> 16         0.59443
      13 -> 17        -0.15797
      13 -> 20         0.21247
      13 -> 21         0.17649
 
 Excited State   4:      Singlet-A      7.1123 eV  174.32 nm  f=0.0017  <S**2>=0.000
      12 -> 14         0.64529
      13 -> 16        -0.13695
      13 -> 18         0.11423
      13 -> 20         0.18757
 
 Excited State   5:      Singlet-A      7.4433 eV  166.57 nm  f=0.0001  <S**2>=0.000
      12 -> 14        -0.25095
      13 -> 16        -0.17927
      13 -> 17        -0.10051
      13 -> 18         0.16081
      13 -> 20         0.59211
 
 Excited State   6:      Singlet-A      7.6011 eV  163.11 nm  f=0.0148  <S**2>=0.000
      10 -> 14         0.10609
      13 -> 15         0.20150
      13 -> 16         0.12647
      13 -> 17         0.61717
      13 -> 21         0.11784
 
 Excited State   7:      Singlet-A      7.9633 eV  155.70 nm  f=0.0018  <S**2>=0.000
      10 -> 14         0.56246
      11 -> 14        -0.37185
      13 -> 17        -0.10606
      13 -> 19         0.11676
 
 Excited State   8:      Singlet-A      8.3321 eV  148.80 nm  f=0.0056  <S**2>=0.000
      10 -> 14        -0.10304
      13 -> 16         0.12548
      13 -> 18         0.63888
      13 -> 19         0.14822
      13 -> 20        -0.11932
 
 Excited State   9:      Singlet-A      8.4541 eV  146.66 nm  f=0.0016  <S**2>=0.000
      13 -> 17         0.11304
      13 -> 18        -0.17825
      13 -> 19         0.56706
      13 -> 20         0.15650
      13 -> 21        -0.29004
 
 Excited State  10:      Singlet-A      8.7329 eV  141.97 nm  f=0.0860  <S**2>=0.000
      10 -> 14         0.37526
      11 -> 14         0.55418
 
 Excited State  11:      Singlet-A      8.9646 eV  138.30 nm  f=0.0890  <S**2>=0.000
      13 -> 19         0.34109
      13 -> 21         0.58695
 
 Excited State  12:      Singlet-A      9.4503 eV  131.20 nm  f=0.0019  <S**2>=0.000
       8 -> 15        -0.11627
      10 -> 16         0.14939
      10 -> 17        -0.25906
      11 -> 16        -0.10449
      11 -> 17         0.14547
      12 -> 15        -0.28640
      12 -> 16         0.18593
      12 -> 18        -0.12365
      12 -> 20         0.35930
 
 Excited State  13:      Singlet-A      9.6521 eV  128.45 nm  f=0.0240  <S**2>=0.000
       7 -> 15        -0.13109
      10 -> 15         0.12442
      11 -> 15         0.59176
      11 -> 17        -0.13121
      12 -> 15        -0.20022
      13 -> 15        -0.13199
 
 Excited State  14:      Singlet-A      9.7810 eV  126.76 nm  f=0.1053  <S**2>=0.000
      10 -> 15         0.32160
      10 -> 17        -0.17520
      11 -> 14        -0.10710
      11 -> 15         0.11441
      12 -> 15         0.47949
      12 -> 16         0.12074
      12 -> 17        -0.11043
      12 -> 19         0.16722
 
 Excited State  15:      Singlet-A     10.1213 eV  122.50 nm  f=0.2093  <S**2>=0.000
       9 -> 15        -0.14587
      10 -> 15        -0.18660
      10 -> 19        -0.31139
      11 -> 19         0.14813
      12 -> 17         0.38876
      12 -> 18        -0.17048
      12 -> 19         0.22842
      12 -> 20        -0.14290
 SavETr:  write IOETrn=   770 NScale= 10 NData=  16 NLR=1 NState=   15 LETran=     280.
 The selected state is a singlet
 CISAX will form     1 AO SS matrices at one time.
 NMat=     1 NSing=     1 JSym2X= 0.
 Leave Link  914 at Tue Dec 15 17:06:57 2015, MaxMem=    33554432 cpu:         0.1
 (Enter /home/Applications/g09/g09/l1002.exe)
 Minotr:  Closed shell wavefunction.
          Computing CIS/TD-HF/TD-KS derivatives.
          Using Z-Vector for PSCF gradient.
          Skipping F1 and S1 gradient terms here.
          IDoAtm=111111111
          Direct CPHF calculation.
          Differentiating once with respect to electric field.
                with respect to dipole field.
          Differentiating once with respect to nuclear coordinates.
          Electric field/nuclear overlap derivatives assumed to be zero.
          Requested convergence is 1.0D-10 RMS, and 1.0D-09 maximum.
          NewPWx=T KeepS1=F KeepF1=F KeepIn=T MapXYZ=F SortEE=F KeepMc=T.
          MDV=      33495423 using IRadAn=       0.
 Keep J ints in memory in canonical form, NReq=871704.
 FoFCou: FMM=F IPFlag=           0 FMFlag=           0 FMFlg1=           0
         NFxFlg=           0 DoJE=F BraDBF=F KetDBF=F FulRan=T
         wScrn=  0.000000 ICntrl=     600 IOpCl=  2 I1Cent=           0 NGrid=           0
         NMat0=    1 NMatS0=     54 NMatT0=    0 NMatD0=    1 NMtDS0=    0 NMtDT0=    0
 Symmetry not used in FoFCou.
          Solving linear equations separately, MaxMat=       0.
          There are     1 degrees of freedom in the 1st order CPHF.  IDoFFX=0 NUNeed=     1.
 LinEq1:  Iter=  0 NonCon=     1 RMS=8.92D-03 Max=5.18D-02 NDo=     1
 AX will form     1 AO Fock derivatives at one time.
 LinEq1:  Iter=  1 NonCon=     1 RMS=9.14D-04 Max=3.03D-03 NDo=     1
 LinEq1:  Iter=  2 NonCon=     1 RMS=1.66D-04 Max=1.51D-03 NDo=     1
 LinEq1:  Iter=  3 NonCon=     1 RMS=2.13D-05 Max=9.03D-05 NDo=     1
 LinEq1:  Iter=  4 NonCon=     1 RMS=3.34D-06 Max=1.04D-05 NDo=     1
 LinEq1:  Iter=  5 NonCon=     1 RMS=4.06D-07 Max=1.92D-06 NDo=     1
 LinEq1:  Iter=  6 NonCon=     1 RMS=5.09D-08 Max=2.19D-07 NDo=     1
 LinEq1:  Iter=  7 NonCon=     1 RMS=5.07D-09 Max=1.69D-08 NDo=     1
 LinEq1:  Iter=  8 NonCon=     1 RMS=5.02D-10 Max=1.60D-09 NDo=     1
 LinEq1:  Iter=  9 NonCon=     0 RMS=6.32D-11 Max=2.22D-10 NDo=     1
 Linear equations converged to 1.000D-10 1.000D-09 after     9 iterations.
 End of Minotr F.D. properties file   721 does not exist.
 End of Minotr F.D. properties file   722 does not exist.
 End of Minotr F.D. properties file   788 does not exist.
 Leave Link 1002 at Tue Dec 15 17:06:57 2015, MaxMem=    33554432 cpu:         0.0
 (Enter /home/Applications/g09/g09/l601.exe)
 Copying SCF densities to generalized density rwf, IOpCl= 0 IROHF=0.

 **********************************************************************

            Population analysis using the SCF density.

 **********************************************************************

 Orbital symmetries:
       Occupied  (A) (A) (A) (A) (A) (A) (A) (A) (A) (A) (A) (A)
                 (A)
       Virtual   (A) (A) (A) (A) (A) (A) (A) (A) (A) (A) (A)
 The electronic state is 1-A.
 Alpha  occ. eigenvalues --   -1.90974  -1.21415  -0.99434  -0.82112  -0.79835
 Alpha  occ. eigenvalues --   -0.68349  -0.63100  -0.55564  -0.51915  -0.43490
 Alpha  occ. eigenvalues --   -0.42575  -0.40870  -0.27990
 Alpha virt. eigenvalues --    0.12358   0.17106   0.20729   0.23926   0.26495
 Alpha virt. eigenvalues --    0.27503   0.28477   0.29010   0.35909   0.44367
 Alpha virt. eigenvalues --    0.49878
     Molecular Orbital Coefficients:
                           1         2         3         4         5
                           O         O         O         O         O
     Eigenvalues --    -1.90974  -1.21415  -0.99434  -0.82112  -0.79835
   1 1   C  1S          0.09359   0.50517  -0.23799  -0.15763  -0.33378
   2        1PX         0.07850   0.16845   0.15797   0.25444   0.05245
   3        1PY        -0.08424  -0.06480   0.17225   0.19260  -0.30048
   4        1PZ         0.00069   0.00236  -0.00309  -0.00257  -0.00459
   5 2   C  1S          0.21766   0.27023  -0.50522  -0.13896   0.43377
   6        1PX         0.22786   0.05173   0.00527   0.27045   0.10046
   7        1PY        -0.03522   0.27658   0.03595  -0.25050  -0.35080
   8        1PZ         0.00377   0.00254  -0.01075  -0.00285   0.00853
   9 3   O  1S          0.83736  -0.30427  -0.05965   0.16991  -0.20422
  10        1PX        -0.00110  -0.05475   0.22046  -0.21128  -0.17819
  11        1PY         0.05631   0.14678   0.08730  -0.12867   0.07441
  12        1PZ        -0.00028  -0.00106  -0.00037  -0.00185  -0.00289
  13 4   C  1S          0.26792   0.21043   0.55548  -0.34593   0.24738
  14        1PX        -0.19899  -0.18287   0.03301  -0.08837   0.08753
  15        1PY        -0.18261   0.23614  -0.01992   0.47062   0.21012
  16        1PZ        -0.00026  -0.00235  -0.00112  -0.00377  -0.00473
  17 5   C  1S          0.09598   0.48254   0.26940   0.34913  -0.01870
  18        1PX        -0.02172  -0.13219   0.21516   0.03655   0.32092
  19        1PY        -0.11837  -0.13487  -0.07677   0.18342  -0.17511
  20        1PZ         0.00145   0.00584   0.00353   0.00480  -0.00160
  21 6   H  1S          0.00713   0.13512   0.11629   0.23595  -0.03070
  22 7   H  1S          0.05306   0.01769   0.24561  -0.20959   0.14533
  23 8   H  1S          0.04192   0.04505  -0.22681  -0.09987   0.25246
  24 9   H  1S          0.00717   0.14239  -0.11023  -0.11226  -0.24962
                           6         7         8         9        10
                           O         O         O         O         O
     Eigenvalues --    -0.68349  -0.63100  -0.55564  -0.51915  -0.43490
   1 1   C  1S          0.15987  -0.02966   0.11993  -0.04183   0.09867
   2        1PX        -0.20598   0.02280   0.01058  -0.24945  -0.18948
   3        1PY         0.16631  -0.01063  -0.11133  -0.29044   0.39098
   4        1PZ         0.04987   0.38159   0.01274   0.00525   0.14944
   5 2   C  1S          0.11201  -0.01994   0.01177  -0.13608  -0.09989
   6        1PX        -0.35052   0.02994   0.51668  -0.31790   0.09888
   7        1PY        -0.14559   0.00201   0.27951   0.40884  -0.32332
   8        1PZ         0.06233   0.50234   0.00880   0.00484   0.29282
   9 3   O  1S          0.19251  -0.02872   0.03873   0.24054  -0.01453
  10        1PX         0.03665  -0.00244  -0.15752   0.05088  -0.08643
  11        1PY        -0.22214   0.03472  -0.06897  -0.09442  -0.00595
  12        1PZ         0.02864   0.24581   0.00861   0.00605  -0.01801
  13 4   C  1S          0.07358  -0.00099  -0.05880  -0.06251   0.11194
  14        1PX         0.46837  -0.08113   0.55907  -0.11237  -0.05968
  15        1PY         0.12404  -0.02016   0.15427   0.50681   0.23783
  16        1PZ         0.06295   0.60612   0.03655   0.00034  -0.29632
  17 5   C  1S          0.19563  -0.02421  -0.15000  -0.04045  -0.09497
  18        1PX         0.11972  -0.01012  -0.02353   0.36679  -0.03904
  19        1PY         0.28021  -0.02467  -0.06003  -0.23983  -0.38673
  20        1PZ         0.04940   0.39811   0.01587   0.00329  -0.06117
  21 6   H  1S          0.26727  -0.01597  -0.11318  -0.08401  -0.33247
  22 7   H  1S          0.28967  -0.04379   0.31097  -0.13379   0.00657
  23 8   H  1S          0.25766  -0.01331  -0.34477  -0.05840   0.02728
  24 9   H  1S          0.23106  -0.01661   0.00785  -0.00563   0.35421
                          11        12        13        14        15
                           O         O         O         V         V
     Eigenvalues --    -0.42575  -0.40870  -0.27990   0.12358   0.17106
   1 1   C  1S         -0.05498   0.04408  -0.00178  -0.00923  -0.10303
   2        1PX         0.07822   0.49628   0.02882   0.02587  -0.07214
   3        1PY        -0.19132  -0.05693  -0.01892  -0.02824   0.03706
   4        1PZ         0.26593  -0.00499   0.51927   0.69698   0.01094
   5 2   C  1S          0.03968  -0.10746  -0.00026   0.00398  -0.03431
   6        1PX        -0.01424  -0.35781  -0.01729  -0.00748  -0.03386
   7        1PY         0.17580  -0.03939  -0.00854  -0.00614   0.07168
   8        1PZ         0.60673   0.05619  -0.42697  -0.24573  -0.00544
   9 3   O  1S         -0.00086   0.11399   0.00303  -0.00056   0.01320
  10        1PX         0.03721   0.07102   0.00557   0.00430  -0.06632
  11        1PY         0.01335  -0.15906  -0.00706  -0.00401   0.12948
  12        1PZ        -0.02730   0.01345  -0.21283  -0.00361  -0.00299
  13 4   C  1S         -0.05438  -0.10300  -0.00840  -0.00625  -0.19103
  14        1PX         0.02864   0.23465   0.01078   0.00331  -0.45877
  15        1PY        -0.13065   0.09356  -0.00274  -0.01062   0.19838
  16        1PZ        -0.58911  -0.00881  -0.30573   0.18942  -0.00522
  17 5   C  1S          0.04330   0.07205  -0.00947   0.02356  -0.13235
  18        1PX         0.04114  -0.39912  -0.01710   0.01427  -0.17966
  19        1PY         0.20571  -0.30095  -0.02049   0.01501   0.17169
  20        1PZ        -0.10487  -0.02160   0.63765  -0.64361  -0.00775
  21 6   H  1S          0.17519  -0.29129   0.00236  -0.01664   0.00565
  22 7   H  1S         -0.00817   0.11937   0.00186  -0.00366   0.76329
  23 8   H  1S         -0.02346   0.17321  -0.00002  -0.01022   0.06448
  24 9   H  1S         -0.15598  -0.31870  -0.00574   0.02153  -0.03683
                          16        17        18        19        20
                           V         V         V         V         V
     Eigenvalues --     0.20729   0.23926   0.26495   0.27503   0.28477
   1 1   C  1S         -0.09273  -0.08781   0.28362  -0.36207   0.46247
   2        1PX         0.10659   0.16050  -0.10941   0.23779   0.48478
   3        1PY         0.29903  -0.28796  -0.11989  -0.30356  -0.11092
   4        1PZ         0.01411  -0.02733   0.01862  -0.02384  -0.01743
   5 2   C  1S         -0.14006  -0.24110  -0.25691  -0.02879  -0.13899
   6        1PX         0.28073   0.11281   0.04938  -0.07488  -0.03605
   7        1PY         0.42709  -0.04979  -0.17238   0.02626  -0.19401
   8        1PZ        -0.02094   0.00131  -0.00439   0.00360   0.00371
   9 3   O  1S          0.01844  -0.03413   0.00333   0.03220  -0.00767
  10        1PX        -0.01712   0.01793  -0.05999  -0.05856   0.01308
  11        1PY         0.11661   0.01955   0.02868   0.07556  -0.01867
  12        1PZ        -0.01049   0.00169  -0.00188   0.00111   0.00301
  13 4   C  1S          0.06946  -0.39561   0.15361   0.28217   0.04275
  14        1PX         0.07934   0.02701   0.00745   0.05045  -0.11665
  15        1PY         0.07322  -0.28368   0.15060   0.23430   0.05289
  16        1PZ         0.00447   0.00489   0.00412  -0.00533  -0.00417
  17 5   C  1S         -0.13753   0.16279  -0.42940  -0.16955  -0.33284
  18        1PX         0.07991   0.20488  -0.22617  -0.38157   0.46121
  19        1PY         0.10618  -0.40904  -0.22501   0.23576   0.30288
  20        1PZ        -0.00486   0.00298  -0.03608   0.00240   0.00928
  21 6   H  1S         -0.06495   0.23491   0.62516   0.03452  -0.17866
  22 7   H  1S         -0.11857   0.17471  -0.06771  -0.14006   0.04636
  23 8   H  1S          0.72194   0.23286   0.10416  -0.02610  -0.01734
  24 9   H  1S         -0.04724   0.44067  -0.22400   0.56019   0.10822
                          21        22        23        24
                           V         V         V         V
     Eigenvalues --     0.29010   0.35909   0.44367   0.49878
   1 1   C  1S         -0.16975   0.00077   0.06382   0.02381
   2        1PX         0.35951  -0.00347  -0.04089  -0.03382
   3        1PY         0.46659   0.00000   0.01859  -0.05172
   4        1PZ         0.00166   0.02966   0.00027  -0.00050
   5 2   C  1S          0.40935  -0.00253  -0.11745   0.12543
   6        1PX        -0.20522   0.00362  -0.22841   0.18886
   7        1PY         0.20850  -0.00097  -0.06852  -0.15920
   8        1PZ         0.00114  -0.20790  -0.00015   0.00248
   9 3   O  1S          0.02793  -0.00007   0.13282   0.02137
  10        1PX         0.04429  -0.01273  -0.30908   0.84820
  11        1PY         0.07433   0.01097   0.84657   0.30955
  12        1PZ         0.00709   0.94427  -0.01366   0.00755
  13 4   C  1S         -0.08797   0.00058  -0.12703  -0.16967
  14        1PX         0.01540   0.00344   0.23789   0.09566
  15        1PY         0.00678  -0.00283   0.00096   0.24554
  16        1PZ         0.00045  -0.25069   0.00309  -0.00166
  17 5   C  1S         -0.30095   0.00133   0.07532  -0.01766
  18        1PX         0.15618  -0.00149   0.04282  -0.05065
  19        1PY        -0.25671   0.00084   0.03470   0.03385
  20        1PZ        -0.01344   0.03202   0.00105  -0.00040
  21 6   H  1S          0.32714  -0.00103  -0.05636  -0.00797
  22 7   H  1S          0.01906  -0.00062  -0.04856  -0.02041
  23 8   H  1S         -0.23531   0.00589  -0.06045   0.01861
  24 9   H  1S          0.10452  -0.00243  -0.05071   0.00281
     Density Matrix:
                           1         2         3         4         5
   1 1   C  1S          1.02824
   2        1PX        -0.05167   1.04281
   3        1PY         0.12129  -0.07629   0.97187
   4        1PZ         0.00174   0.00259  -0.00111   1.02210
   5 2   C  1S          0.32612  -0.10115  -0.52689  -0.01170   1.27562
   6        1PX        -0.03364   0.12248   0.07708   0.00352   0.20882
   7        1PY         0.46848  -0.09281  -0.56667  -0.00763  -0.18725
   8        1PZ        -0.00703   0.00760   0.00096   0.35611  -0.00731
   9 3   O  1S          0.02017  -0.00597  -0.04184  -0.00090  -0.00599
  10        1PX        -0.01997  -0.00971   0.03658  -0.00155  -0.35300
  11        1PY         0.00981   0.01300  -0.08852   0.00137   0.12531
  12        1PZ        -0.00091  -0.00156   0.00283  -0.05031  -0.00849
  13 4   C  1S         -0.02400  -0.01570   0.03132  -0.00131   0.00744
  14        1PX         0.03549   0.01366  -0.00449   0.00244  -0.00266
  15        1PY         0.03025  -0.01334  -0.01334   0.00069  -0.06395
  16        1PZ         0.00199  -0.00753   0.00735  -0.24948   0.00190
  17 5   C  1S          0.29395   0.48749   0.18362  -0.02000  -0.02370
  18        1PX        -0.51059  -0.53688  -0.25183  -0.00122  -0.00634
  19        1PY        -0.09148  -0.13264   0.08718  -0.01904   0.03615
  20        1PZ        -0.00497   0.02418  -0.02382   0.89757   0.00037
  21 6   H  1S         -0.01567  -0.00666  -0.00001   0.00887   0.09006
  22 7   H  1S          0.07366   0.06731   0.00567  -0.00126   0.05157
  23 8   H  1S          0.05287  -0.00125  -0.07397  -0.00007   0.54004
  24 9   H  1S          0.53589  -0.63730   0.50103   0.03486   0.04560
                           6         7         8         9        10
   6        1PX         1.53590
   7        1PY        -0.10242   1.33676
   8        1PZ         0.00962   0.01540   1.79174
   9 3   O  1S          0.06624  -0.01120   0.00043   1.95667
  10        1PX        -0.44406   0.22266  -0.00926   0.05135   0.34135
  11        1PY         0.24620   0.06601   0.00723  -0.25400   0.02516
  12        1PZ        -0.00719   0.00939   0.39028   0.00360   0.00119
  13 4   C  1S          0.03734  -0.05144  -0.00096   0.00284   0.25874
  14        1PX        -0.00441   0.01203   0.00145  -0.06220  -0.06577
  15        1PY        -0.02930   0.01625  -0.00241  -0.05373  -0.33340
  16        1PZ         0.00140  -0.00095  -0.01092  -0.00004  -0.00405
  17 5   C  1S         -0.05755   0.01487   0.00521   0.02594   0.01224
  18        1PX        -0.00179   0.02372   0.00450   0.03102  -0.01394
  19        1PY         0.02159  -0.00571   0.00962  -0.04172   0.02043
  20        1PZ        -0.00862  -0.00562  -0.30366   0.00060   0.00328
  21 6   H  1S          0.02568   0.07557  -0.00603   0.00618   0.02363
  22 7   H  1S          0.06120  -0.00990   0.00093   0.01903   0.06811
  23 8   H  1S         -0.60038  -0.47652   0.02941   0.01670  -0.01304
  24 9   H  1S          0.05744  -0.02453  -0.00103   0.00741  -0.03201
                          11        12        13        14        15
  11        1PY         0.28843
  12        1PZ        -0.00013   0.21583
  13 4   C  1S          0.33202   0.00055   1.28886
  14        1PX        -0.37751  -0.00219  -0.09008   1.40058
  15        1PY        -0.25410   0.00489  -0.25722   0.12463   1.46796
  16        1PZ         0.00328   0.47501   0.00631  -0.00696   0.00930
  17 5   C  1S          0.02611   0.00080   0.31388  -0.18591   0.42213
  18        1PX         0.04353  -0.00024   0.34910  -0.05470   0.39693
  19        1PY        -0.10610   0.00405  -0.38729   0.19783  -0.40337
  20        1PZ        -0.00031  -0.06524  -0.00131  -0.00001   0.00113
  21 6   H  1S          0.00838  -0.00301   0.04111  -0.03330  -0.04581
  22 7   H  1S         -0.05805   0.00112   0.52626   0.76215  -0.09546
  23 8   H  1S         -0.07124   0.00550   0.04221  -0.03847  -0.02251
  24 9   H  1S          0.00437  -0.00360   0.09131  -0.05779   0.06281
                          16        17        18        19        20
  16        1PZ         1.80225
  17 5   C  1S         -0.01130   1.03207
  18        1PX        -0.00968  -0.02379   0.96179
  19        1PY         0.00660   0.13690   0.09131   1.05102
  20        1PZ         0.26022  -0.00638  -0.00375  -0.00453   1.16613
  21 6   H  1S         -0.00212   0.54273   0.29237   0.75023   0.03387
  22 7   H  1S          0.00807   0.05601   0.03759  -0.07186   0.00049
  23 8   H  1S         -0.00186   0.07749  -0.06357  -0.03285  -0.00512
  24 9   H  1S         -0.00470  -0.02694   0.01146   0.00904   0.00627
                          21        22        23        24
  21 6   H  1S          0.81217
  22 7   H  1S         -0.01360   0.68659
  23 8   H  1S         -0.00387   0.00360   0.69816
  24 9   H  1S         -0.00604  -0.00105  -0.00918   0.82509
    Full Mulliken population analysis:
                           1         2         3         4         5
   1 1   C  1S          1.02824
   2        1PX         0.00000   1.04281
   3        1PY         0.00000   0.00000   0.97187
   4        1PZ         0.00000   0.00000   0.00000   1.02210
   5 2   C  1S          0.00000   0.00000   0.00000   0.00000   1.27562
   6        1PX         0.00000   0.00000   0.00000   0.00000   0.00000
   7        1PY         0.00000   0.00000   0.00000   0.00000   0.00000
   8        1PZ         0.00000   0.00000   0.00000   0.00000   0.00000
   9 3   O  1S          0.00000   0.00000   0.00000   0.00000   0.00000
  10        1PX         0.00000   0.00000   0.00000   0.00000   0.00000
  11        1PY         0.00000   0.00000   0.00000   0.00000   0.00000
  12        1PZ         0.00000   0.00000   0.00000   0.00000   0.00000
  13 4   C  1S          0.00000   0.00000   0.00000   0.00000   0.00000
  14        1PX         0.00000   0.00000   0.00000   0.00000   0.00000
  15        1PY         0.00000   0.00000   0.00000   0.00000   0.00000
  16        1PZ         0.00000   0.00000   0.00000   0.00000   0.00000
  17 5   C  1S          0.00000   0.00000   0.00000   0.00000   0.00000
  18        1PX         0.00000   0.00000   0.00000   0.00000   0.00000
  19        1PY         0.00000   0.00000   0.00000   0.00000   0.00000
  20        1PZ         0.00000   0.00000   0.00000   0.00000   0.00000
  21 6   H  1S          0.00000   0.00000   0.00000   0.00000   0.00000
  22 7   H  1S          0.00000   0.00000   0.00000   0.00000   0.00000
  23 8   H  1S          0.00000   0.00000   0.00000   0.00000   0.00000
  24 9   H  1S          0.00000   0.00000   0.00000   0.00000   0.00000
                           6         7         8         9        10
   6        1PX         1.53590
   7        1PY         0.00000   1.33676
   8        1PZ         0.00000   0.00000   1.79174
   9 3   O  1S          0.00000   0.00000   0.00000   1.95667
  10        1PX         0.00000   0.00000   0.00000   0.00000   0.34135
  11        1PY         0.00000   0.00000   0.00000   0.00000   0.00000
  12        1PZ         0.00000   0.00000   0.00000   0.00000   0.00000
  13 4   C  1S          0.00000   0.00000   0.00000   0.00000   0.00000
  14        1PX         0.00000   0.00000   0.00000   0.00000   0.00000
  15        1PY         0.00000   0.00000   0.00000   0.00000   0.00000
  16        1PZ         0.00000   0.00000   0.00000   0.00000   0.00000
  17 5   C  1S          0.00000   0.00000   0.00000   0.00000   0.00000
  18        1PX         0.00000   0.00000   0.00000   0.00000   0.00000
  19        1PY         0.00000   0.00000   0.00000   0.00000   0.00000
  20        1PZ         0.00000   0.00000   0.00000   0.00000   0.00000
  21 6   H  1S          0.00000   0.00000   0.00000   0.00000   0.00000
  22 7   H  1S          0.00000   0.00000   0.00000   0.00000   0.00000
  23 8   H  1S          0.00000   0.00000   0.00000   0.00000   0.00000
  24 9   H  1S          0.00000   0.00000   0.00000   0.00000   0.00000
                          11        12        13        14        15
  11        1PY         0.28843
  12        1PZ         0.00000   0.21583
  13 4   C  1S          0.00000   0.00000   1.28886
  14        1PX         0.00000   0.00000   0.00000   1.40058
  15        1PY         0.00000   0.00000   0.00000   0.00000   1.46796
  16        1PZ         0.00000   0.00000   0.00000   0.00000   0.00000
  17 5   C  1S          0.00000   0.00000   0.00000   0.00000   0.00000
  18        1PX         0.00000   0.00000   0.00000   0.00000   0.00000
  19        1PY         0.00000   0.00000   0.00000   0.00000   0.00000
  20        1PZ         0.00000   0.00000   0.00000   0.00000   0.00000
  21 6   H  1S          0.00000   0.00000   0.00000   0.00000   0.00000
  22 7   H  1S          0.00000   0.00000   0.00000   0.00000   0.00000
  23 8   H  1S          0.00000   0.00000   0.00000   0.00000   0.00000
  24 9   H  1S          0.00000   0.00000   0.00000   0.00000   0.00000
                          16        17        18        19        20
  16        1PZ         1.80225
  17 5   C  1S          0.00000   1.03207
  18        1PX         0.00000   0.00000   0.96179
  19        1PY         0.00000   0.00000   0.00000   1.05102
  20        1PZ         0.00000   0.00000   0.00000   0.00000   1.16613
  21 6   H  1S          0.00000   0.00000   0.00000   0.00000   0.00000
  22 7   H  1S          0.00000   0.00000   0.00000   0.00000   0.00000
  23 8   H  1S          0.00000   0.00000   0.00000   0.00000   0.00000
  24 9   H  1S          0.00000   0.00000   0.00000   0.00000   0.00000
                          21        22        23        24
  21 6   H  1S          0.81217
  22 7   H  1S          0.00000   0.68659
  23 8   H  1S          0.00000   0.00000   0.69816
  24 9   H  1S          0.00000   0.00000   0.00000   0.82509
     Gross orbital populations:
                           1
   1 1   C  1S          1.02824
   2        1PX         1.04281
   3        1PY         0.97187
   4        1PZ         1.02210
   5 2   C  1S          1.27562
   6        1PX         1.53590
   7        1PY         1.33676
   8        1PZ         1.79174
   9 3   O  1S          1.95667
  10        1PX         0.34135
  11        1PY         0.28843
  12        1PZ         0.21583
  13 4   C  1S          1.28886
  14        1PX         1.40058
  15        1PY         1.46796
  16        1PZ         1.80225
  17 5   C  1S          1.03207
  18        1PX         0.96179
  19        1PY         1.05102
  20        1PZ         1.16613
  21 6   H  1S          0.81217
  22 7   H  1S          0.68659
  23 8   H  1S          0.69816
  24 9   H  1S          0.82509
          Condensed to atoms (all electrons):
               1          2          3          4          5          6
     1  C    4.065021   0.000000   0.000000   0.000000   0.000000   0.000000
     2  C    0.000000   5.940020   0.000000   0.000000   0.000000   0.000000
     3  O    0.000000   0.000000   2.802282   0.000000   0.000000   0.000000
     4  C    0.000000   0.000000   0.000000   5.959645   0.000000   0.000000
     5  C    0.000000   0.000000   0.000000   0.000000   4.211019   0.000000
     6  H    0.000000   0.000000   0.000000   0.000000   0.000000   0.812173
     7  H    0.000000   0.000000   0.000000   0.000000   0.000000   0.000000
     8  H    0.000000   0.000000   0.000000   0.000000   0.000000   0.000000
     9  H    0.000000   0.000000   0.000000   0.000000   0.000000   0.000000
               7          8          9
     1  C    0.000000   0.000000   0.000000
     2  C    0.000000   0.000000   0.000000
     3  O    0.000000   0.000000   0.000000
     4  C    0.000000   0.000000   0.000000
     5  C    0.000000   0.000000   0.000000
     6  H    0.000000   0.000000   0.000000
     7  H    0.686594   0.000000   0.000000
     8  H    0.000000   0.698157   0.000000
     9  H    0.000000   0.000000   0.825090
 Mulliken charges:
               1
     1  C   -0.065021
     2  C   -1.940020
     3  O    3.197718
     4  C   -1.959645
     5  C   -0.211019
     6  H    0.187827
     7  H    0.313406
     8  H    0.301843
     9  H    0.174910
 Sum of Mulliken charges =   0.00000
 Mulliken charges with hydrogens summed into heavy atoms:
               1
     1  C    0.109889
     2  C   -1.638178
     3  O    3.197718
     4  C   -1.646239
     5  C   -0.023192
 Charge=              0.0000 electrons
 Dipole moment (field-independent basis, Debye):
    X=              3.0833    Y=             -9.5748    Z=              0.4032  Tot=             10.0671
 N-N= 1.035749573543D+02 E-N=-1.687405611809D+02  KE=-1.569413439247D+01
 Orbital energies and kinetic energies (alpha):
                                 1                 2
   1         O                -1.909742         -1.370374
   2         O                -1.214155         -1.086680
   3         O                -0.994339         -0.910220
   4         O                -0.821124         -0.650933
   5         O                -0.798353         -0.687162
   6         O                -0.683487         -0.576357
   7         O                -0.631005         -0.507608
   8         O                -0.555643         -0.407786
   9         O                -0.519154         -0.319501
  10         O                -0.434900         -0.401517
  11         O                -0.425748         -0.335903
  12         O                -0.408702         -0.338741
  13         O                -0.279903         -0.254286
  14         V                 0.123585         -0.163005
  15         V                 0.171061         -0.200720
  16         V                 0.207294         -0.187032
  17         V                 0.239264         -0.170737
  18         V                 0.264952         -0.212461
  19         V                 0.275026         -0.153251
  20         V                 0.284774         -0.099526
  21         V                 0.290099         -0.117616
  22         V                 0.359088          0.490227
  23         V                 0.443673          0.514692
  24         V                 0.498776          0.588254
 Total kinetic energy from orbitals=-1.569413439247D+01
 Leave Link  601 at Tue Dec 15 17:06:57 2015, MaxMem=    33554432 cpu:         0.0
 (Enter /home/Applications/g09/g09/l701.exe)
 Compute integral first derivatives.
 ... and contract with generalized density number  6.
 Leave Link  701 at Tue Dec 15 17:06:57 2015, MaxMem=    33554432 cpu:         0.0
 (Enter /home/Applications/g09/g09/l702.exe)
 L702 exits ... SP integral derivatives will be done elsewhere.
 Leave Link  702 at Tue Dec 15 17:06:57 2015, MaxMem=    33554432 cpu:         0.0
 (Enter /home/Applications/g09/g09/l703.exe)
 Compute integral first derivatives, UseDBF=F ICtDFT=           0.
 Integral derivatives from FoFJK, PRISM(SPDF).
 Calling FoFJK, ICntrl=  10005127 FMM=F ISym2X=0 I1Cent= 0 IOpClX= 0 NMat=1 NMatS=1 NMatT=0.
 FoFJK:  IHMeth= 8 ICntrl=10005127 DoSepK=F KAlg= 0 I1Cent=   0 FoldK=F
 IRaf=         0 NMat=   1 IRICut=       1 DoRegI=T DoRafI=F ISym2E= 0.
 FoFCou: FMM=F IPFlag=           0 FMFlag=      100000 FMFlg1=         800
         NFxFlg=           0 DoJE=F BraDBF=F KetDBF=F FulRan=T
         wScrn=  0.000000 ICntrl=10005127 IOpCl=  0 I1Cent=           0 NGrid=           0
         NMat0=    1 NMatS0=      1 NMatT0=    0 NMatD0=    1 NMtDS0=    0 NMtDT0=    0
 Symmetry not used in FoFCou.
 Leave Link  703 at Tue Dec 15 17:06:57 2015, MaxMem=    33554432 cpu:         0.0
 (Enter /home/Applications/g09/g09/l716.exe)
 Dipole        = 1.32574079D+00-4.15876430D+00 1.77134500D-01
 ***** Axes restored to original set *****
 -------------------------------------------------------------------
 Center     Atomic                   Forces (Hartrees/Bohr)
 Number     Number              X              Y              Z
 -------------------------------------------------------------------
      1        6           0.210521343   -0.066516960    0.005645989
      2        6          -0.305165244   -0.001225625   -0.004679489
      3        8           0.105777713   -0.082453005    0.006733635
      4        6          -0.241239877    0.083349049   -0.006714187
      5        6           0.177315062    0.073035252    0.003027551
      6        1           0.032355358    0.026039435    0.000139026
      7        1           0.001565243    0.064696566   -0.000889879
      8        1          -0.014879187   -0.077191512   -0.001368362
      9        1           0.033749588   -0.019733199   -0.001894283
 -------------------------------------------------------------------
 Cartesian Forces:  Max     0.305165244 RMS     0.101024020
 Z-matrix is all fixed cartesians, so copy forces.
 Force constants in Cartesian coordinates: 
                1             2             3             4             5 
      1  0.907084D+00
      2  0.104163D-01  0.797763D+00
      3 -0.112428D-01  0.923179D-02  0.203048D+00
      4 -0.532012D+00 -0.125342D+00  0.159250D-02  0.894200D+00
      5 -0.103176D+00 -0.225178D+00 -0.361558D-03  0.955907D-01  0.850508D+00
      6 -0.343263D-02 -0.200222D-02 -0.102138D+00  0.171776D-01  0.912373D-02
      7 -0.936375D-02  0.285299D-01 -0.100388D-02 -0.228048D+00  0.112074D+00
      8 -0.642802D-02  0.195934D-01 -0.530831D-03  0.156454D+00 -0.304809D+00
      9 -0.116962D-03  0.593680D-03  0.520458D-02 -0.974680D-02  0.771177D-02
     10  0.106307D-01 -0.140413D-04  0.348393D-03  0.247481D-01  0.169886D-01
     11  0.339925D-01 -0.493102D-04  0.119443D-02 -0.177717D-01 -0.121993D-01
     12 -0.949636D-04 -0.486537D-04  0.706697D-03  0.112144D-02  0.783373D-03
     13 -0.168731D+00  0.124263D-01  0.189120D-02  0.114309D-01 -0.348250D-01
     14 -0.114181D-01 -0.417740D+00 -0.286523D-02 -0.153553D-04  0.507805D-04
     15  0.213272D-02  0.227900D-02 -0.807032D-01 -0.116691D-03  0.566999D-03
     16  0.163768D-01 -0.243336D-04 -0.231559D-03 -0.133531D-05  0.000000D+00
     17 -0.229773D-01  0.361847D-04  0.205684D-02  0.000000D+00  0.000000D+00
     18 -0.298226D-05  0.199145D-04  0.168733D-01 -0.184449D-04  0.506503D-05
     19  0.498770D-05  0.000000D+00 -0.167767D-03  0.283188D-05 -0.189088D-05
     20 -0.193744D-05  0.000000D+00  0.651679D-04 -0.187107D-05  0.124933D-05
     21 -0.185751D-03  0.764535D-05  0.624797D-02 -0.137286D-03  0.916678D-04
     22  0.885883D-02 -0.269636D-01 -0.196999D-02 -0.164560D+00 -0.104178D+00
     23 -0.419456D-02  0.127880D-01 -0.827562D-03 -0.101606D+00 -0.330635D+00
     24  0.144972D-03 -0.792582D-03  0.293082D-01 -0.100903D-01 -0.169481D-01
     25 -0.232848D+00  0.100971D+00  0.107839D-01 -0.576092D-02  0.175260D-01
     26  0.103787D+00 -0.187213D+00 -0.796305D-02 -0.730834D-02  0.222618D-01
     27  0.127984D-01 -0.928856D-02 -0.785482D-01  0.218037D-03 -0.972934D-03
                6             7             8             9            10 
      6  0.192136D+00
      7 -0.730444D-02  0.519907D+00
      8  0.692516D-02  0.938666D-01  0.722876D+00
      9 -0.441041D-01  0.103515D-01 -0.767919D-02  0.530130D-01
     10  0.352286D-03 -0.317392D+00 -0.249461D+00 -0.222656D-02  0.912202D+00
     11 -0.194716D-03 -0.205892D+00 -0.443597D+00  0.178840D-02  0.276740D-01
     12 -0.211996D-02 -0.321194D-02  0.322735D-03 -0.446214D-01  0.165915D-01
     13 -0.196394D-03 -0.930054D-02  0.667955D-02 -0.911058D-03 -0.462970D+00
     14 -0.688888D-04 -0.297506D-01  0.213641D-01 -0.171261D-02  0.103235D+00
     15 -0.176532D-02  0.921730D-05 -0.883736D-04  0.882907D-02 -0.105817D-01
     16  0.309091D-03  0.000000D+00  0.000000D+00  0.811685D-05 -0.510186D-02
     17  0.458382D-05 -0.147900D-04  0.991727D-05  0.594127D-03  0.705043D-02
     18  0.426952D-02 -0.146851D-03  0.984692D-04  0.589912D-02 -0.104808D-02
     19 -0.120531D-03  0.224332D-01 -0.161086D-01  0.582003D-03 -0.162113D+00
     20  0.796368D-04  0.115348D-01 -0.828290D-02  0.391072D-03  0.945261D-01
     21  0.584322D-02  0.228611D-03 -0.168640D-03  0.379524D-02 -0.323761D-02
     22 -0.877156D-02  0.217654D-01  0.149952D-01  0.194538D-02  0.571220D-05
     23 -0.140328D-01 -0.103533D-01 -0.714370D-02 -0.126422D-02  0.162613D-05
     24 -0.779032D-01  0.115090D-02  0.972554D-03  0.575060D-02 -0.720903D-04
     25  0.198660D-02 -0.134146D-05  0.271718D-05  0.114360D-03 -0.919016D-05
     26  0.165501D-03  0.496218D-05 -0.100511D-04 -0.423029D-03  0.000000D+00
     27  0.257814D-01 -0.731249D-04  0.148117D-03  0.623393D-02 -0.126187D-03
               11            12            13            14            15 
     11  0.937905D+00
     12 -0.112140D-01  0.188418D+00
     13  0.771340D-01 -0.131568D-01  0.853652D+00
     14 -0.210398D+00  0.564157D-02  0.148347D-01  0.772788D+00
     15  0.502293D-02 -0.995157D-01 -0.258806D-02 -0.144365D-01  0.196113D+00
     16 -0.161297D-01  0.195585D-02 -0.249377D+00 -0.102064D+00  0.119430D-01
     17  0.225173D-01 -0.345413D-03 -0.102302D+00 -0.179036D+00  0.877934D-02
     18 -0.110153D-02  0.233688D-01  0.149350D-01  0.112085D-01 -0.746087D-01
     19  0.100996D+00 -0.327113D-02  0.790214D-02  0.252043D-01 -0.731208D-03
     20 -0.294178D+00  0.492502D-02  0.405858D-02  0.130068D-01  0.265513D-03
     21  0.445112D-02 -0.735490D-01 -0.108011D-03  0.220369D-02  0.264673D-01
     22 -0.381410D-05 -0.243124D-03  0.000000D+00  0.000000D+00  0.143079D-03
     23 -0.108578D-05 -0.692116D-04  0.227971D-05  0.000000D+00 -0.527694D-03
     24  0.481355D-04  0.306832D-02 -0.331292D-04  0.909739D-05  0.766857D-02
     25  0.000000D+00  0.309122D-03  0.173944D-01 -0.258037D-04 -0.210367D-03
     26  0.000000D+00  0.455418D-05  0.219915D-01 -0.345055D-04 -0.186119D-02
     27  0.519373D-05  0.424445D-02  0.167295D-03  0.204212D-04  0.175148D-01
               16            17            18            19            20 
     16  0.238136D+00
     17  0.118218D+00  0.156483D+00
     18 -0.135255D-01 -0.101246D-01  0.398721D-01
     19  0.000000D+00  0.257323D-04  0.255498D-03  0.131769D+00
     20  0.000000D+00 -0.999553D-05 -0.992463D-04 -0.110116D+00  0.289462D+00
     21 -0.130924D-04 -0.958321D-03 -0.951523D-02  0.345314D-02 -0.562716D-02
     22  0.000000D+00  0.000000D+00  0.000000D+00  0.000000D+00  0.000000D+00
     23  0.000000D+00  0.000000D+00  0.000000D+00  0.000000D+00  0.000000D+00
     24  0.000000D+00  0.000000D+00  0.000000D+00  0.000000D+00  0.000000D+00
     25 -0.324725D-04  0.000000D+00 -0.448548D-03  0.000000D+00  0.000000D+00
     26  0.000000D+00  0.000000D+00 -0.660831D-05  0.000000D+00  0.000000D+00
     27 -0.445869D-03 -0.661224D-05 -0.615887D-02  0.000000D+00  0.000000D+00
               21            22            23            24            25 
     21  0.407106D-01
     22  0.000000D+00  0.133934D+00
     23  0.000000D+00  0.116136D+00  0.325044D+00
     24  0.000000D+00  0.910282D-02  0.159595D-01  0.431812D-01
     25  0.000000D+00 -0.379025D-05  0.139790D-04 -0.203145D-03  0.221261D+00
     26  0.000000D+00  0.140205D-04 -0.517095D-04  0.751453D-03 -0.118488D+00
     27  0.000000D+00 -0.206612D-03  0.762013D-03 -0.110737D-01 -0.123319D-01
               26            27 
     26  0.165047D+00
     27  0.933236D-02  0.420062D-01
 Leave Link  716 at Tue Dec 15 17:06:57 2015, MaxMem=    33554432 cpu:         0.0
 (Enter /home/Applications/g09/g09/l103.exe)

 GradGradGradGradGradGradGradGradGradGradGradGradGradGradGradGradGradGrad
 Berny optimization.
 Search for a local minimum.
 Step number   1 out of a maximum of    2
 All quantities printed in internal units (Hartrees-Bohrs-Radians)
 Second derivative matrix not updated -- first step.
 ITU=  0
     Eigenvalues ---    0.01845   0.02977   0.06721   0.07343   0.07534
     Eigenvalues ---    0.08124   0.12762   0.14135   0.16095   0.24152
     Eigenvalues ---    0.24589   0.30147   0.38037   0.42430   0.61055
     Eigenvalues ---    0.76867   1.03946   1.26959   1.43020   1.58138
     Eigenvalues ---    1.61234
 Quadratic step=1.173D+00 exceeds max=3.000D-01 adjusted using Lamda=-8.202D-01.
 Angle between NR and scaled steps=  30.89 degrees.
 Angle between quadratic step and forces=  20.01 degrees.
 Linear search not attempted -- first point.
 TrRot= -0.001818 -0.001802  0.000593  0.000322  0.000062  0.000322
 MatCor failed.
 Variable       Old X    -DE/DX   Delta X   Delta X   Delta X     New X
                                 (Linear)    (Quad)   (Total)
    X1        1.76334   0.21052   0.00000   0.09442   0.09351   1.85684
    Y1       -1.34826  -0.06652   0.00000  -0.04890  -0.04950  -1.39776
    Z1        0.08232   0.00565   0.00000   0.00515   0.00563   0.08795
    X2       -0.64431  -0.30517   0.00000  -0.14781  -0.14823  -0.79254
    Y2       -2.13860  -0.00123   0.00000  -0.01723  -0.01954  -2.15814
    Z2        0.07286  -0.00468   0.00000  -0.00296  -0.00232   0.07054
    X3       -2.17565   0.10578   0.00000   0.04393   0.04208  -2.13357
    Y3        0.09334  -0.08245   0.00000  -0.04415  -0.04732   0.04602
    Z3        0.00187   0.00673   0.00000   0.00374   0.00446   0.00633
    X4       -0.71946  -0.24124   0.00000  -0.11942  -0.12264  -0.84210
    Y4        2.12134   0.08335   0.00000   0.05860   0.05626   2.17760
    Z4        0.00426  -0.00671   0.00000  -0.00355  -0.00290   0.00136
    X5        1.76729   0.17732   0.00000   0.09277   0.09006   1.85735
    Y5        1.34386   0.07304   0.00000   0.05770   0.05710   1.40095
    Z5        0.07915   0.00303   0.00000   0.00105   0.00153   0.08068
    X6        3.47621   0.03236   0.00000   0.05403   0.05053   3.52674
    Y6        2.56188   0.02604   0.00000   0.04159   0.04206   2.60394
    Z6       -0.04588   0.00014   0.00000  -0.00088  -0.00050  -0.04638
    X7       -1.66224   0.00157   0.00000  -0.01690  -0.02132  -1.68355
    Y7        3.95576   0.06470   0.00000   0.08191   0.07903   4.03479
    Z7       -0.04019  -0.00089   0.00000  -0.00175  -0.00105  -0.04124
    X8       -1.50149  -0.01488   0.00000  -0.03653  -0.03575  -1.53724
    Y8       -3.95271  -0.07719   0.00000  -0.07948  -0.08228  -4.03498
    Z8       -0.03598  -0.00137   0.00000  -0.00304  -0.00235  -0.03833
    X9        3.42089   0.03375   0.00000   0.05186   0.05177   3.47266
    Y9       -2.65842  -0.01973   0.00000  -0.03624  -0.03580  -2.69422
    Z9       -0.03699  -0.00189   0.00000  -0.00288  -0.00250  -0.03949
         Item               Value     Threshold  Converged?
 Maximum Force            0.305165     0.000450     NO 
 RMS     Force            0.101024     0.000300     NO 
 Maximum Displacement     0.148235     0.001800     NO 
 RMS     Displacement     0.057815     0.001200     NO 
 Predicted change in Energy=-1.111778D-01
 GradGradGradGradGradGradGradGradGradGradGradGradGradGradGradGradGradGrad

 Leave Link  103 at Tue Dec 15 17:06:57 2015, MaxMem=    33554432 cpu:         0.0
 (Enter /home/Applications/g09/g09/l9999.exe)
 1\1\GINC-DUSTIN-DESKTOP\Force\RAM1-FC\STO-3G\C4H4O1\DUSTIN\15-Dec-2015
 \0\\#P AM1(Input,print) CIS(Singlets,NStates=15) pop(full) force\\AM1-
 Reparam Input\\0,1\C,0.933117,-0.713469,0.043563\C,-0.340954,-1.131697
 ,0.038555\O,-1.151305,0.049391,0.000987\C,-0.380723,1.122565,0.002256\
 C,0.93521,0.711138,0.041882\H,1.83953,1.35569,-0.024278\H,-0.879617,2.
 093296,-0.021265\H,-0.794554,-2.091683,-0.019041\H,1.810258,-1.406774,
 -0.019575\\Version=ES64L-G09RevD.01\State=1-A\HF=1.681356\RMSD=8.251e-
 09\RMSF=1.010e-01\Dipole=-4.358485,0.1909799,-0.2267617\PG=C01 [X(C4H4
 O1)]\\@


 LIFE IS A CONTINUAL STRUGGLE AGAINST THE TENDENCY TO PRODUCE ENTROPY.
 Job cpu time:       0 days  0 hours  0 minutes  0.7 seconds.
 File lengths (MBytes):  RWF=      7 Int=      0 D2E=      0 Chk=      2 Scr=      1
 Normal termination of Gaussian 09 at Tue Dec 15 17:06:57 2015.
