 Entering Gaussian System, Link 0=g09
 Input=FuranDFT_38.com
 Output=FuranDFT_38.log
 Initial command:
 /home/Applications/g09/g09/l1.exe "/home/Applications/g09/scratch/Gau-5811.inp" -scrdir="/home/Applications/g09/scratch/"
 Entering Link 1 = /home/Applications/g09/g09/l1.exe PID=      5813.
  
 Copyright (c) 1988,1990,1992,1993,1995,1998,2003,2009,2013,
            Gaussian, Inc.  All Rights Reserved.
  
 This is part of the Gaussian(R) 09 program.  It is based on
 the Gaussian(R) 03 system (copyright 2003, Gaussian, Inc.),
 the Gaussian(R) 98 system (copyright 1998, Gaussian, Inc.),
 the Gaussian(R) 94 system (copyright 1995, Gaussian, Inc.),
 the Gaussian 92(TM) system (copyright 1992, Gaussian, Inc.),
 the Gaussian 90(TM) system (copyright 1990, Gaussian, Inc.),
 the Gaussian 88(TM) system (copyright 1988, Gaussian, Inc.),
 the Gaussian 86(TM) system (copyright 1986, Carnegie Mellon
 University), and the Gaussian 82(TM) system (copyright 1983,
 Carnegie Mellon University). Gaussian is a federally registered
 trademark of Gaussian, Inc.
  
 This software contains proprietary and confidential information,
 including trade secrets, belonging to Gaussian, Inc.
  
 This software is provided under written license and may be
 used, copied, transmitted, or stored only in accord with that
 written license.
  
 The following legend is applicable only to US Government
 contracts under FAR:
  
                    RESTRICTED RIGHTS LEGEND
  
 Use, reproduction and disclosure by the US Government is
 subject to restrictions as set forth in subparagraphs (a)
 and (c) of the Commercial Computer Software - Restricted
 Rights clause in FAR 52.227-19.
  
 Gaussian, Inc.
 340 Quinnipiac St., Bldg. 40, Wallingford CT 06492
  
  
 ---------------------------------------------------------------
 Warning -- This program may not be used in any manner that
 competes with the business of Gaussian, Inc. or will provide
 assistance to any competitor of Gaussian, Inc.  The licensee
 of this program is prohibited from giving any competitor of
 Gaussian, Inc. access to this program.  By using this program,
 the user acknowledges that Gaussian, Inc. is engaged in the
 business of creating and licensing software in the field of
 computational chemistry and represents and warrants to the
 licensee that it is not a competitor of Gaussian, Inc. and that
 it will not use this program in any manner prohibited above.
 ---------------------------------------------------------------
  

 Cite this work as:
 Gaussian 09, Revision D.01,
 M. J. Frisch, G. W. Trucks, H. B. Schlegel, G. E. Scuseria, 
 M. A. Robb, J. R. Cheeseman, G. Scalmani, V. Barone, B. Mennucci, 
 G. A. Petersson, H. Nakatsuji, M. Caricato, X. Li, H. P. Hratchian, 
 A. F. Izmaylov, J. Bloino, G. Zheng, J. L. Sonnenberg, M. Hada, 
 M. Ehara, K. Toyota, R. Fukuda, J. Hasegawa, M. Ishida, T. Nakajima, 
 Y. Honda, O. Kitao, H. Nakai, T. Vreven, J. A. Montgomery, Jr., 
 J. E. Peralta, F. Ogliaro, M. Bearpark, J. J. Heyd, E. Brothers, 
 K. N. Kudin, V. N. Staroverov, T. Keith, R. Kobayashi, J. Normand, 
 K. Raghavachari, A. Rendell, J. C. Burant, S. S. Iyengar, J. Tomasi, 
 M. Cossi, N. Rega, J. M. Millam, M. Klene, J. E. Knox, J. B. Cross, 
 V. Bakken, C. Adamo, J. Jaramillo, R. Gomperts, R. E. Stratmann, 
 O. Yazyev, A. J. Austin, R. Cammi, C. Pomelli, J. W. Ochterski, 
 R. L. Martin, K. Morokuma, V. G. Zakrzewski, G. A. Voth, 
 P. Salvador, J. J. Dannenberg, S. Dapprich, A. D. Daniels, 
 O. Farkas, J. B. Foresman, J. V. Ortiz, J. Cioslowski, 
 and D. J. Fox, Gaussian, Inc., Wallingford CT, 2013.
 
 ******************************************
 Gaussian 09:  ES64L-G09RevD.01 24-Apr-2013
                15-Dec-2015 
 ******************************************
 -------------------------------------------------------
 #P B3LYP/3-21G CIS(Singlets,NStates=15) pop(full) force
 -------------------------------------------------------
 1/10=7,30=1,38=1/1,3;
 2/12=2,17=6,18=5,40=1/2;
 3/5=5,11=9,16=1,25=1,30=1,71=1,74=-5/1,2,8,3;
 4//1;
 5/5=2,38=5/2;
 8/6=1,10=1,108=15/1;
 9/15=2,41=15,42=1,48=1/14;
 10/5=4/2;
 6/7=3,18=1/1;
 7/12=6,13=5,29=1/1,2,3,16;
 1/10=7,30=1/3;
 99//99;
 Leave Link    1 at Tue Dec 15 16:18:05 2015, MaxMem=           0 cpu:         0.0
 (Enter /home/Applications/g09/g09/l101.exe)
 --------
 FuranDFT
 --------
 Symbolic Z-matrix:
 Charge =  0 Multiplicity = 1
 6                     0.91955  -0.74314  -0.02288 
 6                    -0.33676  -1.12319  -0.00311 
 8                    -1.11104  -0.03365  -0.01513 
 6                    -0.33523   1.12325  -0.00963 
 6                     0.97839   0.69881  -0.00952 
 1                     1.79205   1.40846   0.00283 
 1                    -0.862     2.09616  -0.02925 
 1                    -0.85203  -2.04964   0.00196 
 1                     1.84107  -1.36846   0.01861 
 
 NAtoms=      9 NQM=        9 NQMF=       0 NMMI=      0 NMMIF=      0
                NMic=       0 NMicF=      0.
                    Isotopes and Nuclear Properties:
 (Nuclear quadrupole moments (NQMom) in fm**2, nuclear magnetic moments (NMagM)
  in nuclear magnetons)

  Atom         1           2           3           4           5           6           7           8           9
 IAtWgt=          12          12          16          12          12           1           1           1           1
 AtmWgt=  12.0000000  12.0000000  15.9949146  12.0000000  12.0000000   1.0078250   1.0078250   1.0078250   1.0078250
 NucSpn=           0           0           0           0           0           1           1           1           1
 AtZEff=   0.0000000   0.0000000   0.0000000   0.0000000   0.0000000   0.0000000   0.0000000   0.0000000   0.0000000
 NQMom=    0.0000000   0.0000000   0.0000000   0.0000000   0.0000000   0.0000000   0.0000000   0.0000000   0.0000000
 NMagM=    0.0000000   0.0000000   0.0000000   0.0000000   0.0000000   2.7928460   2.7928460   2.7928460   2.7928460
 AtZNuc=   6.0000000   6.0000000   8.0000000   6.0000000   6.0000000   1.0000000   1.0000000   1.0000000   1.0000000
 Leave Link  101 at Tue Dec 15 16:18:05 2015, MaxMem=    33554432 cpu:         0.0
 (Enter /home/Applications/g09/g09/l103.exe)

 GradGradGradGradGradGradGradGradGradGradGradGradGradGradGradGradGradGrad
 Berny optimization.
 Initialization pass.
 Trust Radius=3.00D-01 FncErr=1.00D-07 GrdErr=1.00D-07
 Number of steps in this run=      2 maximum allowed number of steps=      2.
 GradGradGradGradGradGradGradGradGradGradGradGradGradGradGradGradGradGrad

 Leave Link  103 at Tue Dec 15 16:18:06 2015, MaxMem=    33554432 cpu:         0.0
 (Enter /home/Applications/g09/g09/l202.exe)
                          Input orientation:                          
 ---------------------------------------------------------------------
 Center     Atomic      Atomic             Coordinates (Angstroms)
 Number     Number       Type             X           Y           Z
 ---------------------------------------------------------------------
      1          6           0        0.919546   -0.743135   -0.022882
      2          6           0       -0.336756   -1.123186   -0.003107
      3          8           0       -1.111042   -0.033650   -0.015129
      4          6           0       -0.335225    1.123247   -0.009630
      5          6           0        0.978390    0.698811   -0.009515
      6          1           0        1.792051    1.408458    0.002828
      7          1           0       -0.861999    2.096164   -0.029252
      8          1           0       -0.852033   -2.049644    0.001961
      9          1           0        1.841070   -1.368460    0.018606
 ---------------------------------------------------------------------
                    Distance matrix (angstroms):
                    1          2          3          4          5
     1  C    0.000000
     2  C    1.312678   0.000000
     3  O    2.150980   1.336694   0.000000
     4  C    2.249001   2.246443   1.392958   0.000000
     5  C    1.443208   2.247070   2.214104   1.380482   0.000000
     6  H    2.321913   3.307730   3.241596   2.146347   1.079720
     7  H    3.351949   3.262021   2.144372   1.106546   2.310848
     8  H    2.201380   1.060123   2.032636   3.214726   3.302209
     9  H    1.114432   2.191702   3.240034   3.308423   2.240227
                    6          7          8          9
     6  H    0.000000
     7  H    2.741888   0.000000
     8  H    4.353120   4.145937   0.000000
     9  H    2.777395   4.394598   2.777966   0.000000
 Stoichiometry    C4H4O
 Framework group  C1[X(C4H4O)]
 Deg. of freedom    21
 Full point group                 C1      NOp   1
 Largest Abelian subgroup         C1      NOp   1
 Largest concise Abelian subgroup C1      NOp   1
                         Standard orientation:                         
 ---------------------------------------------------------------------
 Center     Atomic      Atomic             Coordinates (Angstroms)
 Number     Number       Type             X           Y           Z
 ---------------------------------------------------------------------
      1          6           0       -0.665865    0.957278    0.014724
      2          6           0       -1.132175   -0.269605   -0.006172
      3          8           0       -0.098945   -1.117611    0.002424
      4          6           0        1.108963   -0.423892   -0.004289
      5          6           0        0.776661    0.915995   -0.001533
      6          1           0        1.541009    1.678498   -0.014108
      7          1           0        2.043037   -1.016907    0.012523
      8          1           0       -2.092149   -0.719377   -0.010107
      9          1           0       -1.225847    1.920021   -0.024073
 ---------------------------------------------------------------------
 Rotational constants (GHZ):      9.6979410      9.1195469      4.7003003
 Leave Link  202 at Tue Dec 15 16:18:06 2015, MaxMem=    33554432 cpu:         0.0
 (Enter /home/Applications/g09/g09/l301.exe)
 Standard basis: 3-21G (6D, 7F)
 Ernie: Thresh=  0.10000D-02 Tol=  0.10000D-05 Strict=F.
 There are    53 symmetry adapted cartesian basis functions of A   symmetry.
 There are    53 symmetry adapted basis functions of A   symmetry.
    53 basis functions,    87 primitive gaussians,    53 cartesian basis functions
    18 alpha electrons       18 beta electrons
       nuclear repulsion energy       161.0449280371 Hartrees.
 IExCor=  402 DFT=T Ex+Corr=B3LYP ExCW=0 ScaHFX=  0.200000
 ScaDFX=  0.800000  0.720000  1.000000  0.810000 ScalE2=  1.000000  1.000000
 IRadAn=      0 IRanWt=     -1 IRanGd=            0 ICorTp=0 IEmpDi=  4
 NAtoms=    9 NActive=    9 NUniq=    9 SFac= 1.00D+00 NAtFMM=   60 NAOKFM=F Big=F
 Integral buffers will be    131072 words long.
 Regular integral format.
 Two-electron integral symmetry is turned on.
 Leave Link  301 at Tue Dec 15 16:18:06 2015, MaxMem=    33554432 cpu:         0.0
 (Enter /home/Applications/g09/g09/l302.exe)
 NPDir=0 NMtPBC=     1 NCelOv=     1 NCel=       1 NClECP=     1 NCelD=      1
         NCelK=      1 NCelE2=     1 NClLst=     1 CellRange=     0.0.
 One-electron integrals computed using PRISM.
 NBasis=    53 RedAO= T EigKep=  3.14D-03  NBF=    53
 NBsUse=    53 1.00D-06 EigRej= -1.00D+00 NBFU=    53
 Precomputing XC quadrature grid using
 IXCGrd= 4 IRadAn=           0 IRanWt=          -1 IRanGd=           0 AccXCQ= 0.00D+00.
 Generated NRdTot=       0 NPtTot=           0 NUsed=           0 NTot=          32
 NSgBfM=    53    53    53    53    53 MxSgAt=     9 MxSgA2=     9.
 Leave Link  302 at Tue Dec 15 16:18:06 2015, MaxMem=    33554432 cpu:         0.1
 (Enter /home/Applications/g09/g09/l308.exe)
 Leave Link  308 at Tue Dec 15 16:18:06 2015, MaxMem=    33554432 cpu:         0.0
 (Enter /home/Applications/g09/g09/l303.exe)
 DipDrv:  MaxL=1.
 Leave Link  303 at Tue Dec 15 16:18:06 2015, MaxMem=    33554432 cpu:         0.0
 (Enter /home/Applications/g09/g09/l401.exe)
 ExpMin= 1.83D-01 ExpMax= 3.22D+02 ExpMxC= 3.22D+02 IAcc=1 IRadAn=         1 AccDes= 0.00D+00
 Harris functional with IExCor=  402 and IRadAn=       1 diagonalized for initial guess.
 HarFok:  IExCor=  402 AccDes= 0.00D+00 IRadAn=         1 IDoV= 1 UseB2=F ITyADJ=14
 ICtDFT=  3500011 ScaDFX=  1.000000  1.000000  1.000000  1.000000
 FoFCou: FMM=F IPFlag=           0 FMFlag=      100000 FMFlg1=           0
         NFxFlg=           0 DoJE=T BraDBF=F KetDBF=T FulRan=T
         wScrn=  0.000000 ICntrl=     500 IOpCl=  0 I1Cent=   200000004 NGrid=           0
         NMat0=    1 NMatS0=      1 NMatT0=    0 NMatD0=    1 NMtDS0=    0 NMtDT0=    0
 Petite list used in FoFCou.
 Harris En= -228.729863012533    
 JPrj=0 DoOrth=F DoCkMO=F.
 Leave Link  401 at Tue Dec 15 16:18:06 2015, MaxMem=    33554432 cpu:         0.3
 (Enter /home/Applications/g09/g09/l502.exe)
 Closed shell SCF:
 Using DIIS extrapolation, IDIIS=  1040.
 Integral symmetry usage will be decided dynamically.
 Keep R1 ints in memory in canonical form, NReq=1925595.
 IVT=       27707 IEndB=       27707 NGot=    33554432 MDV=    32502130
 LenX=    32502130 LenY=    32498880
 Requested convergence on RMS density matrix=1.00D-08 within 128 cycles.
 Requested convergence on MAX density matrix=1.00D-06.
 Requested convergence on             energy=1.00D-06.
 No special actions if energy rises.
 FoFCou: FMM=F IPFlag=           0 FMFlag=           0 FMFlg1=           0
         NFxFlg=           0 DoJE=F BraDBF=F KetDBF=F FulRan=T
         wScrn=  0.000000 ICntrl=     600 IOpCl=  0 I1Cent=           0 NGrid=           0
         NMat0=    1 NMatS0=   1431 NMatT0=    0 NMatD0=    1 NMtDS0=    0 NMtDT0=    0
 Symmetry not used in FoFCou.
 Integral accuracy reduced to 1.0D-05 until final iterations.

 Cycle   1  Pass 0  IDiag  1:
 E= -228.662542948067    
 DIIS: error= 3.46D-02 at cycle   1 NSaved=   1.
 NSaved= 1 IEnMin= 1 EnMin= -228.662542948067     IErMin= 1 ErrMin= 3.46D-02
 ErrMax= 3.46D-02  0.00D+00 EMaxC= 1.00D-01 BMatC= 7.52D-02 BMatP= 7.52D-02
 IDIUse=3 WtCom= 6.54D-01 WtEn= 3.46D-01
 Coeff-Com:  0.100D+01
 Coeff-En:   0.100D+01
 Coeff:      0.100D+01
 Gap=     0.238 Goal=   None    Shift=    0.000
 GapD=    0.238 DampG=1.000 DampE=0.500 DampFc=0.5000 IDamp=-1.
 Damping current iteration by 5.00D-01
 RMSDP=1.17D-02 MaxDP=1.11D-01              OVMax= 1.98D-01

 Cycle   2  Pass 0  IDiag  1:
 E= -228.693537599062     Delta-E=       -0.030994650995 Rises=F Damp=T
 DIIS: error= 1.21D-02 at cycle   2 NSaved=   2.
 NSaved= 2 IEnMin= 2 EnMin= -228.693537599062     IErMin= 2 ErrMin= 1.21D-02
 ErrMax= 1.21D-02  0.00D+00 EMaxC= 1.00D-01 BMatC= 8.07D-03 BMatP= 7.52D-02
 IDIUse=3 WtCom= 8.79D-01 WtEn= 1.21D-01
 Coeff-Com:  0.103D+00 0.897D+00
 Coeff-En:   0.190D+00 0.810D+00
 Coeff:      0.113D+00 0.887D+00
 Gap=     0.262 Goal=   None    Shift=    0.000
 RMSDP=4.20D-03 MaxDP=3.59D-02 DE=-3.10D-02 OVMax= 1.55D-01

 Cycle   3  Pass 0  IDiag  1:
 E= -228.731675730964     Delta-E=       -0.038138131903 Rises=F Damp=F
 DIIS: error= 1.78D-02 at cycle   3 NSaved=   3.
 NSaved= 3 IEnMin= 3 EnMin= -228.731675730964     IErMin= 2 ErrMin= 1.21D-02
 ErrMax= 1.78D-02  0.00D+00 EMaxC= 1.00D-01 BMatC= 1.05D-02 BMatP= 8.07D-03
 IDIUse=2 WtCom= 0.00D+00 WtEn= 1.00D+00
 Coeff-En:   0.000D+00 0.000D+00 0.100D+01
 Coeff:      0.000D+00 0.000D+00 0.100D+01
 Gap=     0.247 Goal=   None    Shift=    0.000
 RMSDP=5.68D-03 MaxDP=4.45D-02 DE=-3.81D-02 OVMax= 1.23D-01

 Cycle   4  Pass 0  IDiag  1:
 E= -228.703710723606     Delta-E=        0.027965007358 Rises=F Damp=F
 DIIS: error= 3.72D-02 at cycle   4 NSaved=   4.
 NSaved= 4 IEnMin= 3 EnMin= -228.731675730964     IErMin= 2 ErrMin= 1.21D-02
 ErrMax= 3.72D-02  0.00D+00 EMaxC= 1.00D-01 BMatC= 4.06D-02 BMatP= 8.07D-03
 IDIUse=2 WtCom= 0.00D+00 WtEn= 1.00D+00
 Coeff-En:   0.000D+00 0.000D+00 0.747D+00 0.253D+00
 Coeff:      0.000D+00 0.000D+00 0.747D+00 0.253D+00
 Gap=     0.256 Goal=   None    Shift=    0.000
 RMSDP=2.85D-03 MaxDP=2.12D-02 DE= 2.80D-02 OVMax= 6.64D-02

 Cycle   5  Pass 0  IDiag  1:
 E= -228.739427026401     Delta-E=       -0.035716302795 Rises=F Damp=F
 DIIS: error= 8.39D-03 at cycle   5 NSaved=   5.
 NSaved= 5 IEnMin= 5 EnMin= -228.739427026401     IErMin= 5 ErrMin= 8.39D-03
 ErrMax= 8.39D-03  0.00D+00 EMaxC= 1.00D-01 BMatC= 2.21D-03 BMatP= 8.07D-03
 IDIUse=3 WtCom= 9.16D-01 WtEn= 8.39D-02
 Coeff-Com: -0.322D-02 0.162D-01 0.258D+00-0.607D-01 0.790D+00
 Coeff-En:   0.000D+00 0.000D+00 0.215D+00 0.000D+00 0.785D+00
 Coeff:     -0.295D-02 0.148D-01 0.254D+00-0.556D-01 0.790D+00
 Gap=     0.260 Goal=   None    Shift=    0.000
 RMSDP=9.58D-04 MaxDP=7.59D-03 DE=-3.57D-02 OVMax= 2.04D-02

 Cycle   6  Pass 0  IDiag  1:
 E= -228.741503303049     Delta-E=       -0.002076276648 Rises=F Damp=F
 DIIS: error= 3.72D-04 at cycle   6 NSaved=   6.
 NSaved= 6 IEnMin= 6 EnMin= -228.741503303049     IErMin= 6 ErrMin= 3.72D-04
 ErrMax= 3.72D-04  0.00D+00 EMaxC= 1.00D-01 BMatC= 8.04D-06 BMatP= 2.21D-03
 IDIUse=3 WtCom= 9.96D-01 WtEn= 3.72D-03
 Coeff-Com: -0.431D-02 0.933D-02 0.457D-01-0.402D-01 0.289D+00 0.700D+00
 Coeff-En:   0.000D+00 0.000D+00 0.000D+00 0.000D+00 0.000D+00 0.100D+01
 Coeff:     -0.429D-02 0.930D-02 0.455D-01-0.401D-01 0.288D+00 0.702D+00
 Gap=     0.260 Goal=   None    Shift=    0.000
 RMSDP=6.35D-05 MaxDP=6.61D-04 DE=-2.08D-03 OVMax= 1.48D-03

 Cycle   7  Pass 0  IDiag  1:
 E= -228.741511810163     Delta-E=       -0.000008507114 Rises=F Damp=F
 DIIS: error= 9.40D-05 at cycle   7 NSaved=   7.
 NSaved= 7 IEnMin= 7 EnMin= -228.741511810163     IErMin= 7 ErrMin= 9.40D-05
 ErrMax= 9.40D-05  0.00D+00 EMaxC= 1.00D-01 BMatC= 2.33D-07 BMatP= 8.04D-06
 IDIUse=1 WtCom= 1.00D+00 WtEn= 0.00D+00
 Coeff-Com: -0.212D-02 0.421D-02 0.188D-01-0.199D-01 0.139D+00 0.420D+00
 Coeff-Com:  0.440D+00
 Coeff:     -0.212D-02 0.421D-02 0.188D-01-0.199D-01 0.139D+00 0.420D+00
 Coeff:      0.440D+00
 Gap=     0.260 Goal=   None    Shift=    0.000
 RMSDP=9.40D-06 MaxDP=1.10D-04 DE=-8.51D-06 OVMax= 2.91D-04

 Initial convergence to 1.0D-05 achieved.  Increase integral accuracy.
 Cycle   8  Pass 1  IDiag  1:
 E= -228.741552119454     Delta-E=       -0.000040309291 Rises=F Damp=F
 DIIS: error= 1.77D-05 at cycle   1 NSaved=   1.
 NSaved= 1 IEnMin= 1 EnMin= -228.741552119454     IErMin= 1 ErrMin= 1.77D-05
 ErrMax= 1.77D-05  0.00D+00 EMaxC= 1.00D-01 BMatC= 1.78D-08 BMatP= 1.78D-08
 IDIUse=1 WtCom= 1.00D+00 WtEn= 0.00D+00
 Coeff-Com:  0.100D+01
 Coeff:      0.100D+01
 Gap=     0.260 Goal=   None    Shift=    0.000
 RMSDP=9.40D-06 MaxDP=1.10D-04 DE=-4.03D-05 OVMax= 6.96D-05

 Cycle   9  Pass 1  IDiag  1:
 E= -228.741552125043     Delta-E=       -0.000000005589 Rises=F Damp=F
 DIIS: error= 2.05D-05 at cycle   2 NSaved=   2.
 NSaved= 2 IEnMin= 2 EnMin= -228.741552125043     IErMin= 1 ErrMin= 1.77D-05
 ErrMax= 2.05D-05  0.00D+00 EMaxC= 1.00D-01 BMatC= 1.61D-08 BMatP= 1.78D-08
 IDIUse=1 WtCom= 1.00D+00 WtEn= 0.00D+00
 Coeff-Com:  0.485D+00 0.515D+00
 Coeff:      0.485D+00 0.515D+00
 Gap=     0.260 Goal=   None    Shift=    0.000
 RMSDP=2.90D-06 MaxDP=3.29D-05 DE=-5.59D-09 OVMax= 6.82D-05

 Cycle  10  Pass 1  IDiag  1:
 E= -228.741552139516     Delta-E=       -0.000000014473 Rises=F Damp=F
 DIIS: error= 6.88D-06 at cycle   3 NSaved=   3.
 NSaved= 3 IEnMin= 3 EnMin= -228.741552139516     IErMin= 3 ErrMin= 6.88D-06
 ErrMax= 6.88D-06  0.00D+00 EMaxC= 1.00D-01 BMatC= 1.52D-09 BMatP= 1.61D-08
 IDIUse=1 WtCom= 1.00D+00 WtEn= 0.00D+00
 Coeff-Com:  0.759D-02 0.230D+00 0.762D+00
 Coeff:      0.759D-02 0.230D+00 0.762D+00
 Gap=     0.260 Goal=   None    Shift=    0.000
 RMSDP=1.02D-06 MaxDP=9.41D-06 DE=-1.45D-08 OVMax= 2.09D-05

 Cycle  11  Pass 1  IDiag  1:
 E= -228.741552140777     Delta-E=       -0.000000001261 Rises=F Damp=F
 DIIS: error= 3.96D-06 at cycle   4 NSaved=   4.
 NSaved= 4 IEnMin= 4 EnMin= -228.741552140777     IErMin= 4 ErrMin= 3.96D-06
 ErrMax= 3.96D-06  0.00D+00 EMaxC= 1.00D-01 BMatC= 3.86D-10 BMatP= 1.52D-09
 IDIUse=1 WtCom= 1.00D+00 WtEn= 0.00D+00
 Coeff-Com: -0.160D-01 0.138D+00 0.515D+00 0.363D+00
 Coeff:     -0.160D-01 0.138D+00 0.515D+00 0.363D+00
 Gap=     0.260 Goal=   None    Shift=    0.000
 RMSDP=3.48D-07 MaxDP=4.20D-06 DE=-1.26D-09 OVMax= 7.59D-06

 Cycle  12  Pass 1  IDiag  1:
 E= -228.741552141108     Delta-E=       -0.000000000331 Rises=F Damp=F
 DIIS: error= 1.83D-07 at cycle   5 NSaved=   5.
 NSaved= 5 IEnMin= 5 EnMin= -228.741552141108     IErMin= 5 ErrMin= 1.83D-07
 ErrMax= 1.83D-07  0.00D+00 EMaxC= 1.00D-01 BMatC= 2.66D-12 BMatP= 3.86D-10
 IDIUse=1 WtCom= 1.00D+00 WtEn= 0.00D+00
 Coeff-Com: -0.681D-02 0.464D-01 0.173D+00 0.135D+00 0.653D+00
 Coeff:     -0.681D-02 0.464D-01 0.173D+00 0.135D+00 0.653D+00
 Gap=     0.260 Goal=   None    Shift=    0.000
 RMSDP=4.46D-08 MaxDP=5.19D-07 DE=-3.31D-10 OVMax= 8.25D-07

 Cycle  13  Pass 1  IDiag  1:
 E= -228.741552141110     Delta-E=       -0.000000000002 Rises=F Damp=F
 DIIS: error= 8.49D-08 at cycle   6 NSaved=   6.
 NSaved= 6 IEnMin= 6 EnMin= -228.741552141110     IErMin= 6 ErrMin= 8.49D-08
 ErrMax= 8.49D-08  0.00D+00 EMaxC= 1.00D-01 BMatC= 5.88D-13 BMatP= 2.66D-12
 IDIUse=1 WtCom= 1.00D+00 WtEn= 0.00D+00
 Coeff-Com: -0.121D-02 0.615D-02 0.200D-01 0.187D-01 0.332D+00 0.624D+00
 Coeff:     -0.121D-02 0.615D-02 0.200D-01 0.187D-01 0.332D+00 0.624D+00
 Gap=     0.260 Goal=   None    Shift=    0.000
 RMSDP=1.99D-08 MaxDP=2.10D-07 DE=-2.22D-12 OVMax= 3.46D-07

 Cycle  14  Pass 1  IDiag  1:
 E= -228.741552141111     Delta-E=       -0.000000000001 Rises=F Damp=F
 DIIS: error= 2.67D-08 at cycle   7 NSaved=   7.
 NSaved= 7 IEnMin= 7 EnMin= -228.741552141111     IErMin= 7 ErrMin= 2.67D-08
 ErrMax= 2.67D-08  0.00D+00 EMaxC= 1.00D-01 BMatC= 3.68D-14 BMatP= 5.88D-13
 IDIUse=1 WtCom= 1.00D+00 WtEn= 0.00D+00
 Coeff-Com: -0.125D-03-0.606D-03-0.391D-02-0.178D-02 0.100D+00 0.287D+00
 Coeff-Com:  0.619D+00
 Coeff:     -0.125D-03-0.606D-03-0.391D-02-0.178D-02 0.100D+00 0.287D+00
 Coeff:      0.619D+00
 Gap=     0.260 Goal=   None    Shift=    0.000
 RMSDP=5.42D-09 MaxDP=6.53D-08 DE=-7.96D-13 OVMax= 1.07D-07

 SCF Done:  E(RB3LYP) =  -228.741552141     A.U. after   14 cycles
            NFock= 14  Conv=0.54D-08     -V/T= 2.0082
 KE= 2.268738264107D+02 PE=-8.547129544853D+02 EE= 2.380526478965D+02
 Leave Link  502 at Tue Dec 15 16:18:11 2015, MaxMem=    33554432 cpu:         4.5
 (Enter /home/Applications/g09/g09/l801.exe)
 DoSCS=F DFT=T ScalE2(SS,OS)=  1.000000  1.000000
 ExpMin= 1.83D-01 ExpMax= 3.22D+02 ExpMxC= 3.22D+02 IAcc=3 IRadAn=         5 AccDes= 0.00D+00
 HarFok:  IExCor=  205 AccDes= 0.00D+00 IRadAn=         5 IDoV=-2 UseB2=F ITyADJ=14
 ICtDFT= 12500011 ScaDFX=  1.000000  1.000000  1.000000  1.000000
 Largest valence mixing into a core orbital is  1.77D-04
 Largest core mixing into a valence orbital is  4.59D-05
 Range of M.O.s used for correlation:     6    53
 NBasis=    53 NAE=    18 NBE=    18 NFC=     5 NFV=     0
 NROrb=     48 NOA=    13 NOB=    13 NVA=    35 NVB=    35
 Leave Link  801 at Tue Dec 15 16:18:11 2015, MaxMem=    33554432 cpu:         0.2
 (Enter /home/Applications/g09/g09/l914.exe)
 RHF ground state
 MDV=    33554432 DFT=T DoStab=F Mixed=T DoRPA=F DoScal=F NonHer=F
 Keep R1, R2, and R3 ints in memory in canonical form, NReq=5596273.
 FoFCou: FMM=F IPFlag=           0 FMFlag=           0 FMFlg1=           0
         NFxFlg=           0 DoJE=F BraDBF=F KetDBF=F FulRan=T
         wScrn=  0.000000 ICntrl=     600 IOpCl=  0 I1Cent=           0 NGrid=           0
         NMat0=    1 NMatS0=   1431 NMatT0=    0 NMatD0=    1 NMtDS0=    0 NMtDT0=    0
 Symmetry not used in FoFCou.
 Making orbital integer symmetry assigments:
 Orbital symmetries:
       Occupied  (A) (A) (A) (A) (A) (A) (A) (A) (A) (A) (A) (A)
                 (A) (A) (A) (A) (A) (A)
       Virtual   (A) (A) (A) (A) (A) (A) (A) (A) (A) (A) (A) (A)
                 (A) (A) (A) (A) (A) (A) (A) (A) (A) (A) (A) (A)
                 (A) (A) (A) (A) (A) (A) (A) (A) (A) (A) (A)
    60 initial guesses have been made.
 Convergence on wavefunction:    0.000001000000000
 Davidson Disk Diagonalization:  ConvIn= 1.00D-06 SkipCon=T Conv= 1.00D-06.
 Max sub-space:   240 roots to seek:    60 dimension of matrix:          910
 Iteration     1 Dimension    60 NMult     0 NNew     60
 CISAX will form    60 AO SS matrices at one time.
 NMat=    60 NSing=    60 JSym2X= 0.
 New state      1 was old state      2
 New state      2 was old state      1
 New state      3 was old state      6
 New state      4 was old state      5
 New state      5 was old state      7
 New state      6 was old state      8
 New state      7 was old state      9
 New state      8 was old state     11
 New state      9 was old state      4
 New state     11 was old state     13
 New state     13 was old state     14
 New state     14 was old state     15
 New state     15 was old state      3
 Excitation Energies [eV] at current iteration:
 Root      1 :     7.462701935733151
 Root      2 :     8.299230339159983
 Root      3 :     8.514190838888085
 Root      4 :     8.718264549460564
 Root      5 :     9.198060723674581
 Root      6 :     9.530998998648510
 Root      7 :     9.708721682250239
 Root      8 :     9.897274885379826
 Root      9 :    10.029341467873570
 Root     10 :    10.118160301717020
 Root     11 :    10.328032760570410
 Root     12 :    10.383745903541220
 Root     13 :    10.661594610591230
 Root     14 :    10.795354123826090
 Root     15 :    10.999437557170170
 Root     16 :    11.064574536814820
 Root     17 :    11.243327803466490
 Root     18 :    11.406624323048660
 Root     19 :    11.514413148866050
 Root     20 :    11.546975030912660
 Root     21 :    11.841568249139670
 Root     22 :    11.979298972922770
 Root     23 :    12.077253271832160
 Root     24 :    12.225639301237840
 Root     25 :    12.372554281666090
 Root     26 :    12.736924619705910
 Root     27 :    13.381431669096900
 Root     28 :    13.440422113348060
 Root     29 :    13.537118504160000
 Root     30 :    13.678108985493790
 Root     31 :    13.698365398170400
 Root     32 :    13.930656098036470
 Root     33 :    14.099173192916290
 Root     34 :    14.240595454037550
 Root     35 :    14.310438506761570
 Root     36 :    14.382716098093420
 Root     37 :    14.459599917004610
 Root     38 :    14.511205569858450
 Root     39 :    14.655936555989660
 Root     40 :    14.696588415351000
 Root     41 :    14.808620578749640
 Root     42 :    14.868294223781890
 Root     43 :    15.157364830222480
 Root     44 :    15.294529461618290
 Root     45 :    15.329446709039750
 Root     46 :    15.387869811627920
 Root     47 :    15.497426240969400
 Root     48 :    15.570200405878520
 Root     49 :    15.664193715448120
 Root     50 :    15.684814242399480
 Root     51 :    15.897244479866440
 Root     52 :    16.002446206092490
 Root     53 :    16.172016601857950
 Root     54 :    16.296240493159730
 Root     55 :    16.472080653610090
 Root     56 :    16.727176333070600
 Root     57 :    16.868017613082190
 Root     58 :    17.285606039832460
 Root     59 :    17.801975656546860
 Root     60 :    18.193687756960410
 Iteration     2 Dimension   120 NMult    60 NNew     60
 CISAX will form    60 AO SS matrices at one time.
 NMat=    60 NSing=    60 JSym2X= 0.
 Root      1 not converged, maximum delta is    0.193577607584044
 Root      2 not converged, maximum delta is    0.173106120317555
 Root      3 not converged, maximum delta is    0.055893751271486
 Root      4 not converged, maximum delta is    0.037939556761730
 Root      5 not converged, maximum delta is    0.021640390375431
 New state      6 was old state      9
 Root      6 not converged, maximum delta is    0.120115824176358
 New state      7 was old state      6
 Root      7 not converged, maximum delta is    0.027107155542311
 New state      8 was old state      7
 Root      8 not converged, maximum delta is    0.064817082972650
 New state      9 was old state      8
 Root      9 not converged, maximum delta is    0.242110705311056
 New state     10 was old state     15
 Root     10 not converged, maximum delta is    0.387620397271078
 New state     11 was old state     10
 Root     11 not converged, maximum delta is    0.095884748896269
 New state     12 was old state     11
 Root     12 not converged, maximum delta is    0.089111324999422
 New state     13 was old state     12
 Root     13 not converged, maximum delta is    0.080261725173607
 New state     14 was old state     13
 Root     14 not converged, maximum delta is    0.055796923042450
 New state     15 was old state     14
 Root     15 not converged, maximum delta is    0.054985857955166
 Excitation Energies [eV] at current iteration:
 Root      1 :     7.267824475213019   Change is   -0.194877460520132
 Root      2 :     7.535184888343265   Change is   -0.764045450816718
 Root      3 :     8.488659376744749   Change is   -0.025531462143336
 Root      4 :     8.710025103738111   Change is   -0.008239445722452
 Root      5 :     9.175138520629528   Change is   -0.022922203045054
 Root      6 :     9.453096924414302   Change is   -0.576244543459271
 Root      7 :     9.519433394691928   Change is   -0.011565603956582
 Root      8 :     9.693130514669882   Change is   -0.015591167580359
 Root      9 :     9.858819399452791   Change is   -0.038455485927033
 Root     10 :     9.906553508217270   Change is   -1.092884048952898
 Root     11 :    10.104002323660580   Change is   -0.014157978056446
 Root     12 :    10.316649606703770   Change is   -0.011383153866639
 Root     13 :    10.369227648074730   Change is   -0.014518255466495
 Root     14 :    10.658124172831460   Change is   -0.003470437759768
 Root     15 :    10.786854944556570   Change is   -0.008499179269516
 Root     16 :    11.029201981118970   Change is   -0.035372555695850
 Root     17 :    11.226392522351730   Change is   -0.016935281114755
 Root     18 :    11.378039240326120   Change is   -0.028585082722544
 Root     19 :    11.481004748135710   Change is   -0.033408400730348
 Root     20 :    11.512491147206150   Change is   -0.034483883706503
 Root     21 :    11.752115551543740   Change is   -0.089452697595928
 Root     22 :    11.959498751331890   Change is   -0.019800221590884
 Root     23 :    12.019326236895190   Change is   -0.057927034936971
 Root     24 :    12.181824092034710   Change is   -0.043815209203134
 Root     25 :    12.325571449196930   Change is   -0.046982832469160
 Root     26 :    12.638612196574210   Change is   -0.098312423131703
 Root     27 :    12.840216945696730   Change is   -0.837892039797055
 Root     28 :    13.355803917483660   Change is   -0.025627751613236
 Root     29 :    13.371379090731530   Change is   -0.069043022616529
 Root     30 :    13.504233521615840   Change is   -0.194131876554564
 Root     31 :    13.520274558919690   Change is   -0.016843945240315
 Root     32 :    13.645038289514520   Change is   -0.454134903401771
 Root     33 :    13.885954205175010   Change is   -0.044701892861453
 Root     34 :    14.082077680803980   Change is   -0.158517773233562
 Root     35 :    14.145767421340680   Change is   -0.236948676752748
 Root     36 :    14.200691263240840   Change is   -0.109747243520727
 Root     37 :    14.343599361225010   Change is   -0.116000555779601
 Root     38 :    14.479709035173710   Change is   -0.031496534684744
 Root     39 :    14.533644130322340   Change is   -0.122292425667319
 Root     40 :    14.656628572277830   Change is   -0.039959843073169
 Root     41 :    14.689206863221210   Change is   -0.119413715528433
 Root     42 :    14.826585911098420   Change is   -0.041708312683473
 Root     43 :    14.984585108692160   Change is   -0.403284702935764
 Root     44 :    15.000481713565720   Change is   -0.156883116656752
 Root     45 :    15.257735382473120   Change is   -0.036794079145168
 Root     46 :    15.281956723442740   Change is   -0.047489985597014
 Root     47 :    15.320479002900830   Change is   -0.176947238068568
 Root     48 :    15.531906293925660   Change is   -0.038294111952863
 Root     49 :    15.535250029542860   Change is   -0.149564212856617
 Root     50 :    15.541624335283370   Change is   -0.122569380164750
 Root     51 :    15.701745624843890   Change is   -0.195498855022545
 Root     52 :    15.836720255440890   Change is   -0.165725950651606
 Root     53 :    16.043694697139920   Change is   -0.252545796019815
 Root     54 :    16.153982965551250   Change is   -0.018033636306705
 Root     55 :    16.188634004876680   Change is   -1.096972034955771
 Root     56 :    16.403306978012870   Change is   -0.068773675597219
 Root     57 :    16.440676388584340   Change is   -0.427341224497855
 Root     58 :    16.530650343206710   Change is   -0.196525989863891
 Root     59 :    16.543515813596190   Change is   -1.650171943364223
 Root     60 :    16.877896808873240   Change is   -0.924078847673620
 Iteration     3 Dimension   135 NMult   120 NNew     15
 CISAX will form    15 AO SS matrices at one time.
 NMat=    15 NSing=    15 JSym2X= 0.
 Root      1 not converged, maximum delta is    0.001425705922501
 Root      2 not converged, maximum delta is    0.002724130481426
 Root      3 not converged, maximum delta is    0.000176729794506
 Root      4 not converged, maximum delta is    0.000117257717670
 Root      5 not converged, maximum delta is    0.000241944662254
 Root      6 not converged, maximum delta is    0.003058017115706
 Root      7 not converged, maximum delta is    0.000878884783175
 Root      8 not converged, maximum delta is    0.001686925727353
 Root      9 not converged, maximum delta is    0.019490122458459
 Root     10 not converged, maximum delta is    0.021723102119896
 Root     11 not converged, maximum delta is    0.000227099058543
 Root     12 not converged, maximum delta is    0.000269172596167
 Root     13 not converged, maximum delta is    0.000428611224437
 Root     14 not converged, maximum delta is    0.000219406002433
 Root     15 not converged, maximum delta is    0.000185603754243
 Excitation Energies [eV] at current iteration:
 Root      1 :     7.266491960216528   Change is   -0.001332514996492
 Root      2 :     7.533390975816955   Change is   -0.001793912526310
 Root      3 :     8.488643305929802   Change is   -0.000016070814947
 Root      4 :     8.710018909464162   Change is   -0.000006194273950
 Root      5 :     9.175121056886496   Change is   -0.000017463743031
 Root      6 :     9.450746781284604   Change is   -0.002350143129698
 Root      7 :     9.519395850766303   Change is   -0.000037543925625
 Root      8 :     9.693003051375937   Change is   -0.000127463293945
 Root      9 :     9.857109645151949   Change is   -0.001709754300844
 Root     10 :     9.903650970215502   Change is   -0.002902538001768
 Root     11 :    10.103989186858080   Change is   -0.000013136802501
 Root     12 :    10.316630662267390   Change is   -0.000018944436377
 Root     13 :    10.369175468184220   Change is   -0.000052179890510
 Root     14 :    10.658107989748840   Change is   -0.000016183082620
 Root     15 :    10.786840102465270   Change is   -0.000014842091300
 Iteration     4 Dimension   150 NMult   135 NNew     15
 CISAX will form    15 AO SS matrices at one time.
 NMat=    15 NSing=    15 JSym2X= 0.
 Root      1 not converged, maximum delta is    0.000076380643637
 Root      2 not converged, maximum delta is    0.000075391907932
 Root      3 not converged, maximum delta is    0.000002784042845
 Root      4 not converged, maximum delta is    0.000002840923661
 Root      5 not converged, maximum delta is    0.000003366891956
 Root      6 not converged, maximum delta is    0.000067455051355
 Root      7 not converged, maximum delta is    0.000009082722380
 Root      8 not converged, maximum delta is    0.000016053799910
 Root      9 not converged, maximum delta is    0.000065833168546
 Root     10 not converged, maximum delta is    0.000084559986451
 Root     11 not converged, maximum delta is    0.000004220961391
 Root     12 not converged, maximum delta is    0.000004556443200
 Root     13 not converged, maximum delta is    0.000007491399148
 Root     14 not converged, maximum delta is    0.000004379178594
 Root     15 not converged, maximum delta is    0.000005839189327
 Excitation Energies [eV] at current iteration:
 Root      1 :     7.266489933880251   Change is   -0.000002026336277
 Root      2 :     7.533388803218657   Change is   -0.000002172598297
 Root      3 :     8.488643298112311   Change is   -0.000000007817490
 Root      4 :     8.710018902419295   Change is   -0.000000007044868
 Root      5 :     9.175121047312649   Change is   -0.000000009573848
 Root      6 :     9.450743151308069   Change is   -0.000003629976535
 Root      7 :     9.519395794105897   Change is   -0.000000056660405
 Root      8 :     9.693002848909916   Change is   -0.000000202466020
 Root      9 :     9.857106584423789   Change is   -0.000003060728159
 Root     10 :     9.903646142110931   Change is   -0.000004828104570
 Root     11 :    10.103989179199060   Change is   -0.000000007659013
 Root     12 :    10.316630650836110   Change is   -0.000000011431281
 Root     13 :    10.369175422124710   Change is   -0.000000046059505
 Root     14 :    10.658107970620900   Change is   -0.000000019127941
 Root     15 :    10.786840088965300   Change is   -0.000000013499972
 Iteration     5 Dimension   165 NMult   150 NNew     15
 CISAX will form    15 AO SS matrices at one time.
 NMat=    15 NSing=    15 JSym2X= 0.
 Root      1 not converged, maximum delta is    0.000002378218183
 Root      2 not converged, maximum delta is    0.000002636329839
 Root      3 has converged.
 Root      4 has converged.
 Root      5 has converged.
 Root      6 not converged, maximum delta is    0.000003169020667
 Root      7 has converged.
 Root      8 has converged.
 Root      9 not converged, maximum delta is    0.000002351645134
 Root     10 not converged, maximum delta is    0.000003289333858
 Root     11 has converged.
 Root     12 has converged.
 Root     13 has converged.
 Root     14 not converged, maximum delta is    0.000001018334199
 Root     15 has converged.
 Excitation Energies [eV] at current iteration:
 Root      1 :     7.266489931132201   Change is   -0.000000002748050
 Root      2 :     7.533388801157464   Change is   -0.000000002061193
 Root      3 :     8.488643298106647   Change is   -0.000000000005666
 Root      4 :     8.710018902411885   Change is   -0.000000000007409
 Root      5 :     9.175121047305876   Change is   -0.000000000006773
 Root      6 :     9.450743147245193   Change is   -0.000000004062876
 Root      7 :     9.519395794049334   Change is   -0.000000000056564
 Root      8 :     9.693002848684449   Change is   -0.000000000225467
 Root      9 :     9.857106581111244   Change is   -0.000000003312545
 Root     10 :     9.903646136489215   Change is   -0.000000005621715
 Root     11 :    10.103989179194340   Change is   -0.000000000004726
 Root     12 :    10.316630650828460   Change is   -0.000000000007657
 Root     13 :    10.369175422079120   Change is   -0.000000000045591
 Root     14 :    10.658107970597630   Change is   -0.000000000023271
 Root     15 :    10.786840088953930   Change is   -0.000000000011367
 Iteration     6 Dimension   170 NMult   165 NNew      5
 CISAX will form     5 AO SS matrices at one time.
 NMat=     5 NSing=     5 JSym2X= 0.
 Root      1 has converged.
 Root      2 has converged.
 Root      3 has converged.
 Root      4 has converged.
 Root      5 has converged.
 Root      6 has converged.
 Root      7 has converged.
 Root      8 has converged.
 Root      9 has converged.
 Root     10 has converged.
 Root     11 has converged.
 Root     12 has converged.
 Root     13 has converged.
 Root     14 has converged.
 Root     15 has converged.
 Excitation Energies [eV] at current iteration:
 Root      1 :     7.266489931129969   Change is   -0.000000000002233
 Root      2 :     7.533388801156292   Change is   -0.000000000001172
 Root      3 :     8.488643298106638   Change is   -0.000000000000008
 Root      4 :     8.710018902411891   Change is    0.000000000000005
 Root      5 :     9.175121047305870   Change is   -0.000000000000006
 Root      6 :     9.450743147241548   Change is   -0.000000000003645
 Root      7 :     9.519395794049279   Change is   -0.000000000000054
 Root      8 :     9.693002848684236   Change is   -0.000000000000213
 Root      9 :     9.857106581107718   Change is   -0.000000000003527
 Root     10 :     9.903646136482767   Change is   -0.000000000006448
 Root     11 :    10.103989179194340   Change is    0.000000000000000
 Root     12 :    10.316630650828430   Change is   -0.000000000000024
 Root     13 :    10.369175422079070   Change is   -0.000000000000056
 Root     14 :    10.658107970597620   Change is   -0.000000000000011
 Root     15 :    10.786840088953930   Change is    0.000000000000000
 Convergence achieved on expansion vectors.
 ***********************************************************************
 Excited states from <AA,BB:AA,BB> singles matrix:
 ***********************************************************************
 
 1PDM for each excited state written to RWF  633
 Ground to excited state transition densities written to RWF  633
 Ground to excited state transition electric dipole moments (Au):
       state          X           Y           Z        Dip. S.      Osc.
         1        -0.5270     -0.0323      0.0039      0.2787      0.0496
         2        -0.9674      0.2408     -0.0077      0.9940      0.1835
         3        -0.0257      0.0005     -0.1232      0.0158      0.0033
         4         0.0216     -0.0329      0.0149      0.0018      0.0004
         5        -0.0037      0.0187      0.0560      0.0035      0.0008
         6        -0.8486     -0.5047      0.0125      0.9749      0.2257
         7         0.0198     -0.1205      0.0303      0.0158      0.0037
         8         0.0153     -0.2225     -0.0726      0.0550      0.0131
         9         0.1216     -0.8684     -0.0059      0.7689      0.1857
        10        -0.1384      1.0903      0.0328      1.2090      0.2933
        11         0.0164      0.0022     -0.0316      0.0013      0.0003
        12        -0.0002     -0.0258      0.0820      0.0074      0.0019
        13        -0.0397     -0.0865     -0.0079      0.0091      0.0023
        14         0.0131     -0.0570      0.0152      0.0037      0.0010
        15         0.0080     -0.0401      0.0942      0.0106      0.0028
 Ground to excited state transition velocity dipole moments (Au):
       state          X           Y           Z        Dip. S.      Osc.
         1        -0.0017     -0.0491     -0.0006      0.0024      0.0060
         2         0.0057      0.0230     -0.0008      0.0006      0.0013
         3         0.0009     -0.0004      0.0691      0.0048      0.0102
         4         0.0003      0.0008      0.0045      0.0000      0.0000
         5         0.0011      0.0003      0.0127      0.0002      0.0003
         6         0.0866      0.0012     -0.0030      0.0075      0.0144
         7        -0.0037      0.0048     -0.0459      0.0021      0.0041
         8        -0.0027      0.0071      0.0052      0.0001      0.0002
         9        -0.0165      0.0336      0.0008      0.0014      0.0026
        10         0.0228     -0.0450     -0.0069      0.0026      0.0047
        11        -0.0018     -0.0017     -0.0495      0.0025      0.0044
        12        -0.0005      0.0012     -0.0239      0.0006      0.0010
        13         0.0073      0.0048      0.0376      0.0015      0.0026
        14        -0.0039      0.0036     -0.0322      0.0011      0.0018
        15         0.0008      0.0049     -0.0228      0.0005      0.0009
 Ground to excited state transition magnetic dipole moments (Au):
       state          X           Y           Z
         1         0.0066     -0.0014     -0.1941
         2         0.0345     -0.0101     -0.4451
         3        -1.5394      0.1618     -0.0046
         4        -0.0162     -0.5087      0.0185
         5         0.0307      0.1603      0.0054
         6        -0.0132     -0.0111      0.1940
         7        -0.1449      0.1197     -0.0377
         8        -0.3408     -0.1661     -0.0311
         9        -0.1628     -0.0552     -0.1788
        10        -0.2301     -0.0804      0.1889
        11         0.1851      0.0497     -0.0073
        12         0.2346     -0.1030      0.0132
        13         0.0801      0.0091     -0.0361
        14         0.0377     -0.0446      0.0227
        15        -0.0988      0.1917     -0.0145
 Ground to excited state transition velocity quadrupole moments (Au):
       state          XX          YY          ZZ          XY          XZ          YZ
         1        -0.0508     -0.0098      0.0290     -0.0729     -0.0010      0.0004
         2        -0.0092      0.0409     -0.0124     -0.2470     -0.0002      0.0028
         3        -0.0025     -0.0027      0.0004     -0.0098     -0.0210     -0.1811
         4         0.0003      0.0050      0.0019      0.0119      0.0790     -0.0064
         5         0.0020     -0.0046      0.0004     -0.0030      0.1754     -0.0133
         6        -0.0454      0.0261      0.0157      0.3269      0.0027     -0.0022
         7        -0.0326      0.0292      0.0048     -0.0279      0.0551      0.0397
         8        -0.0405      0.0446      0.0086     -0.0084     -0.0507     -0.1403
         9        -0.1947      0.1707      0.0335     -0.0730     -0.0115      0.0416
        10         0.2423     -0.2192     -0.0446      0.0757     -0.0132      0.0132
        11         0.0081      0.0005     -0.0015     -0.0140     -0.0072      0.0777
        12        -0.0095      0.0061      0.0033      0.0008     -0.0098      0.0231
        13        -0.0175      0.0199     -0.0006      0.0129      0.0149      0.0904
        14        -0.0092      0.0065      0.0033      0.0092     -0.0772      0.0135
        15        -0.0176      0.0124      0.0016     -0.0099     -0.0600     -0.0275
 <0|del|b> * <b|rxdel|0> + <0|del|b> * <b|delr+rdel|0>
 Rotatory Strengths (R) in cgs (10**-40 erg-esu-cm/Gauss)
       state          XX          YY          ZZ    R(velocity)    E-M Angle
         1         0.2403      0.0818      0.1411      0.1544       88.95
         2         0.4004      0.4693     -0.0723      0.2658       88.31
         3        -1.2086     -1.3179     -1.4194     -1.3153       90.93
         4        -0.3393      0.0262     -0.3621     -0.2251       97.49
         5         0.0269      0.1318      0.1691      0.1093       85.71
         6        -1.6320     -0.9460     -0.9840     -1.1873       95.95
         7         3.3508      0.8479      1.5368      1.9118       71.34
         8        -1.0206      1.1794     -0.9917     -0.2776       96.85
         9        -1.6328      1.8750      1.1115      0.4512       85.72
        10         1.1676     -5.5641     -1.3018     -1.8994      100.77
        11         0.9100     -0.7627     -0.2501     -0.0343       90.00
        12        -0.4192     -0.4090     -0.2377     -0.3553       95.33
        13        -0.8349     -0.5589      0.0371     -0.4522      102.38
        14        -0.8222     -0.5729     -0.4815     -0.6255      120.49
        15         1.6001      0.0018      0.5256      0.7092       76.34
 1/2[<0|r|b>*<b|rxdel|0> + (<0|rxdel|b>*<b|r|0>)*]
 Rotatory Strengths (R) in cgs (10**-40 erg-esu-cm/Gauss)
       state          XX          YY          ZZ     R(length)
         1         2.4713     -0.0316      0.5363      0.9920
         2        23.5881      1.7281     -2.4245      7.6306
         3       -27.9573     -0.0574     -0.4042     -9.4729
         4         0.2471    -11.8327     -0.1943     -3.9266
         5         0.0798     -2.1206     -0.2140     -0.7516
         6        -7.9309     -3.9458     -1.7213     -4.5326
         7         2.0283     10.1964      0.8076      4.3441
         8         3.6995    -26.1443     -1.5957     -8.0135
         9        13.9957    -33.9027     -0.7524     -6.8865
        10       -22.5225     62.0156     -4.3868     11.7021
        11        -2.1405     -0.0766     -0.1623     -0.7931
        12         0.0321     -1.8772     -0.7656     -0.8702
        13         2.2487      0.5559     -0.2006      0.8680
        14        -0.3496     -1.7978     -0.2431     -0.7968
        15         0.5622      5.4415      0.9675      2.3237
  1/2[<0|del|b>*<b|r|0> + (<0|r|b>*<b|del|0>)*] (Au)
       state          X           Y           Z        Dip. S.   Osc.(frdel)
         1         0.0009      0.0016      0.0000     -0.0025     -0.0017
         2        -0.0055      0.0055      0.0000      0.0000      0.0000
         3         0.0000      0.0000     -0.0085      0.0085      0.0057
         4         0.0000      0.0000      0.0001      0.0000      0.0000
         5         0.0000      0.0000      0.0007     -0.0007     -0.0005
         6        -0.0735     -0.0006      0.0000      0.0742      0.0495
         7        -0.0001     -0.0006     -0.0014      0.0020      0.0014
         8         0.0000     -0.0016     -0.0004      0.0020      0.0013
         9        -0.0020     -0.0292      0.0000      0.0312      0.0208
        10        -0.0032     -0.0490     -0.0002      0.0524      0.0349
        11         0.0000      0.0000      0.0016     -0.0015     -0.0010
        12         0.0000      0.0000     -0.0020      0.0020      0.0013
        13        -0.0003     -0.0004     -0.0003      0.0010      0.0007
        14        -0.0001     -0.0002     -0.0005      0.0007      0.0005
        15         0.0000     -0.0002     -0.0022      0.0023      0.0016

 Excitation energies and oscillator strengths:
 
 Excited State   1:      Singlet-A      7.2665 eV  170.62 nm  f=0.0496  <S**2>=0.000
      17 -> 19         0.48621
      18 -> 19         0.32436
      18 -> 20         0.37709
 This state for optimization and/or second-order correction.
 Total Energy, E(CIS) =  -228.474513538    
 Copying the excited state density for this state as the 1-particle RhoCI density.
 
 Excited State   2:      Singlet-A      7.5334 eV  164.58 nm  f=0.1835  <S**2>=0.000
      17 -> 19        -0.23504
      18 -> 19         0.59786
      18 -> 20        -0.23973
 
 Excited State   3:      Singlet-A      8.4886 eV  146.06 nm  f=0.0033  <S**2>=0.000
      16 -> 19         0.70314
 
 Excited State   4:      Singlet-A      8.7100 eV  142.35 nm  f=0.0004  <S**2>=0.000
      18 -> 21         0.67057
      18 -> 22        -0.20386
 
 Excited State   5:      Singlet-A      9.1751 eV  135.13 nm  f=0.0008  <S**2>=0.000
      18 -> 21         0.20170
      18 -> 22         0.66739
 
 Excited State   6:      Singlet-A      9.4507 eV  131.19 nm  f=0.2257  <S**2>=0.000
      17 -> 19         0.21203
      17 -> 20         0.59495
      18 -> 20        -0.24684
 
 Excited State   7:      Singlet-A      9.5194 eV  130.24 nm  f=0.0037  <S**2>=0.000
      17 -> 21         0.38762
      18 -> 23         0.55739
      18 -> 24        -0.10354
 
 Excited State   8:      Singlet-A      9.6930 eV  127.91 nm  f=0.0131  <S**2>=0.000
      15 -> 19         0.27424
      17 -> 21         0.51288
      17 -> 22        -0.13767
      18 -> 23        -0.34417
 
 Excited State   9:      Singlet-A      9.8571 eV  125.78 nm  f=0.1857  <S**2>=0.000
      15 -> 19         0.44550
      16 -> 20         0.13234
      17 -> 19         0.21387
      17 -> 20        -0.21545
      17 -> 21        -0.22829
      18 -> 20        -0.27870
      18 -> 23         0.16531
 
 Excited State  10:      Singlet-A      9.9036 eV  125.19 nm  f=0.2933  <S**2>=0.000
      15 -> 19         0.41895
      16 -> 20         0.11602
      17 -> 19        -0.26700
      17 -> 20         0.24064
      18 -> 20         0.34089
      18 -> 23         0.14211
 
 Excited State  11:      Singlet-A     10.1040 eV  122.71 nm  f=0.0003  <S**2>=0.000
      17 -> 21         0.15602
      17 -> 22         0.67805
 
 Excited State  12:      Singlet-A     10.3166 eV  120.18 nm  f=0.0019  <S**2>=0.000
      14 -> 19         0.26407
      15 -> 19        -0.15442
      16 -> 20         0.60689
      18 -> 24         0.16859
 
 Excited State  13:      Singlet-A     10.3692 eV  119.57 nm  f=0.0023  <S**2>=0.000
      16 -> 20        -0.13295
      18 -> 24         0.67054
 
 Excited State  14:      Singlet-A     10.6581 eV  116.33 nm  f=0.0010  <S**2>=0.000
      14 -> 19         0.25503
      16 -> 20        -0.10675
      17 -> 23         0.63378
 
 Excited State  15:      Singlet-A     10.7868 eV  114.94 nm  f=0.0028  <S**2>=0.000
      14 -> 19         0.57566
      16 -> 20        -0.24600
      17 -> 23        -0.25959
      17 -> 24         0.15049
 SavETr:  write IOETrn=   770 NScale= 10 NData=  16 NLR=1 NState=   15 LETran=     280.
 The selected state is a singlet
 CISAX will form     1 AO SS matrices at one time.
 NMat=     1 NSing=     1 JSym2X= 0.
 CISAX will form     1 AO SS matrices at one time.
 NMat=     1 NSing=     1 JSym2X= 0.
 Leave Link  914 at Tue Dec 15 16:18:36 2015, MaxMem=    33554432 cpu:        25.1
 (Enter /home/Applications/g09/g09/l1002.exe)
 Minotr:  Closed shell wavefunction.
          Computing CIS/TD-HF/TD-KS derivatives.
          Using Z-Vector for PSCF gradient.
          Skipping F1 and S1 gradient terms here.
          IDoAtm=111111111
          Frozen-core window.
          Direct CPHF calculation.
          Differentiating once with respect to electric field.
                with respect to dipole field.
          Differentiating once with respect to nuclear coordinates.
          Requested convergence is 1.0D-10 RMS, and 1.0D-09 maximum.
          NewPWx=F KeepS1=T KeepF1=T KeepIn=T MapXYZ=F SortEE=F KeepMc=T.
          MDV=      33554290 using IRadAn=       0.
 Using stored XC quadrature information.
 Keep R1 ints in memory in canonical form, NReq=1898913.
 FoFCou: FMM=F IPFlag=           0 FMFlag=           0 FMFlg1=           0
         NFxFlg=           0 DoJE=F BraDBF=F KetDBF=F FulRan=T
         wScrn=  0.000000 ICntrl=     600 IOpCl=  0 I1Cent=           0 NGrid=           0
         NMat0=    1 NMatS0=   1431 NMatT0=    0 NMatD0=    1 NMtDS0=    0 NMtDT0=    0
 Symmetry not used in FoFCou.
          Solving linear equations separately, MaxMat=       0.
          There are     1 degrees of freedom in the 1st order CPHF.  IDoFFX=0 NUNeed=     1.
 LinEq1:  Iter=  0 NonCon=     1 RMS=3.93D-02 Max=6.51D-01 NDo=     1
 AX will form     1 AO Fock derivatives at one time.
 LinEq1:  Iter=  1 NonCon=     1 RMS=1.26D-02 Max=1.47D-01 NDo=     1
 LinEq1:  Iter=  2 NonCon=     1 RMS=9.55D-03 Max=1.34D-01 NDo=     1
 LinEq1:  Iter=  3 NonCon=     1 RMS=3.78D-03 Max=5.46D-02 NDo=     1
 LinEq1:  Iter=  4 NonCon=     1 RMS=3.04D-03 Max=3.45D-02 NDo=     1
 LinEq1:  Iter=  5 NonCon=     1 RMS=7.65D-04 Max=7.38D-03 NDo=     1
 LinEq1:  Iter=  6 NonCon=     1 RMS=4.00D-04 Max=4.47D-03 NDo=     1
 LinEq1:  Iter=  7 NonCon=     1 RMS=1.71D-04 Max=1.97D-03 NDo=     1
 LinEq1:  Iter=  8 NonCon=     1 RMS=7.21D-05 Max=5.18D-04 NDo=     1
 LinEq1:  Iter=  9 NonCon=     1 RMS=9.54D-06 Max=5.90D-05 NDo=     1
 LinEq1:  Iter= 10 NonCon=     1 RMS=9.60D-07 Max=6.93D-06 NDo=     1
 LinEq1:  Iter= 11 NonCon=     1 RMS=1.28D-07 Max=8.38D-07 NDo=     1
 LinEq1:  Iter= 12 NonCon=     1 RMS=1.68D-08 Max=1.04D-07 NDo=     1
 LinEq1:  Iter= 13 NonCon=     1 RMS=1.46D-09 Max=1.34D-08 NDo=     1
 LinEq1:  Iter= 14 NonCon=     1 RMS=1.48D-10 Max=7.56D-10 NDo=     1
 LinEq1:  Iter= 15 NonCon=     0 RMS=1.99D-11 Max=1.36D-10 NDo=     1
 Linear equations converged to 1.000D-10 1.000D-09 after    15 iterations.
 End of Minotr F.D. properties file   721 does not exist.
 End of Minotr F.D. properties file   722 does not exist.
 End of Minotr F.D. properties file   788 does not exist.
 Leave Link 1002 at Tue Dec 15 16:18:48 2015, MaxMem=    33554432 cpu:        12.1
 (Enter /home/Applications/g09/g09/l601.exe)
 Copying SCF densities to generalized density rwf, IOpCl= 0 IROHF=0.

 **********************************************************************

            Population analysis using the SCF density.

 **********************************************************************

 Orbital symmetries:
       Occupied  (A) (A) (A) (A) (A) (A) (A) (A) (A) (A) (A) (A)
                 (A) (A) (A) (A) (A) (A)
       Virtual   (A) (A) (A) (A) (A) (A) (A) (A) (A) (A) (A) (A)
                 (A) (A) (A) (A) (A) (A) (A) (A) (A) (A) (A) (A)
                 (A) (A) (A) (A) (A) (A) (A) (A) (A) (A) (A)
 The electronic state is 1-A.
 Alpha  occ. eigenvalues --  -19.10343 -10.18020 -10.17079 -10.12802 -10.12270
 Alpha  occ. eigenvalues --   -1.12259  -0.79864  -0.75540  -0.60096  -0.57105
 Alpha  occ. eigenvalues --   -0.53457  -0.45290  -0.44606  -0.42287  -0.39316
 Alpha  occ. eigenvalues --   -0.34830  -0.27241  -0.23672
 Alpha virt. eigenvalues --    0.02342   0.08459   0.12910   0.14306   0.16419
 Alpha virt. eigenvalues --    0.18387   0.21602   0.23208   0.35939   0.42092
 Alpha virt. eigenvalues --    0.48992   0.68286   0.69783   0.70356   0.75448
 Alpha virt. eigenvalues --    0.76850   0.79057   0.79792   0.82700   0.83963
 Alpha virt. eigenvalues --    0.91086   0.98173   0.99657   1.03510   1.18018
 Alpha virt. eigenvalues --    1.22566   1.32060   1.36196   1.50574   1.55502
 Alpha virt. eigenvalues --    1.62875   1.75038   1.98521   2.13317   3.17577
     Molecular Orbital Coefficients:
                           1         2         3         4         5
                           O         O         O         O         O
     Eigenvalues --   -19.10343 -10.18020 -10.17079 -10.12802 -10.12270
   1 1   C  1S          0.00013  -0.00054  -0.00949  -0.11160   0.97971
   2        2S          0.00042  -0.00022  -0.00600  -0.01641   0.10932
   3        2PX         0.00110  -0.00022   0.00163  -0.00103   0.00099
   4        2PY         0.00086   0.00057   0.00321   0.00057  -0.00201
   5        2PZ         0.00003   0.00001   0.00003  -0.00001  -0.00012
   6        3S         -0.00869  -0.01830   0.03790   0.04890  -0.10479
   7        3PX        -0.00461  -0.00023  -0.00589   0.02140  -0.01394
   8        3PY         0.00873   0.01093  -0.01975  -0.01294   0.02918
   9        3PZ        -0.00009   0.00019  -0.00026  -0.00023   0.00079
  10 2   C  1S         -0.00043  -0.02527   0.98501   0.00010   0.00912
  11        2S         -0.00074  -0.00595   0.10660  -0.00012  -0.00448
  12        2PX         0.00185  -0.00137   0.00253  -0.00010  -0.00137
  13        2PY        -0.00176  -0.00047  -0.00031  -0.00069  -0.00278
  14        2PZ         0.00000   0.00000   0.00007   0.00001  -0.00005
  15        3S          0.02096   0.01850  -0.07578  -0.01314   0.04490
  16        3PX         0.01761   0.01747  -0.00963  -0.00631   0.01972
  17        3PY        -0.00023   0.01142  -0.01655  -0.00279   0.02085
  18        3PZ         0.00028   0.00019  -0.00040  -0.00019   0.00036
  19 3   O  1S          0.98278   0.00018   0.00029   0.00006   0.00006
  20        2S          0.10785   0.00148   0.00172   0.00019   0.00019
  21        2PX         0.00009   0.00077  -0.00034   0.00005  -0.00002
  22        2PY         0.00420   0.00073   0.00056  -0.00011  -0.00013
  23        2PZ        -0.00004  -0.00001  -0.00002   0.00001  -0.00002
  24        3S         -0.06107   0.00040   0.00023  -0.00284  -0.00427
  25        3PX         0.00020  -0.00064   0.00122  -0.00281   0.00200
  26        3PY        -0.01370  -0.00321  -0.00354  -0.00105  -0.00180
  27        3PZ         0.00011   0.00003   0.00012   0.00000   0.00006
  28 4   C  1S         -0.00050   0.98515   0.02424   0.01069   0.00196
  29        2S         -0.00100   0.10591  -0.00050  -0.00311  -0.00088
  30        2PX        -0.00188  -0.00246   0.00120   0.00081   0.00016
  31        2PY        -0.00152   0.00001  -0.00069  -0.00171  -0.00125
  32        2PZ         0.00001   0.00004   0.00003   0.00002  -0.00003
  33        3S          0.01562  -0.07168   0.01222   0.03852  -0.00401
  34        3PX        -0.01430   0.00865  -0.01344  -0.01552   0.00258
  35        3PY         0.00176  -0.01615   0.01132   0.01993   0.00064
  36        3PZ         0.00003  -0.00010  -0.00016   0.00000   0.00007
  37 5   C  1S          0.00013  -0.01115  -0.00145   0.97975   0.11101
  38        2S          0.00046  -0.00522  -0.00046   0.10961   0.00858
  39        2PX        -0.00094  -0.00106   0.00029  -0.00130   0.00096
  40        2PY         0.00109   0.00235   0.00071  -0.00159   0.00035
  41        2PZ        -0.00001   0.00000   0.00000   0.00001  -0.00002
  42        3S         -0.00505   0.03376  -0.01346  -0.10423   0.02472
  43        3PX         0.00350   0.00289   0.00112   0.02148  -0.02014
  44        3PY         0.00480  -0.01855   0.00874   0.02611  -0.00740
  45        3PZ         0.00011   0.00002   0.00004  -0.00024   0.00018
  46 6   H  1S         -0.00065  -0.00117  -0.00028  -0.00371  -0.00023
  47        2S         -0.00151   0.00188  -0.00068   0.00407   0.00615
  48 7   H  1S          0.00036  -0.00331   0.00120   0.00004  -0.00017
  49        2S          0.00373   0.00808   0.00693   0.00552   0.00035
  50 8   H  1S          0.00023   0.00150  -0.00377  -0.00009  -0.00016
  51        2S          0.00456   0.00768   0.00935  -0.00065   0.00661
  52 9   H  1S         -0.00093  -0.00037  -0.00098  -0.00004  -0.00312
  53        2S         -0.00284  -0.00092   0.00198   0.00336   0.00430
                           6         7         8         9        10
                           O         O         O         O         O
     Eigenvalues --    -1.12259  -0.79864  -0.75540  -0.60096  -0.57105
   1 1   C  1S         -0.03192   0.15240  -0.06589   0.09549   0.04244
   2        2S          0.03214  -0.16298   0.07242  -0.09768  -0.04061
   3        2PX         0.00780  -0.04933  -0.06920   0.10555  -0.14291
   4        2PY        -0.04003   0.06888  -0.07408   0.03969  -0.07916
   5        2PZ        -0.00065   0.00352  -0.00166   0.00313   0.00107
   6        3S          0.07057  -0.31091   0.11897  -0.32531  -0.14491
   7        3PX         0.02541  -0.02046   0.02014   0.02702  -0.06386
   8        3PY        -0.04891   0.03564   0.01084   0.04653  -0.00967
   9        3PZ        -0.00001   0.00250  -0.00080   0.00284   0.00102
  10 2   C  1S         -0.08278   0.05873  -0.14555  -0.01288  -0.10339
  11        2S          0.09347  -0.07027   0.15881   0.01001   0.11400
  12        2PX         0.08999  -0.01909   0.02810   0.01422  -0.17251
  13        2PY        -0.03778  -0.14053  -0.00008  -0.23231   0.00190
  14        2PZ         0.00097  -0.00109   0.00191  -0.00100   0.00042
  15        3S          0.05242  -0.08535   0.35549   0.08607   0.33391
  16        3PX        -0.05312  -0.01219   0.02380   0.01758  -0.09424
  17        3PY        -0.01575  -0.03591   0.04061  -0.06595   0.00479
  18        3PZ        -0.00069  -0.00075   0.00141  -0.00016   0.00032
  19 3   O  1S         -0.20958  -0.09326   0.00634  -0.00068   0.04282
  20        2S          0.19001   0.08986  -0.00506   0.00217  -0.04259
  21        2PX        -0.00451  -0.00490  -0.21127  -0.25765   0.00475
  22        2PY         0.11056  -0.02573   0.01582   0.00882  -0.03579
  23        2PZ        -0.00086  -0.00056  -0.00008  -0.00107   0.00046
  24        3S          0.66891   0.33683  -0.02542   0.00101  -0.18984
  25        3PX        -0.00096  -0.00275  -0.17520  -0.22808   0.00298
  26        3PY         0.14182  -0.00713   0.00876   0.00490  -0.03712
  27        3PZ        -0.00112  -0.00038  -0.00020  -0.00096   0.00028
  28 4   C  1S         -0.06781   0.04814   0.14618   0.02002  -0.10967
  29        2S          0.07705  -0.05717  -0.15740  -0.01759   0.12037
  30        2PX        -0.07948   0.00161   0.04014   0.06240   0.14780
  31        2PY        -0.01783  -0.11502  -0.00769   0.19479  -0.02133
  32        2PZ         0.00049  -0.00025  -0.00133  -0.00126   0.00158
  33        3S          0.05871  -0.06560  -0.35147  -0.10606   0.34501
  34        3PX         0.03500   0.00511   0.02248   0.04138   0.08512
  35        3PY        -0.01844  -0.03113  -0.03551   0.04834  -0.00929
  36        3PZ         0.00020   0.00005  -0.00058  -0.00050   0.00136
  37 5   C  1S         -0.02737   0.14026   0.07742  -0.11513   0.03650
  38        2S          0.02717  -0.14999  -0.08308   0.11727  -0.03675
  39        2PX        -0.01247   0.06210  -0.04991   0.11025   0.13675
  40        2PY        -0.03228   0.05088   0.07257   0.00181  -0.08250
  41        2PZ         0.00010  -0.00029   0.00011  -0.00096  -0.00080
  42        3S          0.04758  -0.28640  -0.16221   0.39106  -0.11242
  43        3PX        -0.02001   0.02182   0.02257   0.03253   0.06226
  44        3PY        -0.02946   0.03416   0.00006  -0.03137  -0.01962
  45        3PZ        -0.00030  -0.00044  -0.00017  -0.00067  -0.00052
  46 6   H  1S          0.00668  -0.05549  -0.04168   0.12479  -0.01248
  47        2S          0.00924  -0.01395  -0.01337   0.06843  -0.01064
  48 7   H  1S          0.01010  -0.01191  -0.07555  -0.03655   0.16006
  49        2S         -0.02181  -0.00371  -0.02900  -0.02962   0.08543
  50 8   H  1S          0.01539  -0.01577   0.08510   0.04748   0.17054
  51        2S         -0.02844  -0.00338   0.03073   0.03334   0.08493
  52 9   H  1S          0.00765  -0.05570   0.02804  -0.07766  -0.03152
  53        2S          0.01552  -0.01359   0.00516  -0.04491  -0.02440
                          11        12        13        14        15
                           O         O         O         O         O
     Eigenvalues --    -0.53457  -0.45290  -0.44606  -0.42287  -0.39316
   1 1   C  1S         -0.05921  -0.03800   0.00238   0.01708  -0.00068
   2        2S          0.05499   0.04224  -0.00313  -0.01461   0.00477
   3        2PX        -0.02607  -0.00141   0.00293  -0.15874   0.29755
   4        2PY         0.23070  -0.00100  -0.00678  -0.21273  -0.16352
   5        2PZ        -0.00339   0.01050   0.12630  -0.00200   0.00214
   6        3S          0.26375   0.11077  -0.00250  -0.08314   0.00648
   7        3PX        -0.03870   0.00489   0.00602  -0.06006   0.20830
   8        3PY         0.11874   0.02566  -0.01244  -0.10651  -0.13368
   9        3PZ        -0.00389   0.00729   0.09060  -0.00073   0.00179
  10 2   C  1S          0.02482   0.02004  -0.00137  -0.02995  -0.02069
  11        2S         -0.03111  -0.01766   0.00123   0.03795   0.02298
  12        2PX        -0.14744   0.26722  -0.02762   0.10563  -0.04544
  13        2PY        -0.07345   0.00356   0.00326   0.23022   0.00309
  14        2PZ        -0.00337   0.02159   0.20764   0.00064  -0.00498
  15        3S         -0.05485  -0.06831   0.00197   0.10684   0.06050
  16        3PX        -0.10200   0.17377  -0.02222   0.07775  -0.03649
  17        3PY        -0.09596   0.02000  -0.00286   0.14923  -0.03170
  18        3PZ        -0.00167   0.01910   0.18850  -0.00093  -0.00570
  19 3   O  1S         -0.05790   0.00212  -0.00191  -0.01537   0.00813
  20        2S          0.05742  -0.00075   0.00170   0.01265  -0.00522
  21        2PX         0.02269  -0.23915   0.02456   0.08534   0.05241
  22        2PY        -0.18496   0.02158  -0.00690   0.02048  -0.10496
  23        2PZ        -0.00118   0.03469   0.37166  -0.00602  -0.01134
  24        3S          0.22542  -0.00940   0.00819   0.07737  -0.05656
  25        3PX         0.02017  -0.22547   0.02282   0.08966   0.05682
  26        3PY        -0.17083   0.01755  -0.00618   0.01986  -0.10650
  27        3PZ        -0.00115   0.03472   0.37484  -0.00625  -0.01169
  28 4   C  1S          0.02386  -0.02488   0.00461   0.04162   0.02690
  29        2S         -0.03014   0.02486  -0.00522  -0.04790  -0.03290
  30        2PX         0.08443   0.28079  -0.02398   0.00408   0.07373
  31        2PY        -0.12241  -0.07376   0.00327  -0.09031  -0.21130
  32        2PZ        -0.00044   0.01800   0.17470  -0.00523  -0.00221
  33        3S         -0.04738   0.08504  -0.01275  -0.13814  -0.10938
  34        3PX         0.05707   0.19024  -0.01685   0.00649   0.06080
  35        3PY        -0.11095  -0.05828   0.00197  -0.05334  -0.17407
  36        3PZ        -0.00011   0.01664   0.16518  -0.00455  -0.00308
  37 5   C  1S         -0.03916   0.03548  -0.00474  -0.01038  -0.02984
  38        2S          0.03624  -0.04003   0.00548   0.00688   0.02935
  39        2PX         0.02100  -0.01468   0.00212   0.24211  -0.24545
  40        2PY         0.20589   0.03518   0.00340   0.21120   0.15954
  41        2PZ        -0.00121   0.01091   0.10962  -0.00690   0.00296
  42        3S          0.16874  -0.10607   0.01202   0.04829   0.13245
  43        3PX         0.04589  -0.00616   0.00488   0.18883  -0.14033
  44        3PY         0.10811  -0.00112   0.00593   0.13642   0.06726
  45        3PZ        -0.00080   0.00794   0.08240  -0.00537   0.00116
  46 6   H  1S          0.11649  -0.02894   0.00701   0.23056  -0.00019
  47        2S          0.06306  -0.01084   0.00340   0.19245   0.00351
  48 7   H  1S          0.04479   0.20704  -0.01844  -0.02320   0.09611
  49        2S          0.01886   0.16277  -0.01540  -0.01739   0.09025
  50 8   H  1S          0.06023  -0.18399   0.01701  -0.09466   0.06802
  51        2S          0.02397  -0.13803   0.01108  -0.08338   0.05598
  52 9   H  1S          0.15346   0.04094  -0.00969  -0.08655  -0.20879
  53        2S          0.09171   0.02304  -0.00358  -0.07559  -0.19721
                          16        17        18        19        20
                           O         O         O         V         V
     Eigenvalues --    -0.34830  -0.27241  -0.23672   0.02342   0.08459
   1 1   C  1S          0.02768   0.00298   0.00194   0.00174  -0.00628
   2        2S         -0.02941  -0.00364  -0.00255  -0.00111   0.00427
   3        2PX         0.03979   0.00553  -0.00038  -0.00118  -0.00725
   4        2PY         0.14771  -0.00175  -0.00225  -0.00458   0.01222
   5        2PZ         0.00134  -0.29146  -0.18823  -0.10908   0.36146
   6        3S         -0.17592  -0.00851  -0.00122  -0.00787   0.04736
   7        3PX         0.07841   0.00835   0.00225  -0.00460  -0.02674
   8        3PY         0.10356  -0.00389  -0.00735  -0.01626   0.03892
   9        3PZ         0.00316  -0.30352  -0.19257  -0.19907   0.73193
  10 2   C  1S         -0.02099  -0.00064  -0.00139   0.00148   0.00044
  11        2S          0.02689   0.00072   0.00209  -0.00005  -0.00296
  12        2PX         0.01646   0.00000   0.00307  -0.00142  -0.00343
  13        2PY        -0.17170   0.00062   0.00567  -0.00222  -0.00374
  14        2PZ        -0.00083  -0.07146  -0.31463   0.28791  -0.26525
  15        3S          0.08879   0.00023   0.00017  -0.02299   0.02004
  16        3PX         0.00122  -0.00101  -0.00112  -0.00555   0.00496
  17        3PY         0.02488  -0.00007   0.00137  -0.01130   0.00269
  18        3PZ         0.00023  -0.02620  -0.32762   0.43515  -0.52225
  19 3   O  1S          0.06447   0.00008  -0.00078   0.00039  -0.00086
  20        2S         -0.06520  -0.00004   0.00060   0.00008   0.00090
  21        2PX         0.05493  -0.00033   0.00078  -0.00005   0.00021
  22        2PY         0.43262   0.00003  -0.00233  -0.00181   0.00262
  23        2PZ         0.00215   0.31763   0.01060  -0.28250   0.04913
  24        3S         -0.23446  -0.00085   0.00437  -0.00432   0.00466
  25        3PX         0.05921  -0.00074  -0.00014  -0.00064   0.00163
  26        3PY         0.47048  -0.00001  -0.00231  -0.00288   0.00287
  27        3PZ         0.00206   0.36059   0.01563  -0.39795   0.07670
  28 4   C  1S         -0.01393   0.00012   0.00179   0.00174   0.00081
  29        2S          0.01853  -0.00020  -0.00215  -0.00089  -0.00078
  30        2PX        -0.05671   0.00124   0.00034  -0.00517  -0.00031
  31        2PY        -0.18940  -0.00205   0.00296   0.00145   0.00426
  32        2PZ         0.00461  -0.06221   0.33407   0.35022   0.16355
  33        3S          0.06173  -0.00051  -0.00584  -0.01310  -0.00976
  34        3PX        -0.01721  -0.00013  -0.00233  -0.01279  -0.00132
  35        3PY        -0.00899  -0.00190   0.00321   0.00574   0.00844
  36        3PZ         0.00406  -0.02365   0.35781   0.53597   0.33202
  37 5   C  1S          0.02252  -0.00047  -0.00035  -0.00134   0.00113
  38        2S         -0.02224   0.00092   0.00085   0.00205  -0.00254
  39        2PX        -0.01367  -0.00759   0.00410  -0.00496   0.00139
  40        2PY         0.18012   0.00096  -0.00070  -0.00292  -0.00099
  41        2PZ         0.00228  -0.28271   0.19882  -0.22336  -0.30977
  42        3S         -0.15021  -0.00197  -0.00329   0.00395   0.00437
  43        3PX        -0.05665  -0.00339   0.00726  -0.00845  -0.01047
  44        3PY         0.13586   0.00050   0.00181   0.00286  -0.00715
  45        3PZ         0.00164  -0.29407   0.21259  -0.38693  -0.61719
  46 6   H  1S          0.07181  -0.00051   0.00103   0.00154   0.00031
  47        2S          0.10269  -0.00123   0.00006   0.00187   0.00152
  48 7   H  1S          0.06246   0.00184   0.00031   0.00456   0.00206
  49        2S          0.07052   0.00302   0.00093   0.01786   0.00828
  50 8   H  1S          0.07821   0.00173  -0.00136   0.00146  -0.00267
  51        2S          0.08245   0.00199  -0.00322   0.00397  -0.01144
  52 9   H  1S          0.05426  -0.00019   0.00093   0.00353  -0.01225
  53        2S          0.08586  -0.00007   0.00241   0.01393  -0.06312
                          21        22        23        24        25
                           V         V         V         V         V
     Eigenvalues --     0.12910   0.14306   0.16419   0.18387   0.21602
   1 1   C  1S          0.03602  -0.01894  -0.06288  -0.10089  -0.03357
   2        2S         -0.01622   0.01287   0.06310   0.07721   0.02299
   3        2PX         0.08843  -0.05110   0.09978  -0.05079  -0.21817
   4        2PY        -0.16566   0.09299  -0.01931   0.17419   0.01513
   5        2PZ         0.01478  -0.00776  -0.00308  -0.01807  -0.00632
   6        3S         -0.47718   0.13604   0.30413   1.01040   0.50158
   7        3PX         0.19797  -0.14381   0.19518  -0.38816  -0.94521
   8        3PY        -0.47532   0.32742   0.27657   0.74578   0.05249
   9        3PZ         0.03771  -0.02032  -0.00469  -0.05417  -0.02000
  10 2   C  1S          0.04358   0.06171   0.07238   0.01704   0.08055
  11        2S         -0.02718  -0.05288  -0.05603  -0.03198  -0.05173
  12        2PX         0.13124  -0.10497   0.19544  -0.08739   0.16677
  13        2PY         0.01311   0.12969   0.08483  -0.07974  -0.01824
  14        2PZ        -0.00881   0.00320   0.00104   0.00541  -0.00052
  15        3S         -0.64886  -0.42586  -0.75875   0.13953  -1.23217
  16        3PX         0.33588  -0.07004   0.86293  -0.00621   0.62866
  17        3PY        -0.00734   0.47879   0.38669  -0.21238  -0.20961
  18        3PZ        -0.02330   0.01288   0.00910   0.02724   0.00024
  19 3   O  1S          0.01342  -0.10090  -0.03864   0.00945   0.06362
  20        2S         -0.00716   0.07187   0.02597  -0.00650  -0.02810
  21        2PX         0.02380   0.05172   0.07497  -0.04400  -0.18570
  22        2PY        -0.07494   0.14897   0.04529  -0.00349  -0.02378
  23        2PZ         0.00456  -0.00118  -0.00303  -0.00120   0.00314
  24        3S         -0.12852   0.81953   0.32263  -0.08220  -0.66312
  25        3PX         0.03989   0.06639   0.17986  -0.00760  -0.37304
  26        3PY        -0.14597   0.24051   0.06908  -0.00945  -0.12758
  27        3PZ         0.00845  -0.00279  -0.00564  -0.00270   0.00527
  28 4   C  1S          0.06885   0.11642  -0.01923  -0.01787  -0.02508
  29        2S         -0.04872  -0.08840   0.01192   0.02986   0.03225
  30        2PX        -0.13784   0.01755   0.26976  -0.10849  -0.21215
  31        2PY         0.04426   0.20872   0.01669   0.02826  -0.16169
  32        2PZ        -0.00426  -0.00736   0.00475  -0.00170  -0.00135
  33        3S         -0.79944  -1.06771   0.33740  -0.12891  -0.03048
  34        3PX        -0.35438  -0.22988   0.84123  -0.00989  -0.57560
  35        3PY         0.10754   0.63659  -0.00516   0.05535  -0.63530
  36        3PZ        -0.00944  -0.01901   0.01237  -0.01000  -0.00308
  37 5   C  1S          0.03877  -0.04426   0.06072   0.09764  -0.07129
  38        2S         -0.01572   0.04581  -0.05134  -0.07391   0.01884
  39        2PX        -0.04835   0.01218   0.06255  -0.08626   0.09332
  40        2PY        -0.17123   0.02610   0.03880  -0.15517   0.04485
  41        2PZ        -0.00230   0.00442  -0.00347   0.00830   0.00239
  42        3S         -0.55652   0.27291  -0.47715  -1.02289   1.34753
  43        3PX        -0.16489   0.14130   0.13863  -0.51616   0.08253
  44        3PY        -0.39537   0.17994  -0.12353  -0.76798   0.03299
  45        3PZ        -0.00489   0.01479  -0.00804   0.03259   0.01318
  46 6   H  1S          0.08061  -0.05729  -0.01256   0.06942   0.05415
  47        2S          0.87151  -0.49312   0.12404   1.51474  -0.61775
  48 7   H  1S          0.06388   0.09799  -0.05787  -0.01202   0.01525
  49        2S          0.88431   1.20754  -0.97720   0.13684   0.15100
  50 8   H  1S          0.05877   0.03894   0.09398  -0.00106  -0.02110
  51        2S          0.75229   0.40469   1.52234  -0.21677   1.08944
  52 9   H  1S          0.09418  -0.05905  -0.01014  -0.04870   0.00151
  53        2S          0.95624  -0.56896  -0.25092  -1.37280  -0.73410
                          26        27        28        29        30
                           V         V         V         V         V
     Eigenvalues --     0.23208   0.35939   0.42092   0.48992   0.68286
   1 1   C  1S         -0.07619  -0.04585   0.02338  -0.13682  -0.00590
   2        2S          0.01272   0.01604   0.01625   0.03338  -0.10273
   3        2PX         0.06676   0.12241   0.22400   0.13688   0.45931
   4        2PY         0.06254  -0.02714   0.15902  -0.19880   0.28311
   5        2PZ        -0.00472   0.00274  -0.00080   0.01062  -0.00012
   6        3S          1.51528   0.82625  -1.19483   3.63535  -0.12883
   7        3PX         0.65047  -0.20215   1.65555   1.33417  -0.41484
   8        3PY         0.10226  -0.84917   1.78745  -2.26884  -0.29664
   9        3PZ        -0.02555  -0.00337   0.01680  -0.03101  -0.00282
  10 2   C  1S         -0.07109   0.06066  -0.04872   0.11238  -0.04267
  11        2S          0.05867  -0.00271   0.00898  -0.00816  -0.06714
  12        2PX         0.13739  -0.14314  -0.00968  -0.26903   0.32884
  13        2PY        -0.19438  -0.14985   0.19551   0.12728  -0.47627
  14        2PZ         0.00339  -0.00286   0.00178   0.00131  -0.00102
  15        3S          0.65903  -1.15677   1.76771  -2.45971   0.01451
  16        3PX         0.29879  -0.91959   0.21560  -1.77824  -0.17071
  17        3PY        -0.71372  -0.39308   2.15207  -1.38824   0.62175
  18        3PZ         0.01195  -0.01945   0.03245  -0.04054   0.00621
  19 3   O  1S          0.05344  -0.05641   0.00222  -0.02021   0.02940
  20        2S         -0.02392   0.02065   0.00012   0.00537  -0.08929
  21        2PX         0.26156  -0.03070  -0.22533  -0.22295   0.03501
  22        2PY        -0.04593   0.14411  -0.02752   0.03469  -0.19189
  23        2PZ         0.00013  -0.00046  -0.00340  -0.00150  -0.00090
  24        3S         -0.56591   0.73624  -0.03097   0.29340   0.19897
  25        3PX         0.53090  -0.09304  -0.59757  -0.41886   0.01465
  26        3PY        -0.14298   0.46656  -0.08531   0.16843  -0.10908
  27        3PZ         0.00125  -0.00090  -0.00605   0.00074  -0.00178
  28 4   C  1S          0.07936   0.09450   0.00011  -0.08218  -0.04583
  29        2S         -0.05259  -0.00879  -0.00371   0.04290  -0.00142
  30        2PX        -0.02023   0.15840  -0.08863  -0.25117  -0.25489
  31        2PY         0.00430  -0.26330  -0.05939  -0.12705  -0.09140
[...]
          Condensed to atoms (all electrons):
               1          2          3          4          5          6
     1  C    5.250350   0.461448  -0.084340  -0.130959   0.455531  -0.019335
     2  C    0.461448   5.017825   0.284697  -0.138671  -0.129192   0.004152
     3  O   -0.084340   0.284697   8.139932   0.297060  -0.089534   0.002248
     4  C   -0.130959  -0.138671   0.297060   5.093143   0.455203  -0.034576
     5  C    0.455531  -0.129192  -0.089534   0.455203   5.243223   0.378553
     6  H   -0.019335   0.004152   0.002248  -0.034576   0.378553   0.480287
     7  H    0.002164   0.003073  -0.022913   0.378631  -0.032843   0.000038
     8  H   -0.040788   0.389953  -0.030711   0.003565   0.002628  -0.000015
     9  H    0.372565  -0.026320   0.002537   0.004957  -0.029552  -0.000811
               7          8          9
     1  C    0.002164  -0.040788   0.372565
     2  C    0.003073   0.389953  -0.026320
     3  O   -0.022913  -0.030711   0.002537
     4  C    0.378631   0.003565   0.004957
     5  C   -0.032843   0.002628  -0.029552
     6  H    0.000038  -0.000015  -0.000811
     7  H    0.452106  -0.000028  -0.000022
     8  H   -0.000028   0.450985  -0.000604
     9  H   -0.000022  -0.000604   0.496570
 Mulliken charges:
               1
     1  C   -0.266636
     2  C    0.133035
     3  O   -0.498976
     4  C    0.071649
     5  C   -0.254018
     6  H    0.189458
     7  H    0.219795
     8  H    0.225014
     9  H    0.180679
 Sum of Mulliken charges =   0.00000
 Mulliken charges with hydrogens summed into heavy atoms:
               1
     1  C   -0.085957
     2  C    0.358049
     3  O   -0.498976
     4  C    0.291444
     5  C   -0.064560
 Electronic spatial extent (au):  <R**2>=            290.2157
 Charge=              0.0000 electrons
 Dipole moment (field-independent basis, Debye):
    X=              0.1413    Y=              0.5602    Z=             -0.0375  Tot=              0.5790
 Quadrupole moment (field-independent basis, Debye-Ang):
   XX=            -23.1242   YY=            -28.2280   ZZ=            -31.8165
   XY=             -0.2427   XZ=              0.0753   YZ=             -0.0970
 Traceless Quadrupole moment (field-independent basis, Debye-Ang):
   XX=              4.5987   YY=             -0.5051   ZZ=             -4.0936
   XY=             -0.2427   XZ=              0.0753   YZ=             -0.0970
 Octapole moment (field-independent basis, Debye-Ang**2):
  XXX=             -0.0146  YYY=              1.1884  ZZZ=             -0.0232  XYY=              0.8985
  XXY=             -4.8880  XXZ=             -0.0608  XZZ=             -0.5625  YZZ=             -3.4427
  YYZ=             -0.1588  XYZ=             -0.0114
 Hexadecapole moment (field-independent basis, Debye-Ang**3):
 XXXX=           -158.8044 YYYY=           -154.7064 ZZZZ=            -30.8720 XXXY=              1.5694
 XXXZ=              0.2818 YYYX=             -1.6732 YYYZ=             -0.4038 ZZZX=              0.0834
 ZZZY=             -0.1221 XXYY=            -45.3547 XXZZ=            -40.1999 YYZZ=            -33.8622
 XXYZ=             -0.2630 YYXZ=              0.1731 ZZXY=              0.4617
 N-N= 1.610449280371D+02 E-N=-8.547129562446D+02  KE= 2.268738264107D+02
 Orbital energies and kinetic energies (alpha):
                                 1                 2
   1         O               -19.103427         28.828733
   2         O               -10.180203         15.803355
   3         O               -10.170786         15.796476
   4         O               -10.128021         15.806848
   5         O               -10.122702         15.806131
   6         O                -1.122593          2.499076
   7         O                -0.798636          1.831863
   8         O                -0.755399          1.810507
   9         O                -0.600957          1.671804
  10         O                -0.571054          1.363045
  11         O                -0.534566          1.344450
  12         O                -0.452905          1.454524
  13         O                -0.446059          1.566616
  14         O                -0.422868          1.363250
  15         O                -0.393163          1.367119
  16         O                -0.348300          2.331803
  17         O                -0.272411          1.576791
  18         O                -0.236717          1.214523
  19         V                 0.023417          1.814728
  20         V                 0.084591          1.505972
  21         V                 0.129100          1.108463
  22         V                 0.143062          1.855754
  23         V                 0.164194          1.359808
  24         V                 0.183874          1.262080
  25         V                 0.216024          1.709116
  26         V                 0.232078          1.976508
  27         V                 0.359394          1.920856
  28         V                 0.420918          1.761583
  29         V                 0.489921          2.793031
  30         V                 0.682859          2.590524
  31         V                 0.697832          2.488466
  32         V                 0.703565          2.697261
  33         V                 0.754477          2.683698
  34         V                 0.768497          2.504531
  35         V                 0.790570          2.593091
  36         V                 0.797922          2.602644
  37         V                 0.827000          2.610139
  38         V                 0.839631          2.603009
  39         V                 0.910864          2.741395
  40         V                 0.981729          3.321730
  41         V                 0.996574          3.003852
  42         V                 1.035098          3.274592
  43         V                 1.180176          2.729863
  44         V                 1.225664          2.920690
  45         V                 1.320599          2.525091
  46         V                 1.361961          2.843505
  47         V                 1.505738          4.970055
  48         V                 1.555022          3.340429
  49         V                 1.628751          3.755484
  50         V                 1.750380          4.371457
  51         V                 1.985214          4.133550
  52         V                 2.133169          4.254136
  53         V                 3.175766          6.824876
 Total kinetic energy from orbitals= 2.268738264107D+02
 No NMR shielding tensors so no spin-rotation constants.
 Leave Link  601 at Tue Dec 15 16:18:48 2015, MaxMem=    33554432 cpu:         0.1
 (Enter /home/Applications/g09/g09/l701.exe)
 Compute integral first derivatives.
 ... and contract with generalized density number  6.
 Leave Link  701 at Tue Dec 15 16:18:48 2015, MaxMem=    33554432 cpu:         0.1
 (Enter /home/Applications/g09/g09/l702.exe)
 L702 exits ... SP integral derivatives will be done elsewhere.
 Leave Link  702 at Tue Dec 15 16:18:48 2015, MaxMem=    33554432 cpu:         0.0
 (Enter /home/Applications/g09/g09/l703.exe)
 Compute integral first derivatives, UseDBF=F ICtDFT=           0.
 Integral derivatives from FoFJK, PRISM(SPDF).
 Calling FoFJK, ICntrl=  10005127 FMM=F ISym2X=0 I1Cent= 0 IOpClX= 0 NMat=1 NMatS=1 NMatT=0.
 FoFJK:  IHMeth= 1 ICntrl=10005127 DoSepK=F KAlg= 0 I1Cent=   0 FoldK=F
 IRaf=         0 NMat=   1 IRICut=       1 DoRegI=T DoRafI=F ISym2E= 0.
 FoFCou: FMM=F IPFlag=           0 FMFlag=      100000 FMFlg1=         800
         NFxFlg=           0 DoJE=F BraDBF=F KetDBF=F FulRan=T
         wScrn=  0.000000 ICntrl=10005127 IOpCl=  0 I1Cent=           0 NGrid=           0
         NMat0=    1 NMatS0=      1 NMatT0=    0 NMatD0=    1 NMtDS0=    0 NMtDT0=    0
 Symmetry not used in FoFCou.
 Leave Link  703 at Tue Dec 15 16:18:50 2015, MaxMem=    33554432 cpu:         1.7
 (Enter /home/Applications/g09/g09/l716.exe)
 Dipole        =-5.22653027D-01 3.44447016D-01-8.29159069D-03
 ***** Axes restored to original set *****
 -------------------------------------------------------------------
 Center     Atomic                   Forces (Hartrees/Bohr)
 Number     Number              X              Y              Z
 -------------------------------------------------------------------
      1        6           0.159902316   -0.003018233    0.002547297
      2        6          -0.094390826   -0.050054550   -0.000481748
      3        8          -0.093947516   -0.015967300    0.001072043
      4        6          -0.020779380    0.066443237   -0.000264754
      5        6           0.055968178    0.040415359   -0.001162745
      6        1           0.006024494   -0.013368054    0.000038240
      7        1           0.010608751   -0.021943950    0.000063442
      8        1          -0.000870411   -0.011139388   -0.000022766
      9        1          -0.022515607    0.008632878   -0.001789009
 -------------------------------------------------------------------
 Cartesian Forces:  Max     0.159902316 RMS     0.046033106
 Z-matrix is all fixed cartesians, so copy forces.
 Force constants in Cartesian coordinates: 
                1             2             3             4             5 
      1  0.991160D+00
      2  0.313846D-01  0.766388D+00
      3  0.658975D-03 -0.438209D-02  0.222993D+00
      4 -0.599888D+00 -0.136300D+00  0.800996D-02  0.105302D+01
      5 -0.109739D+00 -0.238170D+00  0.323965D-02  0.412208D-01  0.964492D+00
      6  0.966052D-02  0.283777D-02 -0.128672D+00 -0.558986D-02 -0.845124D-02
      7 -0.942033D-02  0.311130D-01 -0.512525D-03 -0.301725D+00  0.188103D+00
      8 -0.668811D-02  0.220963D-01 -0.213188D-03  0.232537D+00 -0.420805D+00
      9  0.603616D-03 -0.126373D-02  0.922866D-02 -0.351524D-02  0.463682D-02
     10  0.107939D-01 -0.438805D-03 -0.306535D-04  0.254484D-01  0.180883D-01
     11  0.334052D-01 -0.136116D-02 -0.261341D-03 -0.170671D-01 -0.121317D-01
     12  0.571380D-03 -0.131076D-03 -0.155727D-02  0.344206D-03  0.322632D-03
     13 -0.166600D+00  0.208232D-02 -0.809815D-03  0.106787D-01 -0.353321D-01
     14 -0.221408D-01 -0.390997D+00 -0.266903D-02 -0.433417D-03  0.143311D-02
     15 -0.807060D-03 -0.513858D-02 -0.788085D-01 -0.235542D-03  0.939112D-03
     16  0.188877D-01 -0.770943D-03  0.174026D-04  0.000000D+00  0.000000D+00
     17 -0.216447D-01  0.886309D-03 -0.325290D-03  0.000000D+00  0.000000D+00
     18 -0.651391D-03 -0.136154D-03  0.175550D-01  0.820289D-04 -0.438452D-04
     19  0.000000D+00  0.000000D+00  0.481903D-04  0.000000D+00  0.000000D+00
     20  0.000000D+00 -0.137942D-05  0.150823D-03  0.000000D+00  0.000000D+00
     21 -0.188173D-04 -0.565633D-04  0.618453D-02 -0.466395D-04  0.118806D-04
     22  0.814296D-02 -0.269030D-01  0.277766D-03 -0.182536D+00 -0.118786D+00
     23 -0.452901D-02  0.149739D-01  0.526485D-04 -0.112643D+00 -0.319001D+00
     24 -0.113761D-04  0.200785D-02  0.378656D-01  0.189857D-03  0.148740D-03
     25 -0.253076D+00  0.998334D-01 -0.765930D-02 -0.499634D-02  0.164455D-01
     26  0.999526D-01 -0.173815D+00  0.440782D-02 -0.731246D-02  0.241820D-01
     27 -0.100058D-01  0.626257D-02 -0.847889D-01  0.761227D-03 -0.803747D-03
                6             7             8             9            10 
      6  0.235081D+00
      7 -0.274507D-02  0.524963D+00
      8  0.424741D-02 -0.513013D-01  0.747886D+00
      9 -0.503706D-01  0.481190D-02 -0.301788D-02  0.582409D-01
     10  0.317370D-03 -0.248262D+00 -0.182554D+00 -0.237348D-02  0.837091D+00
     11 -0.191682D-03 -0.138117D+00 -0.351871D+00 -0.134895D-02 -0.394966D-01
     12 -0.962835D-03 -0.193956D-02 -0.120637D-02 -0.442304D-01  0.416145D-02
     13 -0.615695D-03 -0.929739D-02  0.623222D-02 -0.688307D-04 -0.458550D+00
     14  0.270308D-04 -0.287715D-01  0.192951D-01  0.147988D-03  0.105863D+00
     15 -0.194625D-02 -0.282940D-03  0.790085D-05  0.520858D-02  0.644873D-03
     16 -0.320924D-04  0.000000D+00  0.000000D+00 -0.220768D-04 -0.607474D-02
     17 -0.391880D-04  0.000000D+00  0.000000D+00 -0.668905D-04  0.696285D-02
     18  0.436863D-02 -0.707297D-05 -0.204543D-04  0.530111D-02  0.130919D-03
     19 -0.839031D-04  0.212190D-01 -0.142321D-01  0.560623D-03 -0.160448D+00
     20  0.368696D-04  0.114944D-01 -0.771005D-02  0.396820D-03  0.915751D-01
     21  0.408058D-02  0.280678D-03 -0.210207D-03  0.462499D-02 -0.277528D-02
     22  0.442049D-03  0.225232D-01  0.160066D-01  0.281982D-04  0.000000D+00
     23  0.134368D-02 -0.125252D-01 -0.890109D-02  0.480753D-05  0.000000D+00
     24 -0.944925D-01  0.310362D-03  0.261892D-03  0.374583D-02 -0.649510D-04
     25 -0.135332D-02  0.000000D+00  0.000000D+00 -0.247114D-04  0.000000D+00
     26  0.189347D-03  0.521639D-05  0.934553D-05  0.511006D-03  0.000000D+00
     27  0.329136D-01  0.842268D-04  0.150898D-03  0.825099D-02 -0.102467D-04
               11            12            13            14            15 
     11  0.829034D+00
     12 -0.280973D-02  0.177654D+00
     13  0.830199D-01 -0.116758D-03  0.850876D+00
     14 -0.208183D+00 -0.129526D-03  0.423859D-01  0.787851D+00
     15 -0.641245D-03 -0.923886D-01  0.332243D-02  0.568336D-02  0.191244D+00
     16 -0.188012D-01 -0.368047D-03 -0.250624D+00 -0.120801D+00 -0.233438D-02
     17  0.215498D-01  0.299341D-04 -0.125688D+00 -0.221730D+00 -0.228920D-02
     18  0.411298D-03  0.225409D-01 -0.242582D-02 -0.254779D-02 -0.747826D-01
     19  0.970555D-01 -0.245957D-02  0.792804D-02  0.245369D-01 -0.596493D-03
     20 -0.277038D+00  0.390353D-02  0.429088D-02  0.132802D-01  0.209588D-03
     21  0.485591D-02 -0.701064D-01 -0.821669D-04 -0.247149D-03  0.264055D-01
     22  0.000000D+00 -0.249575D-04  0.287147D-05 -0.153483D-05  0.152927D-03
     23  0.000000D+00  0.449668D-04  0.000000D+00  0.000000D+00 -0.356573D-04
     24  0.165452D-04  0.568268D-02  0.169556D-03 -0.906295D-04  0.903010D-02
     25  0.153785D-05 -0.168145D-03  0.155857D-01 -0.637295D-03  0.136185D-03
     26  0.000000D+00 -0.243571D-04  0.230098D-01 -0.950725D-03  0.126472D-02
     27 -0.308008D-04  0.336770D-02  0.627106D-03 -0.174261D-03  0.160375D-01
               16            17            18            19            20 
     16  0.237813D+00
     17  0.140372D+00  0.199291D+00
     18  0.265854D-02  0.252218D-02  0.400183D-01
     19  0.000000D+00  0.000000D+00 -0.723854D-04  0.131300D+00
     20  0.000000D+00  0.285862D-05 -0.226547D-03 -0.107360D+00  0.271466D+00
     21  0.386871D-04  0.117218D-03 -0.928963D-02  0.260354D-02 -0.447108D-02
     22  0.000000D+00  0.000000D+00  0.000000D+00  0.000000D+00  0.000000D+00
     23  0.000000D+00  0.000000D+00  0.000000D+00  0.000000D+00  0.000000D+00
     24  0.000000D+00  0.000000D+00  0.000000D+00  0.000000D+00  0.000000D+00
     25 -0.209496D-05 -0.255816D-05  0.285180D-03  0.000000D+00  0.000000D+00
     26  0.000000D+00  0.000000D+00  0.413105D-04  0.000000D+00  0.000000D+00
     27  0.419589D-04  0.512361D-04 -0.571173D-02  0.000000D+00  0.000000D+00
               21            22            23            24            25 
     21  0.381004D-01
     22  0.000000D+00  0.151866D+00
     23  0.000000D+00  0.129699D+00  0.312925D+00
     24  0.000000D+00 -0.635905D-03 -0.146642D-02  0.523445D-01
     25  0.000000D+00  0.000000D+00  0.000000D+00  0.424573D-04  0.242488D+00
     26  0.000000D+00 -0.148686D-04  0.346686D-05 -0.877972D-03 -0.115640D+00
     27  0.000000D+00 -0.240077D-03  0.559778D-04 -0.141762D-01  0.874165D-02
               26            27 
     26  0.150571D+00
     27 -0.551187D-02  0.441070D-01
 Leave Link  716 at Tue Dec 15 16:18:50 2015, MaxMem=    33554432 cpu:         0.0
 (Enter /home/Applications/g09/g09/l103.exe)

 GradGradGradGradGradGradGradGradGradGradGradGradGradGradGradGradGradGrad
 Berny optimization.
 Search for a local minimum.
 Step number   1 out of a maximum of    2
 All quantities printed in internal units (Hartrees-Bohrs-Radians)
 Second derivative matrix not updated -- first step.
 ITU=  0
     Eigenvalues ---    0.01777   0.03226   0.06882   0.07122   0.07783
     Eigenvalues ---    0.08173   0.12818   0.13442   0.16398   0.22450
     Eigenvalues ---    0.25396   0.30662   0.41028   0.42286   0.61292
     Eigenvalues ---    0.81095   1.03832   1.30012   1.42074   1.52794
     Eigenvalues ---    1.78027
 Quadratic step=3.938D-01 exceeds max=3.000D-01 adjusted using Lamda=-7.892D-02.
 Angle between NR and scaled steps=  11.76 degrees.
 Angle between quadratic step and forces=  36.98 degrees.
 Linear search not attempted -- first point.
 TrRot= -0.012498  0.006826  0.001163  0.527356  0.000350 -0.525746
 Variable       Old X    -DE/DX   Delta X   Delta X   Delta X     New X
                                 (Linear)    (Quad)   (Total)
    X1        1.73769   0.15990   0.00000   0.13038   0.12012   1.85781
    Y1       -1.40432  -0.00302   0.00000   0.00425   0.01408  -1.39024
    Z1       -0.04324   0.00255   0.00000   0.00846   0.00930  -0.03394
    X2       -0.63638  -0.09439   0.00000  -0.06394  -0.07298  -0.70936
    Y2       -2.12251  -0.05005   0.00000  -0.02657  -0.02087  -2.14339
    Z2       -0.00587  -0.00048   0.00000  -0.00640  -0.00465  -0.01052
    X3       -2.09957  -0.09395   0.00000  -0.17530  -0.18767  -2.28723
    Y3       -0.06359  -0.01597   0.00000  -0.02012  -0.01696  -0.08055
    Z3       -0.02859   0.00107   0.00000   0.00780   0.00966  -0.01893
    X4       -0.63348  -0.02078   0.00000  -0.02180  -0.03777  -0.67125
    Y4        2.12263   0.06644   0.00000   0.02922   0.03498   2.15761
    Z4       -0.01820  -0.00026   0.00000  -0.00187  -0.00089  -0.01908
    X5        1.84889   0.05597   0.00000   0.09892   0.08418   1.93307
    Y5        1.32056   0.04042   0.00000   0.06524   0.07520   1.39576
    Z5       -0.01798  -0.00116   0.00000  -0.00363  -0.00330  -0.02128
    X6        3.38649   0.00602   0.00000   0.12109   0.10432   3.49080
    Y6        2.66160  -0.01337   0.00000  -0.00638   0.00609   2.66769
    Z6        0.00534   0.00004   0.00000  -0.00163  -0.00199   0.00335
    X7       -1.62894   0.01061   0.00000   0.01556  -0.00329  -1.63223
    Y7        3.96118  -0.02194   0.00000  -0.02785  -0.02364   3.93754
    Z7       -0.05528   0.00006   0.00000  -0.00320  -0.00224  -0.05752
    X8       -1.61011  -0.00087   0.00000  -0.01441  -0.02056  -1.63067
    Y8       -3.87327  -0.01114   0.00000  -0.06875  -0.06453  -3.93780
    Z8        0.00371  -0.00002   0.00000  -0.00849  -0.00614  -0.00244
    X9        3.47912  -0.02252   0.00000   0.02196   0.01365   3.49277
    Y9       -2.58601   0.00863   0.00000  -0.01683  -0.00435  -2.59037
    Z9        0.03516  -0.00179   0.00000  -0.00032   0.00024   0.03540
         Item               Value     Threshold  Converged?
 Maximum Force            0.159902     0.000450     NO 
 RMS     Force            0.046033     0.000300     NO 
 Maximum Displacement     0.187669     0.001800     NO 
 RMS     Displacement     0.057035     0.001200     NO 
 Predicted change in Energy=-3.221547D-02
 GradGradGradGradGradGradGradGradGradGradGradGradGradGradGradGradGradGrad

 Leave Link  103 at Tue Dec 15 16:18:50 2015, MaxMem=    33554432 cpu:         0.0
 (Enter /home/Applications/g09/g09/l9999.exe)
 1\1\GINC-DUSTIN-DESKTOP\Force\RB3LYP-FC\3-21G\C4H4O1\DUSTIN\15-Dec-201
 5\0\\#P B3LYP/3-21G CIS(Singlets,NStates=15) pop(full) force\\FuranDFT
 \\0,1\C,0.919546,-0.743135,-0.022882\C,-0.336756,-1.123186,-0.003107\O
 ,-1.111042,-0.03365,-0.015129\C,-0.335225,1.123247,-0.00963\C,0.97839,
 0.698811,-0.009515\H,1.792051,1.408458,0.002828\H,-0.861999,2.096164,-
 0.029252\H,-0.852033,-2.049644,0.001961\H,1.84107,-1.36846,0.018606\\V
 ersion=ES64L-G09RevD.01\State=1-A\HF=-228.7415521\RMSD=5.420e-09\RMSF=
 4.603e-02\Dipole=0.3073536,-0.5452657,0.0098848\PG=C01 [X(C4H4O1)]\\@


 IF IT'S NOT TRUE, IT'S WELL INVENTED -- DANTE
 Job cpu time:       0 days  0 hours  0 minutes 44.5 seconds.
 File lengths (MBytes):  RWF=     14 Int=      0 D2E=      0 Chk=      3 Scr=      1
 Normal termination of Gaussian 09 at Tue Dec 15 16:18:50 2015.
