 Entering Gaussian System, Link 0=g09
 Input=FuranAM1_0.com
 Output=FuranAM1_0.log
 Initial command:
 /home/Applications/g09/g09/l1.exe "/home/Applications/g09/scratch/Gau-7551.inp" -scrdir="/home/Applications/g09/scratch/"
 Entering Link 1 = /home/Applications/g09/g09/l1.exe PID=      7554.
  
 Copyright (c) 1988,1990,1992,1993,1995,1998,2003,2009,2013,
            Gaussian, Inc.  All Rights Reserved.
  
 This is part of the Gaussian(R) 09 program.  It is based on
 the Gaussian(R) 03 system (copyright 2003, Gaussian, Inc.),
 the Gaussian(R) 98 system (copyright 1998, Gaussian, Inc.),
 the Gaussian(R) 94 system (copyright 1995, Gaussian, Inc.),
 the Gaussian 92(TM) system (copyright 1992, Gaussian, Inc.),
 the Gaussian 90(TM) system (copyright 1990, Gaussian, Inc.),
 the Gaussian 88(TM) system (copyright 1988, Gaussian, Inc.),
 the Gaussian 86(TM) system (copyright 1986, Carnegie Mellon
 University), and the Gaussian 82(TM) system (copyright 1983,
 Carnegie Mellon University). Gaussian is a federally registered
 trademark of Gaussian, Inc.
  
 This software contains proprietary and confidential information,
 including trade secrets, belonging to Gaussian, Inc.
  
 This software is provided under written license and may be
 used, copied, transmitted, or stored only in accord with that
 written license.
  
 The following legend is applicable only to US Government
 contracts under FAR:
  
                    RESTRICTED RIGHTS LEGEND
  
 Use, reproduction and disclosure by the US Government is
 subject to restrictions as set forth in subparagraphs (a)
 and (c) of the Commercial Computer Software - Restricted
 Rights clause in FAR 52.227-19.
  
 Gaussian, Inc.
 340 Quinnipiac St., Bldg. 40, Wallingford CT 06492
  
  
 ---------------------------------------------------------------
 Warning -- This program may not be used in any manner that
 competes with the business of Gaussian, Inc. or will provide
 assistance to any competitor of Gaussian, Inc.  The licensee
 of this program is prohibited from giving any competitor of
 Gaussian, Inc. access to this program.  By using this program,
 the user acknowledges that Gaussian, Inc. is engaged in the
 business of creating and licensing software in the field of
 computational chemistry and represents and warrants to the
 licensee that it is not a competitor of Gaussian, Inc. and that
 it will not use this program in any manner prohibited above.
 ---------------------------------------------------------------
  

 Cite this work as:
 Gaussian 09, Revision D.01,
 M. J. Frisch, G. W. Trucks, H. B. Schlegel, G. E. Scuseria, 
 M. A. Robb, J. R. Cheeseman, G. Scalmani, V. Barone, B. Mennucci, 
 G. A. Petersson, H. Nakatsuji, M. Caricato, X. Li, H. P. Hratchian, 
 A. F. Izmaylov, J. Bloino, G. Zheng, J. L. Sonnenberg, M. Hada, 
 M. Ehara, K. Toyota, R. Fukuda, J. Hasegawa, M. Ishida, T. Nakajima, 
 Y. Honda, O. Kitao, H. Nakai, T. Vreven, J. A. Montgomery, Jr., 
 J. E. Peralta, F. Ogliaro, M. Bearpark, J. J. Heyd, E. Brothers, 
 K. N. Kudin, V. N. Staroverov, T. Keith, R. Kobayashi, J. Normand, 
 K. Raghavachari, A. Rendell, J. C. Burant, S. S. Iyengar, J. Tomasi, 
 M. Cossi, N. Rega, J. M. Millam, M. Klene, J. E. Knox, J. B. Cross, 
 V. Bakken, C. Adamo, J. Jaramillo, R. Gomperts, R. E. Stratmann, 
 O. Yazyev, A. J. Austin, R. Cammi, C. Pomelli, J. W. Ochterski, 
 R. L. Martin, K. Morokuma, V. G. Zakrzewski, G. A. Voth, 
 P. Salvador, J. J. Dannenberg, S. Dapprich, A. D. Daniels, 
 O. Farkas, J. B. Foresman, J. V. Ortiz, J. Cioslowski, 
 and D. J. Fox, Gaussian, Inc., Wallingford CT, 2013.
 
 ******************************************
 Gaussian 09:  ES64L-G09RevD.01 24-Apr-2013
                14-Nov-2015 
 ******************************************
 ------------------------------------------------------------
 #P AM1(Input,print) CIS(Singlets,NStates=15) pop(full) force
 ------------------------------------------------------------
 1/10=7,30=1,38=1/1,3;
 2/12=2,17=6,18=5,40=1/2;
 3/5=2,16=1,25=1,41=700000,71=1,135=100,136=1/1,2,8,3;
 4/35=1/1;
 5/5=2,35=1,38=5/2;
 8/6=1,10=1,108=15/1;
 9/15=2,41=15,42=1,48=1,49=10/14;
 10/5=4/2;
 6/7=3,18=1/1;
 7/12=6,13=5,29=1/1,2,3,16;
 1/10=7,30=1/3;
 99//99;
 Leave Link    1 at Sat Nov 14 17:36:38 2015, MaxMem=           0 cpu:         0.0
 (Enter /home/Applications/g09/g09/l101.exe)
 -----------------
 AM1-Reparam Input
 -----------------
 Symbolic Z-matrix:
 Charge =  0 Multiplicity = 1
 6                     0.97896  -0.71745   0.0297 
 6                    -0.36957  -1.04749  -0.02422 
 8                    -1.12546   0.00944  -0.04208 
 6                    -0.39417   1.07138  -0.01608 
 6                     1.00162   0.7349    0.00362 
 1                     1.80495   1.34932   0.01634 
 1                    -0.88993   2.07211   0.03858 
 1                    -0.82978  -2.06505  -0.0108 
 1                     1.84012  -1.37762   0.03107 
 
 NAtoms=      9 NQM=        9 NQMF=       0 NMMI=      0 NMMIF=      0
                NMic=       0 NMicF=      0.
                    Isotopes and Nuclear Properties:
 (Nuclear quadrupole moments (NQMom) in fm**2, nuclear magnetic moments (NMagM)
  in nuclear magnetons)

  Atom         1           2           3           4           5           6           7           8           9
 IAtWgt=          12          12          16          12          12           1           1           1           1
 AtmWgt=  12.0000000  12.0000000  15.9949146  12.0000000  12.0000000   1.0078250   1.0078250   1.0078250   1.0078250
 NucSpn=           0           0           0           0           0           1           1           1           1
 AtZEff=   0.0000000   0.0000000   0.0000000   0.0000000   0.0000000   0.0000000   0.0000000   0.0000000   0.0000000
 NQMom=    0.0000000   0.0000000   0.0000000   0.0000000   0.0000000   0.0000000   0.0000000   0.0000000   0.0000000
 NMagM=    0.0000000   0.0000000   0.0000000   0.0000000   0.0000000   2.7928460   2.7928460   2.7928460   2.7928460
 AtZNuc=   6.0000000   6.0000000   8.0000000   6.0000000   6.0000000   1.0000000   1.0000000   1.0000000   1.0000000
 Leave Link  101 at Sat Nov 14 17:36:38 2015, MaxMem=    33554432 cpu:         0.0
 (Enter /home/Applications/g09/g09/l103.exe)

 GradGradGradGradGradGradGradGradGradGradGradGradGradGradGradGradGradGrad
 Berny optimization.
 Initialization pass.
 Trust Radius=3.00D-01 FncErr=1.00D-07 GrdErr=1.00D-07
 Number of steps in this run=      2 maximum allowed number of steps=      2.
 GradGradGradGradGradGradGradGradGradGradGradGradGradGradGradGradGradGrad

 Leave Link  103 at Sat Nov 14 17:36:38 2015, MaxMem=    33554432 cpu:         0.0
 (Enter /home/Applications/g09/g09/l202.exe)
                          Input orientation:                          
 ---------------------------------------------------------------------
 Center     Atomic      Atomic             Coordinates (Angstroms)
 Number     Number       Type             X           Y           Z
 ---------------------------------------------------------------------
      1          6           0        0.978959   -0.717454    0.029704
      2          6           0       -0.369572   -1.047486   -0.024220
      3          8           0       -1.125458    0.009435   -0.042080
      4          6           0       -0.394168    1.071384   -0.016084
      5          6           0        1.001621    0.734900    0.003615
      6          1           0        1.804946    1.349317    0.016339
      7          1           0       -0.889930    2.072109    0.038583
      8          1           0       -0.829777   -2.065046   -0.010801
      9          1           0        1.840118   -1.377623    0.031069
 ---------------------------------------------------------------------
                    Distance matrix (angstroms):
                    1          2          3          4          5
     1  C    0.000000
     2  C    1.389376   0.000000
     3  O    2.227575   1.299525   0.000000
     4  C    2.255552   2.119028   1.289650   0.000000
     5  C    1.452765   2.248965   2.247855   1.435910   0.000000
     6  H    2.225753   3.236485   3.222726   2.216845   1.011435
     7  H    3.357750   3.163319   2.077644   1.118132   2.316747
     8  H    2.255919   1.116869   2.095681   3.166540   3.345732
     9  H    1.085090   2.234900   3.274740   3.315402   2.273012
                    6          7          8          9
     6  H    0.000000
     7  H    2.790211   0.000000
     8  H    4.312815   4.137887   0.000000
     9  H    2.727207   4.399303   2.757289   0.000000
 Stoichiometry    C4H4O
 Framework group  C1[X(C4H4O)]
 Deg. of freedom    21
 Full point group                 C1      NOp   1
 Largest Abelian subgroup         C1      NOp   1
 Largest concise Abelian subgroup C1      NOp   1
                         Standard orientation:                         
 ---------------------------------------------------------------------
 Center     Atomic      Atomic             Coordinates (Angstroms)
 Number     Number       Type             X           Y           Z
 ---------------------------------------------------------------------
      1          6           0        1.141479    0.413954    0.016338
      2          6           0        0.675203   -0.894648   -0.006323
      3          8           0       -0.623343   -0.945061   -0.007641
      4          6           0       -1.108052    0.250006    0.000708
      5          6           0       -0.059486    1.230923   -0.011408
      6          1           0       -0.130946    2.239811   -0.017631
      7          1           0       -2.215799    0.387332    0.065965
      8          1           0        1.272325   -1.838166    0.018469
      9          1           0        2.166301    0.770099   -0.001566
 ---------------------------------------------------------------------
 Rotational constants (GHZ):      9.7315930      9.0975849      4.7029075
 Leave Link  202 at Sat Nov 14 17:36:38 2015, MaxMem=    33554432 cpu:         0.0
 (Enter /home/Applications/g09/g09/l301.exe)

 Semi-emprical parameters in input format:
 Method=8 CoreType=1 PeptideFC=0.0114510000 RIJScale=0.5231650000
 ****
 H       
 PQN=1 NValence=1 F0ss=0.4721550000 ZetaOverlap=1.2397220000 U=-0.4188110000
 Beta=-0.2308280000 CoreKO=1.0940410000 KON=0,0,0,1.0589200000 KON=1,0,1,1.0589200000
 KON=0,1,1,1.0589200000 KON=2,1,1,1.0607530000 EISol=-0.4188110042 EHeat=0.0830298228
 Alpha=1.5252600000
 GCore=0.0081440000,1.4001430000,2.2717610000
 GCore=0.0003690000,1.3698960000,3.4762870000
 GCore=-0.0012730000,0.5600570000,3.7856000000
 ****
 C       
 PQN=2,2 NValence=4 F0ss=0.4443290000 F0sp=0.4128320000 F0pp=0.3880650000 F2pp=0.1928410000
 G1sp=0.2772240000
 ZetaOverlap=1.8086650000,1.6900180000
 U=-1.9120440000,-1.4557970000
 Beta=-0.5850510000,-0.2975620000 DDN=0,1,0.8788290000 DDN=1,1,0.7268010000
 CoreKO=1.1124280000 KON=0,0,0,1.1124280000 KON=1,0,1,0.8219700000 KON=0,1,1,1.1421540000
 KON=2,1,1,0.7616800000 EISol=-4.4398989268 EHeat=0.2723305520 Alpha=1.4014060000
 DipHyp=1.7575568804
 GCore=0.0008060000,1.4295970000,3.0235620000
 GCore=0.0031890000,1.2585080000,3.4308200000
 GCore=-0.0013380000,1.4001430000,3.8739390000
 GCore=-0.0000890000,1.4688580000,5.2376040000
 ****
 O       
 PQN=2,2 NValence=6 F0ss=0.5666750000 F0sp=0.5310150000 F0pp=0.4958710000 F2pp=0.2343130000
 G1sp=0.4343770000
 ZetaOverlap=3.0142330000,2.5240390000
 U=-3.5951870000,-2.9083180000
 Beta=-1.0757550000,-1.0757550000 DDN=0,1,0.4988900000 DDN=1,1,0.4752820000
 CoreKO=0.8822960000 KON=0,0,0,0.8822960000 KON=1,0,1,0.5019540000 KON=0,1,1,0.8845630000
 KON=2,1,1,0.5515580000 EISol=-11.6164441184 EHeat=0.0949133088 Alpha=2.4188580000
 DipHyp=0.9977225968
 GCore=0.0193340000,1.3546980000,1.5379060000
 GCore=0.0056550000,1.9602000000,2.8145780000
 ****
 
 Standard basis: VSTO-6G (5D, 7F)
 Ernie: Thresh=  0.10000D-02 Tol=  0.10000D-05 Strict=F.
  NNHCO=     0 NNPyr=     0 NCTC=     0               EPep=         0.000000000
    EC=        68.822097286  ECS=         1.824092676   EG=         0.385386346
   EHC=         0.000000000  EAt=       -31.051283842  AtH=         1.516354808
 EPDDG=         0.000000000  ECC=        71.031576309 EAtT=        32.567638650
 There are    24 symmetry adapted cartesian basis functions of A   symmetry.
 There are    24 symmetry adapted basis functions of A   symmetry.
    24 basis functions,   144 primitive gaussians,    24 cartesian basis functions
    13 alpha electrons       13 beta electrons
       nuclear repulsion energy       103.5992149590 Hartrees.
 IExCor=    0 DFT=F Ex=HF Corr=None ExCW=0 ScaHFX=  1.000000
 ScaDFX=  1.000000  1.000000  1.000000  1.000000 ScalE2=  1.000000  1.000000
 IRadAn=      0 IRanWt=     -1 IRanGd=            0 ICorTp=0 IEmpDi=  4
 Integral buffers will be    131072 words long.
 Regular integral format.
 Two-electron integral symmetry is turned off.
 Leave Link  301 at Sat Nov 14 17:36:38 2015, MaxMem=    33554432 cpu:         0.0
 (Enter /home/Applications/g09/g09/l302.exe)
 Do NDO integrals.
 NPDir=0 NMtPBC=     1 NCelOv=     1 NCel=       1 NClECP=     1 NCelD=      1
         NCelK=      1 NCelE2=     1 NClLst=     1 CellRange=     0.0.
 One-electron integrals computed using PRISM.
 NBasis=    24 RedAO= F EigKep=  0.00D+00  NBF=    24
 NBsUse=    24 1.00D-04 EigRej=  0.00D+00 NBFU=    24
 Leave Link  302 at Sat Nov 14 17:36:38 2015, MaxMem=    33554432 cpu:         0.0
 (Enter /home/Applications/g09/g09/l308.exe)
 Leave Link  308 at Sat Nov 14 17:36:38 2015, MaxMem=    33554432 cpu:         0.0
 (Enter /home/Applications/g09/g09/l303.exe)
 DipDrv:  MaxL=1.
 Leave Link  303 at Sat Nov 14 17:36:38 2015, MaxMem=    33554432 cpu:         0.0
 (Enter /home/Applications/g09/g09/l401.exe)
 Simple Huckel Guess.
 JPrj=0 DoOrth=F DoCkMO=F.
 Leave Link  401 at Sat Nov 14 17:36:38 2015, MaxMem=    33554432 cpu:         0.0
 (Enter /home/Applications/g09/g09/l502.exe)
 Closed shell SCF:
 Using DIIS extrapolation, IDIIS=  1040.
 Overlap will be assumed to be unity.
 Two-electron integral symmetry not used.
 Keep J ints in memory in canonical form, NReq=888082.
 IVT=       79475 IEndB=       79475 NGot=    33554432 MDV=    33473473
 LenX=    33473473 LenY=    33472456
 Requested convergence on RMS density matrix=1.00D-08 within 128 cycles.
 Requested convergence on MAX density matrix=1.00D-06.
 Requested convergence on             energy=1.00D-06.
 No special actions if energy rises.
 FoFCou: FMM=F IPFlag=           0 FMFlag=           0 FMFlg1=           0
         NFxFlg=           0 DoJE=F BraDBF=F KetDBF=F FulRan=T
         wScrn=  0.000000 ICntrl=     600 IOpCl=  2 I1Cent=           0 NGrid=           0
         NMat0=    1 NMatS0=     54 NMatT0=    0 NMatD0=    1 NMtDS0=    0 NMtDT0=    0
 Symmetry not used in FoFCou.

 Cycle   1  Pass 1  IDiag  1:
 E= 0.825166069520549E-01
 DIIS: error= 7.36D-02 at cycle   1 NSaved=   1.
 NSaved= 1 IEnMin= 1 EnMin= 0.825166069520549E-01 IErMin= 1 ErrMin= 7.36D-02
 ErrMax= 7.36D-02  0.00D+00 EMaxC= 1.00D-01 BMatC= 1.28D-01 BMatP= 1.28D-01
 IDIUse=3 WtCom= 2.64D-01 WtEn= 7.36D-01
 Coeff-Com:  0.100D+01
 Coeff-En:   0.100D+01
 Coeff:      0.100D+01
 GapD=    2.000 DampG=2.000 DampE=0.500 DampFc=1.0000 IDamp=-1.
 RMSDP=2.02D-02 MaxDP=1.61D-01              OVMax= 0.00D+00

 Cycle   2  Pass 1  IDiag  1:
 E=-0.217251355365789     Delta-E=       -0.299767962318 Rises=F Damp=F
 DIIS: error= 1.60D-02 at cycle   2 NSaved=   2.
 NSaved= 2 IEnMin= 2 EnMin=-0.217251355365789     IErMin= 2 ErrMin= 1.60D-02
 ErrMax= 1.60D-02  0.00D+00 EMaxC= 1.00D-01 BMatC= 9.52D-03 BMatP= 1.28D-01
 IDIUse=3 WtCom= 8.40D-01 WtEn= 1.60D-01
 Coeff-Com: -0.312D+00 0.131D+01
 Coeff-En:   0.000D+00 0.100D+01
 Coeff:     -0.262D+00 0.126D+01
 RMSDP=7.71D-03 MaxDP=4.77D-02 DE=-3.00D-01 OVMax= 0.00D+00

 Cycle   3  Pass 1  IDiag  3:
 E=-0.245931023995794     Delta-E=       -0.028679668630 Rises=F Damp=F
 DIIS: error= 3.56D-03 at cycle   3 NSaved=   3.
 NSaved= 3 IEnMin= 3 EnMin=-0.245931023995794     IErMin= 3 ErrMin= 3.56D-03
 ErrMax= 3.56D-03  0.00D+00 EMaxC= 1.00D-01 BMatC= 3.65D-04 BMatP= 9.52D-03
 IDIUse=3 WtCom= 9.64D-01 WtEn= 3.56D-02
 Coeff-Com:  0.478D-01-0.313D+00 0.126D+01
 Coeff-En:   0.000D+00 0.000D+00 0.100D+01
 Coeff:      0.461D-01-0.301D+00 0.126D+01
 Gap=     0.369 Goal=   None    Shift=    0.000
 RMSDP=2.16D-03 MaxDP=1.68D-02 DE=-2.87D-02 OVMax= 1.97D-02

 Cycle   4  Pass 1  IDiag  3:
 E=-0.247696424556096     Delta-E=       -0.001765400560 Rises=F Damp=F
 DIIS: error= 1.27D-03 at cycle   4 NSaved=   4.
 NSaved= 4 IEnMin= 4 EnMin=-0.247696424556096     IErMin= 4 ErrMin= 1.27D-03
 ErrMax= 1.27D-03  0.00D+00 EMaxC= 1.00D-01 BMatC= 3.46D-05 BMatP= 3.65D-04
 IDIUse=3 WtCom= 9.87D-01 WtEn= 1.27D-02
 Coeff-Com:  0.127D-01-0.180D-01-0.401D+00 0.141D+01
 Coeff-En:   0.000D+00 0.000D+00 0.000D+00 0.100D+01
 Coeff:      0.125D-01-0.178D-01-0.396D+00 0.140D+01
 Gap=     0.369 Goal=   None    Shift=    0.000
 RMSDP=9.21D-04 MaxDP=7.67D-03 DE=-1.77D-03 OVMax= 9.06D-03

 Cycle   5  Pass 1  IDiag  3:
 E=-0.247901261635207     Delta-E=       -0.000204837079 Rises=F Damp=F
 DIIS: error= 1.49D-04 at cycle   5 NSaved=   5.
 NSaved= 5 IEnMin= 5 EnMin=-0.247901261635207     IErMin= 5 ErrMin= 1.49D-04
 ErrMax= 1.49D-04  0.00D+00 EMaxC= 1.00D-01 BMatC= 1.23D-06 BMatP= 3.46D-05
 IDIUse=3 WtCom= 9.99D-01 WtEn= 1.49D-03
 Coeff-Com: -0.610D-02 0.163D-01 0.112D+00-0.550D+00 0.143D+01
 Coeff-En:   0.000D+00 0.000D+00 0.000D+00 0.000D+00 0.100D+01
 Coeff:     -0.609D-02 0.163D-01 0.112D+00-0.549D+00 0.143D+01
 Gap=     0.369 Goal=   None    Shift=    0.000
 RMSDP=1.83D-04 MaxDP=1.18D-03 DE=-2.05D-04 OVMax= 1.51D-03

 Cycle   6  Pass 1  IDiag  3:
 E=-0.247908922709343     Delta-E=       -0.000007661074 Rises=F Damp=F
 DIIS: error= 6.11D-05 at cycle   6 NSaved=   6.
 NSaved= 6 IEnMin= 6 EnMin=-0.247908922709343     IErMin= 6 ErrMin= 6.11D-05
 ErrMax= 6.11D-05  0.00D+00 EMaxC= 1.00D-01 BMatC= 7.42D-08 BMatP= 1.23D-06
 IDIUse=1 WtCom= 1.00D+00 WtEn= 0.00D+00
 Coeff-Com:  0.227D-02-0.680D-02-0.267D-01 0.162D+00-0.568D+00 0.144D+01
 Coeff:      0.227D-02-0.680D-02-0.267D-01 0.162D+00-0.568D+00 0.144D+01
 Gap=     0.369 Goal=   None    Shift=    0.000
 RMSDP=5.13D-05 MaxDP=4.29D-04 DE=-7.66D-06 OVMax= 6.27D-04

 Cycle   7  Pass 1  IDiag  3:
 E=-0.247909512934129     Delta-E=       -0.000000590225 Rises=F Damp=F
 DIIS: error= 2.52D-05 at cycle   7 NSaved=   7.
 NSaved= 7 IEnMin= 7 EnMin=-0.247909512934129     IErMin= 7 ErrMin= 2.52D-05
 ErrMax= 2.52D-05  0.00D+00 EMaxC= 1.00D-01 BMatC= 8.33D-09 BMatP= 7.42D-08
 IDIUse=1 WtCom= 1.00D+00 WtEn= 0.00D+00
 Coeff-Com: -0.414D-03 0.114D-02 0.328D-02-0.247D-01 0.124D+00-0.661D+00
 Coeff-Com:  0.156D+01
 Coeff:     -0.414D-03 0.114D-02 0.328D-02-0.247D-01 0.124D+00-0.661D+00
 Coeff:      0.156D+01
 Gap=     0.369 Goal=   None    Shift=    0.000
 RMSDP=2.34D-05 MaxDP=2.16D-04 DE=-5.90D-07 OVMax= 2.89D-04

 Cycle   8  Pass 1  IDiag  3:
 E=-0.247909597327379     Delta-E=       -0.000000084393 Rises=F Damp=F
 DIIS: error= 6.37D-06 at cycle   8 NSaved=   8.
 NSaved= 8 IEnMin= 8 EnMin=-0.247909597327379     IErMin= 8 ErrMin= 6.37D-06
 ErrMax= 6.37D-06  0.00D+00 EMaxC= 1.00D-01 BMatC= 4.82D-10 BMatP= 8.33D-09
 IDIUse=1 WtCom= 1.00D+00 WtEn= 0.00D+00
 Coeff-Com:  0.597D-04-0.562D-04-0.712D-03 0.396D-02-0.262D-01 0.207D+00
 Coeff-Com: -0.711D+00 0.153D+01
 Coeff:      0.597D-04-0.562D-04-0.712D-03 0.396D-02-0.262D-01 0.207D+00
 Coeff:     -0.711D+00 0.153D+01
 Gap=     0.369 Goal=   None    Shift=    0.000
 RMSDP=6.06D-06 MaxDP=5.81D-05 DE=-8.44D-08 OVMax= 7.15D-05

 Cycle   9  Pass 1  IDiag  3:
 E=-0.247909602117886     Delta-E=       -0.000000004791 Rises=F Damp=F
 DIIS: error= 1.04D-06 at cycle   9 NSaved=   9.
 NSaved= 9 IEnMin= 9 EnMin=-0.247909602117886     IErMin= 9 ErrMin= 1.04D-06
 ErrMax= 1.04D-06  0.00D+00 EMaxC= 1.00D-01 BMatC= 2.25D-11 BMatP= 4.82D-10
 IDIUse=1 WtCom= 1.00D+00 WtEn= 0.00D+00
 Coeff-Com:  0.834D-05-0.737D-04-0.963D-04 0.733D-03 0.194D-02-0.528D-01
 Coeff-Com:  0.233D+00-0.674D+00 0.149D+01
 Coeff:      0.834D-05-0.737D-04-0.963D-04 0.733D-03 0.194D-02-0.528D-01
 Coeff:      0.233D+00-0.674D+00 0.149D+01
 Gap=     0.369 Goal=   None    Shift=    0.000
 RMSDP=9.78D-07 MaxDP=8.66D-06 DE=-4.79D-09 OVMax= 1.29D-05

 Cycle  10  Pass 1  IDiag  3:
 E=-0.247909602274177     Delta-E=       -0.000000000156 Rises=F Damp=F
 DIIS: error= 1.81D-07 at cycle  10 NSaved=  10.
 NSaved=10 IEnMin=10 EnMin=-0.247909602274177     IErMin=10 ErrMin= 1.81D-07
 ErrMax= 1.81D-07  0.00D+00 EMaxC= 1.00D-01 BMatC= 1.08D-12 BMatP= 2.25D-11
 IDIUse=1 WtCom= 1.00D+00 WtEn= 0.00D+00
 Coeff-Com: -0.411D-05 0.324D-04 0.749D-05-0.216D-03-0.490D-03 0.168D-01
 Coeff-Com: -0.762D-01 0.231D+00-0.632D+00 0.146D+01
 Coeff:     -0.411D-05 0.324D-04 0.749D-05-0.216D-03-0.490D-03 0.168D-01
 Coeff:     -0.762D-01 0.231D+00-0.632D+00 0.146D+01
 Gap=     0.369 Goal=   None    Shift=    0.000
 RMSDP=1.72D-07 MaxDP=1.08D-06 DE=-1.56D-10 OVMax= 1.86D-06

 Cycle  11  Pass 1  IDiag  3:
 E=-0.247909602280686     Delta-E=       -0.000000000007 Rises=F Damp=F
 DIIS: error= 4.00D-08 at cycle  11 NSaved=  11.
 NSaved=11 IEnMin=11 EnMin=-0.247909602280686     IErMin=11 ErrMin= 4.00D-08
 ErrMax= 4.00D-08  0.00D+00 EMaxC= 1.00D-01 BMatC= 5.76D-14 BMatP= 1.08D-12
 IDIUse=1 WtCom= 1.00D+00 WtEn= 0.00D+00
 Coeff-Com:  0.175D-05-0.126D-04-0.276D-05 0.839D-04 0.107D-03-0.553D-02
 Coeff-Com:  0.254D-01-0.780D-01 0.224D+00-0.665D+00 0.150D+01
 Coeff:      0.175D-05-0.126D-04-0.276D-05 0.839D-04 0.107D-03-0.553D-02
 Coeff:      0.254D-01-0.780D-01 0.224D+00-0.665D+00 0.150D+01
 Gap=     0.369 Goal=   None    Shift=    0.000
 RMSDP=4.19D-08 MaxDP=2.63D-07 DE=-6.51D-12 OVMax= 4.03D-07

 Cycle  12  Pass 1  IDiag  3:
 E=-0.247909602281069     Delta-E=        0.000000000000 Rises=F Damp=F
 DIIS: error= 5.26D-09 at cycle  12 NSaved=  12.
 NSaved=12 IEnMin=12 EnMin=-0.247909602281069     IErMin=12 ErrMin= 5.26D-09
 ErrMax= 5.26D-09  0.00D+00 EMaxC= 1.00D-01 BMatC= 2.84D-15 BMatP= 5.76D-14
 IDIUse=1 WtCom= 1.00D+00 WtEn= 0.00D+00
 Coeff-Com: -0.487D-06 0.400D-05-0.210D-05-0.145D-04-0.565D-04 0.180D-02
 Coeff-Com: -0.793D-02 0.238D-01-0.696D-01 0.225D+00-0.666D+00 0.149D+01
 Coeff:     -0.487D-06 0.400D-05-0.210D-05-0.145D-04-0.565D-04 0.180D-02
 Coeff:     -0.793D-02 0.238D-01-0.696D-01 0.225D+00-0.666D+00 0.149D+01
 Gap=     0.369 Goal=   None    Shift=    0.000
 RMSDP=9.53D-09 MaxDP=5.09D-08 DE=-3.84D-13 OVMax= 8.47D-08

 Cycle  13  Pass 2  IDiag  1:
 SCF Done:  E(RAM1) = -0.247909602281     A.U. after   13 cycles
            NFock= 12  Conv=0.95D-08     -V/T= 0.9855
 KE=-1.705483309239D+01 PE=-1.707380647706D+02 EE= 8.394577330168D+01
 Leave Link  502 at Sat Nov 14 17:36:38 2015, MaxMem=    33554432 cpu:         0.0
 (Enter /home/Applications/g09/g09/l801.exe)
 Range of M.O.s used for correlation:     1    24
 NBasis=    24 NAE=    13 NBE=    13 NFC=     0 NFV=     0
 NROrb=     24 NOA=    13 NOB=    13 NVA=    11 NVB=    11
 Leave Link  801 at Sat Nov 14 17:36:38 2015, MaxMem=    33554432 cpu:         0.0
 (Enter /home/Applications/g09/g09/l914.exe)
 RHF ground state
 MDV=    33554432 DFT=F DoStab=F Mixed=F DoRPA=F DoScal=F NonHer=F
 Making orbital integer symmetry assigments:
 Orbital symmetries:
       Occupied  (A) (A) (A) (A) (A) (A) (A) (A) (A) (A) (A) (A)
                 (A)
       Virtual   (A) (A) (A) (A) (A) (A) (A) (A) (A) (A) (A)
    60 initial guesses have been made.
 Convergence on wavefunction:    0.000001000000000
 Davidson Disk Diagonalization:  ConvIn= 1.00D-06 SkipCon=T Conv= 1.00D-06.
 Max sub-space:   240 roots to seek:    60 dimension of matrix:          286
 Iteration     1 Dimension    60 NMult     0 NNew     60
 CISAX will form    60 AO SS matrices at one time.
 NMat=    60 NSing=    60 JSym2X= 0.
 FoFJK:  IHMeth= 8 ICntrl=       0 DoSepK=F KAlg= 0 I1Cent=   0 FoldK=F
 IRaf=         1 NMat= 120 IRICut=       1 DoRegI=T DoRafI=F ISym2E= 0.
 FoFCou: FMM=F IPFlag=           0 FMFlag=      100000 FMFlg1=           0
         NFxFlg=           0 DoJE=F BraDBF=F KetDBF=F FulRan=T
         wScrn=  0.000000 ICntrl=       0 IOpCl=  0 I1Cent=           0 NGrid=           0
         NMat0=  120 NMatS0=     60 NMatT0=    0 NMatD0=  120 NMtDS0=    0 NMtDT0=    0
 Symmetry not used in FoFCou.
 New state      1 was old state      3
 New state      2 was old state      1
 New state      3 was old state      2
 New state      4 was old state      5
 New state      5 was old state      9
 New state      6 was old state      7
 New state      7 was old state      8
 New state      8 was old state      4
 New state      9 was old state      6
 New state     10 was old state     11
 New state     11 was old state     12
 New state     12 was old state     13
 New state     13 was old state     10
 New state     14 was old state     16
 New state     15 was old state     14
 Excitation Energies [eV] at current iteration:
 Root      1 :     4.266990878837016
 Root      2 :     4.581268033534632
 Root      3 :     4.953285032718560
 Root      4 :     5.019281397656843
 Root      5 :     5.552034305584486
 Root      6 :     6.144093663100225
 Root      7 :     6.211739153924462
 Root      8 :     6.403271074959550
 Root      9 :     6.542715239314169
 Root     10 :     6.675058436128466
 Root     11 :     6.938580143771602
 Root     12 :     7.098665167769946
 Root     13 :     7.186457034283665
 Root     14 :     7.407817291954671
 Root     15 :     7.458018641889858
 Root     16 :     7.506315216862733
 Root     17 :     7.972412643067972
 Root     18 :     8.103882188320267
 Root     19 :     8.333000885273998
 Root     20 :     8.348147235819921
 Root     21 :     8.521751844665451
 Root     22 :     8.670228390906880
 Root     23 :     8.782010125256308
 Root     24 :     8.998397825138662
 Root     25 :     9.155175398416322
 Root     26 :     9.346155931272685
 Root     27 :     9.484218827312406
 Root     28 :     9.527853762947528
 Root     29 :     9.691691157154402
 Root     30 :     9.785541753732032
 Root     31 :     9.971209604998204
 Root     32 :    10.164411999668480
 Root     33 :    10.318827468476070
 Root     34 :    10.388671945341350
 Root     35 :    10.591335311564660
 Root     36 :    10.624650215470860
 Root     37 :    10.712522758637130
 Root     38 :    10.899709169937320
 Root     39 :    11.163161611693410
 Root     40 :    11.234530141375260
 Root     41 :    11.325692871294820
 Root     42 :    11.657770784935420
 Root     43 :    11.682352272550840
 Root     44 :    11.825579717397440
 Root     45 :    11.946859233538540
 Root     46 :    12.028038816691600
 Root     47 :    12.092978052773150
 Root     48 :    12.207630264428320
 Root     49 :    12.279862305696890
 Root     50 :    12.298175894248810
 Root     51 :    12.631558258152450
 Root     52 :    12.985084697480040
 Root     53 :    13.172154887585830
 Root     54 :    13.285340299220340
 Root     55 :    13.304438439097150
 Root     56 :    13.477252013893780
 Root     57 :    13.614056245522640
 Root     58 :    13.706646477470010
 Root     59 :    13.889272636206070
 Root     60 :    14.025339601838290
 Iteration     2 Dimension   120 NMult    60 NNew     60
 CISAX will form    60 AO SS matrices at one time.
 NMat=    60 NSing=    60 JSym2X= 0.
 Root      1 not converged, maximum delta is    0.027513505415096
 Root      2 not converged, maximum delta is    0.030986625293418
 Root      3 not converged, maximum delta is    0.012729578454469
 Root      4 not converged, maximum delta is    0.030991967457337
 Root      5 not converged, maximum delta is    0.048098723331951
 Root      6 not converged, maximum delta is    0.385257236973970
 Root      7 not converged, maximum delta is    0.449389341819053
 Root      8 not converged, maximum delta is    0.110695020148273
 Root      9 not converged, maximum delta is    0.096905997063135
 Root     10 not converged, maximum delta is    0.034791143987737
 Root     11 not converged, maximum delta is    0.031999569823366
 Root     12 not converged, maximum delta is    0.053832324383604
 Root     13 not converged, maximum delta is    0.091331142750852
 Root     14 not converged, maximum delta is    0.310938615669309
 Root     15 not converged, maximum delta is    0.205489607857987
 Excitation Energies [eV] at current iteration:
 Root      1 :     4.240825012275685   Change is   -0.026165866561330
 Root      2 :     4.489401314906996   Change is   -0.091866718627635
 Root      3 :     4.940422037789378   Change is   -0.012862994929182
 Root      4 :     4.970728436665831   Change is   -0.048552960991012
 Root      5 :     5.468132299299439   Change is   -0.083902006285047
 Root      6 :     6.111676490495929   Change is   -0.032417172604296
 Root      7 :     6.141873607380588   Change is   -0.069865546543875
 Root      8 :     6.270159328198953   Change is   -0.133111746760597
 Root      9 :     6.451167701853280   Change is   -0.091547537460888
 Root     10 :     6.627142063491184   Change is   -0.047916372637282
 Root     11 :     6.880785619900517   Change is   -0.057794523871085
 Root     12 :     7.042932602138518   Change is   -0.055732565631428
 Root     13 :     7.152395676749753   Change is   -0.034061357533912
 Root     14 :     7.353095388743623   Change is   -0.054721903211048
 Root     15 :     7.360693714266542   Change is   -0.097324927623316
 Root     16 :     7.414494173390786   Change is   -0.091821043471947
 Root     17 :     7.906650258706776   Change is   -0.065762384361197
 Root     18 :     8.035270406272499   Change is   -0.068611782047766
 Root     19 :     8.073107534897449   Change is   -0.275039700922473
 Root     20 :     8.215503991046237   Change is   -0.117496894227762
 Root     21 :     8.305038364172649   Change is   -0.365190026734232
 Root     22 :     8.492409179182024   Change is   -0.029342665483425
 Root     23 :     8.723974520599786   Change is   -0.058035604656523
 Root     24 :     8.962389324794676   Change is   -0.036008500343985
 Root     25 :     8.984453602457247   Change is   -0.361702328815439
 Root     26 :     9.132943165567996   Change is   -0.022232232848326
 Root     27 :     9.169178616164567   Change is   -0.616363137567466
 Root     28 :     9.424508527551792   Change is   -0.059710299760614
 Root     29 :     9.476174499481235   Change is   -0.051679263466292
 Root     30 :     9.639619455396156   Change is   -0.524792544272324
 Root     31 :     9.644372982710250   Change is   -0.047318174444151
 Root     32 :     9.905291180872915   Change is   -0.065918424125289
 Root     33 :     9.924083908152049   Change is   -0.394743560324022
 Root     34 :     9.987913479250905   Change is   -0.400758466090447
 Root     35 :    10.156477154411400   Change is   -0.434858157153263
 Root     36 :    10.299363832270870   Change is   -0.325286383199985
 Root     37 :    10.396028934338980   Change is   -0.316493824298153
 Root     38 :    10.679101881405820   Change is   -0.484059730287595
 Root     39 :    10.716403218147940   Change is   -0.183305951789379
 Root     40 :    10.810154911665300   Change is   -0.515537959629512
 Root     41 :    10.983894344081640   Change is   -0.250635797293625
 Root     42 :    11.220792428834900   Change is   -0.461559843715947
 Root     43 :    11.320056731080360   Change is   -0.337714053855055
 Root     44 :    11.410200122204530   Change is   -0.536659111334010
 Root     45 :    11.441263874262860   Change is   -1.190294383889594
 Root     46 :    11.663440989044910   Change is   -0.364597827646690
 Root     47 :    11.750193401748250   Change is   -0.529668903948634
 Root     48 :    11.804780254548430   Change is   -0.020799462849003
 Root     49 :    11.852865984574060   Change is   -0.240112068199095
 Root     50 :    11.978330061897920   Change is   -0.229300202530400
 Root     51 :    12.055485471124970   Change is   -0.242690423123842
 Root     52 :    12.603742040329090   Change is   -0.381342657150950
 Root     53 :    12.782471097345640   Change is   -0.389683790240187
 Root     54 :    12.988853875898280   Change is   -0.315584563198869
 Root     55 :    13.096778699214640   Change is   -0.188561600005699
 Root     56 :    13.156919491797800   Change is   -0.320332522095982
 Root     57 :    13.454588295857020   Change is   -0.434684340349055
 Root     58 :    13.485682631408930   Change is   -0.220963846061079
 Root     59 :    13.550144400338180   Change is   -0.063911845184457
 Root     60 :    13.566670562509920
 Iteration     3 Dimension   135 NMult   120 NNew     15
 CISAX will form    15 AO SS matrices at one time.
 NMat=    15 NSing=    15 JSym2X= 0.
 Root      1 not converged, maximum delta is    0.000104327810195
 Root      2 not converged, maximum delta is    0.000647196059943
 Root      3 not converged, maximum delta is    0.000226432713710
 Root      4 not converged, maximum delta is    0.000036155047841
 Root      5 not converged, maximum delta is    0.000068993601565
 Root      6 not converged, maximum delta is    0.000468300938798
 Root      7 not converged, maximum delta is    0.000552912622991
 Root      8 not converged, maximum delta is    0.001618440011347
 Root      9 not converged, maximum delta is    0.001165789778141
 Root     10 not converged, maximum delta is    0.000089867027972
 Root     11 not converged, maximum delta is    0.000067228635584
 Root     12 not converged, maximum delta is    0.000134550705661
 Root     13 not converged, maximum delta is    0.000047598850289
 Root     14 not converged, maximum delta is    0.000174558590618
 Root     15 not converged, maximum delta is    0.000195168828871
 Excitation Energies [eV] at current iteration:
 Root      1 :     4.240820670824140   Change is   -0.000004341451546
 Root      2 :     4.489278754665747   Change is   -0.000122560241250
 Root      3 :     4.940398709906584   Change is   -0.000023327882793
 Root      4 :     4.970727930143164   Change is   -0.000000506522666
 Root      5 :     5.468130478133038   Change is   -0.000001821166401
 Root      6 :     6.111657702520941   Change is   -0.000018787974988
 Root      7 :     6.141848140427681   Change is   -0.000025466952907
 Root      8 :     6.269380666256450   Change is   -0.000778661942503
 Root      9 :     6.450799705387086   Change is   -0.000367996466194
 Root     10 :     6.627139479482756   Change is   -0.000002584008427
 Root     11 :     6.880784901201376   Change is   -0.000000718699141
 Root     12 :     7.042926448425987   Change is   -0.000006153712532
 Root     13 :     7.152394878054200   Change is   -0.000000798695553
 Root     14 :     7.353090941688383   Change is   -0.000004447055240
 Root     15 :     7.360686739574636   Change is   -0.000006974691905
 Iteration     4 Dimension   143 NMult   135 NNew      8
 CISAX will form     8 AO SS matrices at one time.
 NMat=     8 NSing=     8 JSym2X= 0.
 Root      1 not converged, maximum delta is    0.000005267461284
 Root      2 not converged, maximum delta is    0.000032073151312
 Root      3 not converged, maximum delta is    0.000006330365878
 Root      4 not converged, maximum delta is    0.000001501619419
 Root      5 not converged, maximum delta is    0.000002315611347
 Root      6 not converged, maximum delta is    0.000008947162202
 Root      7 not converged, maximum delta is    0.000010918853905
 Root      8 not converged, maximum delta is    0.000062851688300
 Root      9 not converged, maximum delta is    0.000089810281278
 Root     10 not converged, maximum delta is    0.000003715788177
 Root     11 not converged, maximum delta is    0.000002217980996
 Root     12 not converged, maximum delta is    0.000009026164574
 Root     13 not converged, maximum delta is    0.000002948855520
 Root     14 not converged, maximum delta is    0.000003346366584
 Root     15 not converged, maximum delta is    0.000005558233961
 Excitation Energies [eV] at current iteration:
 Root      1 :     4.240820663186469   Change is   -0.000000007637671
 Root      2 :     4.489278492417729   Change is   -0.000000262248018
 Root      3 :     4.940398691696116   Change is   -0.000000018210469
 Root      4 :     4.970727929181068   Change is   -0.000000000962096
 Root      5 :     5.468130474607992   Change is   -0.000000003525045
 Root      6 :     6.111657674439450   Change is   -0.000000028081491
 Root      7 :     6.141848102862149   Change is   -0.000000037565531
 Root      8 :     6.269379404761724   Change is   -0.000001261494725
 Root      9 :     6.450797785591464   Change is   -0.000001919795622
 Root     10 :     6.627139473476542   Change is   -0.000000006006214
 Root     11 :     6.880784899877344   Change is   -0.000000001324032
 Root     12 :     7.042926419516010   Change is   -0.000000028909977
 Root     13 :     7.152394874561081   Change is   -0.000000003493119
 Root     14 :     7.353090936451937   Change is   -0.000000005236446
 Root     15 :     7.360686729750242   Change is   -0.000000009824394
 Convergence achieved on expansion vectors.
 ***********************************************************************
 Excited states from <AA,BB:AA,BB> singles matrix:
 ***********************************************************************
 
 1PDM for each excited state written to RWF  633
 Ground to excited state transition densities written to RWF  633
 Ground to excited state transition electric dipole moments (Au):
       state          X           Y           Z        Dip. S.      Osc.
         1         0.1628     -0.0703     -0.0022      0.0314      0.0033
         2         0.8730     -0.3947     -0.0278      0.9187      0.1010
         3         0.1949      0.4223      0.0064      0.2163      0.0262
         4         0.0122      0.0296      0.1043      0.0119      0.0015
         5        -0.0026      0.0081      0.0375      0.0015      0.0002
         6         0.0730      0.2321      0.0889      0.0671      0.0100
         7         0.1164      0.2289     -0.0415      0.0677      0.0102
         8         0.3576      1.3292      0.0091      1.8948      0.2910
         9        -0.9767     -0.0073     -0.0386      0.9554      0.1510
        10        -0.0456     -0.0425     -0.0273      0.0046      0.0008
        11        -0.0072      0.0355     -0.0433      0.0032      0.0005
        12         0.1120      0.0472     -0.1402      0.0344      0.0059
        13        -0.0483      0.0056     -0.2151      0.0486      0.0085
        14         0.0293     -0.0048     -0.1633      0.0276      0.0050
        15         0.0156      0.0221      0.1830      0.0342      0.0062
 Ground to excited state transition velocity dipole moments (Au):
       state          X           Y           Z        Dip. S.      Osc.
         1        -0.0082     -0.0003      0.0008      0.0001      0.0003
         2        -0.0384      0.0030      0.0108      0.0016      0.0065
         3        -0.0110     -0.0314      0.0066      0.0011      0.0042
         4        -0.0042     -0.0041     -0.0312      0.0010      0.0037
         5         0.0027      0.0016     -0.0143      0.0002      0.0007
         6        -0.0195     -0.0449     -0.0592      0.0059      0.0175
         7        -0.0311     -0.0467      0.1628      0.0297      0.0876
         8        -0.1087     -0.2887     -0.0170      0.0954      0.2761
         9         0.1970      0.0226      0.0214      0.0398      0.1119
        10         0.0132      0.0143     -0.0297      0.0013      0.0034
        11        -0.0007     -0.0042      0.0104      0.0001      0.0003
        12        -0.0200     -0.0128     -0.0390      0.0021      0.0054
        13         0.0039     -0.0032      0.0147      0.0002      0.0006
        14        -0.0048     -0.0010      0.1057      0.0112      0.0276
        15        -0.0017     -0.0084     -0.1043      0.0109      0.0270
 Ground to excited state transition magnetic dipole moments (Au):
       state          X           Y           Z
         1        -0.3299     -0.5936      0.1153
         2         0.0795      0.0856      0.5326
         3        -0.0223      0.0048     -0.0359
         4         0.4496     -0.2125     -0.0071
         5         0.0690     -0.1020      0.0152
         6         0.0733     -0.0041     -0.0014
         7         0.0218      0.1763     -0.0386
         8         0.0325     -0.0282     -0.0736
         9        -0.0522      0.0312     -0.0117
        10         0.4676      0.6692     -0.0063
        11        -0.2394     -0.6144      0.0061
        12        -1.1429      1.0831      0.0320
        13         0.0974     -0.1446     -0.0200
        14         1.1676      0.1154      0.0093
        15        -0.1307      0.2836     -0.0027
 Ground to excited state transition velocity quadrupole moments (Au):
       state          XX          YY          ZZ          XY          XZ          YZ
         1         0.0701     -0.0667      0.0038      0.0257     -0.0677      0.0599
         2         0.4217     -0.4145     -0.0007      0.1579      0.0137     -0.0170
         3         0.0552     -0.0592      0.0580     -0.1072     -0.0030     -0.0163
         4         0.0147     -0.0065      0.0111     -0.0111      0.1736      0.1875
         5        -0.0050     -0.0091      0.0173     -0.0040     -0.0649      0.1397
         6         0.0491     -0.0354      0.0036     -0.0379      0.0390      0.0492
         7        -0.0217      0.0257     -0.0017     -0.0651     -0.1396     -0.1015
         8         0.3232     -0.2201     -0.0357     -0.1966     -0.0172      0.0282
         9         0.4411     -0.4931      0.0122      0.3397      0.0049     -0.0021
        10        -0.0027     -0.0021     -0.0051      0.0105     -0.2413      0.1959
        11         0.0212     -0.0134     -0.0141      0.0056      0.0021      0.0705
        12         0.0395     -0.0018     -0.0070     -0.0175      0.1020      0.0679
        13         0.0065     -0.0114     -0.0047      0.0085     -0.0175     -0.0120
        14         0.0237     -0.0115     -0.0058     -0.0006      0.2195      0.1332
        15         0.0022     -0.0146      0.0086      0.0073     -0.0463     -0.3403
 <0|del|b> * <b|rxdel|0> + <0|del|b> * <b|delr+rdel|0>
 Rotatory Strengths (R) in cgs (10**-40 erg-esu-cm/Gauss)
       state          XX          YY          ZZ    R(velocity)    E-M Angle
         1         0.5640      5.1862      7.6498      4.4667       58.67
         2        16.4413      3.5244     -7.3134      4.2174       82.23
         3        -2.3157      1.7429      0.0204     -0.1842       95.65
         4         4.1525     -5.4697     -1.8458     -1.0543       92.96
         5        -0.3867      0.4934     -0.8034     -0.2322       96.27
         6         6.7084     -7.1573     -3.2040     -1.2176      101.87
         7       -49.5924     10.6457     -8.6905    -15.8791      119.05
         8        11.9172    -13.3484     19.4201      5.9963       77.15
         9        11.3626    -27.1618    -13.5010     -9.7667      142.71
        10        18.7350     13.3965     14.0785     15.4033       56.67
        11         3.7596      0.1828      3.8884      2.6103       67.82
        12       -17.9329     26.7365     12.3600      7.0545       83.81
        13         0.3183     -0.1156      1.2718      0.4915       78.43
        14         1.3377     -6.7465     -6.8936     -4.1008       92.17
        15        -4.2402      2.4075     -3.0562     -1.6296       93.28
 1/2[<0|r|b>*<b|rxdel|0> + (<0|rxdel|b>*<b|r|0>)*]
 Rotatory Strengths (R) in cgs (10**-40 erg-esu-cm/Gauss)
       state          XX          YY          ZZ     R(length)
         1        37.9747    -29.5249      0.1800      2.8766
         2       -49.0722     23.8909     10.4590     -4.9074
         3         3.0717     -1.4190      0.1622      0.6050
         4        -3.8862      4.4514      0.5273      0.3642
         5         0.1267      0.5809     -0.4030      0.1015
         6        -3.7847      0.6722      0.0895     -1.0077
         7        -1.7908    -28.5488     -1.1331    -10.4909
         8        -8.2163     26.4977      0.4732      6.2515
         9       -36.0284      0.1602     -0.3201    -12.0628
        10        15.0886     20.1017     -0.1223     11.6893
        11        -1.2107     15.4222      0.1864      4.7993
        12        90.5554    -36.1626      3.1771     19.1900
        13         3.3245      0.5767     -3.0415      0.2866
        14       -24.2284      0.3899      1.0764     -7.5874
        15         1.4411     -4.4341      0.3478     -0.8817
  1/2[<0|del|b>*<b|r|0> + (<0|r|b>*<b|del|0>)*] (Au)
       state          X           Y           Z        Dip. S.   Osc.(frdel)
         1        -0.0013      0.0000      0.0000      0.0013      0.0009
         2        -0.0336     -0.0012     -0.0003      0.0350      0.0234
         3        -0.0021     -0.0132      0.0000      0.0153      0.0102
         4        -0.0001     -0.0001     -0.0033      0.0034      0.0023
         5         0.0000      0.0000     -0.0005      0.0005      0.0004
         6        -0.0014     -0.0104     -0.0053      0.0171      0.0114
         7        -0.0036     -0.0107     -0.0068      0.0211      0.0140
         8        -0.0389     -0.3837     -0.0002      0.4227      0.2818
         9        -0.1924     -0.0002     -0.0008      0.1934      0.1289
        10        -0.0006     -0.0006      0.0008      0.0004      0.0003
        11         0.0000     -0.0001     -0.0005      0.0006      0.0004
        12        -0.0022     -0.0006      0.0055     -0.0026     -0.0017
        13        -0.0002      0.0000     -0.0032      0.0034      0.0023
        14        -0.0001      0.0000     -0.0173      0.0174      0.0116
        15         0.0000     -0.0002     -0.0191      0.0193      0.0129

 Excitation energies and oscillator strengths:
 
 Excited State   1:      Singlet-A      4.2408 eV  292.36 nm  f=0.0033  <S**2>=0.000
      13 -> 14         0.15423
      13 -> 16         0.66038
      13 -> 22        -0.13578
 This state for optimization and/or second-order correction.
 Total Energy, E(CIS) = -0.920623037780E-01
 Copying the excited state density for this state as the 1-particle RhoCI density.
 
 Excited State   2:      Singlet-A      4.4893 eV  276.18 nm  f=0.1010  <S**2>=0.000
      12 -> 15         0.17054
      13 -> 14         0.65954
      13 -> 16        -0.15191
 
 Excited State   3:      Singlet-A      4.9404 eV  250.96 nm  f=0.0262  <S**2>=0.000
      12 -> 14        -0.35059
      13 -> 15         0.60947
 
 Excited State   4:      Singlet-A      4.9707 eV  249.43 nm  f=0.0015  <S**2>=0.000
      12 -> 16         0.13223
      12 -> 19        -0.11755
      13 -> 17         0.57026
      13 -> 18        -0.22477
      13 -> 20        -0.12139
      13 -> 23        -0.17862
 
 Excited State   5:      Singlet-A      5.4681 eV  226.74 nm  f=0.0002  <S**2>=0.000
      12 -> 17        -0.26408
      12 -> 19        -0.14370
      12 -> 23         0.11568
      13 -> 17         0.11166
      13 -> 18         0.19025
      13 -> 19         0.48536
      13 -> 20         0.19741
      13 -> 21        -0.17986
 
 Excited State   6:      Singlet-A      6.1117 eV  202.87 nm  f=0.0100  <S**2>=0.000
       7 -> 16        -0.12778
      12 -> 14         0.11136
      12 -> 16         0.63025
      12 -> 22        -0.12721
      13 -> 17        -0.11363
 
 Excited State   7:      Singlet-A      6.1418 eV  201.87 nm  f=0.0102  <S**2>=0.000
      12 -> 14         0.10918
      12 -> 20         0.12527
      13 -> 17         0.24006
      13 -> 18         0.54039
      13 -> 19        -0.27017
      13 -> 20         0.15200
 
 Excited State   8:      Singlet-A      6.2694 eV  197.76 nm  f=0.2910  <S**2>=0.000
      12 -> 14         0.54231
      12 -> 15         0.15741
      12 -> 16        -0.13232
      13 -> 15         0.29794
 
 Excited State   9:      Singlet-A      6.4508 eV  192.20 nm  f=0.1510  <S**2>=0.000
      12 -> 14        -0.12096
      12 -> 15         0.64644
      13 -> 14        -0.15581
 
 Excited State  10:      Singlet-A      6.6271 eV  187.09 nm  f=0.0008  <S**2>=0.000
      12 -> 17         0.43490
      12 -> 18         0.29270
      12 -> 20         0.18985
      12 -> 21         0.27405
      12 -> 23        -0.14306
      13 -> 20         0.17204
      13 -> 22         0.16893
 
 Excited State  11:      Singlet-A      6.8808 eV  180.19 nm  f=0.0005  <S**2>=0.000
      12 -> 17         0.21021
      12 -> 18        -0.21801
      12 -> 19         0.14009
      12 -> 21         0.11513
      13 -> 16        -0.13943
      13 -> 18         0.19345
      13 -> 19         0.34711
      13 -> 20        -0.21324
      13 -> 21         0.29386
      13 -> 22        -0.18626
 
 Excited State  12:      Singlet-A      7.0429 eV  176.04 nm  f=0.0059  <S**2>=0.000
       9 -> 14         0.18185
      10 -> 14         0.12968
      10 -> 15         0.21722
      11 -> 14         0.57526
      11 -> 15         0.14633
      12 -> 19         0.12411
 
 Excited State  13:      Singlet-A      7.1524 eV  173.35 nm  f=0.0085  <S**2>=0.000
      11 -> 14        -0.14280
      12 -> 17        -0.19313
      12 -> 18         0.26181
      12 -> 19         0.24866
      13 -> 18        -0.12657
      13 -> 20         0.27291
      13 -> 21         0.40504
      13 -> 24         0.14194
 
 Excited State  14:      Singlet-A      7.3531 eV  168.62 nm  f=0.0050  <S**2>=0.000
      10 -> 14         0.35290
      10 -> 15        -0.13119
      11 -> 15         0.42012
      12 -> 18        -0.10091
      12 -> 19        -0.13280
      12 -> 22        -0.14393
      13 -> 17        -0.11571
      13 -> 20         0.10375
      13 -> 21         0.16733
      13 -> 23        -0.17501
      13 -> 24        -0.13387
 
 Excited State  15:      Singlet-A      7.3607 eV  168.44 nm  f=0.0062  <S**2>=0.000
      10 -> 14         0.14411
      11 -> 14        -0.11323
      11 -> 15         0.13351
      12 -> 17         0.14638
      12 -> 18        -0.11662
      12 -> 19         0.37603
      12 -> 21        -0.19722
      12 -> 22         0.11390
      13 -> 17         0.16040
      13 -> 19         0.12952
      13 -> 21        -0.15191
      13 -> 22         0.24323
      13 -> 23         0.19237
      13 -> 24         0.17354
 SavETr:  write IOETrn=   770 NScale= 10 NData=  16 NLR=1 NState=   15 LETran=     280.
 The selected state is a singlet
 CISAX will form     1 AO SS matrices at one time.
 NMat=     1 NSing=     1 JSym2X= 0.
 Leave Link  914 at Sat Nov 14 17:36:38 2015, MaxMem=    33554432 cpu:         0.1
 (Enter /home/Applications/g09/g09/l1002.exe)
 Minotr:  Closed shell wavefunction.
          Computing CIS/TD-HF/TD-KS derivatives.
          Using Z-Vector for PSCF gradient.
          Skipping F1 and S1 gradient terms here.
          IDoAtm=111111111
          Direct CPHF calculation.
          Differentiating once with respect to electric field.
                with respect to dipole field.
          Differentiating once with respect to nuclear coordinates.
          Electric field/nuclear overlap derivatives assumed to be zero.
          Requested convergence is 1.0D-10 RMS, and 1.0D-09 maximum.
          NewPWx=T KeepS1=F KeepF1=F KeepIn=T MapXYZ=F SortEE=F KeepMc=T.
          MDV=      33495423 using IRadAn=       0.
 Keep J ints in memory in canonical form, NReq=871704.
 FoFCou: FMM=F IPFlag=           0 FMFlag=           0 FMFlg1=           0
         NFxFlg=           0 DoJE=F BraDBF=F KetDBF=F FulRan=T
         wScrn=  0.000000 ICntrl=     600 IOpCl=  2 I1Cent=           0 NGrid=           0
         NMat0=    1 NMatS0=     54 NMatT0=    0 NMatD0=    1 NMtDS0=    0 NMtDT0=    0
 Symmetry not used in FoFCou.
          Solving linear equations separately, MaxMat=       0.
          There are     1 degrees of freedom in the 1st order CPHF.  IDoFFX=0 NUNeed=     1.
 LinEq1:  Iter=  0 NonCon=     1 RMS=3.65D-02 Max=3.39D-01 NDo=     1
 AX will form     1 AO Fock derivatives at one time.
 LinEq1:  Iter=  1 NonCon=     1 RMS=8.00D-03 Max=7.28D-02 NDo=     1
 LinEq1:  Iter=  2 NonCon=     1 RMS=9.76D-04 Max=3.99D-03 NDo=     1
 LinEq1:  Iter=  3 NonCon=     1 RMS=1.18D-04 Max=5.90D-04 NDo=     1
 LinEq1:  Iter=  4 NonCon=     1 RMS=1.26D-05 Max=5.03D-05 NDo=     1
 LinEq1:  Iter=  5 NonCon=     1 RMS=1.65D-06 Max=6.37D-06 NDo=     1
 LinEq1:  Iter=  6 NonCon=     1 RMS=2.63D-07 Max=1.30D-06 NDo=     1
 LinEq1:  Iter=  7 NonCon=     1 RMS=3.54D-08 Max=1.96D-07 NDo=     1
 LinEq1:  Iter=  8 NonCon=     1 RMS=4.55D-09 Max=1.94D-08 NDo=     1
 LinEq1:  Iter=  9 NonCon=     1 RMS=3.85D-10 Max=1.13D-09 NDo=     1
 LinEq1:  Iter= 10 NonCon=     0 RMS=4.61D-11 Max=1.54D-10 NDo=     1
 Linear equations converged to 1.000D-10 1.000D-09 after    10 iterations.
 End of Minotr F.D. properties file   721 does not exist.
 End of Minotr F.D. properties file   722 does not exist.
 End of Minotr F.D. properties file   788 does not exist.
 Leave Link 1002 at Sat Nov 14 17:36:38 2015, MaxMem=    33554432 cpu:         0.0
 (Enter /home/Applications/g09/g09/l601.exe)
 Copying SCF densities to generalized density rwf, IOpCl= 0 IROHF=0.

 **********************************************************************

            Population analysis using the SCF density.

 **********************************************************************

 Orbital symmetries:
       Occupied  (A) (A) (A) (A) (A) (A) (A) (A) (A) (A) (A) (A)
                 (A)
       Virtual   (A) (A) (A) (A) (A) (A) (A) (A) (A) (A) (A)
 The electronic state is 1-A.
 Alpha  occ. eigenvalues --   -1.65632  -1.26632  -1.13341  -0.86869  -0.82319
 Alpha  occ. eigenvalues --   -0.70486  -0.65350  -0.59467  -0.53181  -0.50881
 Alpha  occ. eigenvalues --   -0.48536  -0.39070  -0.33302
 Alpha virt. eigenvalues --    0.03574   0.06333   0.08098   0.11427   0.14601
 Alpha virt. eigenvalues --    0.15281   0.16913   0.17390   0.19369   0.21254
 Alpha virt. eigenvalues --    0.23752
     Molecular Orbital Coefficients:
                           1         2         3         4         5
                           O         O         O         O         O
     Eigenvalues --    -1.65632  -1.26632  -1.13341  -0.86869  -0.82319
   1 1   C  1S          0.24635  -0.51530  -0.23636  -0.33895  -0.30402
   2        1PX        -0.10832   0.10670  -0.04479  -0.15364  -0.04502
   3        1PY        -0.05490  -0.01581   0.17534   0.15657  -0.30657
   4        1PZ        -0.00248   0.00457   0.00156   0.00044   0.00355
   5 2   C  1S          0.36936  -0.14877  -0.51703  -0.00128   0.38068
   6        1PX        -0.17714  -0.17264   0.01495  -0.29579   0.06091
   7        1PY         0.08598  -0.17052   0.00773  -0.22110  -0.07049
   8        1PZ         0.00111  -0.00202  -0.00249  -0.00452   0.00494
   9 3   O  1S          0.66682   0.51796  -0.01942   0.05876  -0.32886
  10        1PX         0.11541  -0.03404  -0.34531   0.40101   0.19509
  11        1PY         0.18207  -0.01717   0.22635  -0.29515   0.15080
  12        1PZ         0.00154  -0.00006   0.00119  -0.00569   0.00679
  13 4   C  1S          0.36574  -0.09151   0.52100  -0.12638   0.38773
  14        1PX         0.14982  -0.07947   0.00720   0.10491  -0.05877
  15        1PY        -0.13281  -0.22509  -0.00367   0.31847   0.15405
  16        1PZ        -0.00076  -0.00054   0.00093  -0.00330   0.00675
  17 5   C  1S          0.23893  -0.49377   0.29313   0.41572  -0.17687
  18        1PX        -0.00471  -0.07175  -0.15529  -0.10983  -0.32217
  19        1PY        -0.11741   0.08561  -0.02565   0.13475  -0.12539
  20        1PZ         0.00148  -0.00287   0.00121  -0.00112   0.00072
  21 6   H  1S          0.04969  -0.15981   0.11468   0.26866  -0.14198
  22 7   H  1S          0.06643  -0.01674   0.18741  -0.08674   0.21573
  23 8   H  1S          0.06712  -0.03589  -0.18805   0.01426   0.21985
  24 9   H  1S          0.04599  -0.15265  -0.08412  -0.19450  -0.21339
                           6         7         8         9        10
                           O         O         O         O         O
     Eigenvalues --    -0.70486  -0.65350  -0.59467  -0.53181  -0.50881
   1 1   C  1S         -0.05923   0.00476  -0.19774  -0.01716   0.01475
   2        1PX        -0.23255  -0.01404  -0.14749   0.45338  -0.25208
   3        1PY        -0.02018   0.00602  -0.14678   0.05916  -0.31619
   4        1PZ        -0.00591   0.16567   0.00237  -0.00022  -0.00539
   5 2   C  1S         -0.14232  -0.01406   0.18409   0.01629   0.06083
   6        1PX        -0.25331  -0.01992   0.32700  -0.16287  -0.07539
   7        1PY         0.28884   0.00947  -0.08803  -0.03119   0.44877
   8        1PZ        -0.01258   0.35989   0.01287  -0.00173  -0.00648
   9 3   O  1S         -0.17583  -0.00386  -0.01444  -0.12962   0.01742
  10        1PX         0.29607   0.01794  -0.32210   0.31892   0.01254
  11        1PY         0.44141   0.00383   0.27202   0.43335  -0.05524
  12        1PZ        -0.02419   0.82789   0.01996   0.00587  -0.01042
  13 4   C  1S         -0.12890  -0.00783  -0.18784   0.03529  -0.07714
  14        1PX         0.36257   0.00722   0.24345  -0.02943  -0.38993
  15        1PY        -0.09437  -0.00224  -0.28254  -0.13589  -0.06746
  16        1PZ        -0.01838   0.36125  -0.00675   0.00161   0.00948
  17 5   C  1S         -0.07140  -0.00299   0.17495  -0.06099  -0.02177
  18        1PX         0.06055   0.01017   0.02077  -0.10534   0.10735
  19        1PY        -0.23827  -0.00672   0.24839   0.43020   0.33097
  20        1PZ        -0.00380   0.15884  -0.00500  -0.00763  -0.00348
  21 6   H  1S         -0.19289  -0.00753   0.29185   0.32487   0.26863
  22 7   H  1S         -0.28679   0.00296  -0.30708   0.03972   0.27614
  23 8   H  1S         -0.29782  -0.01515   0.28387  -0.03070  -0.32737
  24 9   H  1S         -0.17015  -0.00629  -0.25152   0.35772  -0.28636
                          11        12        13        14        15
                           O         O         O         V         V
     Eigenvalues --    -0.48536  -0.39070  -0.33302   0.03574   0.06333
   1 1   C  1S         -0.00886   0.01092  -0.00966  -0.00562   0.01169
   2        1PX        -0.28000  -0.00275   0.00703   0.00574   0.00586
   3        1PY         0.40780  -0.00306  -0.00151  -0.01611  -0.00294
   4        1PZ        -0.00505   0.64056  -0.31641  -0.24871   0.63202
   5 2   C  1S          0.06187  -0.00475   0.00673  -0.02568  -0.00257
   6        1PX        -0.12695  -0.00096   0.01449   0.01080   0.00972
   7        1PY        -0.29677  -0.00231   0.00389   0.00486  -0.00784
   8        1PZ        -0.01170   0.24683  -0.58543   0.53021  -0.42913
   9 3   O  1S         -0.15896   0.00153   0.00398   0.01275   0.00326
  10        1PX         0.12647  -0.00013  -0.00568   0.00938   0.00270
  11        1PY         0.20935   0.00619   0.00120   0.01486   0.00408
  12        1PZ        -0.01452  -0.40922  -0.03014  -0.37833   0.03320
  13 4   C  1S          0.02917  -0.00266  -0.00896  -0.02817  -0.01374
  14        1PX        -0.28303   0.00713   0.02505   0.02552   0.01676
  15        1PY        -0.26924   0.00078   0.00165   0.00881  -0.00190
  16        1PZ         0.01252   0.14157   0.61177   0.61250   0.30902
  17 5   C  1S         -0.00376  -0.00492   0.00116   0.01154   0.00626
  18        1PX         0.51834  -0.00978  -0.00873   0.00187  -0.00205
  19        1PY        -0.02627   0.01158   0.00182  -0.01078  -0.00872
  20        1PZ         0.00826   0.58368   0.42509  -0.36543  -0.56415
  21 6   H  1S         -0.05962   0.00560   0.00095  -0.00431  -0.00159
  22 7   H  1S          0.26178  -0.00211  -0.00076   0.03552   0.02011
  23 8   H  1S          0.22663   0.00312  -0.00318   0.02274  -0.00276
  24 9   H  1S         -0.12347  -0.00371   0.00430   0.00358  -0.01241
                          16        17        18        19        20
                           V         V         V         V         V
     Eigenvalues --     0.08098   0.11427   0.14601   0.15281   0.16913
   1 1   C  1S          0.08784  -0.38540   0.00019  -0.16497  -0.40989
   2        1PX         0.01596   0.07390   0.34200   0.01432  -0.10757
   3        1PY        -0.07839   0.02061  -0.08863   0.44850  -0.20862
   4        1PZ        -0.00107   0.01125  -0.00451   0.00931   0.02012
   5 2   C  1S         -0.36066   0.32410   0.05441   0.25100  -0.11648
   6        1PX         0.28474   0.05370   0.40347   0.24323   0.03665
   7        1PY         0.11744   0.02504  -0.23655   0.30857   0.33045
   8        1PZ        -0.02322   0.00645   0.01024   0.01013  -0.01073
   9 3   O  1S          0.25387  -0.01169   0.06010   0.13087   0.00201
  10        1PX         0.22241  -0.15204   0.20138  -0.04033   0.06740
  11        1PY         0.32872   0.08590  -0.04889   0.18464  -0.15351
  12        1PZ         0.02256   0.00368   0.00081  -0.00484   0.00336
  13 4   C  1S         -0.35701  -0.36872   0.14776   0.11237   0.18066
  14        1PX        -0.00314   0.00054   0.31569  -0.23051   0.18056
  15        1PY         0.29585  -0.13693   0.09275   0.43309   0.08649
  16        1PZ        -0.04748  -0.01938  -0.01578   0.02196  -0.00725
  17 5   C  1S          0.08116   0.38578  -0.02245  -0.01865  -0.07251
  18        1PX        -0.07847  -0.04830   0.44450   0.09228   0.48538
  19        1PY        -0.03124  -0.16959   0.02843   0.26652  -0.06757
  20        1PZ         0.02778   0.01325   0.01074  -0.01602   0.00197
  21 6   H  1S         -0.08589  -0.23679   0.02786  -0.25253   0.15629
  22 7   H  1S          0.38465   0.35259   0.15889  -0.31502   0.00984
  23 8   H  1S          0.37305  -0.30378  -0.40572  -0.06092   0.27898
  24 9   H  1S         -0.10799   0.31364  -0.29464  -0.01759   0.45121
                          21        22        23        24
                           V         V         V         V
     Eigenvalues --     0.17390   0.19369   0.21254   0.23752
   1 1   C  1S         -0.04209   0.01337   0.10505   0.05037
   2        1PX         0.24106   0.38492  -0.41587   0.10914
   3        1PY        -0.41778   0.15283  -0.16277  -0.26824
   4        1PZ         0.00473  -0.00037  -0.00422  -0.00103
   5 2   C  1S         -0.18719   0.04046  -0.08677   0.08643
   6        1PX        -0.02024  -0.30821   0.01328  -0.47362
   7        1PY        -0.07937   0.37367  -0.23483  -0.22788
   8        1PZ        -0.00605  -0.00161  -0.00397  -0.00512
   9 3   O  1S          0.01103  -0.12548  -0.01395   0.00197
  10        1PX         0.16374  -0.13705   0.01340  -0.43887
  11        1PY         0.02132  -0.20689  -0.03201   0.28618
  12        1PZ        -0.00182   0.00128   0.00133   0.00303
  13 4   C  1S          0.09810   0.02509   0.08580  -0.10449
  14        1PX        -0.41947   0.31336   0.26779   0.00789
  15        1PY        -0.15469  -0.15129   0.03119   0.51428
  16        1PZ         0.01572  -0.01190  -0.00677   0.00015
  17 5   C  1S          0.43627   0.12481   0.00205  -0.03910
  18        1PX         0.16856   0.06097  -0.03776   0.27468
  19        1PY         0.02219   0.24210   0.60407  -0.00686
  20        1PZ         0.00320   0.00460  -0.00596   0.00209
  21 6   H  1S         -0.36061  -0.28238  -0.44623   0.03793
  22 7   H  1S         -0.35932   0.20458   0.11618   0.01480
  23 8   H  1S          0.07863   0.30024  -0.08247  -0.00693
  24 9   H  1S         -0.04537  -0.32121   0.24364  -0.03362
     Density Matrix:
                           1         2         3         4         5
   1 1   C  1S          1.26568
   2        1PX         0.05688   0.94869
   3        1PY         0.02850   0.00950   0.88857
   4        1PZ         0.01226  -0.00431  -0.00353   1.07603
   5 2   C  1S          0.29294  -0.13747  -0.48551  -0.01584   1.26601
   6        1PX         0.15287   0.06914  -0.26101  -0.01076   0.11525
   7        1PY         0.42732  -0.17833  -0.54259  -0.01059  -0.04480
   8        1PZ         0.02047  -0.00890  -0.00971   0.80633  -0.00655
   9 3   O  1S         -0.00173   0.02827  -0.02110   0.00074   0.13113
  10        1PX        -0.05551   0.02665   0.08906   0.00257   0.42410
  11        1PY        -0.07115   0.03163   0.03433   0.00327   0.02878
  12        1PZ        -0.00577   0.00333  -0.00258  -0.23020  -0.00333
  13 4   C  1S         -0.03628   0.02852   0.00518   0.00245   0.01721
  14        1PX        -0.02804   0.01106  -0.01639  -0.00216  -0.01507
  15        1PY        -0.01095   0.05822  -0.08060   0.00246  -0.03391
  16        1PZ        -0.00257  -0.00175   0.00403  -0.08608   0.00601
  17 5   C  1S          0.25438  -0.35570   0.28579  -0.01171  -0.03564
  18        1PX         0.39763  -0.41218   0.44554  -0.01410  -0.00269
  19        1PY        -0.22345   0.29152  -0.12303   0.01247   0.02891
  20        1PZ         0.01193  -0.00901   0.00627   0.53134  -0.00346
  21 6   H  1S         -0.05552   0.07143  -0.04709   0.00320   0.05531
  22 7   H  1S          0.04658  -0.05344   0.04487  -0.00340   0.06051
  23 8   H  1S         -0.07400   0.03591   0.11421   0.00744   0.59892
  24 9   H  1S          0.58222   0.73545   0.24355  -0.00813  -0.07796
                           6         7         8         9        10
   6        1PX         0.74527
   7        1PY        -0.03547   0.94423
   8        1PZ        -0.00897  -0.00502   1.06748
   9 3   O  1S         -0.33063  -0.02290  -0.00298   1.79687
  10        1PX        -0.75234  -0.03437  -0.00004  -0.16657   1.28443
  11        1PY        -0.09068   0.15619  -0.00187  -0.26154   0.12324
  12        1PZ        -0.00072   0.00062   0.43087  -0.00040   0.00040
  13 4   C  1S         -0.02516  -0.02697   0.00572   0.13249  -0.14678
  14        1PX         0.02155   0.00160  -0.01261   0.11785   0.05392
  15        1PY        -0.05900  -0.00575  -0.00113  -0.31419   0.27228
  16        1PZ         0.00608   0.00307  -0.38643  -0.00133   0.00307
  17 5   C  1S          0.00198  -0.03046  -0.00349  -0.00274  -0.04477
  18        1PX        -0.08369  -0.05800  -0.00257  -0.03141  -0.01320
  19        1PY         0.01637   0.01259   0.00302   0.01648   0.01861
  20        1PZ         0.00570  -0.00360  -0.09539   0.00301  -0.00210
  21 6   H  1S          0.02249   0.05929   0.00174   0.02480  -0.00042
  22 7   H  1S         -0.11127   0.00642  -0.00636  -0.06232   0.02824
  23 8   H  1S          0.34020  -0.66520   0.01148  -0.06215  -0.08517
  24 9   H  1S          0.00306  -0.08536  -0.00743   0.02768   0.09061
                          11        12        13        14        15
  11        1PY         1.39619
  12        1PZ        -0.00264   1.71037
  13 4   C  1S          0.39893  -0.00125   1.27995
  14        1PX         0.33268   0.01129  -0.08440   0.93549
  15        1PY        -0.64390  -0.00546   0.09479   0.05172   0.75544
  16        1PZ        -0.00417   0.44562  -0.00413   0.00508  -0.00014
  17 5   C  1S         -0.08205   0.00366   0.27991   0.31836   0.30313
  18        1PX         0.07667   0.00125  -0.39132  -0.29476  -0.42274
  19        1PY         0.07551  -0.00403  -0.31369  -0.32639  -0.20274
  20        1PZ         0.00268  -0.24058  -0.00616   0.02581   0.00364
  21 6   H  1S          0.08951  -0.00072  -0.07477  -0.07762  -0.03562
  22 7   H  1S         -0.08086  -0.00002   0.60090  -0.74166   0.03836
  23 8   H  1S         -0.00568   0.00076   0.05856   0.05101  -0.09713
  24 9   H  1S          0.03719   0.00359   0.05823   0.04748   0.04968
                          16        17        18        19        20
  16        1PZ         1.05099
  17 5   C  1S         -0.00699   1.26174
  18        1PX         0.00224   0.00312   0.88161
  19        1PY         0.01052   0.05489  -0.01776   0.93922
  20        1PZ         0.80047  -0.00283  -0.00706   0.00157   1.09360
  21 6   H  1S          0.00173   0.60118  -0.06476   0.76070  -0.00378
  22 7   H  1S          0.03098  -0.07561   0.09855   0.08167   0.00613
  23 8   H  1S         -0.00501   0.04956   0.06467  -0.03537   0.00227
  24 9   H  1S          0.00029  -0.05669  -0.06821   0.04933  -0.00342
                          21        22        23        24
  21 6   H  1S          0.87445
  22 7   H  1S          0.02135   0.83360
  23 8   H  1S         -0.02177  -0.03620   0.83739
  24 9   H  1S          0.00233  -0.02098   0.01765   0.86671
    Full Mulliken population analysis:
                           1         2         3         4         5
   1 1   C  1S          1.26568
   2        1PX         0.00000   0.94869
   3        1PY         0.00000   0.00000   0.88857
   4        1PZ         0.00000   0.00000   0.00000   1.07603
   5 2   C  1S          0.00000   0.00000   0.00000   0.00000   1.26601
   6        1PX         0.00000   0.00000   0.00000   0.00000   0.00000
   7        1PY         0.00000   0.00000   0.00000   0.00000   0.00000
   8        1PZ         0.00000   0.00000   0.00000   0.00000   0.00000
   9 3   O  1S          0.00000   0.00000   0.00000   0.00000   0.00000
  10        1PX         0.00000   0.00000   0.00000   0.00000   0.00000
  11        1PY         0.00000   0.00000   0.00000   0.00000   0.00000
  12        1PZ         0.00000   0.00000   0.00000   0.00000   0.00000
  13 4   C  1S          0.00000   0.00000   0.00000   0.00000   0.00000
  14        1PX         0.00000   0.00000   0.00000   0.00000   0.00000
  15        1PY         0.00000   0.00000   0.00000   0.00000   0.00000
  16        1PZ         0.00000   0.00000   0.00000   0.00000   0.00000
  17 5   C  1S          0.00000   0.00000   0.00000   0.00000   0.00000
  18        1PX         0.00000   0.00000   0.00000   0.00000   0.00000
  19        1PY         0.00000   0.00000   0.00000   0.00000   0.00000
  20        1PZ         0.00000   0.00000   0.00000   0.00000   0.00000
  21 6   H  1S          0.00000   0.00000   0.00000   0.00000   0.00000
  22 7   H  1S          0.00000   0.00000   0.00000   0.00000   0.00000
  23 8   H  1S          0.00000   0.00000   0.00000   0.00000   0.00000
  24 9   H  1S          0.00000   0.00000   0.00000   0.00000   0.00000
                           6         7         8         9        10
   6        1PX         0.74527
   7        1PY         0.00000   0.94423
   8        1PZ         0.00000   0.00000   1.06748
   9 3   O  1S          0.00000   0.00000   0.00000   1.79687
  10        1PX         0.00000   0.00000   0.00000   0.00000   1.28443
  11        1PY         0.00000   0.00000   0.00000   0.00000   0.00000
  12        1PZ         0.00000   0.00000   0.00000   0.00000   0.00000
  13 4   C  1S          0.00000   0.00000   0.00000   0.00000   0.00000
  14        1PX         0.00000   0.00000   0.00000   0.00000   0.00000
  15        1PY         0.00000   0.00000   0.00000   0.00000   0.00000
  16        1PZ         0.00000   0.00000   0.00000   0.00000   0.00000
  17 5   C  1S          0.00000   0.00000   0.00000   0.00000   0.00000
  18        1PX         0.00000   0.00000   0.00000   0.00000   0.00000
  19        1PY         0.00000   0.00000   0.00000   0.00000   0.00000
  20        1PZ         0.00000   0.00000   0.00000   0.00000   0.00000
  21 6   H  1S          0.00000   0.00000   0.00000   0.00000   0.00000
  22 7   H  1S          0.00000   0.00000   0.00000   0.00000   0.00000
  23 8   H  1S          0.00000   0.00000   0.00000   0.00000   0.00000
  24 9   H  1S          0.00000   0.00000   0.00000   0.00000   0.00000
                          11        12        13        14        15
  11        1PY         1.39619
  12        1PZ         0.00000   1.71037
  13 4   C  1S          0.00000   0.00000   1.27995
  14        1PX         0.00000   0.00000   0.00000   0.93549
  15        1PY         0.00000   0.00000   0.00000   0.00000   0.75544
  16        1PZ         0.00000   0.00000   0.00000   0.00000   0.00000
  17 5   C  1S          0.00000   0.00000   0.00000   0.00000   0.00000
  18        1PX         0.00000   0.00000   0.00000   0.00000   0.00000
  19        1PY         0.00000   0.00000   0.00000   0.00000   0.00000
  20        1PZ         0.00000   0.00000   0.00000   0.00000   0.00000
  21 6   H  1S          0.00000   0.00000   0.00000   0.00000   0.00000
  22 7   H  1S          0.00000   0.00000   0.00000   0.00000   0.00000
  23 8   H  1S          0.00000   0.00000   0.00000   0.00000   0.00000
  24 9   H  1S          0.00000   0.00000   0.00000   0.00000   0.00000
                          16        17        18        19        20
  16        1PZ         1.05099
  17 5   C  1S          0.00000   1.26174
  18        1PX         0.00000   0.00000   0.88161
  19        1PY         0.00000   0.00000   0.00000   0.93922
  20        1PZ         0.00000   0.00000   0.00000   0.00000   1.09360
  21 6   H  1S          0.00000   0.00000   0.00000   0.00000   0.00000
  22 7   H  1S          0.00000   0.00000   0.00000   0.00000   0.00000
  23 8   H  1S          0.00000   0.00000   0.00000   0.00000   0.00000
  24 9   H  1S          0.00000   0.00000   0.00000   0.00000   0.00000
                          21        22        23        24
  21 6   H  1S          0.87445
  22 7   H  1S          0.00000   0.83360
  23 8   H  1S          0.00000   0.00000   0.83739
  24 9   H  1S          0.00000   0.00000   0.00000   0.86671
     Gross orbital populations:
                           1
   1 1   C  1S          1.26568
   2        1PX         0.94869
   3        1PY         0.88857
   4        1PZ         1.07603
   5 2   C  1S          1.26601
   6        1PX         0.74527
   7        1PY         0.94423
   8        1PZ         1.06748
   9 3   O  1S          1.79687
  10        1PX         1.28443
  11        1PY         1.39619
  12        1PZ         1.71037
  13 4   C  1S          1.27995
  14        1PX         0.93549
  15        1PY         0.75544
  16        1PZ         1.05099
  17 5   C  1S          1.26174
  18        1PX         0.88161
  19        1PY         0.93922
  20        1PZ         1.09360
  21 6   H  1S          0.87445
  22 7   H  1S          0.83360
  23 8   H  1S          0.83739
  24 9   H  1S          0.86671
          Condensed to atoms (all electrons):
               1          2          3          4          5          6
     1  C    4.178971   0.000000   0.000000   0.000000   0.000000   0.000000
     2  C    0.000000   4.022987   0.000000   0.000000   0.000000   0.000000
     3  O    0.000000   0.000000   6.187855   0.000000   0.000000   0.000000
     4  C    0.000000   0.000000   0.000000   4.021871   0.000000   0.000000
     5  C    0.000000   0.000000   0.000000   0.000000   4.176167   0.000000
     6  H    0.000000   0.000000   0.000000   0.000000   0.000000   0.874447
     7  H    0.000000   0.000000   0.000000   0.000000   0.000000   0.000000
     8  H    0.000000   0.000000   0.000000   0.000000   0.000000   0.000000
     9  H    0.000000   0.000000   0.000000   0.000000   0.000000   0.000000
               7          8          9
     1  C    0.000000   0.000000   0.000000
     2  C    0.000000   0.000000   0.000000
     3  O    0.000000   0.000000   0.000000
     4  C    0.000000   0.000000   0.000000
     5  C    0.000000   0.000000   0.000000
     6  H    0.000000   0.000000   0.000000
     7  H    0.833597   0.000000   0.000000
     8  H    0.000000   0.837391   0.000000
     9  H    0.000000   0.000000   0.866714
 Mulliken charges:
               1
     1  C   -0.178971
     2  C   -0.022987
     3  O   -0.187855
     4  C   -0.021871
     5  C   -0.176167
     6  H    0.125553
     7  H    0.166403
     8  H    0.162609
     9  H    0.133286
 Sum of Mulliken charges =   0.00000
 Mulliken charges with hydrogens summed into heavy atoms:
               1
     1  C   -0.045685
     2  C    0.139621
     3  O   -0.187855
     4  C    0.144533
     5  C   -0.050614
 Charge=              0.0000 electrons
 Dipole moment (field-independent basis, Debye):
    X=              0.2205    Y=              0.3129    Z=              0.0652  Tot=              0.3883
 N-N= 1.035992149590D+02 E-N=-1.707380647435D+02  KE=-1.705483309239D+01
 Orbital energies and kinetic energies (alpha):
                                 1                 2
   1         O                -1.656325         -1.362727
   2         O                -1.266319         -1.071705
   3         O                -1.133412         -0.966930
   4         O                -0.868694         -0.737769
   5         O                -0.823192         -0.727750
   6         O                -0.704864         -0.620582
   7         O                -0.653501         -0.524843
   8         O                -0.594675         -0.537761
   9         O                -0.531805         -0.452552
  10         O                -0.508807         -0.447819
  11         O                -0.485361         -0.409499
  12         O                -0.390702         -0.353919
  13         O                -0.333019         -0.313560
  14         V                 0.035739         -0.195097
  15         V                 0.063331         -0.198462
  16         V                 0.080976         -0.225256
  17         V                 0.114271         -0.254833
  18         V                 0.146007         -0.170454
  19         V                 0.152807         -0.148085
  20         V                 0.169128         -0.183852
  21         V                 0.173895         -0.173540
  22         V                 0.193694         -0.145700
  23         V                 0.212535         -0.140572
  24         V                 0.237516         -0.032285
 Total kinetic energy from orbitals=-1.705483309239D+01
 Leave Link  601 at Sat Nov 14 17:36:38 2015, MaxMem=    33554432 cpu:         0.0
 (Enter /home/Applications/g09/g09/l701.exe)
 Compute integral first derivatives.
 ... and contract with generalized density number  6.
 Leave Link  701 at Sat Nov 14 17:36:38 2015, MaxMem=    33554432 cpu:         0.0
 (Enter /home/Applications/g09/g09/l702.exe)
 L702 exits ... SP integral derivatives will be done elsewhere.
 Leave Link  702 at Sat Nov 14 17:36:38 2015, MaxMem=    33554432 cpu:         0.0
 (Enter /home/Applications/g09/g09/l703.exe)
 Compute integral first derivatives, UseDBF=F ICtDFT=           0.
 Integral derivatives from FoFJK, PRISM(SPDF).
 Calling FoFJK, ICntrl=  10005127 FMM=F ISym2X=0 I1Cent= 0 IOpClX= 0 NMat=1 NMatS=1 NMatT=0.
 FoFJK:  IHMeth= 8 ICntrl=10005127 DoSepK=F KAlg= 0 I1Cent=   0 FoldK=F
 IRaf=         0 NMat=   1 IRICut=       1 DoRegI=T DoRafI=F ISym2E= 0.
 FoFCou: FMM=F IPFlag=           0 FMFlag=      100000 FMFlg1=         800
         NFxFlg=           0 DoJE=F BraDBF=F KetDBF=F FulRan=T
         wScrn=  0.000000 ICntrl=10005127 IOpCl=  0 I1Cent=           0 NGrid=           0
         NMat0=    1 NMatS0=      1 NMatT0=    0 NMatD0=    1 NMtDS0=    0 NMtDT0=    0
 Symmetry not used in FoFCou.
 Leave Link  703 at Sat Nov 14 17:36:38 2015, MaxMem=    33554432 cpu:         0.0
 (Enter /home/Applications/g09/g09/l716.exe)
 Dipole        = 3.19849585D-01 5.15062238D-01 1.20652717D-01
 ***** Axes restored to original set *****
 -------------------------------------------------------------------
 Center     Atomic                   Forces (Hartrees/Bohr)
 Number     Number              X              Y              Z
 -------------------------------------------------------------------
      1        6           0.066546859    0.057541965   -0.004737788
      2        6          -0.031182494   -0.125284883    0.000433865
      3        8          -0.073027744   -0.002606431   -0.004337455
      4        6          -0.004968861    0.115276496    0.000673530
      5        6          -0.017282692   -0.084449947    0.002475712
      6        1           0.040296074    0.029955340    0.001608385
      7        1           0.015132711   -0.008288213    0.000505728
      8        1           0.010900615    0.011828553    0.001580110
      9        1          -0.006414468    0.006027120    0.001797912
 -------------------------------------------------------------------
 Cartesian Forces:  Max     0.125284883 RMS     0.044598416
 Z-matrix is all fixed cartesians, so copy forces.
 Force constants in Cartesian coordinates: 
                1             2             3             4             5 
      1  0.855751D+00
      2 -0.475241D-01  0.742510D+00
      3  0.178276D-01 -0.320481D-02  0.180404D+00
      4 -0.456199D+00 -0.813129D-01 -0.160197D-01  0.910673D+00
      5 -0.576527D-01 -0.195709D+00 -0.291420D-02 -0.891179D-01  0.950211D+00
      6 -0.165713D-01 -0.331733D-02 -0.909810D-01  0.215172D-01 -0.614144D-02
      7 -0.747190D-02  0.305901D-01 -0.324553D-03 -0.343508D+00  0.226475D+00
      8 -0.536085D-02  0.219066D-01  0.175782D-04  0.275008D+00 -0.483106D+00
      9 -0.986606D-03  0.168431D-02  0.120692D-01 -0.551120D-02  0.417790D-02
     10  0.786546D-02 -0.122173D-03  0.283597D-03  0.279765D-01  0.200153D-01
     11  0.326055D-01 -0.495740D-03  0.760841D-03 -0.192729D-01 -0.137905D-01
     12 -0.577528D-03  0.134131D-03 -0.160537D-02  0.438737D-03  0.246656D-03
     13 -0.160646D+00  0.726406D-02 -0.164264D-02  0.818974D-02 -0.336336D-01
     14 -0.122504D-01 -0.378680D+00  0.592083D-02 -0.124443D-03  0.491726D-03
     15 -0.161865D-02  0.772231D-02 -0.718531D-01  0.459143D-03 -0.180282D-02
     16  0.184930D-01 -0.286757D-03  0.100280D-03  0.485679D-05 -0.203396D-05
     17 -0.241996D-01  0.368727D-03 -0.493997D-03 -0.299017D-05  0.125224D-05
     18  0.999889D-03  0.299168D-03  0.175230D-01 -0.162242D-03  0.679447D-04
     19  0.111710D-05 -0.207639D-05 -0.114621D-03 -0.553793D-05  0.000000D+00
     20  0.252306D-05 -0.468969D-05 -0.258880D-03  0.913782D-05  0.129647D-05
     21 -0.360560D-04  0.670184D-04  0.369954D-02 -0.217498D-03 -0.308584D-04
     22  0.622527D-02 -0.254890D-01  0.319083D-03 -0.142840D+00 -0.836052D-01
     23 -0.282106D-02  0.115028D-01  0.148319D-03 -0.795860D-01 -0.280959D+00
     24 -0.424425D-03 -0.189139D-02  0.221899D-01  0.731033D-03  0.479598D-02
     25 -0.264019D+00  0.116883D+00 -0.429014D-03 -0.429105D-02  0.175219D-01
     26  0.117201D+00 -0.201398D+00  0.243128D-04 -0.560003D-02  0.228598D-01
     27  0.138715D-02 -0.149340D-02 -0.714458D-01 -0.123548D-02  0.160084D-02
                6             7             8             9            10 
      6  0.181959D+00
      7 -0.686025D-02  0.656967D+00
      8  0.657600D-02  0.968731D-02  0.966197D+00
      9 -0.571961D-01  0.150346D-01  0.491393D-02  0.719145D-01
     10  0.379825D-03 -0.344517D+00 -0.284964D+00 -0.634787D-02  0.849302D+00
     11 -0.338987D-03 -0.237501D+00 -0.510666D+00 -0.926747D-02  0.109467D+00
     12  0.136423D-03 -0.754172D-02 -0.115673D-01 -0.538151D-01  0.709236D-02
     13  0.106090D-02 -0.729092D-02  0.502313D-02 -0.173125D-03 -0.387526D+00
     14  0.118722D-03 -0.302581D-01  0.208528D-01 -0.629988D-03  0.665168D-01
     15 -0.172565D-02 -0.584215D-03  0.184452D-03  0.106008D-01 -0.594270D-02
     16 -0.109010D-03  0.119101D-05  0.000000D+00 -0.693862D-04 -0.438386D-02
     17  0.671141D-04  0.000000D+00  0.000000D+00 -0.819566D-05  0.574099D-02
     18  0.364150D-02 -0.819870D-04 -0.604658D-04  0.477642D-02 -0.447491D-03
     19  0.187884D-03  0.229295D-01 -0.157557D-01 -0.140079D-02 -0.148717D+00
     20 -0.310016D-03  0.113435D-01 -0.779093D-02 -0.838966D-03  0.833496D-01
     21  0.737897D-02  0.290158D-03 -0.264794D-03  0.265456D-02  0.522597D-02
     22  0.323998D-03  0.228834D-01  0.163596D-01 -0.358347D-03  0.000000D+00
     23  0.320996D-02 -0.103454D-01 -0.739541D-02  0.200218D-03 -0.310945D-05
     24 -0.643122D-01  0.297084D-03  0.261354D-03  0.289300D-02 -0.212613D-03
     25  0.707934D-04  0.703394D-05  0.186515D-05 -0.187320D-03  0.000000D+00
     26  0.135973D-03  0.870161D-05  0.230736D-05 -0.231732D-03  0.000000D+00
     27  0.210993D-01 -0.229161D-03 -0.607655D-04  0.610277D-02 -0.310780D-04
               11            12            13            14            15 
     11  0.957147D+00
     12  0.231929D-01  0.164505D+00
     13  0.438196D-01 -0.386492D-02  0.859069D+00
     14 -0.183356D+00 -0.607321D-03  0.112039D+00  0.777287D+00
     15 -0.795441D-04 -0.800703D-01  0.111026D-01 -0.368022D-02  0.174159D+00
     16 -0.182105D-01 -0.436416D-03 -0.334918D+00 -0.159902D+00 -0.453399D-02
     17  0.238251D-01  0.180273D-03 -0.159941D+00 -0.248217D+00 -0.205407D-02
     18 -0.752837D-03  0.188480D-01 -0.523047D-02 -0.232205D-02 -0.718919D-01
     19  0.890913D-01  0.487402D-02  0.582585D-02  0.242560D-01  0.152783D-02
     20 -0.272664D+00 -0.117415D-01  0.289042D-02  0.119732D-01 -0.285506D-03
     21 -0.135425D-01 -0.584002D-01 -0.783988D-04  0.791919D-03  0.190820D-01
     22  0.000000D+00 -0.229273D-04  0.108930D-04 -0.456183D-05 -0.244491D-03
     23  0.000000D+00  0.105493D-03 -0.788267D-05  0.330116D-05  0.176926D-03
     24 -0.301653D-04  0.721325D-02 -0.224167D-03  0.938781D-04  0.503140D-02
     25  0.000000D+00  0.383979D-04  0.172854D-01 -0.272689D-03 -0.165574D-03
     26  0.102680D-05  0.566815D-04  0.225460D-01 -0.355060D-03 -0.181520D-03
     27  0.577656D-04  0.318877D-02 -0.949821D-03  0.314225D-03  0.166676D-01
               16            17            18            19            20 
     16  0.320804D+00
     17  0.178404D+00  0.224025D+00
     18  0.478319D-02  0.240107D-02  0.394026D-01
     19 -0.300452D-05  0.000000D+00  0.206826D-03  0.119970D+00
     20 -0.678594D-05  0.000000D+00  0.467132D-03 -0.975884D-01  0.268486D+00
     21  0.969750D-04  0.114544D-04 -0.667559D-02 -0.528115D-02  0.129678D-01
     22  0.000000D+00  0.000000D+00  0.000000D+00  0.000000D+00  0.000000D+00
     23  0.000000D+00  0.000000D+00  0.000000D+00  0.000000D+00  0.000000D+00
     24  0.000000D+00  0.000000D+00  0.000000D+00  0.000000D+00  0.000000D+00
     25  0.202728D-05 -0.124814D-05 -0.677218D-04  0.000000D+00  0.000000D+00
     26  0.299260D-05 -0.184245D-05 -0.999683D-04  0.000000D+00  0.000000D+00
     27  0.168357D-03 -0.103652D-03 -0.562398D-02  0.000000D+00  0.000000D+00
               21            22            23            24            25 
     21  0.322608D-01
     22  0.000000D+00  0.113732D+00
     23  0.000000D+00  0.927544D-01  0.276838D+00
     24  0.000000D+00 -0.423452D-03 -0.354701D-02  0.353425D-01
     25  0.000000D+00 -0.124661D-04  0.902104D-05  0.256540D-03  0.251028D+00
     26  0.000000D+00 -0.154216D-04  0.111598D-04  0.317362D-03 -0.134142D+00
     27  0.000000D+00  0.406137D-03 -0.293900D-03 -0.835790D-02  0.483898D-03
               26            27 
     26  0.178881D+00
     27 -0.211095D-04  0.383692D-01
 Leave Link  716 at Sat Nov 14 17:36:38 2015, MaxMem=    33554432 cpu:         0.0
 (Enter /home/Applications/g09/g09/l103.exe)

 GradGradGradGradGradGradGradGradGradGradGradGradGradGradGradGradGradGrad
 Berny optimization.
 Search for a local minimum.
 Step number   1 out of a maximum of    2
 All quantities printed in internal units (Hartrees-Bohrs-Radians)
 Second derivative matrix not updated -- first step.
 ITU=  0
     Eigenvalues ---    0.01471   0.03270   0.06972   0.07272   0.07871
     Eigenvalues ---    0.08534   0.12605   0.13260   0.15938   0.24951
     Eigenvalues ---    0.26371   0.27681   0.33769   0.41555   0.61225
     Eigenvalues ---    0.84569   1.17833   1.28980   1.41062   1.53619
     Eigenvalues ---    1.85622
 Quadratic step=4.286D-01 exceeds max=3.000D-01 adjusted using Lamda=-4.992D-02.
 Angle between NR and scaled steps=  15.30 degrees.
 Angle between quadratic step and forces=  46.00 degrees.
 Linear search not attempted -- first point.
 TrRot= -0.015575 -0.004874 -0.005083  0.854406 -0.000544 -0.853820
 Variable       Old X    -DE/DX   Delta X   Delta X   Delta X     New X
                                 (Linear)    (Quad)   (Total)
    X1        1.84996   0.06655   0.00000   0.04162   0.02680   1.87677
    Y1       -1.35579   0.05754   0.00000   0.03361   0.02983  -1.32596
    Z1        0.05613  -0.00474   0.00000  -0.02602  -0.03097   0.02516
    X2       -0.69839  -0.03118   0.00000  -0.04510  -0.05942  -0.75781
    Y2       -1.97946  -0.12528   0.00000  -0.13208  -0.13737  -2.11684
    Z2       -0.04577   0.00043   0.00000   0.00208  -0.00414  -0.04991
    X3       -2.12681  -0.07303   0.00000  -0.07073  -0.08628  -2.21308
    Y3        0.01783  -0.00261   0.00000  -0.00516  -0.01128   0.00655
    Z3       -0.07952  -0.00434   0.00000  -0.01423  -0.02009  -0.09961
    X4       -0.74487  -0.00497   0.00000  -0.03495  -0.05176  -0.79663
    Y4        2.02462   0.11528   0.00000   0.11032   0.10500   2.12963
    Z4       -0.03039   0.00067   0.00000  -0.00577  -0.01026  -0.04065
    X5        1.89279  -0.01728   0.00000   0.00069  -0.01568   1.87711
    Y5        1.38876  -0.08445   0.00000  -0.04595  -0.04972   1.33904
    Z5        0.00683   0.00248   0.00000   0.00604   0.00218   0.00902
    X6        3.41085   0.04030   0.00000   0.09223   0.07514   3.48599
    Y6        2.54984   0.02996   0.00000   0.00290   0.00005   2.54989
    Z6        0.03088   0.00161   0.00000   0.02561   0.02283   0.05370
    X7       -1.68172   0.01513   0.00000   0.08092   0.06296  -1.61876
    Y7        3.91572  -0.00829   0.00000   0.10617   0.10032   4.01604
    Z7        0.07291   0.00051   0.00000   0.01481   0.01081   0.08372
    X8       -1.56805   0.01090   0.00000   0.03311   0.01988  -1.54818
    Y8       -3.90237   0.01183   0.00000  -0.10000  -0.10578  -4.00815
    Z8       -0.02041   0.00158   0.00000   0.03545   0.02817   0.00776
    X9        3.47732  -0.00641   0.00000   0.04248   0.02836   3.50568
    Y9       -2.60333   0.00603   0.00000   0.07179   0.06895  -2.53438
    Z9        0.05871   0.00180   0.00000   0.00633   0.00147   0.06018
         Item               Value     Threshold  Converged?
 Maximum Force            0.125285     0.000450     NO 
 RMS     Force            0.044598     0.000300     NO 
 Maximum Displacement     0.137375     0.001800     NO 
 RMS     Displacement     0.057008     0.001200     NO 
 Predicted change in Energy=-2.645398D-02
 GradGradGradGradGradGradGradGradGradGradGradGradGradGradGradGradGradGrad

 Leave Link  103 at Sat Nov 14 17:36:38 2015, MaxMem=    33554432 cpu:         0.0
 (Enter /home/Applications/g09/g09/l9999.exe)
 1\1\GINC-DUSTIN-DESKTOP\Force\RAM1-FC\STO-3G\C4H4O1\DUSTIN\14-Nov-2015
 \0\\#P AM1(Input,print) CIS(Singlets,NStates=15) pop(full) force\\AM1-
 Reparam Input\\0,1\C,0.978959,-0.717454,0.029704\C,-0.369572,-1.047486
 ,-0.02422\O,-1.125458,0.009435,-0.04208\C,-0.394168,1.071384,-0.016084
 \C,1.001621,0.7349,0.003615\H,1.804946,1.349317,0.016339\H,-0.88993,2.
 072109,0.038583\H,-0.829777,-2.065046,-0.010801\H,1.840118,-1.377623,0
 .031069\\Version=ES64L-G09RevD.01\State=1-A\HF=-0.2479096\RMSD=9.529e-
 09\RMSF=4.460e-02\Dipole=0.6031493,0.0159437,0.1345609\PG=C01 [X(C4H4O
 1)]\\@


 THE SECRET OF SUCCESS IN LIFE IS TO EAT WHAT YOU LIKE, AND LET THE FOOD
 FIGHT IT OUT INSIDE YOU. -- FROM A FORTUNE COOKIE
 Job cpu time:       0 days  0 hours  0 minutes  0.7 seconds.
 File lengths (MBytes):  RWF=      7 Int=      0 D2E=      0 Chk=      2 Scr=      1
 Normal termination of Gaussian 09 at Sat Nov 14 17:36:38 2015.
