 Entering Gaussian System, Link 0=g09
 Input=FuranAM1_3P22.com
 Output=FuranAM1_3P22.log
 Initial command:
 /home/Applications/g09/g09/l1.exe "/home/Applications/g09/scratch/Gau-9385.inp" -scrdir="/home/Applications/g09/scratch/"
 Entering Link 1 = /home/Applications/g09/g09/l1.exe PID=      9390.
  
 Copyright (c) 1988,1990,1992,1993,1995,1998,2003,2009,2013,
            Gaussian, Inc.  All Rights Reserved.
  
 This is part of the Gaussian(R) 09 program.  It is based on
 the Gaussian(R) 03 system (copyright 2003, Gaussian, Inc.),
 the Gaussian(R) 98 system (copyright 1998, Gaussian, Inc.),
 the Gaussian(R) 94 system (copyright 1995, Gaussian, Inc.),
 the Gaussian 92(TM) system (copyright 1992, Gaussian, Inc.),
 the Gaussian 90(TM) system (copyright 1990, Gaussian, Inc.),
 the Gaussian 88(TM) system (copyright 1988, Gaussian, Inc.),
 the Gaussian 86(TM) system (copyright 1986, Carnegie Mellon
 University), and the Gaussian 82(TM) system (copyright 1983,
 Carnegie Mellon University). Gaussian is a federally registered
 trademark of Gaussian, Inc.
  
 This software contains proprietary and confidential information,
 including trade secrets, belonging to Gaussian, Inc.
  
 This software is provided under written license and may be
 used, copied, transmitted, or stored only in accord with that
 written license.
  
 The following legend is applicable only to US Government
 contracts under FAR:
  
                    RESTRICTED RIGHTS LEGEND
  
 Use, reproduction and disclosure by the US Government is
 subject to restrictions as set forth in subparagraphs (a)
 and (c) of the Commercial Computer Software - Restricted
 Rights clause in FAR 52.227-19.
  
 Gaussian, Inc.
 340 Quinnipiac St., Bldg. 40, Wallingford CT 06492
  
  
 ---------------------------------------------------------------
 Warning -- This program may not be used in any manner that
 competes with the business of Gaussian, Inc. or will provide
 assistance to any competitor of Gaussian, Inc.  The licensee
 of this program is prohibited from giving any competitor of
 Gaussian, Inc. access to this program.  By using this program,
 the user acknowledges that Gaussian, Inc. is engaged in the
 business of creating and licensing software in the field of
 computational chemistry and represents and warrants to the
 licensee that it is not a competitor of Gaussian, Inc. and that
 it will not use this program in any manner prohibited above.
 ---------------------------------------------------------------
  

 Cite this work as:
 Gaussian 09, Revision D.01,
 M. J. Frisch, G. W. Trucks, H. B. Schlegel, G. E. Scuseria, 
 M. A. Robb, J. R. Cheeseman, G. Scalmani, V. Barone, B. Mennucci, 
 G. A. Petersson, H. Nakatsuji, M. Caricato, X. Li, H. P. Hratchian, 
 A. F. Izmaylov, J. Bloino, G. Zheng, J. L. Sonnenberg, M. Hada, 
 M. Ehara, K. Toyota, R. Fukuda, J. Hasegawa, M. Ishida, T. Nakajima, 
 Y. Honda, O. Kitao, H. Nakai, T. Vreven, J. A. Montgomery, Jr., 
 J. E. Peralta, F. Ogliaro, M. Bearpark, J. J. Heyd, E. Brothers, 
 K. N. Kudin, V. N. Staroverov, T. Keith, R. Kobayashi, J. Normand, 
 K. Raghavachari, A. Rendell, J. C. Burant, S. S. Iyengar, J. Tomasi, 
 M. Cossi, N. Rega, J. M. Millam, M. Klene, J. E. Knox, J. B. Cross, 
 V. Bakken, C. Adamo, J. Jaramillo, R. Gomperts, R. E. Stratmann, 
 O. Yazyev, A. J. Austin, R. Cammi, C. Pomelli, J. W. Ochterski, 
 R. L. Martin, K. Morokuma, V. G. Zakrzewski, G. A. Voth, 
 P. Salvador, J. J. Dannenberg, S. Dapprich, A. D. Daniels, 
 O. Farkas, J. B. Foresman, J. V. Ortiz, J. Cioslowski, 
 and D. J. Fox, Gaussian, Inc., Wallingford CT, 2013.
 
 ******************************************
 Gaussian 09:  ES64L-G09RevD.01 24-Apr-2013
                11-Dec-2015 
 ******************************************
 ------------------------------------------------------------
 #P AM1(Input,print) CIS(Singlets,NStates=15) pop(full) force
 ------------------------------------------------------------
 1/10=7,30=1,38=1/1,3;
 2/12=2,17=6,18=5,40=1/2;
 3/5=2,16=1,25=1,41=700000,71=1,135=100,136=1/1,2,8,3;
 4/35=1/1;
 5/5=2,35=1,38=5/2;
 8/6=1,10=1,108=15/1;
 9/15=2,41=15,42=1,48=1,49=10/14;
 10/5=4/2;
 6/7=3,18=1/1;
 7/12=6,13=5,29=1/1,2,3,16;
 1/10=7,30=1/3;
 99//99;
 Leave Link    1 at Fri Dec 11 13:41:33 2015, MaxMem=           0 cpu:         0.0
 (Enter /home/Applications/g09/g09/l101.exe)
 -----------------
 AM1-Reparam Input
 -----------------
 Symbolic Z-matrix:
 Charge =  0 Multiplicity = 1
 6                     0.91885  -0.76077  -0.0085 
 6                    -0.30016  -1.12821   0.00453 
 8                    -1.15751   0.03562  -0.03918 
 6                    -0.32227   1.12949   0.02124 
 6                     0.9833    0.68709   0.02449 
 1                     1.79399   1.35673  -0.02893 
 1                    -0.8345    2.02651   0.00135 
 1                    -0.87384  -2.03263   0.00724 
 1                     1.769    -1.32664   0.03068 
 
 NAtoms=      9 NQM=        9 NQMF=       0 NMMI=      0 NMMIF=      0
                NMic=       0 NMicF=      0.
                    Isotopes and Nuclear Properties:
 (Nuclear quadrupole moments (NQMom) in fm**2, nuclear magnetic moments (NMagM)
  in nuclear magnetons)

  Atom         1           2           3           4           5           6           7           8           9
 IAtWgt=          12          12          16          12          12           1           1           1           1
 AtmWgt=  12.0000000  12.0000000  15.9949146  12.0000000  12.0000000   1.0078250   1.0078250   1.0078250   1.0078250
 NucSpn=           0           0           0           0           0           1           1           1           1
 AtZEff=   0.0000000   0.0000000   0.0000000   0.0000000   0.0000000   0.0000000   0.0000000   0.0000000   0.0000000
 NQMom=    0.0000000   0.0000000   0.0000000   0.0000000   0.0000000   0.0000000   0.0000000   0.0000000   0.0000000
 NMagM=    0.0000000   0.0000000   0.0000000   0.0000000   0.0000000   2.7928460   2.7928460   2.7928460   2.7928460
 AtZNuc=   6.0000000   6.0000000   8.0000000   6.0000000   6.0000000   1.0000000   1.0000000   1.0000000   1.0000000
 Leave Link  101 at Fri Dec 11 13:41:33 2015, MaxMem=    33554432 cpu:         0.0
 (Enter /home/Applications/g09/g09/l103.exe)

 GradGradGradGradGradGradGradGradGradGradGradGradGradGradGradGradGradGrad
 Berny optimization.
 Initialization pass.
 Trust Radius=3.00D-01 FncErr=1.00D-07 GrdErr=1.00D-07
 Number of steps in this run=      2 maximum allowed number of steps=      2.
 GradGradGradGradGradGradGradGradGradGradGradGradGradGradGradGradGradGrad

 Leave Link  103 at Fri Dec 11 13:41:33 2015, MaxMem=    33554432 cpu:         0.0
 (Enter /home/Applications/g09/g09/l202.exe)
                          Input orientation:                          
 ---------------------------------------------------------------------
 Center     Atomic      Atomic             Coordinates (Angstroms)
 Number     Number       Type             X           Y           Z
 ---------------------------------------------------------------------
      1          6           0        0.918849   -0.760767   -0.008496
      2          6           0       -0.300155   -1.128205    0.004534
      3          8           0       -1.157509    0.035618   -0.039177
      4          6           0       -0.322273    1.129487    0.021236
      5          6           0        0.983295    0.687086    0.024486
      6          1           0        1.793990    1.356733   -0.028934
      7          1           0       -0.834503    2.026513    0.001354
      8          1           0       -0.873835   -2.032627    0.007242
      9          1           0        1.769000   -1.326640    0.030682
 ---------------------------------------------------------------------
                    Distance matrix (angstroms):
                    1          2          3          4          5
     1  C    0.000000
     2  C    1.273244   0.000000
     3  O    2.224058   1.446185   0.000000
     4  C    2.261488   2.257862   1.377613   0.000000
     5  C    1.449662   2.223269   2.238639   1.378491   0.000000
     6  H    2.291309   3.249843   3.233697   2.129020   1.052857
     7  H    3.292912   3.199654   2.017335   1.033165   2.258094
     8  H    2.198088   1.071025   2.088124   3.209888   3.293337
     9  H    1.022010   2.078813   3.228790   3.225844   2.161588
                    6          7          8          9
     6  H    0.000000
     7  H    2.712655   0.000000
     8  H    4.313509   4.059335   0.000000
     9  H    2.684151   4.245318   2.735607   0.000000
 Stoichiometry    C4H4O
 Framework group  C1[X(C4H4O)]
 Deg. of freedom    21
 Full point group                 C1      NOp   1
 Largest Abelian subgroup         C1      NOp   1
 Largest concise Abelian subgroup C1      NOp   1
                         Standard orientation:                         
 ---------------------------------------------------------------------
 Center     Atomic      Atomic             Coordinates (Angstroms)
 Number     Number       Type             X           Y           Z
 ---------------------------------------------------------------------
      1          6           0       -0.885270    0.787392    0.015701
      2          6           0       -1.065905   -0.472591   -0.015346
      3          8           0        0.213108   -1.146504    0.022311
      4          6           0        1.169657   -0.156108   -0.021829
      5          6           0        0.536669    1.068398   -0.009674
      6          1           0        1.077165    1.969415    0.057703
      7          1           0        2.133243   -0.528447   -0.004625
      8          1           0       -1.874166   -1.175156   -0.029939
      9          1           0       -1.572016    1.543671   -0.014736
 ---------------------------------------------------------------------
 Rotational constants (GHZ):      9.5581294      9.0780585      4.6580549
 Leave Link  202 at Fri Dec 11 13:41:33 2015, MaxMem=    33554432 cpu:         0.0
 (Enter /home/Applications/g09/g09/l301.exe)

 Semi-emprical parameters in input format:
 Method=8 CoreType=1 PeptideFC=0.0118170000 RIJScale=0.4715140000
 ****
 H       
 PQN=1 NValence=1 F0ss=0.5123740000 ZetaOverlap=1.5329770000 U=-0.4421200000
 Beta=-0.2089270000 CoreKO=1.1768970000 KON=0,0,0,1.2319870000 KON=1,0,1,1.1066630000
 KON=0,1,1,0.7841060000 KON=2,1,1,1.1809960000 EISol=-0.4188110042 EHeat=0.0830298228
 Alpha=1.7991390000
 GCore=0.0081260000,1.5820910000,1.9096850000
 GCore=0.0003850000,1.5279540000,3.3056160000
 GCore=-0.0017860000,0.3493410000,2.6488580000
 ****
 C       
 PQN=2,2 NValence=4 F0ss=0.3140440000 F0sp=0.4560680000 F0pp=0.3731470000 F2pp=0.1365000000
 G1sp=0.2402000000
 ZetaOverlap=2.2684590000,1.1739010000
 U=-1.7655190000,-1.7106170000
 Beta=-0.5051020000,-0.4209630000 DDN=0,1,0.7899470000 DDN=1,1,0.7550540000
 CoreKO=1.2466380000 KON=0,0,0,1.6106060000 KON=1,0,1,0.8255990000 KON=0,1,1,1.2525760000
 KON=2,1,1,0.7818300000 EISol=-4.4398989268 EHeat=0.2723305520 Alpha=1.2218700000
 DipHyp=1.5798031073
 GCore=0.0009510000,2.3075530000,2.5660810000
 GCore=0.0035280000,0.8571140000,3.1308940000
 GCore=-0.0014010000,1.3487400000,2.9565170000
 GCore=-0.0000840000,2.1146620000,5.6799940000
 ****
 O       
 PQN=2,2 NValence=6 F0ss=0.6928830000 F0sp=0.5795520000 F0pp=0.3964550000 F2pp=0.1652110000
 G1sp=0.4090990000
 ZetaOverlap=3.2933830000,2.3768370000
 U=-5.9589710000,-2.2734650000
 Beta=-1.0584230000,-1.1813420000 DDN=0,1,0.5031700000 DDN=1,1,0.3864330000
 CoreKO=0.8921900000 KON=0,0,0,0.9532280000 KON=1,0,1,0.4299070000 KON=0,1,1,0.8548080000
 KON=2,1,1,0.3844810000 EISol=-11.6164441184 EHeat=0.0949133088 Alpha=2.1493790000
 DipHyp=1.0062821044
 GCore=0.0185890000,1.3850600000,1.5544560000
 GCore=0.0065360000,2.3667160000,2.7416630000
 ****
 
 Standard basis: VSTO-6G (5D, 7F)
 Ernie: Thresh=  0.10000D-02 Tol=  0.10000D-05 Strict=F.
  NNHCO=     0 NNPyr=     0 NCTC=     0               EPep=         0.000000000
    EC=        66.569318438  ECS=         2.564169500   EG=         0.416229593
   EHC=         0.000000000  EAt=       -31.051283842  AtH=         1.516354808
 EPDDG=         0.000000000  ECC=        69.549717531 EAtT=        32.567638650
 There are    24 symmetry adapted cartesian basis functions of A   symmetry.
 There are    24 symmetry adapted basis functions of A   symmetry.
    24 basis functions,   144 primitive gaussians,    24 cartesian basis functions
    13 alpha electrons       13 beta electrons
       nuclear repulsion energy       102.1173561813 Hartrees.
 IExCor=    0 DFT=F Ex=HF Corr=None ExCW=0 ScaHFX=  1.000000
 ScaDFX=  1.000000  1.000000  1.000000  1.000000 ScalE2=  1.000000  1.000000
 IRadAn=      0 IRanWt=     -1 IRanGd=            0 ICorTp=0 IEmpDi=  4
 Integral buffers will be    131072 words long.
 Regular integral format.
 Two-electron integral symmetry is turned off.
 Leave Link  301 at Fri Dec 11 13:41:34 2015, MaxMem=    33554432 cpu:         0.0
 (Enter /home/Applications/g09/g09/l302.exe)
 Do NDO integrals.
 NPDir=0 NMtPBC=     1 NCelOv=     1 NCel=       1 NClECP=     1 NCelD=      1
         NCelK=      1 NCelE2=     1 NClLst=     1 CellRange=     0.0.
 One-electron integrals computed using PRISM.
 NBasis=    24 RedAO= F EigKep=  0.00D+00  NBF=    24
 NBsUse=    24 1.00D-04 EigRej=  0.00D+00 NBFU=    24
 Leave Link  302 at Fri Dec 11 13:41:34 2015, MaxMem=    33554432 cpu:         0.0
 (Enter /home/Applications/g09/g09/l308.exe)
 Leave Link  308 at Fri Dec 11 13:41:34 2015, MaxMem=    33554432 cpu:         0.0
 (Enter /home/Applications/g09/g09/l303.exe)
 DipDrv:  MaxL=1.
 Leave Link  303 at Fri Dec 11 13:41:34 2015, MaxMem=    33554432 cpu:         0.0
 (Enter /home/Applications/g09/g09/l401.exe)
 Simple Huckel Guess.
 JPrj=0 DoOrth=F DoCkMO=F.
 Leave Link  401 at Fri Dec 11 13:41:34 2015, MaxMem=    33554432 cpu:         0.0
 (Enter /home/Applications/g09/g09/l502.exe)
 Closed shell SCF:
 Using DIIS extrapolation, IDIIS=  1040.
 Overlap will be assumed to be unity.
 Two-electron integral symmetry not used.
 Keep J ints in memory in canonical form, NReq=888082.
 IVT=       79475 IEndB=       79475 NGot=    33554432 MDV=    33473473
 LenX=    33473473 LenY=    33472456
 Requested convergence on RMS density matrix=1.00D-08 within 128 cycles.
 Requested convergence on MAX density matrix=1.00D-06.
 Requested convergence on             energy=1.00D-06.
 No special actions if energy rises.
 FoFCou: FMM=F IPFlag=           0 FMFlag=           0 FMFlg1=           0
         NFxFlg=           0 DoJE=F BraDBF=F KetDBF=F FulRan=T
         wScrn=  0.000000 ICntrl=     600 IOpCl=  2 I1Cent=           0 NGrid=           0
         NMat0=    1 NMatS0=     54 NMatT0=    0 NMatD0=    1 NMtDS0=    0 NMtDT0=    0
 Symmetry not used in FoFCou.

 Cycle   1  Pass 1  IDiag  1:
 E= -2.67741721826357    
 DIIS: error= 2.40D-01 at cycle   1 NSaved=   1.
 NSaved= 1 IEnMin= 1 EnMin= -2.67741721826357     IErMin= 1 ErrMin= 2.40D-01
 ErrMax= 2.40D-01  0.00D+00 EMaxC= 1.00D-01 BMatC= 1.36D+00 BMatP= 1.36D+00
 IDIUse=3 WtCom= 0.00D+00 WtEn= 1.00D+00
 Coeff-Com:  0.100D+01
 Coeff-En:   0.100D+01
 Coeff:      0.100D+01
 GapD=    2.000 DampG=2.000 DampE=0.250 DampFc=0.5000 IDamp=-1.
 Damping current iteration by 5.00D-01
 RMSDP=5.40D-02 MaxDP=5.59D-01              OVMax= 0.00D+00

 Cycle   2  Pass 1  IDiag  1:
 E= -3.71359903713494     Delta-E=       -1.036181818871 Rises=F Damp=T
 DIIS: error= 1.44D-01 at cycle   2 NSaved=   2.
 NSaved= 2 IEnMin= 2 EnMin= -3.71359903713494     IErMin= 2 ErrMin= 1.44D-01
 ErrMax= 1.44D-01  0.00D+00 EMaxC= 1.00D-01 BMatC= 4.75D-01 BMatP= 1.36D+00
 IDIUse=3 WtCom= 0.00D+00 WtEn= 1.00D+00
 Coeff-Com: -0.133D+01 0.233D+01
 Coeff-En:   0.000D+00 0.100D+01
 Coeff:      0.000D+00 0.100D+01
 RMSDP=3.39D-02 MaxDP=3.64D-01 DE=-1.04D+00 OVMax= 0.00D+00

 Cycle   3  Pass 1  IDiag  1:
 E= -5.14243221098936     Delta-E=       -1.428833173854 Rises=F Damp=F
 DIIS: error= 2.54D-02 at cycle   3 NSaved=   3.
 NSaved= 3 IEnMin= 3 EnMin= -5.14243221098936     IErMin= 3 ErrMin= 2.54D-02
 ErrMax= 2.54D-02  0.00D+00 EMaxC= 1.00D-01 BMatC= 2.37D-02 BMatP= 4.75D-01
 IDIUse=3 WtCom= 7.46D-01 WtEn= 2.54D-01
 Coeff-Com:  0.143D+01-0.262D+01 0.219D+01
 Coeff-En:   0.000D+00 0.000D+00 0.100D+01
 Coeff:      0.106D+01-0.195D+01 0.189D+01
 RMSDP=1.32D-02 MaxDP=9.21D-02 DE=-1.43D+00 OVMax= 0.00D+00

 Cycle   4  Pass 1  IDiag  1:
 E= -5.22829131211655     Delta-E=       -0.085859101127 Rises=F Damp=F
 DIIS: error= 7.05D-03 at cycle   4 NSaved=   4.
 NSaved= 4 IEnMin= 4 EnMin= -5.22829131211655     IErMin= 4 ErrMin= 7.05D-03
 ErrMax= 7.05D-03  0.00D+00 EMaxC= 1.00D-01 BMatC= 2.30D-03 BMatP= 2.37D-02
 IDIUse=3 WtCom= 9.29D-01 WtEn= 7.05D-02
 Coeff-Com: -0.173D+00 0.331D+00-0.675D+00 0.152D+01
 Coeff-En:   0.000D+00 0.000D+00 0.000D+00 0.100D+01
 Coeff:     -0.160D+00 0.308D+00-0.627D+00 0.148D+01
 RMSDP=5.73D-03 MaxDP=3.75D-02 DE=-8.59D-02 OVMax= 0.00D+00

 Cycle   5  Pass 1  IDiag  3:
 E= -5.23798920368594     Delta-E=       -0.009697891569 Rises=F Damp=F
 DIIS: error= 7.56D-04 at cycle   5 NSaved=   5.
 NSaved= 5 IEnMin= 5 EnMin= -5.23798920368594     IErMin= 5 ErrMin= 7.56D-04
 ErrMax= 7.56D-04  0.00D+00 EMaxC= 1.00D-01 BMatC= 3.01D-05 BMatP= 2.30D-03
 IDIUse=3 WtCom= 9.92D-01 WtEn= 7.56D-03
 Coeff-Com:  0.313D-01-0.606D-01 0.159D+00-0.465D+00 0.134D+01
 Coeff-En:   0.000D+00 0.000D+00 0.000D+00 0.000D+00 0.100D+01
 Coeff:      0.310D-01-0.602D-01 0.158D+00-0.461D+00 0.133D+01
 Gap=     0.437 Goal=   None    Shift=    0.000
 RMSDP=7.05D-04 MaxDP=4.86D-03 DE=-9.70D-03 OVMax= 6.58D-03

 Cycle   6  Pass 1  IDiag  3:
 E= -5.23813528918490     Delta-E=       -0.000146085499 Rises=F Damp=F
 DIIS: error= 1.96D-04 at cycle   6 NSaved=   6.
 NSaved= 6 IEnMin= 6 EnMin= -5.23813528918490     IErMin= 6 ErrMin= 1.96D-04
 ErrMax= 1.96D-04  0.00D+00 EMaxC= 1.00D-01 BMatC= 1.24D-06 BMatP= 3.01D-05
 IDIUse=3 WtCom= 9.98D-01 WtEn= 1.96D-03
 Coeff-Com: -0.391D-02 0.756D-02-0.211D-01 0.697D-01-0.378D+00 0.133D+01
 Coeff-En:   0.000D+00 0.000D+00 0.000D+00 0.000D+00 0.000D+00 0.100D+01
 Coeff:     -0.390D-02 0.755D-02-0.211D-01 0.696D-01-0.377D+00 0.132D+01
 Gap=     0.438 Goal=   None    Shift=    0.000
 RMSDP=1.54D-04 MaxDP=1.13D-03 DE=-1.46D-04 OVMax= 1.83D-03

 Cycle   7  Pass 1  IDiag  3:
 E= -5.23814173782318     Delta-E=       -0.000006448638 Rises=F Damp=F
 DIIS: error= 3.01D-05 at cycle   7 NSaved=   7.
 NSaved= 7 IEnMin= 7 EnMin= -5.23814173782318     IErMin= 7 ErrMin= 3.01D-05
 ErrMax= 3.01D-05  0.00D+00 EMaxC= 1.00D-01 BMatC= 6.56D-08 BMatP= 1.24D-06
 IDIUse=1 WtCom= 1.00D+00 WtEn= 0.00D+00
 Coeff-Com:  0.427D-03-0.834D-03 0.285D-02-0.934D-02 0.748D-01-0.439D+00
 Coeff-Com:  0.137D+01
 Coeff:      0.427D-03-0.834D-03 0.285D-02-0.934D-02 0.748D-01-0.439D+00
 Coeff:      0.137D+01
 Gap=     0.438 Goal=   None    Shift=    0.000
 RMSDP=3.34D-05 MaxDP=1.97D-04 DE=-6.45D-06 OVMax= 3.10D-04

 Cycle   8  Pass 1  IDiag  3:
 E= -5.23814205086316     Delta-E=       -0.000000313040 Rises=F Damp=F
 DIIS: error= 6.00D-06 at cycle   8 NSaved=   8.
 NSaved= 8 IEnMin= 8 EnMin= -5.23814205086316     IErMin= 8 ErrMin= 6.00D-06
 ErrMax= 6.00D-06  0.00D+00 EMaxC= 1.00D-01 BMatC= 2.37D-09 BMatP= 6.56D-08
 IDIUse=1 WtCom= 1.00D+00 WtEn= 0.00D+00
 Coeff-Com:  0.179D-03-0.330D-03 0.234D-03-0.371D-03-0.215D-02 0.435D-01
 Coeff-Com: -0.311D+00 0.127D+01
 Coeff:      0.179D-03-0.330D-03 0.234D-03-0.371D-03-0.215D-02 0.435D-01
 Coeff:     -0.311D+00 0.127D+01
 Gap=     0.438 Goal=   None    Shift=    0.000
 RMSDP=6.12D-06 MaxDP=3.28D-05 DE=-3.13D-07 OVMax= 4.09D-05

 Cycle   9  Pass 1  IDiag  3:
 E= -5.23814206164988     Delta-E=       -0.000000010787 Rises=F Damp=F
 DIIS: error= 1.12D-06 at cycle   9 NSaved=   9.
 NSaved= 9 IEnMin= 9 EnMin= -5.23814206164988     IErMin= 9 ErrMin= 1.12D-06
 ErrMax= 1.12D-06  0.00D+00 EMaxC= 1.00D-01 BMatC= 7.90D-11 BMatP= 2.37D-09
 IDIUse=1 WtCom= 1.00D+00 WtEn= 0.00D+00
 Coeff-Com:  0.316D-04-0.593D-04 0.778D-04-0.874D-04-0.563D-03 0.616D-03
 Coeff-Com:  0.320D-01-0.300D+00 0.127D+01
 Coeff:      0.316D-04-0.593D-04 0.778D-04-0.874D-04-0.563D-03 0.616D-03
 Coeff:      0.320D-01-0.300D+00 0.127D+01
 Gap=     0.438 Goal=   None    Shift=    0.000
 RMSDP=1.07D-06 MaxDP=4.93D-06 DE=-1.08D-08 OVMax= 6.06D-06

 Cycle  10  Pass 1  IDiag  3:
 E= -5.23814206199671     Delta-E=       -0.000000000347 Rises=F Damp=F
 DIIS: error= 2.49D-07 at cycle  10 NSaved=  10.
 NSaved=10 IEnMin=10 EnMin= -5.23814206199671     IErMin=10 ErrMin= 2.49D-07
 ErrMax= 2.49D-07  0.00D+00 EMaxC= 1.00D-01 BMatC= 2.78D-12 BMatP= 7.90D-11
 IDIUse=1 WtCom= 1.00D+00 WtEn= 0.00D+00
 Coeff-Com: -0.878D-05 0.164D-04-0.923D-05-0.200D-04 0.429D-03-0.191D-02
 Coeff-Com:  0.903D-03 0.464D-01-0.369D+00 0.132D+01
 Coeff:     -0.878D-05 0.164D-04-0.923D-05-0.200D-04 0.429D-03-0.191D-02
 Coeff:      0.903D-03 0.464D-01-0.369D+00 0.132D+01
 Gap=     0.438 Goal=   None    Shift=    0.000
 RMSDP=2.00D-07 MaxDP=6.92D-07 DE=-3.47D-10 OVMax= 1.02D-06

 Cycle  11  Pass 1  IDiag  3:
 E= -5.23814206200881     Delta-E=       -0.000000000012 Rises=F Damp=F
 DIIS: error= 4.08D-08 at cycle  11 NSaved=  11.
 NSaved=11 IEnMin=11 EnMin= -5.23814206200881     IErMin=11 ErrMin= 4.08D-08
 ErrMax= 4.08D-08  0.00D+00 EMaxC= 1.00D-01 BMatC= 1.07D-13 BMatP= 2.78D-12
 IDIUse=1 WtCom= 1.00D+00 WtEn= 0.00D+00
 Coeff-Com:  0.372D-06-0.697D-06-0.845D-06 0.798D-05-0.102D-03 0.550D-03
 Coeff-Com: -0.198D-02 0.124D-02 0.487D-01-0.364D+00 0.132D+01
 Coeff:      0.372D-06-0.697D-06-0.845D-06 0.798D-05-0.102D-03 0.550D-03
 Coeff:     -0.198D-02 0.124D-02 0.487D-01-0.364D+00 0.132D+01
 Gap=     0.438 Goal=   None    Shift=    0.000
 RMSDP=4.03D-08 MaxDP=1.34D-07 DE=-1.21D-11 OVMax= 2.74D-07

 Cycle  12  Pass 1  IDiag  3:
 E= -5.23814206200935     Delta-E=       -0.000000000001 Rises=F Damp=F
 DIIS: error= 7.14D-09 at cycle  12 NSaved=  12.
 NSaved=12 IEnMin=12 EnMin= -5.23814206200935     IErMin=12 ErrMin= 7.14D-09
 ErrMax= 7.14D-09  0.00D+00 EMaxC= 1.00D-01 BMatC= 3.38D-15 BMatP= 1.07D-13
 IDIUse=1 WtCom= 1.00D+00 WtEn= 0.00D+00
 Coeff-Com:  0.236D-06-0.444D-06 0.482D-06-0.930D-06 0.712D-05-0.470D-04
 Coeff-Com:  0.347D-03-0.151D-02 0.917D-03 0.348D-01-0.271D+00 0.124D+01
 Coeff:      0.236D-06-0.444D-06 0.482D-06-0.930D-06 0.712D-05-0.470D-04
 Coeff:      0.347D-03-0.151D-02 0.917D-03 0.348D-01-0.271D+00 0.124D+01
 Gap=     0.438 Goal=   None    Shift=    0.000
 RMSDP=7.33D-09 MaxDP=2.80D-08 DE=-5.40D-13 OVMax= 7.16D-08

 Cycle  13  Pass 2  IDiag  1:
 SCF Done:  E(RAM1) =  -5.23814206201     A.U. after   13 cycles
            NFock= 12  Conv=0.73D-08     -V/T= 0.7703
 KE=-2.280845517883D+01 PE=-1.652066205392D+02 EE= 8.065957747468D+01
 Leave Link  502 at Fri Dec 11 13:41:34 2015, MaxMem=    33554432 cpu:         0.0
 (Enter /home/Applications/g09/g09/l801.exe)
 Range of M.O.s used for correlation:     1    24
 NBasis=    24 NAE=    13 NBE=    13 NFC=     0 NFV=     0
 NROrb=     24 NOA=    13 NOB=    13 NVA=    11 NVB=    11
 Leave Link  801 at Fri Dec 11 13:41:34 2015, MaxMem=    33554432 cpu:         0.0
 (Enter /home/Applications/g09/g09/l914.exe)
 RHF ground state
 MDV=    33554432 DFT=F DoStab=F Mixed=F DoRPA=F DoScal=F NonHer=F
 Making orbital integer symmetry assigments:
 Orbital symmetries:
       Occupied  (A) (A) (A) (A) (A) (A) (A) (A) (A) (A) (A) (A)
                 (A)
       Virtual   (A) (A) (A) (A) (A) (A) (A) (A) (A) (A) (A)
    60 initial guesses have been made.
 Convergence on wavefunction:    0.000001000000000
 Davidson Disk Diagonalization:  ConvIn= 1.00D-06 SkipCon=T Conv= 1.00D-06.
 Max sub-space:   240 roots to seek:    60 dimension of matrix:          286
 Iteration     1 Dimension    60 NMult     0 NNew     60
 CISAX will form    60 AO SS matrices at one time.
 NMat=    60 NSing=    60 JSym2X= 0.
 FoFJK:  IHMeth= 8 ICntrl=       0 DoSepK=F KAlg= 0 I1Cent=   0 FoldK=F
 IRaf=         1 NMat= 120 IRICut=       1 DoRegI=T DoRafI=F ISym2E= 0.
 FoFCou: FMM=F IPFlag=           0 FMFlag=      100000 FMFlg1=           0
         NFxFlg=           0 DoJE=F BraDBF=F KetDBF=F FulRan=T
         wScrn=  0.000000 ICntrl=       0 IOpCl=  0 I1Cent=           0 NGrid=           0
         NMat0=  120 NMatS0=     60 NMatT0=    0 NMatD0=  120 NMtDS0=    0 NMtDT0=    0
 Symmetry not used in FoFCou.
 New state      1 was old state      2
 New state      2 was old state      3
 New state      3 was old state      1
 New state      4 was old state      5
 New state      5 was old state      7
 New state      6 was old state      4
 New state      7 was old state     10
 New state      8 was old state      6
 New state      9 was old state      8
 New state     10 was old state     11
 New state     11 was old state      9
 New state     13 was old state     16
 New state     14 was old state     15
 New state     15 was old state     14
 Excitation Energies [eV] at current iteration:
 Root      1 :     6.123471680669715
 Root      2 :     6.606746997888605
 Root      3 :     6.761202571666454
 Root      4 :     7.484203350815449
 Root      5 :     8.250437190018634
 Root      6 :     8.333045399629006
 Root      7 :     8.711379389917672
 Root      8 :     8.997767882320494
 Root      9 :     9.266861830597758
 Root     10 :     9.329452267315702
 Root     11 :     9.419985350473652
 Root     12 :     9.829952336065537
 Root     13 :     9.951952257671355
 Root     14 :    10.221118004442290
 Root     15 :    10.439404280176890
 Root     16 :    10.550821303443780
 Root     17 :    10.613226006840480
 Root     18 :    10.668284399257440
 Root     19 :    10.733229026338350
 Root     20 :    10.861737838059470
 Root     21 :    11.200047751353510
 Root     22 :    11.309907514538360
 Root     23 :    11.449711656897610
 Root     24 :    11.462680223134050
 Root     25 :    11.555808060965670
 Root     26 :    11.608548320536770
 Root     27 :    11.745988813389170
 Root     28 :    11.823165264438620
 Root     29 :    11.959376224970660
 Root     30 :    12.009887825778120
 Root     31 :    12.156704331053200
 Root     32 :    12.395368363123380
 Root     33 :    12.593262475145260
 Root     34 :    12.681769826481230
 Root     35 :    12.758421288470150
 Root     36 :    12.920192101168220
 Root     37 :    12.971358584428160
 Root     38 :    13.021364413701390
 Root     39 :    13.223874660663420
 Root     40 :    13.337040513584950
 Root     41 :    13.403380479300590
 Root     42 :    13.481934401130600
 Root     43 :    13.581109495167420
 Root     44 :    13.966785828621290
 Root     45 :    14.210083367450120
 Root     46 :    14.337973758881870
 Root     47 :    14.431243546160580
 Root     48 :    14.500579024542610
 Root     49 :    14.683920598478240
 Root     50 :    14.794878066525680
 Root     51 :    14.870205932316050
 Root     52 :    15.138648049324370
 Root     53 :    15.335768275177080
 Root     54 :    15.538801255614970
 Root     55 :    15.613963722406380
 Root     56 :    15.684779245506020
 Root     57 :    15.777293467973260
 Root     58 :    15.970795993944330
 Root     59 :    16.067775532756280
 Root     60 :    16.572312723290160
 Iteration     2 Dimension   120 NMult    60 NNew     60
 CISAX will form    60 AO SS matrices at one time.
 NMat=    60 NSing=    60 JSym2X= 0.
 Root      1 not converged, maximum delta is    0.018070951990603
 Root      2 not converged, maximum delta is    0.200456747167607
 Root      3 not converged, maximum delta is    0.206920259980957
 Root      4 not converged, maximum delta is    0.023073420450134
 Root      5 not converged, maximum delta is    0.049920714333168
 Root      6 not converged, maximum delta is    0.050453659771240
 Root      7 not converged, maximum delta is    0.025402497082208
 Root      8 not converged, maximum delta is    0.026983532162635
 Root      9 not converged, maximum delta is    0.072825322126883
 Root     10 not converged, maximum delta is    0.084450195346184
 Root     11 not converged, maximum delta is    0.058343676884266
 Root     12 not converged, maximum delta is    0.039907688037618
 Root     13 not converged, maximum delta is    0.050549062549202
 Root     14 not converged, maximum delta is    0.045418443755646
 Root     15 not converged, maximum delta is    0.057528823375047
 Excitation Energies [eV] at current iteration:
 Root      1 :     6.076576927578912   Change is   -0.046894753090803
 Root      2 :     6.525359846996159   Change is   -0.081387150892445
 Root      3 :     6.631112425100882   Change is   -0.130090146565571
 Root      4 :     7.455893932712578   Change is   -0.028309418102871
 Root      5 :     8.216501959005919   Change is   -0.033935231012716
 Root      6 :     8.256552653391914   Change is   -0.076492746237092
 Root      7 :     8.650404476197732   Change is   -0.060974913719940
 Root      8 :     8.936109773288848   Change is   -0.061658109031646
 Root      9 :     9.129802695192641   Change is   -0.137059135405117
 Root     10 :     9.272900797735630   Change is   -0.056551469580070
 Root     11 :     9.322903293303112   Change is   -0.097082057170540
 Root     12 :     9.740390709038619   Change is   -0.089561627026917
 Root     13 :     9.848893343323640   Change is   -0.103058914347715
 Root     14 :    10.106893374367720   Change is   -0.114224630074562
 Root     15 :    10.310173517499800   Change is   -0.129230762677085
 Root     16 :    10.472031322280390   Change is   -0.141194684560098
 Root     17 :    10.515812967036930   Change is   -0.035008336406853
 Root     18 :    10.554865076419790   Change is   -0.113419322837646
 Root     19 :    10.589862682321600   Change is   -0.143366344016756
 Root     20 :    10.760972713254170   Change is   -0.100765124805304
 Root     21 :    11.080699780424310   Change is   -0.119347970929197
 Root     22 :    11.206197895632510   Change is   -0.256482327501545
 Root     23 :    11.230898237491330   Change is   -0.079009277047025
 Root     24 :    11.257779372042280   Change is   -0.191932284855328
 Root     25 :    11.385086934085300   Change is   -0.223461386451474
 Root     26 :    11.497038144271140   Change is   -0.058769916694530
 Root     27 :    11.590672152004910   Change is   -0.232493112433712
 Root     28 :    11.687508388594860   Change is   -0.058480424794315
 Root     29 :    11.720706515504210   Change is   -0.238669709466448
 Root     30 :    11.862649717577830   Change is   -0.147238108200286
 Root     31 :    11.952009487855760   Change is   -0.204694843197440
 Root     32 :    12.156181074140270   Change is   -0.239187288983104
 Root     33 :    12.443271052578440   Change is   -0.149991422566819
 Root     34 :    12.540148404952320   Change is   -0.141621421528915
 Root     35 :    12.580625165166230   Change is   -0.177796123303925
 Root     36 :    12.769625421830510   Change is   -0.150566679337711
 Root     37 :    12.825090459771710   Change is   -0.146268124656448
 Root     38 :    12.906343180361890   Change is   -0.115021233339493
 Root     39 :    12.991640512906640   Change is   -0.411739966393950
 Root     40 :    13.129785150179950   Change is   -0.094089510483473
 Root     41 :    13.210028739967750   Change is   -0.127011773617196
 Root     42 :    13.351066811906940   Change is   -0.130867589223664
 Root     43 :    13.415077719499030   Change is   -0.166031775668392
 Root     44 :    13.712723496689750   Change is   -0.254062331931541
 Root     45 :    13.959646491660950   Change is   -0.250436875789175
 Root     46 :    14.041642820864090   Change is   -0.296330938017781
 Root     47 :    14.217789318356910   Change is   -0.213454227803672
 Root     48 :    14.294315653606680   Change is   -0.206263370935926
 Root     49 :    14.436613375292190   Change is   -0.247307223186045
 Root     50 :    14.573043156009060   Change is   -0.221834910516623
 Root     51 :    14.598046397664020   Change is   -0.272159534652024
 Root     52 :    14.990666935032090   Change is   -0.147981114292279
 Root     53 :    15.060487636775770   Change is   -0.275280638401311
 Root     54 :    15.302918178666300   Change is   -0.381861066839720
 Root     55 :    15.422904302711420   Change is   -0.115896952903550
 Root     56 :    15.449069347830920   Change is   -0.164894374575457
 Root     57 :    15.469425074425680   Change is   -0.307868393547577
 Root     58 :    15.544356430408200   Change is   -0.426439563536133
 Root     59 :    15.822191858238700   Change is   -0.750120865051465
 Root     60 :    15.890355137922300   Change is   -0.177420394833978
 Iteration     3 Dimension   135 NMult   120 NNew     15
 CISAX will form    15 AO SS matrices at one time.
 NMat=    15 NSing=    15 JSym2X= 0.
 Root      1 not converged, maximum delta is    0.000232086557751
 Root      2 not converged, maximum delta is    0.001484615559041
 Root      3 not converged, maximum delta is    0.001469260845600
 Root      4 not converged, maximum delta is    0.000445865253094
 Root      5 not converged, maximum delta is    0.000474206278915
 Root      6 not converged, maximum delta is    0.002300705394203
 Root      7 not converged, maximum delta is    0.000161584610125
 Root      8 not converged, maximum delta is    0.000251863362949
 Root      9 not converged, maximum delta is    0.002837207773949
 Root     10 not converged, maximum delta is    0.002718843820205
 Root     11 not converged, maximum delta is    0.003138931487756
 Root     12 not converged, maximum delta is    0.002041537285031
 Root     13 not converged, maximum delta is    0.001849049257377
 Root     14 not converged, maximum delta is    0.001198203639682
 Root     15 not converged, maximum delta is    0.001207220331977
 Excitation Energies [eV] at current iteration:
 Root      1 :     6.076559450707038   Change is   -0.000017476871874
 Root      2 :     6.525053389576764   Change is   -0.000306457419395
 Root      3 :     6.630788886625544   Change is   -0.000323538475338
 Root      4 :     7.455830374494212   Change is   -0.000063558218365
 Root      5 :     8.216475335926550   Change is   -0.000026623079369
 Root      6 :     8.256193619631052   Change is   -0.000359033760862
 Root      7 :     8.650395607508390   Change is   -0.000008868689342
 Root      8 :     8.936100620938419   Change is   -0.000009152350431
 Root      9 :     9.129027303307932   Change is   -0.000775391884708
 Root     10 :     9.272837282005643   Change is   -0.000063515729989
 Root     11 :     9.321767276382529   Change is   -0.001136016920583
 Root     12 :     9.739737288204491   Change is   -0.000653420834128
 Root     13 :     9.848567576966012   Change is   -0.000325766357628
 Root     14 :    10.106595851357210   Change is   -0.000297523010517
 Root     15 :    10.309743845998150   Change is   -0.000429671501656
 Iteration     4 Dimension   143 NMult   135 NNew      8
 CISAX will form     8 AO SS matrices at one time.
 NMat=     8 NSing=     8 JSym2X= 0.
 Root      1 not converged, maximum delta is    0.000003538583712
 Root      2 not converged, maximum delta is    0.000016998137995
 Root      3 not converged, maximum delta is    0.000016940914436
 Root      4 not converged, maximum delta is    0.000013913241331
 Root      5 not converged, maximum delta is    0.000011071637085
 Root      6 not converged, maximum delta is    0.000049635889327
 Root      7 not converged, maximum delta is    0.000005523046219
 Root      8 not converged, maximum delta is    0.000004403913583
 Root      9 not converged, maximum delta is    0.000030988215658
 Root     10 not converged, maximum delta is    0.000022670627173
 Root     11 not converged, maximum delta is    0.000080538744917
 Root     12 not converged, maximum delta is    0.000073649301594
 Root     13 not converged, maximum delta is    0.000039205830530
 Root     14 not converged, maximum delta is    0.000054245626176
 Root     15 not converged, maximum delta is    0.000038708879623
 Excitation Energies [eV] at current iteration:
 Root      1 :     6.076559446507320   Change is   -0.000000004199718
 Root      2 :     6.525053260085160   Change is   -0.000000129491604
 Root      3 :     6.630788744381842   Change is   -0.000000142243702
 Root      4 :     7.455830285501592   Change is   -0.000000088992621
 Root      5 :     8.216475269392676   Change is   -0.000000066533874
 Root      6 :     8.256192510445119   Change is   -0.000001109185932
 Root      7 :     8.650395595314722   Change is   -0.000000012193669
 Root      8 :     8.936100610927395   Change is   -0.000000010011022
 Root      9 :     9.129026787715297   Change is   -0.000000515592636
 Root     10 :     9.272837128659313   Change is   -0.000000153346328
 Root     11 :     9.321764786914541   Change is   -0.000002489467988
 Root     12 :     9.739734255455623   Change is   -0.000003032748869
 Root     13 :     9.848566839659306   Change is   -0.000000737306707
 Root     14 :    10.106594992763220   Change is   -0.000000858593984
 Root     15 :    10.309743169695130   Change is   -0.000000676303013
 Convergence achieved on expansion vectors.
 ***********************************************************************
 Excited states from <AA,BB:AA,BB> singles matrix:
 ***********************************************************************
 
 1PDM for each excited state written to RWF  633
 Ground to excited state transition densities written to RWF  633
 Ground to excited state transition electric dipole moments (Au):
       state          X           Y           Z        Dip. S.      Osc.
         1         0.1900      0.0336      0.2030      0.0785      0.0117
         2         0.8400      0.2418      0.0202      0.7644      0.1222
         3        -0.8902     -0.3042      0.1122      0.8976      0.1458
         4         0.0183     -0.0112      0.0458      0.0026      0.0005
         5         0.0756      0.0875      0.0982      0.0230      0.0046
         6         0.0815     -0.5782      0.0314      0.3420      0.0692
         7         0.0080     -0.0243      0.0703      0.0056      0.0012
         8         0.0392     -0.0147      0.1575      0.0266      0.0058
         9         0.2810     -0.3702     -0.0248      0.2166      0.0484
        10         0.1160      0.0807     -0.2172      0.0671      0.0153
        11         0.4572      0.2581      0.0320      0.2767      0.0632
        12         0.3055     -0.0442      0.0462      0.0974      0.0232
        13         0.0345      0.1533     -0.0253      0.0253      0.0061
        14        -0.2404      0.2602      0.0240      0.1260      0.0312
        15        -0.0415      0.1156     -0.0059      0.0151      0.0038
 Ground to excited state transition velocity dipole moments (Au):
       state          X           Y           Z        Dip. S.      Osc.
         1        -0.0103     -0.0102      0.0591      0.0037      0.0111
         2        -0.0564     -0.0298      0.0186      0.0044      0.0123
         3         0.0588      0.0362      0.0146      0.0050      0.0136
         4        -0.0113      0.0067     -0.0427      0.0020      0.0049
         5        -0.0178     -0.0018     -0.1094      0.0123      0.0271
         6        -0.0149      0.0656     -0.0269      0.0052      0.0115
         7        -0.0010     -0.0038      0.0107      0.0001      0.0003
         8        -0.0013     -0.0033      0.0331      0.0011      0.0023
         9        -0.0282      0.0090     -0.0108      0.0010      0.0020
        10        -0.0552      0.0044     -0.0336      0.0042      0.0082
        11        -0.2949     -0.0472      0.0133      0.0894      0.1739
        12         0.0185      0.0608      0.0180      0.0044      0.0081
        13        -0.0212     -0.1116     -0.0035      0.0129      0.0238
        14        -0.0230     -0.1752      0.0374      0.0326      0.0585
        15        -0.0690     -0.1153     -0.0334      0.0192      0.0337
 Ground to excited state transition magnetic dipole moments (Au):
       state          X           Y           Z
         1         0.4383      0.1109      0.0299
         2         0.1318     -0.2217      0.2141
         3         0.1537     -0.1984     -0.1912
         4        -0.2390     -1.0783      0.0202
         5        -1.3138      0.1374      0.0269
         6        -0.1999     -0.0024      0.1227
         7        -0.1326      0.3051      0.0078
         8         0.0242     -0.0747     -0.0066
         9        -0.0163      0.0544     -0.0462
        10         0.3457      0.0804      0.1641
        11         0.0060     -0.0110      0.8599
        12         0.0508      0.0265      0.2169
        13        -0.0627      0.0435      0.2915
        14        -0.0777      0.2921     -0.0397
        15         0.0352     -0.3016      0.0888
 Ground to excited state transition velocity quadrupole moments (Au):
       state          XX          YY          ZZ          XY          XZ          YZ
         1         0.0321     -0.0277      0.0039     -0.0317     -0.0308      0.2168
         2         0.0354     -0.0733      0.0016     -0.1027      0.1182      0.0715
         3        -0.0434      0.0681      0.0002      0.1028      0.1224      0.1253
         4         0.0127      0.0431     -0.0072     -0.0197     -0.1641     -0.0728
         5        -0.0563      0.0443     -0.0090     -0.0366      0.0500      0.0516
         6         0.2937     -0.2391      0.1224      0.0873      0.0079      0.0573
         7         0.0025     -0.0118      0.0007      0.0056     -0.2560     -0.0258
         8         0.0330      0.0259     -0.0022      0.0028      0.0635     -0.0430
         9         0.1508     -0.0029      0.0437      0.1143     -0.0030      0.0456
        10        -0.0117      0.0171     -0.0009     -0.0550     -0.0484      0.3096
        11         0.1261     -0.0955     -0.0216     -0.2970     -0.0139     -0.0631
        12        -0.1999      0.2240      0.0069      0.5312     -0.0863     -0.0185
        13        -0.1006     -0.0821     -0.0275      0.0888      0.2725      0.0736
        14         0.1225     -0.3176     -0.0308     -0.3193      0.0575      0.0677
        15         0.1173     -0.3079      0.0140     -0.2438     -0.2352     -0.0296
 <0|del|b> * <b|rxdel|0> + <0|del|b> * <b|delr+rdel|0>
 Rotatory Strengths (R) in cgs (10**-40 erg-esu-cm/Gauss)
       state          XX          YY          ZZ    R(velocity)    E-M Angle
         1        -2.4528     -4.8964     -4.8963     -4.0818       98.06
         2        17.9931     -8.2078     -0.4646      3.1069       81.84
         3       -18.7035     17.5876     -1.5558     -0.8906       92.37
         4        -7.8829      2.3437     -8.2610     -4.6000       96.22
         5         1.0576     18.1124     27.9928     15.7209       82.09
         6        -7.3798      1.3624      4.8853     -0.3774       91.64
         7        -2.2005      0.2008     -0.0888     -0.6962      104.40
         8         0.3572     -0.3085     -0.0555     -0.0023       90.00
         9        -0.2312      0.9641      2.3291      1.0207       51.00
        10        -3.2156    -45.1628     -1.9179    -16.7654      163.14
        11         7.5765     33.2363    -19.8277      6.9950       87.73
        12        20.0888     -5.0030     -2.3278      4.2527       64.18
        13        23.6708     -0.9190    -31.6360     -2.9614       97.63
        14       -51.9140     10.1752    -55.1224    -32.2871      157.52
        15        11.9780    -10.7410     53.5844     18.2738       47.89
 1/2[<0|r|b>*<b|rxdel|0> + (<0|rxdel|b>*<b|r|0>)*]
 Rotatory Strengths (R) in cgs (10**-40 erg-esu-cm/Gauss)
       state          XX          YY          ZZ     R(length)
         1       -58.8952     -2.6347     -4.2945    -21.9414
         2       -78.2948     37.9020     -3.0601    -14.4843
         3        96.7849    -42.6741     15.1662     23.0923
         4         3.0975     -8.5275     -0.6527     -2.0275
         5        70.2018     -8.5034     -1.8684     19.9433
         6        11.5246     -0.9760     -2.7213      2.6091
         7         0.7477      5.2335     -0.3888      1.8641
         8        -0.6715     -0.7770      0.7360     -0.2375
         9         3.2447     14.2467     -0.8115      5.5600
        10       -28.3634     -4.5891     25.2055     -2.5823
        11        -1.9497      2.0014    -19.4449     -6.4644
        12       -10.9668      0.8266     -7.0914     -5.7439
        13         1.5297     -4.7172      5.2184      0.6770
        14       -13.2000    -53.7462      0.6728    -22.0911
        15         1.0340     24.6561      0.3716      8.6872
  1/2[<0|del|b>*<b|r|0> + (<0|r|b>*<b|del|0>)*] (Au)
       state          X           Y           Z        Dip. S.   Osc.(frdel)
         1        -0.0020     -0.0003      0.0120     -0.0097     -0.0065
         2        -0.0474     -0.0072      0.0004      0.0542      0.0361
         3        -0.0524     -0.0110      0.0016      0.0617      0.0411
         4        -0.0002     -0.0001     -0.0020      0.0022      0.0015
         5        -0.0013     -0.0002     -0.0107      0.0122      0.0082
         6        -0.0012     -0.0379     -0.0008      0.0400      0.0267
         7         0.0000      0.0001      0.0007     -0.0008     -0.0006
         8        -0.0001      0.0000      0.0052     -0.0052     -0.0035
         9        -0.0079     -0.0033      0.0003      0.0110      0.0073
        10        -0.0064      0.0004      0.0073     -0.0013     -0.0008
        11        -0.1348     -0.0122      0.0004      0.1466      0.0977
        12         0.0056     -0.0027      0.0008     -0.0038     -0.0025
        13        -0.0007     -0.0171      0.0001      0.0178      0.0118
        14         0.0055     -0.0456      0.0009      0.0392      0.0261
        15         0.0029     -0.0133      0.0002      0.0103      0.0068

 Excitation energies and oscillator strengths:
 
 Excited State   1:      Singlet-A      6.0766 eV  204.04 nm  f=0.0117  <S**2>=0.000
      13 -> 14         0.16810
      13 -> 15         0.67197
 This state for optimization and/or second-order correction.
 Total Energy, E(CIS) =  -5.01483260161    
 Copying the excited state density for this state as the 1-particle RhoCI density.
 
 Excited State   2:      Singlet-A      6.5251 eV  190.01 nm  f=0.1222  <S**2>=0.000
      13 -> 14         0.47371
      13 -> 15        -0.15784
      13 -> 16         0.46978
 
 Excited State   3:      Singlet-A      6.6308 eV  186.98 nm  f=0.1458  <S**2>=0.000
      13 -> 14        -0.46581
      13 -> 16         0.49802
 
 Excited State   4:      Singlet-A      7.4558 eV  166.29 nm  f=0.0005  <S**2>=0.000
      12 -> 14         0.69230
 
 Excited State   5:      Singlet-A      8.2165 eV  150.90 nm  f=0.0046  <S**2>=0.000
      11 -> 14         0.68079
 
 Excited State   6:      Singlet-A      8.2562 eV  150.17 nm  f=0.0692  <S**2>=0.000
      10 -> 14         0.18887
      12 -> 15        -0.13566
      13 -> 17         0.65404
 
 Excited State   7:      Singlet-A      8.6504 eV  143.33 nm  f=0.0012  <S**2>=0.000
      13 -> 19         0.62341
      13 -> 20        -0.10422
      13 -> 21         0.22322
      13 -> 22         0.13590
 
 Excited State   8:      Singlet-A      8.9361 eV  138.75 nm  f=0.0058  <S**2>=0.000
      10 -> 16        -0.16351
      13 -> 18         0.54763
      13 -> 20         0.36275
 
 Excited State   9:      Singlet-A      9.1290 eV  135.81 nm  f=0.0484  <S**2>=0.000
      11 -> 15        -0.16796
      11 -> 16         0.17822
      12 -> 15         0.55898
      12 -> 16         0.25939
      13 -> 17         0.11687
 
 Excited State  10:      Singlet-A      9.2728 eV  133.71 nm  f=0.0153  <S**2>=0.000
      11 -> 15         0.10170
      13 -> 18        -0.35699
      13 -> 19         0.10154
      13 -> 20         0.55908
      13 -> 23         0.10315
 
 Excited State  11:      Singlet-A      9.3218 eV  133.01 nm  f=0.0632  <S**2>=0.000
      11 -> 15         0.27474
      12 -> 15        -0.15817
      12 -> 16         0.58129
      12 -> 19         0.10056
      12 -> 22         0.12116
 
 Excited State  12:      Singlet-A      9.7397 eV  127.30 nm  f=0.0232  <S**2>=0.000
      10 -> 14         0.16241
      10 -> 15        -0.24206
      11 -> 15         0.52959
      12 -> 15         0.21018
      12 -> 16        -0.16079
 
 Excited State  13:      Singlet-A      9.8486 eV  125.89 nm  f=0.0061  <S**2>=0.000
      10 -> 14         0.36265
      10 -> 15         0.52353
      11 -> 15         0.12681
 
 Excited State  14:      Singlet-A     10.1066 eV  122.68 nm  f=0.0312  <S**2>=0.000
       9 -> 14        -0.35975
       9 -> 15        -0.14637
      10 -> 14         0.36657
      10 -> 15        -0.26445
      11 -> 15        -0.17912
      11 -> 16        -0.16032
 
 Excited State  15:      Singlet-A     10.3097 eV  120.26 nm  f=0.0038  <S**2>=0.000
       9 -> 14         0.51837
       9 -> 15        -0.13551
      10 -> 14         0.14089
      11 -> 16        -0.31525
      12 -> 18         0.10038
 SavETr:  write IOETrn=   770 NScale= 10 NData=  16 NLR=1 NState=   15 LETran=     280.
 The selected state is a singlet
 CISAX will form     1 AO SS matrices at one time.
 NMat=     1 NSing=     1 JSym2X= 0.
 Leave Link  914 at Fri Dec 11 13:41:34 2015, MaxMem=    33554432 cpu:         0.1
 (Enter /home/Applications/g09/g09/l1002.exe)
 Minotr:  Closed shell wavefunction.
          Computing CIS/TD-HF/TD-KS derivatives.
          Using Z-Vector for PSCF gradient.
          Skipping F1 and S1 gradient terms here.
          IDoAtm=111111111
          Direct CPHF calculation.
          Differentiating once with respect to electric field.
                with respect to dipole field.
          Differentiating once with respect to nuclear coordinates.
          Electric field/nuclear overlap derivatives assumed to be zero.
          Requested convergence is 1.0D-10 RMS, and 1.0D-09 maximum.
          NewPWx=T KeepS1=F KeepF1=F KeepIn=T MapXYZ=F SortEE=F KeepMc=T.
          MDV=      33495423 using IRadAn=       0.
 Keep J ints in memory in canonical form, NReq=871704.
 FoFCou: FMM=F IPFlag=           0 FMFlag=           0 FMFlg1=           0
         NFxFlg=           0 DoJE=F BraDBF=F KetDBF=F FulRan=T
         wScrn=  0.000000 ICntrl=     600 IOpCl=  2 I1Cent=           0 NGrid=           0
         NMat0=    1 NMatS0=     54 NMatT0=    0 NMatD0=    1 NMtDS0=    0 NMtDT0=    0
 Symmetry not used in FoFCou.
          Solving linear equations separately, MaxMat=       0.
          There are     1 degrees of freedom in the 1st order CPHF.  IDoFFX=0 NUNeed=     1.
 LinEq1:  Iter=  0 NonCon=     1 RMS=1.47D-02 Max=9.52D-02 NDo=     1
 AX will form     1 AO Fock derivatives at one time.
 LinEq1:  Iter=  1 NonCon=     1 RMS=2.36D-03 Max=9.94D-03 NDo=     1
 LinEq1:  Iter=  2 NonCon=     1 RMS=3.00D-04 Max=1.45D-03 NDo=     1
 LinEq1:  Iter=  3 NonCon=     1 RMS=6.43D-05 Max=5.76D-04 NDo=     1
 LinEq1:  Iter=  4 NonCon=     1 RMS=1.26D-05 Max=4.49D-05 NDo=     1
 LinEq1:  Iter=  5 NonCon=     1 RMS=2.29D-06 Max=1.01D-05 NDo=     1
 LinEq1:  Iter=  6 NonCon=     1 RMS=2.45D-07 Max=8.84D-07 NDo=     1
 LinEq1:  Iter=  7 NonCon=     1 RMS=3.26D-08 Max=1.08D-07 NDo=     1
 LinEq1:  Iter=  8 NonCon=     1 RMS=6.30D-09 Max=2.50D-08 NDo=     1
 LinEq1:  Iter=  9 NonCon=     1 RMS=8.86D-10 Max=4.04D-09 NDo=     1
 LinEq1:  Iter= 10 NonCon=     1 RMS=1.05D-10 Max=4.85D-10 NDo=     1
 LinEq1:  Iter= 11 NonCon=     0 RMS=1.35D-11 Max=8.22D-11 NDo=     1
 Linear equations converged to 1.000D-10 1.000D-09 after    11 iterations.
 End of Minotr F.D. properties file   721 does not exist.
 End of Minotr F.D. properties file   722 does not exist.
 End of Minotr F.D. properties file   788 does not exist.
 Leave Link 1002 at Fri Dec 11 13:41:34 2015, MaxMem=    33554432 cpu:         0.0
 (Enter /home/Applications/g09/g09/l601.exe)
 Copying SCF densities to generalized density rwf, IOpCl= 0 IROHF=0.

 **********************************************************************

            Population analysis using the SCF density.

 **********************************************************************

 Orbital symmetries:
       Occupied  (A) (A) (A) (A) (A) (A) (A) (A) (A) (A) (A) (A)
                 (A)
       Virtual   (A) (A) (A) (A) (A) (A) (A) (A) (A) (A) (A)
 The electronic state is 1-A.
 Alpha  occ. eigenvalues --   -3.88765  -1.35521  -1.01572  -1.01054  -0.99948
 Alpha  occ. eigenvalues --   -0.90359  -0.81815  -0.65888  -0.60038  -0.58209
 Alpha  occ. eigenvalues --   -0.55337  -0.53025  -0.43266
 Alpha virt. eigenvalues --    0.00542   0.03135   0.04269   0.09561   0.12441
 Alpha virt. eigenvalues --    0.14083   0.14876   0.19019   0.19646   0.22239
 Alpha virt. eigenvalues --    0.23521
     Molecular Orbital Coefficients:
                           1         2         3         4         5
                           O         O         O         O         O
     Eigenvalues --    -3.88765  -1.35521  -1.01572  -1.01054  -0.99948
   1 1   C  1S          0.00345  -0.27026   0.35416   0.24221  -0.04614
   2        1PX         0.01975  -0.30824  -0.16454  -0.02615   0.35502
   3        1PY        -0.02875   0.25740   0.15075   0.17980   0.34375
   4        1PZ         0.00022   0.00631  -0.27929   0.38818  -0.09484
   5 2   C  1S          0.03326  -0.23948  -0.05501  -0.10012  -0.23099
   6        1PX         0.08022  -0.37435  -0.17462  -0.09167   0.15532
   7        1PY        -0.03891  -0.19711   0.44380   0.30227  -0.04586
   8        1PZ         0.00230  -0.00615  -0.27810   0.40348  -0.10349
   9 3   O  1S          0.98881   0.09028   0.03955   0.03647   0.04714
  10        1PX         0.00156   0.04577   0.11388   0.05644  -0.12134
  11        1PY        -0.00536  -0.26144  -0.05114  -0.04699  -0.08845
  12        1PZ         0.00030   0.00637  -0.12986   0.20319  -0.04163
  13 4   C  1S          0.03880  -0.22466  -0.16158  -0.13247  -0.11077
  14        1PX        -0.06893   0.41370  -0.07238  -0.02950   0.02348
  15        1PY        -0.06693  -0.07104  -0.08723   0.06752   0.54372
  16        1PZ         0.00306  -0.00732  -0.26726   0.39148  -0.09674
  17 5   C  1S          0.00328  -0.25076  -0.02864   0.07748   0.39691
  18        1PX        -0.00782   0.19908  -0.36317  -0.21727   0.09551
  19        1PY        -0.03296   0.34166   0.13801   0.14495   0.20001
  20        1PZ         0.00058  -0.00271  -0.25763   0.37898  -0.08385
  21 6   H  1S         -0.00273   0.02586  -0.04130   0.04856   0.25414
  22 7   H  1S          0.00364   0.04377  -0.09873  -0.08038  -0.09950
  23 8   H  1S          0.00298   0.04106  -0.06896  -0.08890  -0.14749
  24 9   H  1S         -0.00282   0.01969   0.24539   0.16197  -0.01147
                           6         7         8         9        10
                           O         O         O         O         O
     Eigenvalues --    -0.90359  -0.81815  -0.65888  -0.60038  -0.58209
   1 1   C  1S         -0.11753   0.13619   0.15428   0.23636  -0.07122
   2        1PX         0.13979  -0.22219   0.06872   0.16847  -0.03143
   3        1PY         0.27712  -0.29818  -0.10345   0.18489  -0.11813
   4        1PZ        -0.00791  -0.01783   0.01220  -0.10766  -0.33900
   5 2   C  1S         -0.43708   0.06323   0.14321   0.24695  -0.03489
   6        1PX         0.06183  -0.31231   0.48562  -0.19778   0.09066
   7        1PY         0.18368   0.39408   0.12960  -0.26466   0.10881
   8        1PZ        -0.02814  -0.00436   0.04247  -0.17463  -0.55471
   9 3   O  1S         -0.01720   0.06765  -0.00006  -0.00807   0.00076
  10        1PX         0.39507   0.05936  -0.22514   0.01227  -0.00369
  11        1PY         0.08856  -0.04430  -0.06810  -0.02281   0.01189
  12        1PZ        -0.00749   0.01182  -0.00264   0.00813   0.06492
  13 4   C  1S          0.44708   0.18794  -0.12055   0.23586  -0.10168
  14        1PX         0.05040   0.25999   0.58676   0.17324  -0.02141
  15        1PY        -0.31727   0.43424  -0.06030  -0.12384   0.00550
  16        1PZ         0.01556  -0.00056  -0.04895   0.18837   0.63228
  17 5   C  1S          0.06869   0.16267  -0.12709   0.28028  -0.09191
  18        1PX         0.11052   0.39118  -0.11769  -0.20101   0.06941
  19        1PY        -0.13801  -0.24554   0.10679   0.10916   0.04849
  20        1PZ         0.00062  -0.01376  -0.02047   0.09090   0.25965
  21 6   H  1S         -0.00295   0.07340  -0.03660   0.16359   0.00879
  22 7   H  1S          0.28151   0.18813   0.38186   0.36328  -0.09558
  23 8   H  1S         -0.27850   0.05239  -0.27663   0.45509  -0.14682
  24 9   H  1S         -0.00227   0.02874  -0.00069   0.16460  -0.08546
                          11        12        13        14        15
                           O         O         O         V         V
     Eigenvalues --    -0.55337  -0.53025  -0.43266   0.00542   0.03135
   1 1   C  1S         -0.01611  -0.06398   0.01432   0.00041  -0.25582
   2        1PX         0.12217   0.50464  -0.01079  -0.00747  -0.09716
   3        1PY        -0.35291  -0.24363  -0.00163   0.01213   0.12707
   4        1PZ         0.04111   0.00660   0.43196   0.65136  -0.05114
   5 2   C  1S          0.11212  -0.19088  -0.00328   0.00356  -0.05551
   6        1PX        -0.03906  -0.34150   0.00304   0.01403  -0.05220
   7        1PY         0.21169   0.08443   0.00697   0.02564   0.19854
   8        1PZ         0.05761  -0.00389  -0.42250  -0.34548   0.02206
   9 3   O  1S         -0.01037   0.03086   0.00235   0.00305   0.03111
  10        1PX         0.14853   0.11210  -0.00534  -0.00200  -0.15236
  11        1PY         0.06518  -0.19354  -0.01767   0.04572   0.47734
  12        1PZ        -0.02782   0.01520  -0.43505  -0.03923   0.00874
  13 4   C  1S          0.00362  -0.18735  -0.00892   0.00217  -0.04285
  14        1PX        -0.09959   0.18166   0.00808  -0.01822  -0.24839
  15        1PY        -0.28777   0.02057   0.00944   0.03664   0.28959
  16        1PZ        -0.09778  -0.00784  -0.33291   0.29527  -0.04234
  17 5   C  1S          0.10450   0.00771  -0.00725  -0.01742  -0.19730
  18        1PX         0.17213  -0.34128   0.00277  -0.00624  -0.16718
  19        1PY         0.57371  -0.14663  -0.03507   0.05164   0.23189
  20        1PZ        -0.01700  -0.00544   0.57660  -0.59601   0.06976
  21 6   H  1S          0.47968  -0.23156  -0.00266  -0.03126  -0.12145
  22 7   H  1S         -0.01938   0.01917  -0.00570   0.04194   0.50647
  23 8   H  1S         -0.00489   0.08554  -0.00385   0.03573   0.16383
  24 9   H  1S         -0.25766  -0.44999   0.00471  -0.02335  -0.18897
                          16        17        18        19        20
                           V         V         V         V         V
     Eigenvalues --     0.04269   0.09561   0.12441   0.14083   0.14876
   1 1   C  1S         -0.00264   0.00031   0.00947   0.10033  -0.14255
   2        1PX         0.20468  -0.00066   0.00052   0.47102   0.06731
   3        1PY         0.18242  -0.01701   0.17729  -0.23992  -0.12256
   4        1PZ        -0.01229   0.13913   0.00063  -0.00251   0.00973
   5 2   C  1S         -0.04272  -0.00436   0.34642  -0.03013  -0.18077
   6        1PX         0.30136  -0.00405  -0.23453  -0.19720  -0.16425
   7        1PY         0.32205  -0.02154  -0.04722  -0.12301  -0.06277
   8        1PZ         0.00564  -0.32606  -0.01018  -0.00021   0.00734
   9 3   O  1S          0.01117  -0.00128   0.03120   0.00906   0.02606
  10        1PX         0.12447  -0.00547  -0.02899   0.04323  -0.12309
  11        1PY         0.18994   0.01925   0.35328   0.16151   0.48939
  12        1PZ         0.02597   0.86024   0.01087  -0.00985  -0.05256
  13 4   C  1S         -0.01119  -0.00848   0.40466  -0.04629  -0.13234
  14        1PX         0.26796  -0.00455   0.30149  -0.07591   0.25719
  15        1PY        -0.02737  -0.01947   0.09250   0.06373  -0.04821
  16        1PZ        -0.02271  -0.34229  -0.01370  -0.00443   0.02272
  17 5   C  1S         -0.19786  -0.00105   0.01119  -0.21933  -0.12393
  18        1PX         0.22810  -0.00891  -0.11083   0.27508  -0.22774
  19        1PY         0.01657  -0.02585   0.20810   0.24473  -0.31704
  20        1PZ         0.01950   0.10764   0.01556   0.00902  -0.03531
  21 6   H  1S         -0.10744   0.04485  -0.22084  -0.30460   0.55257
  22 7   H  1S         -0.33844   0.00582  -0.38509   0.08386  -0.12803
  23 8   H  1S          0.61998  -0.01831  -0.31560  -0.15345  -0.05324
  24 9   H  1S          0.02040   0.02781  -0.21994   0.55529   0.24133
                          21        22        23        24
                           V         V         V         V
     Eigenvalues --     0.19019   0.19646   0.22239   0.23521
   1 1   C  1S          0.48359   0.32037   0.39900   0.16565
   2        1PX        -0.04516   0.22532  -0.15093  -0.15725
   3        1PY        -0.13293   0.41544  -0.03457  -0.07693
   4        1PZ        -0.01497  -0.00294  -0.01041  -0.00858
   5 2   C  1S         -0.40699   0.31139  -0.35008   0.06847
   6        1PX         0.06542  -0.18143  -0.05556   0.18117
   7        1PY        -0.21441   0.02488  -0.13955  -0.31285
   8        1PZ         0.00036   0.00242  -0.00460   0.00907
   9 3   O  1S         -0.00451   0.00181   0.01036   0.00482
  10        1PX        -0.10595  -0.00550  -0.25571   0.76725
  11        1PY        -0.09536   0.02121   0.37950   0.22692
  12        1PZ         0.00335  -0.00246  -0.00183  -0.00423
  13 4   C  1S          0.39505  -0.25012  -0.25343  -0.27002
  14        1PX        -0.05095  -0.13655   0.06535   0.08594
  15        1PY         0.21709  -0.07477  -0.26242   0.26126
  16        1PZ        -0.00065   0.00423  -0.00039  -0.01174
  17 5   C  1S         -0.45673  -0.34447   0.39730   0.01733
  18        1PX        -0.08472   0.32446   0.25051  -0.08086
  19        1PY         0.12400  -0.26143   0.01299   0.01627
  20        1PZ         0.00413  -0.01400   0.00398   0.00600
  21 6   H  1S          0.16977   0.21606  -0.24840  -0.00208
  22 7   H  1S         -0.06123   0.13358   0.00313   0.05876
  23 8   H  1S          0.08047  -0.15508   0.02698  -0.03130
  24 9   H  1S         -0.18429  -0.27412  -0.20366  -0.07683
     Density Matrix:
                           1         2         3         4         5
   1 1   C  1S          0.76187
   2        1PX        -0.05211   1.24380
   3        1PY        -0.00873  -0.04134   1.29751
   4        1PZ         0.00393   0.00020   0.00379   1.10617
   5 2   C  1S          0.37010  -0.20211  -0.53274  -0.02370   0.90324
   6        1PX         0.00935   0.20270   0.04328  -0.00974   0.21358
   7        1PY         0.51740  -0.13962  -0.36243  -0.01307  -0.19307
   8        1PZ         0.01290  -0.00399  -0.00590   0.54315   0.00657
   9 3   O  1S          0.01434  -0.00714  -0.01368  -0.00049  -0.00548
  10        1PX        -0.06465   0.05230   0.07079  -0.00111  -0.39505
  11        1PY         0.04623  -0.03493  -0.10071  -0.01153   0.15476
  12        1PZ        -0.00791   0.00750  -0.00079  -0.18581  -0.01261
  13 4   C  1S          0.01179   0.04424   0.07027  -0.00284   0.00007
  14        1PX         0.01334  -0.01798   0.00301   0.00092  -0.04751
  15        1PY         0.08052   0.07061   0.06270  -0.00715  -0.04453
  16        1PZ        -0.01207   0.00038   0.00302  -0.29494   0.00389
  17 5   C  1S          0.24615   0.50505   0.17805  -0.00789   0.01410
  18        1PX        -0.50141  -0.45800  -0.21265   0.00826  -0.07264
  19        1PY         0.00710  -0.01102   0.15240  -0.02610   0.05312
  20        1PZ         0.02385   0.00282  -0.00264   0.75503   0.00563
  21 6   H  1S          0.05640   0.07510  -0.01194   0.00233   0.14238
  22 7   H  1S          0.16293   0.12993   0.02133  -0.00935   0.11375
  23 8   H  1S          0.11904   0.00605  -0.09680  -0.00727   0.44618
  24 9   H  1S          0.40682  -0.57951   0.59855  -0.01047   0.14291
                           6         7         8         9        10
   6        1PX         1.42455
   7        1PY        -0.13063   1.34100
   8        1PZ         0.00055  -0.00439   1.54708
   9 3   O  1S          0.02384  -0.00743   0.00004   1.99401
  10        1PX        -0.42244   0.33618  -0.01455   0.01111   0.55618
  11        1PY         0.30452   0.02709   0.02036  -0.09564   0.05146
  12        1PZ        -0.02273   0.00928   0.53426   0.00367   0.00023
  13 4   C  1S          0.05745  -0.02388   0.01164  -0.00231   0.35023
  14        1PX        -0.05775   0.02582  -0.00554  -0.02342  -0.16591
  15        1PY        -0.08113   0.10532  -0.00417  -0.01695  -0.40695
  16        1PZ         0.00334  -0.00592  -0.01749   0.00032   0.01310
  17 5   C  1S         -0.05020   0.08120   0.00550   0.01527   0.05418
  18        1PX         0.01281  -0.08513  -0.00186   0.01278   0.04368
  19        1PY        -0.01299   0.01353   0.01840  -0.01444  -0.01561
  20        1PZ         0.00504   0.00154  -0.34409  -0.00021   0.00017
  21 6   H  1S          0.04045   0.08596  -0.00193   0.00667   0.05418
  22 7   H  1S          0.10166  -0.01210   0.00667   0.00332   0.07765
  23 8   H  1S         -0.63622  -0.51109  -0.00567   0.00196  -0.04543
  24 9   H  1S          0.09383   0.04013   0.00330   0.00689  -0.09213
                          11        12        13        14        15
  11        1PY         0.27630
  12        1PZ         0.00324   0.50936
  13 4   C  1S          0.30471  -0.01461   0.91759
  14        1PX        -0.39558   0.01644  -0.14676   1.34088
  15        1PY        -0.18224   0.02633  -0.25885   0.12949   1.41776
  16        1PZ         0.02942   0.61651   0.00155  -0.00216   0.00044
  17 5   C  1S          0.06750  -0.00048   0.31583  -0.16443   0.46488
  18        1PX         0.10287  -0.00779   0.35808   0.08126   0.33194
  19        1PY        -0.12969   0.00865  -0.42346   0.11947  -0.33308
  20        1PZ        -0.00736  -0.23809  -0.01529   0.00866  -0.00383
  21 6   H  1S          0.08417  -0.01602   0.13179  -0.09168   0.03078
  22 7   H  1S         -0.03508   0.00015   0.46980   0.76509  -0.24901
  23 8   H  1S         -0.05415  -0.00398   0.11018  -0.08764  -0.01909
  24 9   H  1S          0.07947  -0.00785   0.14189  -0.06644   0.07881
                          16        17        18        19        20
  16        1PZ         1.58493
  17 5   C  1S         -0.00909   0.74524
  18        1PX        -0.00102   0.04065   1.19668
  19        1PY        -0.00276   0.04620   0.02402   1.30951
  20        1PZ         0.43482   0.00032   0.00008  -0.00780   1.25222
  21 6   H  1S         -0.00172   0.41822   0.39180   0.73420   0.03225
  22 7   H  1S          0.00291   0.11265   0.04544  -0.10663  -0.00377
  23 8   H  1S          0.00152   0.18407  -0.14204  -0.02919   0.00349
  24 9   H  1S          0.00579   0.04838  -0.08034  -0.02625   0.00201
                          21        22        23        24
  21 6   H  1S          0.77324
  22 7   H  1S          0.03976   0.86075
  23 8   H  1S          0.05581   0.07474   0.85790
  24 9   H  1S          0.00849   0.06710   0.04742   0.78222
    Full Mulliken population analysis:
                           1         2         3         4         5
   1 1   C  1S          0.76187
   2        1PX         0.00000   1.24380
   3        1PY         0.00000   0.00000   1.29751
   4        1PZ         0.00000   0.00000   0.00000   1.10617
   5 2   C  1S          0.00000   0.00000   0.00000   0.00000   0.90324
   6        1PX         0.00000   0.00000   0.00000   0.00000   0.00000
   7        1PY         0.00000   0.00000   0.00000   0.00000   0.00000
   8        1PZ         0.00000   0.00000   0.00000   0.00000   0.00000
   9 3   O  1S          0.00000   0.00000   0.00000   0.00000   0.00000
  10        1PX         0.00000   0.00000   0.00000   0.00000   0.00000
  11        1PY         0.00000   0.00000   0.00000   0.00000   0.00000
  12        1PZ         0.00000   0.00000   0.00000   0.00000   0.00000
  13 4   C  1S          0.00000   0.00000   0.00000   0.00000   0.00000
  14        1PX         0.00000   0.00000   0.00000   0.00000   0.00000
  15        1PY         0.00000   0.00000   0.00000   0.00000   0.00000
  16        1PZ         0.00000   0.00000   0.00000   0.00000   0.00000
  17 5   C  1S          0.00000   0.00000   0.00000   0.00000   0.00000
  18        1PX         0.00000   0.00000   0.00000   0.00000   0.00000
  19        1PY         0.00000   0.00000   0.00000   0.00000   0.00000
  20        1PZ         0.00000   0.00000   0.00000   0.00000   0.00000
  21 6   H  1S          0.00000   0.00000   0.00000   0.00000   0.00000
  22 7   H  1S          0.00000   0.00000   0.00000   0.00000   0.00000
  23 8   H  1S          0.00000   0.00000   0.00000   0.00000   0.00000
  24 9   H  1S          0.00000   0.00000   0.00000   0.00000   0.00000
                           6         7         8         9        10
   6        1PX         1.42455
   7        1PY         0.00000   1.34100
   8        1PZ         0.00000   0.00000   1.54708
   9 3   O  1S          0.00000   0.00000   0.00000   1.99401
  10        1PX         0.00000   0.00000   0.00000   0.00000   0.55618
  11        1PY         0.00000   0.00000   0.00000   0.00000   0.00000
  12        1PZ         0.00000   0.00000   0.00000   0.00000   0.00000
  13 4   C  1S          0.00000   0.00000   0.00000   0.00000   0.00000
  14        1PX         0.00000   0.00000   0.00000   0.00000   0.00000
  15        1PY         0.00000   0.00000   0.00000   0.00000   0.00000
  16        1PZ         0.00000   0.00000   0.00000   0.00000   0.00000
  17 5   C  1S          0.00000   0.00000   0.00000   0.00000   0.00000
  18        1PX         0.00000   0.00000   0.00000   0.00000   0.00000
  19        1PY         0.00000   0.00000   0.00000   0.00000   0.00000
  20        1PZ         0.00000   0.00000   0.00000   0.00000   0.00000
  21 6   H  1S          0.00000   0.00000   0.00000   0.00000   0.00000
  22 7   H  1S          0.00000   0.00000   0.00000   0.00000   0.00000
  23 8   H  1S          0.00000   0.00000   0.00000   0.00000   0.00000
  24 9   H  1S          0.00000   0.00000   0.00000   0.00000   0.00000
                          11        12        13        14        15
  11        1PY         0.27630
  12        1PZ         0.00000   0.50936
  13 4   C  1S          0.00000   0.00000   0.91759
  14        1PX         0.00000   0.00000   0.00000   1.34088
  15        1PY         0.00000   0.00000   0.00000   0.00000   1.41776
  16        1PZ         0.00000   0.00000   0.00000   0.00000   0.00000
  17 5   C  1S          0.00000   0.00000   0.00000   0.00000   0.00000
  18        1PX         0.00000   0.00000   0.00000   0.00000   0.00000
  19        1PY         0.00000   0.00000   0.00000   0.00000   0.00000
  20        1PZ         0.00000   0.00000   0.00000   0.00000   0.00000
  21 6   H  1S          0.00000   0.00000   0.00000   0.00000   0.00000
  22 7   H  1S          0.00000   0.00000   0.00000   0.00000   0.00000
  23 8   H  1S          0.00000   0.00000   0.00000   0.00000   0.00000
  24 9   H  1S          0.00000   0.00000   0.00000   0.00000   0.00000
                          16        17        18        19        20
  16        1PZ         1.58493
  17 5   C  1S          0.00000   0.74524
  18        1PX         0.00000   0.00000   1.19668
  19        1PY         0.00000   0.00000   0.00000   1.30951
  20        1PZ         0.00000   0.00000   0.00000   0.00000   1.25222
  21 6   H  1S          0.00000   0.00000   0.00000   0.00000   0.00000
  22 7   H  1S          0.00000   0.00000   0.00000   0.00000   0.00000
  23 8   H  1S          0.00000   0.00000   0.00000   0.00000   0.00000
  24 9   H  1S          0.00000   0.00000   0.00000   0.00000   0.00000
                          21        22        23        24
  21 6   H  1S          0.77324
  22 7   H  1S          0.00000   0.86075
  23 8   H  1S          0.00000   0.00000   0.85790
  24 9   H  1S          0.00000   0.00000   0.00000   0.78222
     Gross orbital populations:
                           1
   1 1   C  1S          0.76187
   2        1PX         1.24380
   3        1PY         1.29751
   4        1PZ         1.10617
   5 2   C  1S          0.90324
   6        1PX         1.42455
   7        1PY         1.34100
   8        1PZ         1.54708
   9 3   O  1S          1.99401
  10        1PX         0.55618
  11        1PY         0.27630
  12        1PZ         0.50936
  13 4   C  1S          0.91759
  14        1PX         1.34088
  15        1PY         1.41776
  16        1PZ         1.58493
  17 5   C  1S          0.74524
  18        1PX         1.19668
  19        1PY         1.30951
  20        1PZ         1.25222
  21 6   H  1S          0.77324
  22 7   H  1S          0.86075
  23 8   H  1S          0.85790
  24 9   H  1S          0.78222
          Condensed to atoms (all electrons):
               1          2          3          4          5          6
     1  C    4.409354   0.000000   0.000000   0.000000   0.000000   0.000000
     2  C    0.000000   5.215864   0.000000   0.000000   0.000000   0.000000
     3  O    0.000000   0.000000   3.335855   0.000000   0.000000   0.000000
     4  C    0.000000   0.000000   0.000000   5.261172   0.000000   0.000000
     5  C    0.000000   0.000000   0.000000   0.000000   4.503644   0.000000
     6  H    0.000000   0.000000   0.000000   0.000000   0.000000   0.773243
     7  H    0.000000   0.000000   0.000000   0.000000   0.000000   0.000000
     8  H    0.000000   0.000000   0.000000   0.000000   0.000000   0.000000
     9  H    0.000000   0.000000   0.000000   0.000000   0.000000   0.000000
               7          8          9
     1  C    0.000000   0.000000   0.000000
     2  C    0.000000   0.000000   0.000000
     3  O    0.000000   0.000000   0.000000
     4  C    0.000000   0.000000   0.000000
     5  C    0.000000   0.000000   0.000000
     6  H    0.000000   0.000000   0.000000
     7  H    0.860753   0.000000   0.000000
     8  H    0.000000   0.857899   0.000000
     9  H    0.000000   0.000000   0.782216
 Mulliken charges:
               1
     1  C   -0.409354
     2  C   -1.215864
     3  O    2.664145
     4  C   -1.261172
     5  C   -0.503644
     6  H    0.226757
     7  H    0.139247
     8  H    0.142101
     9  H    0.217784
 Sum of Mulliken charges =   0.00000
 Mulliken charges with hydrogens summed into heavy atoms:
               1
     1  C   -0.191570
     2  C   -1.073763
     3  O    2.664145
     4  C   -1.121925
     5  C   -0.276887
 Charge=              0.0000 electrons
 Dipole moment (field-independent basis, Debye):
    X=              1.7346    Y=            -10.5852    Z=              0.4647  Tot=             10.7365
 N-N= 1.021173561813D+02 E-N=-1.652066205189D+02  KE=-2.280845517883D+01
 Orbital energies and kinetic energies (alpha):
                                 1                 2
   1         O                -3.887648         -3.061052
   2         O                -1.355211         -1.192204
   3         O                -1.015722         -0.924051
   4         O                -1.010538         -0.912795
   5         O                -0.999477         -0.909534
   6         O                -0.903594         -0.804749
   7         O                -0.818145         -0.676823
   8         O                -0.658881         -0.512663
   9         O                -0.600381         -0.608621
  10         O                -0.582087         -0.499768
  11         O                -0.553369         -0.500571
  12         O                -0.530246         -0.455679
  13         O                -0.432662         -0.345719
  14         V                 0.005420         -0.211686
  15         V                 0.031347         -0.187228
  16         V                 0.042686         -0.240850
  17         V                 0.095614          0.070682
  18         V                 0.124407         -0.223605
  19         V                 0.140830         -0.195435
  20         V                 0.148764         -0.128902
  21         V                 0.190188         -0.276005
  22         V                 0.196460         -0.201947
  23         V                 0.222387         -0.130129
  24         V                 0.235214          0.162121
 Total kinetic energy from orbitals=-2.280845517883D+01
 Leave Link  601 at Fri Dec 11 13:41:34 2015, MaxMem=    33554432 cpu:         0.0
 (Enter /home/Applications/g09/g09/l701.exe)
 Compute integral first derivatives.
 ... and contract with generalized density number  6.
 Leave Link  701 at Fri Dec 11 13:41:34 2015, MaxMem=    33554432 cpu:         0.0
 (Enter /home/Applications/g09/g09/l702.exe)
 L702 exits ... SP integral derivatives will be done elsewhere.
 Leave Link  702 at Fri Dec 11 13:41:34 2015, MaxMem=    33554432 cpu:         0.0
 (Enter /home/Applications/g09/g09/l703.exe)
 Compute integral first derivatives, UseDBF=F ICtDFT=           0.
 Integral derivatives from FoFJK, PRISM(SPDF).
 Calling FoFJK, ICntrl=  10005127 FMM=F ISym2X=0 I1Cent= 0 IOpClX= 0 NMat=1 NMatS=1 NMatT=0.
 FoFJK:  IHMeth= 8 ICntrl=10005127 DoSepK=F KAlg= 0 I1Cent=   0 FoldK=F
 IRaf=         0 NMat=   1 IRICut=       1 DoRegI=T DoRafI=F ISym2E= 0.
 FoFCou: FMM=F IPFlag=           0 FMFlag=      100000 FMFlg1=         800
         NFxFlg=           0 DoJE=F BraDBF=F KetDBF=F FulRan=T
         wScrn=  0.000000 ICntrl=10005127 IOpCl=  0 I1Cent=           0 NGrid=           0
         NMat0=    1 NMatS0=      1 NMatT0=    0 NMatD0=    1 NMtDS0=    0 NMtDT0=    0
 Symmetry not used in FoFCou.
 Leave Link  703 at Fri Dec 11 13:41:34 2015, MaxMem=    33554432 cpu:         0.0
 (Enter /home/Applications/g09/g09/l716.exe)
 Dipole        = 1.04573993D-01-3.61055164D+00 1.97029669D-01
 ***** Axes restored to original set *****
 -------------------------------------------------------------------
 Center     Atomic                   Forces (Hartrees/Bohr)
 Number     Number              X              Y              Z
 -------------------------------------------------------------------
      1        6           0.200034233   -0.009565285   -0.006636724
      2        6          -0.223244846   -0.201014110   -0.004295273
      3        8          -0.073693658    0.031041318    0.001949273
      4        6          -0.111230214    0.097724323    0.001994251
      5        6           0.101886030    0.068830836    0.002663727
      6        1           0.056613059    0.041853231   -0.001462965
      7        1          -0.017510322    0.080847383   -0.001361756
      8        1          -0.013082555   -0.052059916    0.001913630
      9        1           0.080228274   -0.057657779    0.005235837
 -------------------------------------------------------------------
 Cartesian Forces:  Max     0.223244846 RMS     0.085708281
 Z-matrix is all fixed cartesians, so copy forces.
 Force constants in Cartesian coordinates: 
                1             2             3             4             5 
      1  0.118573D+01
      2  0.152022D-01  0.824555D+00
      3  0.532513D-02 -0.123950D-02  0.262267D+00
      4 -0.705710D+00 -0.162700D+00  0.715361D-02  0.109430D+01
      5 -0.139111D+00 -0.259675D+00  0.353426D-02  0.151639D+00  0.819776D+00
      6  0.919951D-02  0.203767D-02 -0.154821D+00  0.147185D-02 -0.115973D-01
      7 -0.884232D-02  0.292848D-01 -0.126070D-02 -0.226564D+00  0.109353D+00
      8 -0.649627D-02  0.215183D-01 -0.549861D-03  0.151879D+00 -0.281742D+00
      9  0.534674D-03 -0.131602D-02  0.352325D-02 -0.914280D-02  0.796361D-02
     10  0.112245D-01 -0.493797D-03  0.538074D-04  0.223608D-01  0.165328D-01
     11  0.331349D-01 -0.147034D-02 -0.159073D-03 -0.171411D-01 -0.126779D-01
     12  0.136003D-02 -0.174632D-03  0.529236D-05  0.119812D-02  0.100743D-02
     13 -0.166831D+00  0.295976D-03  0.549180D-03  0.109025D-01 -0.362449D-01
     14 -0.215458D-01 -0.382098D+00 -0.953702D-02 -0.486231D-03  0.158892D-02
     15  0.762719D-03 -0.963002D-02 -0.788414D-01 -0.127384D-03  0.104899D-02
     16  0.184708D-01 -0.811200D-03 -0.481179D-03  0.663596D-05 -0.879064D-05
     17 -0.225254D-01  0.958443D-03  0.194006D-02 -0.201427D-05  0.266830D-05
     18 -0.205681D-02 -0.296101D-03  0.170173D-01  0.754565D-04 -0.999571D-04
     19  0.000000D+00  0.000000D+00  0.433274D-04  0.150387D-04  0.194614D-05
     20 -0.180004D-05 -0.399720D-05  0.178987D-03  0.283964D-05  0.000000D+00
     21 -0.699872D-04 -0.155415D-03  0.695920D-02 -0.259333D-03 -0.335600D-04
     22  0.800184D-02 -0.265412D-01  0.154962D-03 -0.189790D+00 -0.120419D+00
     23 -0.507630D-02  0.168429D-01  0.520776D-04 -0.114951D+00 -0.294628D+00
     24 -0.230332D-03  0.254507D-02  0.502210D-01 -0.116723D-02 -0.756856D-03
     25 -0.342047D+00  0.145765D+00 -0.115381D-01 -0.552130D-02  0.182569D-01
     26  0.146420D+00 -0.220627D+00  0.578007D-02 -0.823981D-02  0.273547D-01
     27 -0.148249D-01  0.822895D-02 -0.106330D+00  0.797703D-03 -0.106663D-02
                6             7             8             9            10 
      6  0.258687D+00
      7 -0.841371D-02  0.481622D+00
      8  0.904703D-02  0.482482D-01  0.604985D+00
      9 -0.439128D-01  0.242837D-01  0.699540D-02  0.490086D-01
     10  0.165380D-02 -0.278112D+00 -0.198709D+00 -0.165166D-01  0.908095D+00
     11 -0.123492D-02 -0.159095D+00 -0.347286D+00 -0.146673D-01 -0.616699D-01
     12 -0.165436D-02 -0.148174D-01 -0.157048D-01 -0.405168D-01  0.193748D-01
     13 -0.175315D-02 -0.938325D-02  0.717371D-02 -0.330894D-03 -0.459664D+00
     14  0.226450D-03 -0.277044D-01  0.211920D-01 -0.466896D-03  0.108118D+00
     15 -0.378446D-02 -0.180604D-02  0.571641D-03  0.520649D-02  0.139526D-02
     16  0.372927D-03 -0.166076D-05 -0.417680D-05  0.985880D-04 -0.630391D-02
     17 -0.113198D-03 -0.560210D-05 -0.140893D-04  0.332559D-03  0.763252D-02
     18  0.424050D-02 -0.954286D-04 -0.240003D-03  0.566495D-02  0.102422D-04
     19 -0.243155D-03  0.216316D-01 -0.165709D-01  0.974808D-03 -0.197606D+00
     20 -0.459129D-04  0.123816D-01 -0.949122D-02  0.671868D-03  0.128592D+00
     21  0.419304D-02  0.132039D-02 -0.129531D-02  0.519853D-02 -0.579524D-02
     22 -0.582366D-03  0.196505D-01  0.144823D-01  0.167155D-03  0.356383D-05
     23  0.115840D-02 -0.124621D-01 -0.918375D-02 -0.879504D-04 -0.268381D-05
     24 -0.107497D+00  0.794268D-03  0.811864D-03  0.603732D-02 -0.141359D-03
     25 -0.170571D-02  0.000000D+00 -0.255039D-05 -0.686010D-04  0.206342D-05
     26  0.521760D-03  0.000000D+00  0.213686D-04  0.574778D-03  0.000000D+00
     27  0.445496D-01 -0.506243D-05  0.363984D-03  0.979051D-02 -0.346888D-04
               11            12            13            14            15 
     11  0.899842D+00
     12  0.100916D-01  0.194554D+00
     13  0.866803D-01 -0.412515D-02  0.878606D+00
     14 -0.216108D+00  0.240694D-03  0.509041D-01  0.792990D+00
     15 -0.109770D-02 -0.999731D-01 -0.129884D-01 -0.167133D-02  0.195874D+00
     16 -0.185895D-01  0.189635D-02 -0.279016D+00 -0.134420D+00  0.133345D-01
     17  0.225218D-01 -0.336766D-03 -0.138914D+00 -0.231213D+00  0.923207D-02
     18  0.210630D-03  0.245573D-01  0.163107D-01  0.111621D-01 -0.767450D-01
     19  0.136676D+00 -0.462394D-02  0.877224D-02  0.258812D-01 -0.892171D-03
     20 -0.344823D+00  0.490245D-02  0.501329D-02  0.147960D-01  0.172492D-03
     21  0.695211D-02 -0.827076D-01  0.183713D-03  0.768184D-03  0.307679D-01
     22  0.000000D+00 -0.576221D-04  0.236797D-05 -0.313685D-05  0.133075D-03
     23  0.000000D+00  0.433935D-04  0.000000D+00  0.121350D-05 -0.514806D-04
     24 -0.182932D-04  0.228558D-02  0.195700D-03 -0.259244D-03  0.109980D-01
     25  0.458208D-05 -0.205177D-03  0.166119D-01 -0.743712D-03  0.188471D-03
     26  0.155080D-05 -0.694419D-04  0.250928D-01 -0.114939D-02  0.142535D-02
     27 -0.770305D-04  0.344929D-02  0.195828D-02 -0.462977D-03  0.164975D-01
               16            17            18            19            20 
     16  0.266815D+00
     17  0.153828D+00  0.207764D+00
     18 -0.145225D-01 -0.105760D-01  0.418698D-01
     19 -0.116981D-05 -0.394602D-05 -0.672183D-04  0.167189D+00
     20 -0.483254D-05 -0.163012D-04 -0.277682D-03 -0.145983D+00  0.339538D+00
     21 -0.187894D-03 -0.633806D-03 -0.107965D-01  0.480835D-02 -0.560221D-02
     22  0.000000D+00  0.000000D+00  0.000000D+00  0.000000D+00  0.000000D+00
     23  0.000000D+00  0.000000D+00  0.000000D+00  0.000000D+00  0.000000D+00
     24  0.000000D+00  0.000000D+00  0.000000D+00  0.000000D+00  0.000000D+00
     25  0.303847D-04 -0.922295D-05  0.345501D-03  0.000000D+00  0.000000D+00
     26  0.102837D-04 -0.312149D-05  0.116934D-03  0.000000D+00  0.000000D+00
     27 -0.510806D-03  0.155050D-03 -0.580830D-02  0.000000D+00  0.000000D+00
               21            22            23            24            25 
     21  0.463855D-01
     22  0.000000D+00  0.162130D+00
     23  0.000000D+00  0.132494D+00  0.286963D+00
     24  0.000000D+00  0.415407D-03 -0.120365D-02  0.570138D-01
     25  0.000000D+00  0.161586D-05  0.000000D+00  0.133542D-03  0.330923D+00
     26  0.000000D+00 -0.135386D-04  0.523745D-05 -0.111889D-02 -0.163270D+00
     27  0.000000D+00 -0.230610D-03  0.892123D-04 -0.190587D-01  0.128501D-01
               26            27 
     26  0.194397D+00
     27 -0.723056D-02  0.569103D-01
 Leave Link  716 at Fri Dec 11 13:41:34 2015, MaxMem=    33554432 cpu:         0.0
 (Enter /home/Applications/g09/g09/l103.exe)

 GradGradGradGradGradGradGradGradGradGradGradGradGradGradGradGradGradGrad
 Berny optimization.
 Search for a local minimum.
 Step number   1 out of a maximum of    2
 All quantities printed in internal units (Hartrees-Bohrs-Radians)
 Second derivative matrix not updated -- first step.
 ITU=  0
     Eigenvalues ---    0.01977   0.02951   0.07441   0.07657   0.08478
     Eigenvalues ---    0.09041   0.13378   0.15267   0.16630   0.24291
     Eigenvalues ---    0.28061   0.33360   0.47473   0.48694   0.66861
     Eigenvalues ---    0.88192   1.00178   1.32799   1.37879   1.53175
     Eigenvalues ---    2.00416
 Quadratic step=1.393D+00 exceeds max=3.000D-01 adjusted using Lamda=-8.247D-01.
 Angle between NR and scaled steps=  24.52 degrees.
 Angle between quadratic step and forces=  24.46 degrees.
 Linear search not attempted -- first point.
 TrRot= -0.007790  0.000368 -0.000090 -0.806247  0.000406  0.806202
 Variable       Old X    -DE/DX   Delta X   Delta X   Delta X     New X
                                 (Linear)    (Quad)   (Total)
    X1        1.73637   0.20003   0.00000   0.09046   0.08260   1.81898
    Y1       -1.43764  -0.00957   0.00000  -0.03636  -0.03607  -1.47371
    Z1       -0.01606  -0.00664   0.00000  -0.00275  -0.00378  -0.01984
    X2       -0.56721  -0.22324   0.00000  -0.08747  -0.09536  -0.66257
    Y2       -2.13200  -0.20101   0.00000  -0.12038  -0.11998  -2.25198
    Z2        0.00857  -0.00430   0.00000  -0.00553  -0.00609   0.00248
    X3       -2.18738  -0.07369   0.00000  -0.05576  -0.06356  -2.25094
    Y3        0.06731   0.03104   0.00000   0.01866   0.01915   0.08646
    Z3       -0.07403   0.00195   0.00000   0.00268   0.00324  -0.07079
    X4       -0.60901  -0.11123   0.00000  -0.05787  -0.06555  -0.67456
    Y4        2.13442   0.09772   0.00000   0.07428   0.07467   2.20909
    Z4        0.04013   0.00199   0.00000   0.00065   0.00140   0.04153
    X5        1.85816   0.10189   0.00000   0.06559   0.05788   1.91603
    Y5        1.29840   0.06883   0.00000   0.05855   0.05882   1.35722
    Z5        0.04627   0.00266   0.00000   0.00185   0.00162   0.04789
    X6        3.39015   0.05661   0.00000   0.07140   0.06371   3.45386
    Y6        2.56385   0.04185   0.00000   0.05251   0.05274   2.61660
    Z6       -0.05468  -0.00146   0.00000  -0.00128  -0.00157  -0.05625
    X7       -1.57698  -0.01751   0.00000  -0.02212  -0.02973  -1.60672
    Y7        3.82955   0.08085   0.00000   0.09457   0.09501   3.92457
    Z7        0.00256  -0.00136   0.00000  -0.00282  -0.00131   0.00124
    X8       -1.65131  -0.01308   0.00000  -0.03025  -0.03821  -1.68951
    Y8       -3.84111  -0.05206   0.00000  -0.08387  -0.08343  -3.92454
    Z8        0.01369   0.00191   0.00000   0.00213   0.00136   0.01504
    X9        3.34293   0.08023   0.00000   0.09612   0.08824   3.43116
    Y9       -2.50699  -0.05766   0.00000  -0.06110  -0.06090  -2.56789
    Z9        0.05798   0.00524   0.00000   0.00696   0.00515   0.06313
         Item               Value     Threshold  Converged?
 Maximum Force            0.223245     0.000450     NO 
 RMS     Force            0.085708     0.000300     NO 
 Maximum Displacement     0.119985     0.001800     NO 
 RMS     Displacement     0.057565     0.001200     NO 
 Predicted change in Energy=-9.794082D-02
 GradGradGradGradGradGradGradGradGradGradGradGradGradGradGradGradGradGrad

 Leave Link  103 at Fri Dec 11 13:41:34 2015, MaxMem=    33554432 cpu:         0.0
 (Enter /home/Applications/g09/g09/l9999.exe)
 1\1\GINC-DUSTIN-DESKTOP\Force\RAM1-FC\STO-3G\C4H4O1\DUSTIN\11-Dec-2015
 \0\\#P AM1(Input,print) CIS(Singlets,NStates=15) pop(full) force\\AM1-
 Reparam Input\\0,1\C,0.918849,-0.760767,-0.008496\C,-0.300155,-1.12820
 5,0.004534\O,-1.157509,0.035618,-0.039177\C,-0.322273,1.129487,0.02123
 6\C,0.983295,0.687086,0.024486\H,1.79399,1.356733,-0.028934\H,-0.83450
 3,2.026513,0.001354\H,-0.873835,-2.032627,0.007242\H,1.769,-1.32664,0.
 030682\\Version=ES64L-G09RevD.01\State=1-A\HF=-5.2381421\RMSD=7.331e-0
 9\RMSF=8.571e-02\Dipole=-3.5825087,-0.4364139,-0.2470099\PG=C01 [X(C4H
 4O1)]\\@


 NECESSARY EVIL: ONE WE LIKE TOO MUCH TO RELINQUISH.
 Job cpu time:       0 days  0 hours  0 minutes  0.7 seconds.
 File lengths (MBytes):  RWF=      7 Int=      0 D2E=      0 Chk=      2 Scr=      1
 Normal termination of Gaussian 09 at Fri Dec 11 13:41:34 2015.
