 Entering Gaussian System, Link 0=g09
 Input=FuranAM1_76.com
 Output=FuranAM1_76.log
 Initial command:
 /home/Applications/g09/g09/l1.exe "/home/Applications/g09/scratch/Gau-6238.inp" -scrdir="/home/Applications/g09/scratch/"
 Entering Link 1 = /home/Applications/g09/g09/l1.exe PID=      6240.
  
 Copyright (c) 1988,1990,1992,1993,1995,1998,2003,2009,2013,
            Gaussian, Inc.  All Rights Reserved.
  
 This is part of the Gaussian(R) 09 program.  It is based on
 the Gaussian(R) 03 system (copyright 2003, Gaussian, Inc.),
 the Gaussian(R) 98 system (copyright 1998, Gaussian, Inc.),
 the Gaussian(R) 94 system (copyright 1995, Gaussian, Inc.),
 the Gaussian 92(TM) system (copyright 1992, Gaussian, Inc.),
 the Gaussian 90(TM) system (copyright 1990, Gaussian, Inc.),
 the Gaussian 88(TM) system (copyright 1988, Gaussian, Inc.),
 the Gaussian 86(TM) system (copyright 1986, Carnegie Mellon
 University), and the Gaussian 82(TM) system (copyright 1983,
 Carnegie Mellon University). Gaussian is a federally registered
 trademark of Gaussian, Inc.
  
 This software contains proprietary and confidential information,
 including trade secrets, belonging to Gaussian, Inc.
  
 This software is provided under written license and may be
 used, copied, transmitted, or stored only in accord with that
 written license.
  
 The following legend is applicable only to US Government
 contracts under FAR:
  
                    RESTRICTED RIGHTS LEGEND
  
 Use, reproduction and disclosure by the US Government is
 subject to restrictions as set forth in subparagraphs (a)
 and (c) of the Commercial Computer Software - Restricted
 Rights clause in FAR 52.227-19.
  
 Gaussian, Inc.
 340 Quinnipiac St., Bldg. 40, Wallingford CT 06492
  
  
 ---------------------------------------------------------------
 Warning -- This program may not be used in any manner that
 competes with the business of Gaussian, Inc. or will provide
 assistance to any competitor of Gaussian, Inc.  The licensee
 of this program is prohibited from giving any competitor of
 Gaussian, Inc. access to this program.  By using this program,
 the user acknowledges that Gaussian, Inc. is engaged in the
 business of creating and licensing software in the field of
 computational chemistry and represents and warrants to the
 licensee that it is not a competitor of Gaussian, Inc. and that
 it will not use this program in any manner prohibited above.
 ---------------------------------------------------------------
  

 Cite this work as:
 Gaussian 09, Revision D.01,
 M. J. Frisch, G. W. Trucks, H. B. Schlegel, G. E. Scuseria, 
 M. A. Robb, J. R. Cheeseman, G. Scalmani, V. Barone, B. Mennucci, 
 G. A. Petersson, H. Nakatsuji, M. Caricato, X. Li, H. P. Hratchian, 
 A. F. Izmaylov, J. Bloino, G. Zheng, J. L. Sonnenberg, M. Hada, 
 M. Ehara, K. Toyota, R. Fukuda, J. Hasegawa, M. Ishida, T. Nakajima, 
 Y. Honda, O. Kitao, H. Nakai, T. Vreven, J. A. Montgomery, Jr., 
 J. E. Peralta, F. Ogliaro, M. Bearpark, J. J. Heyd, E. Brothers, 
 K. N. Kudin, V. N. Staroverov, T. Keith, R. Kobayashi, J. Normand, 
 K. Raghavachari, A. Rendell, J. C. Burant, S. S. Iyengar, J. Tomasi, 
 M. Cossi, N. Rega, J. M. Millam, M. Klene, J. E. Knox, J. B. Cross, 
 V. Bakken, C. Adamo, J. Jaramillo, R. Gomperts, R. E. Stratmann, 
 O. Yazyev, A. J. Austin, R. Cammi, C. Pomelli, J. W. Ochterski, 
 R. L. Martin, K. Morokuma, V. G. Zakrzewski, G. A. Voth, 
 P. Salvador, J. J. Dannenberg, S. Dapprich, A. D. Daniels, 
 O. Farkas, J. B. Foresman, J. V. Ortiz, J. Cioslowski, 
 and D. J. Fox, Gaussian, Inc., Wallingford CT, 2013.
 
 ******************************************
 Gaussian 09:  ES64L-G09RevD.01 24-Apr-2013
                15-Dec-2015 
 ******************************************
 ------------------------------------------------------------
 #P AM1(Input,print) CIS(Singlets,NStates=15) pop(full) force
 ------------------------------------------------------------
 1/10=7,30=1,38=1/1,3;
 2/12=2,17=6,18=5,40=1/2;
 3/5=2,16=1,25=1,41=700000,71=1,135=100,136=1/1,2,8,3;
 4/35=1/1;
 5/5=2,35=1,38=5/2;
 8/6=1,10=1,108=15/1;
 9/15=2,41=15,42=1,48=1,49=10/14;
 10/5=4/2;
 6/7=3,18=1/1;
 7/12=6,13=5,29=1/1,2,3,16;
 1/10=7,30=1/3;
 99//99;
 Leave Link    1 at Tue Dec 15 16:26:26 2015, MaxMem=           0 cpu:         0.0
 (Enter /home/Applications/g09/g09/l101.exe)
 -----------------
 AM1-Reparam Input
 -----------------
 Symbolic Z-matrix:
 Charge =  0 Multiplicity = 1
 6                     0.91092  -0.7173    0.0341 
 6                    -0.36884  -1.05804  -0.04128 
 8                    -1.13316   0.00124   0.04578 
 6                    -0.34275   1.08602  -0.04042 
 6                     0.99663   0.666    -0.02814 
 1                     1.82951   1.41273   0.01583 
 1                    -0.85048   2.03014   0.00382 
 1                    -0.79427  -2.08028   0.02945 
 1                     1.768    -1.39982  -0.02718 
 
 NAtoms=      9 NQM=        9 NQMF=       0 NMMI=      0 NMMIF=      0
                NMic=       0 NMicF=      0.
                    Isotopes and Nuclear Properties:
 (Nuclear quadrupole moments (NQMom) in fm**2, nuclear magnetic moments (NMagM)
  in nuclear magnetons)

  Atom         1           2           3           4           5           6           7           8           9
 IAtWgt=          12          12          16          12          12           1           1           1           1
 AtmWgt=  12.0000000  12.0000000  15.9949146  12.0000000  12.0000000   1.0078250   1.0078250   1.0078250   1.0078250
 NucSpn=           0           0           0           0           0           1           1           1           1
 AtZEff=   0.0000000   0.0000000   0.0000000   0.0000000   0.0000000   0.0000000   0.0000000   0.0000000   0.0000000
 NQMom=    0.0000000   0.0000000   0.0000000   0.0000000   0.0000000   0.0000000   0.0000000   0.0000000   0.0000000
 NMagM=    0.0000000   0.0000000   0.0000000   0.0000000   0.0000000   2.7928460   2.7928460   2.7928460   2.7928460
 AtZNuc=   6.0000000   6.0000000   8.0000000   6.0000000   6.0000000   1.0000000   1.0000000   1.0000000   1.0000000
 Leave Link  101 at Tue Dec 15 16:26:26 2015, MaxMem=    33554432 cpu:         0.0
 (Enter /home/Applications/g09/g09/l103.exe)

 GradGradGradGradGradGradGradGradGradGradGradGradGradGradGradGradGradGrad
 Berny optimization.
 Initialization pass.
 Trust Radius=3.00D-01 FncErr=1.00D-07 GrdErr=1.00D-07
 Number of steps in this run=      2 maximum allowed number of steps=      2.
 GradGradGradGradGradGradGradGradGradGradGradGradGradGradGradGradGradGrad

 Leave Link  103 at Tue Dec 15 16:26:27 2015, MaxMem=    33554432 cpu:         0.0
 (Enter /home/Applications/g09/g09/l202.exe)
                          Input orientation:                          
 ---------------------------------------------------------------------
 Center     Atomic      Atomic             Coordinates (Angstroms)
 Number     Number       Type             X           Y           Z
 ---------------------------------------------------------------------
      1          6           0        0.910916   -0.717304    0.034102
      2          6           0       -0.368838   -1.058036   -0.041280
      3          8           0       -1.133165    0.001242    0.045775
      4          6           0       -0.342753    1.086022   -0.040420
      5          6           0        0.996627    0.666001   -0.028135
      6          1           0        1.829514    1.412725    0.015832
      7          1           0       -0.850481    2.030136    0.003822
      8          1           0       -0.794274   -2.080281    0.029453
      9          1           0        1.767995   -1.399817   -0.027176
 ---------------------------------------------------------------------
                    Distance matrix (angstroms):
                    1          2          3          4          5
     1  C    0.000000
     2  C    1.326481   0.000000
     3  O    2.166728   1.309139   0.000000
     4  C    2.197550   2.144217   1.344964   0.000000
     5  C    1.387355   2.199311   2.232349   1.403748   0.000000
     6  H    2.319737   3.307669   3.281866   2.197417   1.119478
     7  H    3.263719   3.125831   2.048922   1.072892   2.296452
     8  H    2.182980   1.109497   2.108993   3.199098   3.279132
     9  H    1.097344   2.164040   3.222579   3.261108   2.205133
                    6          7          8          9
     6  H    0.000000
     7  H    2.750221   0.000000
     8  H    4.368700   4.110881   0.000000
     9  H    2.813543   4.315316   2.651690   0.000000
 Stoichiometry    C4H4O
 Framework group  C1[X(C4H4O)]
 Deg. of freedom    21
 Full point group                 C1      NOp   1
 Largest Abelian subgroup         C1      NOp   1
 Largest concise Abelian subgroup C1      NOp   1
                         Standard orientation:                         
 ---------------------------------------------------------------------
 Center     Atomic      Atomic             Coordinates (Angstroms)
 Number     Number       Type             X           Y           Z
 ---------------------------------------------------------------------
      1          6           0       -0.580822    0.998465   -0.038253
      2          6           0       -1.094022   -0.221458    0.050986
      3          8           0       -0.151048   -1.125212   -0.037750
      4          6           0        1.033067   -0.491337    0.032976
      5          6           0        0.801596    0.893040    0.012313
      6          1           0        1.655578    1.614624   -0.044816
      7          1           0        1.897739   -1.124745   -0.014281
      8          1           0       -2.165750   -0.502364   -0.007960
      9          1           0       -1.138090    1.941924    0.020924
 ---------------------------------------------------------------------
 Rotational constants (GHZ):      9.7925020      9.4534143      4.8181385
 Leave Link  202 at Tue Dec 15 16:26:27 2015, MaxMem=    33554432 cpu:         0.0
 (Enter /home/Applications/g09/g09/l301.exe)

 Semi-emprical parameters in input format:
 Method=8 CoreType=1 PeptideFC=0.0114510000 RIJScale=0.5291770000
 ****
 H       
 PQN=1 NValence=1 F0ss=0.4721550000 ZetaOverlap=1.1880780000 U=-0.4188110000
 Beta=-0.2268830000 CoreKO=1.0589200000 KON=0,0,0,1.0589200000 KON=1,0,1,1.0589200000
 KON=0,1,1,1.0589200000 KON=2,1,1,1.0589200000 EISol=-0.4188110042 EHeat=0.0830298228
 Alpha=1.5252600000
 GCore=0.0085280000,1.4001430000,2.2676710000
 GCore=0.0003530000,1.4001430000,3.4015070000
 GCore=-0.0012730000,0.5600570000,3.9684250000
 ****
 C       
 PQN=2,2 NValence=4 F0ss=0.4494440000 F0sp=0.4215150000 F0pp=0.3768030000 F2pp=0.1898720000
 G1sp=0.2679030000
 ZetaOverlap=1.8086650000,1.6851160000
 U=-1.9120180000,-1.4557970000
 Beta=-0.5775440000,-0.2836780000 DDN=0,1,0.8236740000 DDN=1,1,0.7268010000
 CoreKO=1.1124280000 KON=0,0,0,1.1124280000 KON=1,0,1,0.8219700000 KON=0,1,1,1.1124280000
 KON=2,1,1,0.7783930000 EISol=-4.4398989268 EHeat=0.2723305520 Alpha=1.4014060000
 DipHyp=1.6472532266
 GCore=0.0007890000,1.4001430000,3.0235620000
 GCore=0.0031890000,1.4001430000,3.4959930000
 GCore=-0.0013930000,1.4001430000,3.8739390000
 GCore=-0.0000880000,1.4001430000,5.0077740000
 ****
 O       
 PQN=2,2 NValence=6 F0ss=0.5666750000 F0sp=0.5321300000 F0pp=0.4958710000 F2pp=0.2358080000
 G1sp=0.4343770000
 ZetaOverlap=3.1080320000,2.5240390000
 U=-3.5951870000,-2.8760900000
 Beta=-1.0757550000,-1.0757550000 DDN=0,1,0.4988900000 DDN=1,1,0.4852320000
 CoreKO=0.8822960000 KON=0,0,0,0.8822960000 KON=1,0,1,0.5019540000 KON=0,1,1,0.8822960000
 KON=2,1,1,0.5515580000 EISol=-11.6164441184 EHeat=0.0949133088 Alpha=2.3576810000
 DipHyp=0.9977225968
 GCore=0.0195120000,1.4001430000,1.6023330000
 GCore=0.0056550000,1.9602000000,2.7307880000
 ****
 
 Standard basis: VSTO-6G (5D, 7F)
 Ernie: Thresh=  0.10000D-02 Tol=  0.10000D-05 Strict=F.
  NNHCO=     0 NNPyr=     0 NCTC=     0               EPep=         0.000000000
    EC=        69.278561639  ECS=         1.873078332   EG=         0.378810075
   EHC=         0.000000000  EAt=       -31.051283842  AtH=         1.516354808
 EPDDG=         0.000000000  ECC=        71.530450046 EAtT=        32.567638650
 There are    24 symmetry adapted cartesian basis functions of A   symmetry.
 There are    24 symmetry adapted basis functions of A   symmetry.
    24 basis functions,   144 primitive gaussians,    24 cartesian basis functions
    13 alpha electrons       13 beta electrons
       nuclear repulsion energy       104.0980886961 Hartrees.
 IExCor=    0 DFT=F Ex=HF Corr=None ExCW=0 ScaHFX=  1.000000
 ScaDFX=  1.000000  1.000000  1.000000  1.000000 ScalE2=  1.000000  1.000000
 IRadAn=      0 IRanWt=     -1 IRanGd=            0 ICorTp=0 IEmpDi=  4
 Integral buffers will be    131072 words long.
 Regular integral format.
 Two-electron integral symmetry is turned off.
 Leave Link  301 at Tue Dec 15 16:26:27 2015, MaxMem=    33554432 cpu:         0.0
 (Enter /home/Applications/g09/g09/l302.exe)
 Do NDO integrals.
 NPDir=0 NMtPBC=     1 NCelOv=     1 NCel=       1 NClECP=     1 NCelD=      1
         NCelK=      1 NCelE2=     1 NClLst=     1 CellRange=     0.0.
 One-electron integrals computed using PRISM.
 NBasis=    24 RedAO= F EigKep=  0.00D+00  NBF=    24
 NBsUse=    24 1.00D-04 EigRej=  0.00D+00 NBFU=    24
 Leave Link  302 at Tue Dec 15 16:26:27 2015, MaxMem=    33554432 cpu:         0.0
 (Enter /home/Applications/g09/g09/l308.exe)
 Leave Link  308 at Tue Dec 15 16:26:27 2015, MaxMem=    33554432 cpu:         0.0
 (Enter /home/Applications/g09/g09/l303.exe)
 DipDrv:  MaxL=1.
 Leave Link  303 at Tue Dec 15 16:26:27 2015, MaxMem=    33554432 cpu:         0.0
 (Enter /home/Applications/g09/g09/l401.exe)
 Simple Huckel Guess.
 JPrj=0 DoOrth=F DoCkMO=F.
 Leave Link  401 at Tue Dec 15 16:26:27 2015, MaxMem=    33554432 cpu:         0.0
 (Enter /home/Applications/g09/g09/l502.exe)
 Closed shell SCF:
 Using DIIS extrapolation, IDIIS=  1040.
 Overlap will be assumed to be unity.
 Two-electron integral symmetry not used.
 Keep J ints in memory in canonical form, NReq=888082.
 IVT=       79475 IEndB=       79475 NGot=    33554432 MDV=    33473473
 LenX=    33473473 LenY=    33472456
 Requested convergence on RMS density matrix=1.00D-08 within 128 cycles.
 Requested convergence on MAX density matrix=1.00D-06.
 Requested convergence on             energy=1.00D-06.
 No special actions if energy rises.
 FoFCou: FMM=F IPFlag=           0 FMFlag=           0 FMFlg1=           0
         NFxFlg=           0 DoJE=F BraDBF=F KetDBF=F FulRan=T
         wScrn=  0.000000 ICntrl=     600 IOpCl=  2 I1Cent=           0 NGrid=           0
         NMat0=    1 NMatS0=     54 NMatT0=    0 NMatD0=    1 NMtDS0=    0 NMtDT0=    0
 Symmetry not used in FoFCou.

 Cycle   1  Pass 1  IDiag  1:
 E= 0.353021548168371    
 DIIS: error= 6.13D-02 at cycle   1 NSaved=   1.
 NSaved= 1 IEnMin= 1 EnMin= 0.353021548168371     IErMin= 1 ErrMin= 6.13D-02
 ErrMax= 6.13D-02  0.00D+00 EMaxC= 1.00D-01 BMatC= 1.14D-01 BMatP= 1.14D-01
 IDIUse=3 WtCom= 3.87D-01 WtEn= 6.13D-01
 Coeff-Com:  0.100D+01
 Coeff-En:   0.100D+01
 Coeff:      0.100D+01
 GapD=    2.000 DampG=2.000 DampE=0.500 DampFc=1.0000 IDamp=-1.
 RMSDP=1.97D-02 MaxDP=1.66D-01              OVMax= 0.00D+00

 Cycle   2  Pass 1  IDiag  1:
 E= 0.682885808998321E-01 Delta-E=       -0.284732967269 Rises=F Damp=F
 DIIS: error= 2.03D-02 at cycle   2 NSaved=   2.
 NSaved= 2 IEnMin= 2 EnMin= 0.682885808998321E-01 IErMin= 2 ErrMin= 2.03D-02
 ErrMax= 2.03D-02  0.00D+00 EMaxC= 1.00D-01 BMatC= 9.82D-03 BMatP= 1.14D-01
 IDIUse=3 WtCom= 7.97D-01 WtEn= 2.03D-01
 Coeff-Com: -0.354D+00 0.135D+01
 Coeff-En:   0.000D+00 0.100D+01
 Coeff:     -0.282D+00 0.128D+01
 RMSDP=8.30D-03 MaxDP=7.42D-02 DE=-2.85D-01 OVMax= 0.00D+00

 Cycle   3  Pass 1  IDiag  1:
 E= 0.366421884485248E-01 Delta-E=       -0.031646392451 Rises=F Damp=F
 DIIS: error= 3.90D-03 at cycle   3 NSaved=   3.
 NSaved= 3 IEnMin= 3 EnMin= 0.366421884485248E-01 IErMin= 3 ErrMin= 3.90D-03
 ErrMax= 3.90D-03  0.00D+00 EMaxC= 1.00D-01 BMatC= 4.18D-04 BMatP= 9.82D-03
 IDIUse=3 WtCom= 9.61D-01 WtEn= 3.90D-02
 Coeff-Com:  0.126D+00-0.584D+00 0.146D+01
 Coeff-En:   0.000D+00 0.000D+00 0.100D+01
 Coeff:      0.121D+00-0.561D+00 0.144D+01
 RMSDP=2.64D-03 MaxDP=3.10D-02 DE=-3.16D-02 OVMax= 0.00D+00

 Cycle   4  Pass 1  IDiag  3:
 E= 0.343845409442025E-01 Delta-E=       -0.002257647504 Rises=F Damp=F
 DIIS: error= 1.20D-03 at cycle   4 NSaved=   4.
 NSaved= 4 IEnMin= 4 EnMin= 0.343845409442025E-01 IErMin= 4 ErrMin= 1.20D-03
 ErrMax= 1.20D-03  0.00D+00 EMaxC= 1.00D-01 BMatC= 3.07D-05 BMatP= 4.18D-04
 IDIUse=3 WtCom= 9.88D-01 WtEn= 1.20D-02
 Coeff-Com:  0.119D-01-0.350D-01-0.254D+00 0.128D+01
 Coeff-En:   0.000D+00 0.000D+00 0.000D+00 0.100D+01
 Coeff:      0.118D-01-0.346D-01-0.251D+00 0.127D+01
 Gap=     0.374 Goal=   None    Shift=    0.000
 RMSDP=8.73D-04 MaxDP=1.10D-02 DE=-2.26D-03 OVMax= 9.30D-03

 Cycle   5  Pass 1  IDiag  3:
 E= 0.341982626340211E-01 Delta-E=       -0.000186278310 Rises=F Damp=F
 DIIS: error= 1.73D-04 at cycle   5 NSaved=   5.
 NSaved= 5 IEnMin= 5 EnMin= 0.341982626340211E-01 IErMin= 5 ErrMin= 1.73D-04
 ErrMax= 1.73D-04  0.00D+00 EMaxC= 1.00D-01 BMatC= 1.45D-06 BMatP= 3.07D-05
 IDIUse=3 WtCom= 9.98D-01 WtEn= 1.73D-03
 Coeff-Com: -0.703D-02 0.268D-01 0.444D-01-0.490D+00 0.143D+01
 Coeff-En:   0.000D+00 0.000D+00 0.000D+00 0.000D+00 0.100D+01
 Coeff:     -0.702D-02 0.268D-01 0.444D-01-0.489D+00 0.143D+01
 Gap=     0.374 Goal=   None    Shift=    0.000
 RMSDP=2.02D-04 MaxDP=1.84D-03 DE=-1.86D-04 OVMax= 1.82D-03

 Cycle   6  Pass 1  IDiag  3:
 E= 0.341887143881507E-01 Delta-E=       -0.000009548246 Rises=F Damp=F
 DIIS: error= 6.92D-05 at cycle   6 NSaved=   6.
 NSaved= 6 IEnMin= 6 EnMin= 0.341887143881507E-01 IErMin= 6 ErrMin= 6.92D-05
 ErrMax= 6.92D-05  0.00D+00 EMaxC= 1.00D-01 BMatC= 1.13D-07 BMatP= 1.45D-06
 IDIUse=1 WtCom= 1.00D+00 WtEn= 0.00D+00
 Coeff-Com:  0.270D-02-0.103D-01-0.841D-02 0.160D+00-0.644D+00 0.150D+01
 Coeff:      0.270D-02-0.103D-01-0.841D-02 0.160D+00-0.644D+00 0.150D+01
 Gap=     0.374 Goal=   None    Shift=    0.000
 RMSDP=6.68D-05 MaxDP=5.18D-04 DE=-9.55D-06 OVMax= 8.65D-04

 Cycle   7  Pass 1  IDiag  3:
 E= 0.341877666671024E-01 Delta-E=       -0.000000947721 Rises=F Damp=F
 DIIS: error= 2.89D-05 at cycle   7 NSaved=   7.
 NSaved= 7 IEnMin= 7 EnMin= 0.341877666671024E-01 IErMin= 7 ErrMin= 2.89D-05
 ErrMax= 2.89D-05  0.00D+00 EMaxC= 1.00D-01 BMatC= 1.21D-08 BMatP= 1.13D-07
 IDIUse=1 WtCom= 1.00D+00 WtEn= 0.00D+00
 Coeff-Com: -0.502D-03 0.150D-02 0.275D-02-0.348D-01 0.161D+00-0.674D+00
 Coeff-Com:  0.154D+01
 Coeff:     -0.502D-03 0.150D-02 0.275D-02-0.348D-01 0.161D+00-0.674D+00
 Coeff:      0.154D+01
 Gap=     0.374 Goal=   None    Shift=    0.000
 RMSDP=2.80D-05 MaxDP=2.50D-04 DE=-9.48D-07 OVMax= 3.47D-04

 Cycle   8  Pass 1  IDiag  3:
 E= 0.341876450065683E-01 Delta-E=       -0.000000121661 Rises=F Damp=F
 DIIS: error= 7.39D-06 at cycle   8 NSaved=   8.
 NSaved= 8 IEnMin= 8 EnMin= 0.341876450065683E-01 IErMin= 8 ErrMin= 7.39D-06
 ErrMax= 7.39D-06  0.00D+00 EMaxC= 1.00D-01 BMatC= 8.15D-10 BMatP= 1.21D-08
 IDIUse=1 WtCom= 1.00D+00 WtEn= 0.00D+00
 Coeff-Com:  0.510D-04 0.105D-03-0.187D-02 0.106D-01-0.462D-01 0.249D+00
 Coeff-Com: -0.808D+00 0.160D+01
 Coeff:      0.510D-04 0.105D-03-0.187D-02 0.106D-01-0.462D-01 0.249D+00
 Coeff:     -0.808D+00 0.160D+01
 Gap=     0.374 Goal=   None    Shift=    0.000
 RMSDP=7.75D-06 MaxDP=7.18D-05 DE=-1.22D-07 OVMax= 9.32D-05

 Cycle   9  Pass 1  IDiag  3:
 E= 0.341876371209793E-01 Delta-E=       -0.000000007886 Rises=F Damp=F
 DIIS: error= 1.02D-06 at cycle   9 NSaved=   9.
 NSaved= 9 IEnMin= 9 EnMin= 0.341876371209793E-01 IErMin= 9 ErrMin= 1.02D-06
 ErrMax= 1.02D-06  0.00D+00 EMaxC= 1.00D-01 BMatC= 2.99D-11 BMatP= 8.15D-10
 IDIUse=1 WtCom= 1.00D+00 WtEn= 0.00D+00
 Coeff-Com:  0.157D-04-0.167D-03 0.519D-03-0.160D-02 0.725D-02-0.617D-01
 Coeff-Com:  0.244D+00-0.627D+00 0.144D+01
 Coeff:      0.157D-04-0.167D-03 0.519D-03-0.160D-02 0.725D-02-0.617D-01
 Coeff:      0.244D+00-0.627D+00 0.144D+01
 Gap=     0.374 Goal=   None    Shift=    0.000
 RMSDP=1.16D-06 MaxDP=9.71D-06 DE=-7.89D-09 OVMax= 1.58D-05

 Cycle  10  Pass 1  IDiag  3:
 E= 0.341876369062106E-01 Delta-E=       -0.000000000215 Rises=F Damp=F
 DIIS: error= 2.38D-07 at cycle  10 NSaved=  10.
 NSaved=10 IEnMin=10 EnMin= 0.341876369062106E-01 IErMin=10 ErrMin= 2.38D-07
 ErrMax= 2.38D-07  0.00D+00 EMaxC= 1.00D-01 BMatC= 1.43D-12 BMatP= 2.99D-11
 IDIUse=1 WtCom= 1.00D+00 WtEn= 0.00D+00
 Coeff-Com: -0.103D-04 0.851D-04-0.238D-03 0.623D-03-0.238D-02 0.222D-01
 Coeff-Com: -0.912D-01 0.242D+00-0.679D+00 0.151D+01
 Coeff:     -0.103D-04 0.851D-04-0.238D-03 0.623D-03-0.238D-02 0.222D-01
 Coeff:     -0.912D-01 0.242D+00-0.679D+00 0.151D+01
 Gap=     0.374 Goal=   None    Shift=    0.000
 RMSDP=2.15D-07 MaxDP=1.28D-06 DE=-2.15D-10 OVMax= 2.54D-06

 Cycle  11  Pass 1  IDiag  3:
 E= 0.341876368972009E-01 Delta-E=       -0.000000000009 Rises=F Damp=F
 DIIS: error= 4.66D-08 at cycle  11 NSaved=  11.
 NSaved=11 IEnMin=11 EnMin= 0.341876368972009E-01 IErMin=11 ErrMin= 4.66D-08
 ErrMax= 4.66D-08  0.00D+00 EMaxC= 1.00D-01 BMatC= 6.10D-14 BMatP= 1.43D-12
 IDIUse=1 WtCom= 1.00D+00 WtEn= 0.00D+00
 Coeff-Com:  0.387D-05-0.318D-04 0.895D-04-0.238D-03 0.839D-03-0.791D-02
 Coeff-Com:  0.324D-01-0.854D-01 0.247D+00-0.675D+00 0.149D+01
 Coeff:      0.387D-05-0.318D-04 0.895D-04-0.238D-03 0.839D-03-0.791D-02
 Coeff:      0.324D-01-0.854D-01 0.247D+00-0.675D+00 0.149D+01
 Gap=     0.374 Goal=   None    Shift=    0.000
 RMSDP=3.99D-08 MaxDP=2.67D-07 DE=-9.01D-12 OVMax= 3.13D-07

 Cycle  12  Pass 1  IDiag  3:
 E= 0.341876368969167E-01 Delta-E=        0.000000000000 Rises=F Damp=F
 DIIS: error= 5.49D-09 at cycle  12 NSaved=  12.
 NSaved=12 IEnMin=12 EnMin= 0.341876368969167E-01 IErMin=12 ErrMin= 5.49D-09
 ErrMax= 5.49D-09  0.00D+00 EMaxC= 1.00D-01 BMatC= 2.16D-15 BMatP= 6.10D-14
 IDIUse=1 WtCom= 1.00D+00 WtEn= 0.00D+00
 Coeff-Com: -0.803D-06 0.678D-05-0.194D-04 0.547D-04-0.178D-03 0.166D-02
 Coeff-Com: -0.669D-02 0.173D-01-0.502D-01 0.150D+00-0.460D+00 0.135D+01
 Coeff:     -0.803D-06 0.678D-05-0.194D-04 0.547D-04-0.178D-03 0.166D-02
 Coeff:     -0.669D-02 0.173D-01-0.502D-01 0.150D+00-0.460D+00 0.135D+01
 Gap=     0.374 Goal=   None    Shift=    0.000
 RMSDP=7.11D-09 MaxDP=4.04D-08 DE=-2.84D-13 OVMax= 3.26D-08

 Cycle  13  Pass 2  IDiag  1:
 SCF Done:  E(RAM1) =  0.341876368969E-01 A.U. after   13 cycles
            NFock= 12  Conv=0.71D-08     -V/T= 1.0021
 KE=-1.661735631332D+01 PE=-1.720931958977D+02 EE= 8.464665115182D+01
 Leave Link  502 at Tue Dec 15 16:26:27 2015, MaxMem=    33554432 cpu:         0.0
 (Enter /home/Applications/g09/g09/l801.exe)
 Range of M.O.s used for correlation:     1    24
 NBasis=    24 NAE=    13 NBE=    13 NFC=     0 NFV=     0
 NROrb=     24 NOA=    13 NOB=    13 NVA=    11 NVB=    11
 Leave Link  801 at Tue Dec 15 16:26:27 2015, MaxMem=    33554432 cpu:         0.0
 (Enter /home/Applications/g09/g09/l914.exe)
 RHF ground state
 MDV=    33554432 DFT=F DoStab=F Mixed=F DoRPA=F DoScal=F NonHer=F
 Making orbital integer symmetry assigments:
 Orbital symmetries:
       Occupied  (A) (A) (A) (A) (A) (A) (A) (A) (A) (A) (A) (A)
                 (A)
       Virtual   (A) (A) (A) (A) (A) (A) (A) (A) (A) (A) (A)
    60 initial guesses have been made.
 Convergence on wavefunction:    0.000001000000000
 Davidson Disk Diagonalization:  ConvIn= 1.00D-06 SkipCon=T Conv= 1.00D-06.
 Max sub-space:   240 roots to seek:    60 dimension of matrix:          286
 Iteration     1 Dimension    60 NMult     0 NNew     60
 CISAX will form    60 AO SS matrices at one time.
 NMat=    60 NSing=    60 JSym2X= 0.
 FoFJK:  IHMeth= 8 ICntrl=       0 DoSepK=F KAlg= 0 I1Cent=   0 FoldK=F
 IRaf=         1 NMat= 120 IRICut=       1 DoRegI=T DoRafI=F ISym2E= 0.
 FoFCou: FMM=F IPFlag=           0 FMFlag=      100000 FMFlg1=           0
         NFxFlg=           0 DoJE=F BraDBF=F KetDBF=F FulRan=T
         wScrn=  0.000000 ICntrl=       0 IOpCl=  0 I1Cent=           0 NGrid=           0
         NMat0=  120 NMatS0=     60 NMatT0=    0 NMatD0=  120 NMtDS0=    0 NMtDT0=    0
 Symmetry not used in FoFCou.
 New state      2 was old state      4
 New state      3 was old state      2
 New state      4 was old state      7
 New state      5 was old state      8
 New state      6 was old state      9
 New state      7 was old state      3
 New state      8 was old state      6
 New state      9 was old state      5
 New state     10 was old state     11
 New state     11 was old state     14
 New state     12 was old state     15
 New state     14 was old state     18
 New state     15 was old state     10
 Excitation Energies [eV] at current iteration:
 Root      1 :     4.500715092265451
 Root      2 :     4.808970466791256
 Root      3 :     5.027984941572647
 Root      4 :     5.856778003904179
 Root      5 :     6.245175687766625
 Root      6 :     6.276288567977010
 Root      7 :     6.381452531481600
 Root      8 :     6.582311299744869
 Root      9 :     6.622869434490434
 Root     10 :     7.061629297061249
 Root     11 :     7.226884330809299
 Root     12 :     7.342594551211749
 Root     13 :     7.408712672560707
 Root     14 :     7.619409582885009
 Root     15 :     7.686431629212524
 Root     16 :     7.779037330741822
 Root     17 :     8.036209598039957
 Root     18 :     8.179521188911597
 Root     19 :     8.258217173492152
 Root     20 :     8.373755943555112
 Root     21 :     8.575537675184997
 Root     22 :     8.614675006881900
 Root     23 :     8.697726795571823
 Root     24 :     9.049292646890672
 Root     25 :     9.257154885573989
 Root     26 :     9.304398430051002
 Root     27 :     9.526862413662366
 Root     28 :     9.603300810796178
 Root     29 :     9.655860989813890
 Root     30 :     9.867291644085414
 Root     31 :     9.899721000984231
 Root     32 :     9.944895281011169
 Root     33 :    10.090294951816270
 Root     34 :    10.172604954694540
 Root     35 :    10.279800030477410
 Root     36 :    10.323662305984590
 Root     37 :    10.447552292684060
 Root     38 :    10.612776201333200
 Root     39 :    10.806521093858480
 Root     40 :    11.068154149200140
 Root     41 :    11.127844236134720
 Root     42 :    11.219732358527990
 Root     43 :    11.256656044522970
 Root     44 :    11.458919467314930
 Root     45 :    11.550701378813230
 Root     46 :    11.591981725419110
 Root     47 :    11.614105177024260
 Root     48 :    11.861467502893610
 Root     49 :    11.891628312761480
 Root     50 :    12.078275369552810
 Root     51 :    12.172535106032850
 Root     52 :    12.475473638149810
 Root     53 :    12.627090950677440
 Root     54 :    12.883768490509420
 Root     55 :    12.927512234103930
 Root     56 :    13.123848619414510
 Root     57 :    13.245681440330540
 Root     58 :    13.278402330069030
 Root     59 :    13.713398178766260
 Root     60 :    13.901029041249140
 Iteration     2 Dimension   120 NMult    60 NNew     60
 CISAX will form    60 AO SS matrices at one time.
 NMat=    60 NSing=    60 JSym2X= 0.
 Root      1 not converged, maximum delta is    0.028576599061669
 Root      2 not converged, maximum delta is    0.034351876096306
 Root      3 not converged, maximum delta is    0.012960708855508
 Root      4 not converged, maximum delta is    0.042534733202153
 Root      5 not converged, maximum delta is    0.366803156544359
 Root      6 not converged, maximum delta is    0.216212081972591
 Root      7 not converged, maximum delta is    0.049619719445267
 Root      8 not converged, maximum delta is    0.069486015355095
 Root      9 not converged, maximum delta is    0.048120558734054
 Root     10 not converged, maximum delta is    0.038696399269420
 Root     11 not converged, maximum delta is    0.054144881505215
 Root     12 not converged, maximum delta is    0.152817041964818
 Root     13 not converged, maximum delta is    0.098071856660562
 Root     14 not converged, maximum delta is    0.284619197118980
 Root     15 not converged, maximum delta is    0.282072442590269
 Excitation Energies [eV] at current iteration:
 Root      1 :     4.413861646665186   Change is   -0.086853445600265
 Root      2 :     4.776083299941028   Change is   -0.032887166850227
 Root      3 :     5.014537973492169   Change is   -0.013446968080478
 Root      4 :     5.762976554374453   Change is   -0.093801449529726
 Root      5 :     6.154113532984486   Change is   -0.091062154782138
 Root      6 :     6.168900082466640   Change is   -0.107388485510369
 Root      7 :     6.231332862253312   Change is   -0.150119669228287
 Root      8 :     6.524510598067169   Change is   -0.057800701677699
 Root      9 :     6.563757639927505   Change is   -0.059111794562929
 Root     10 :     6.989206445746847   Change is   -0.072422851314402
 Root     11 :     7.138814530433985   Change is   -0.088069800375314
 Root     12 :     7.252925409173982   Change is   -0.089669142037767
 Root     13 :     7.306112775370402   Change is   -0.102599897190305
 Root     14 :     7.561591824622151   Change is   -0.057817758262858
 Root     15 :     7.576069923108522   Change is   -0.110361706104001
 Root     16 :     7.726080987884754   Change is   -0.052956342857069
 Root     17 :     7.977408672471988   Change is   -0.058800925567968
 Root     18 :     8.073747621539201   Change is   -0.105773567372396
 Root     19 :     8.143901521012230   Change is   -0.114315652479920
 Root     20 :     8.244629550414301   Change is   -0.129126393140812
 Root     21 :     8.281648756941433   Change is   -0.293888918243564
 Root     22 :     8.483595356233728   Change is   -0.131079650648171
 Root     23 :     8.661885684800184   Change is   -0.035841110771639
 Root     24 :     8.931572772081219   Change is   -0.325582113492769
 Root     25 :     8.960564522081171   Change is   -0.088728124809501
 Root     26 :     9.189939665375396   Change is   -0.413361145420781
 Root     27 :     9.250936077919865   Change is   -0.053462352131135
 Root     28 :     9.323331152058469   Change is   -0.576389848925762
 Root     29 :     9.476308882038394   Change is   -0.050553531623973
 Root     30 :     9.554313716779449   Change is   -0.101547273034441
 Root     31 :     9.595338520166703   Change is   -0.728323785817885
 Root     32 :     9.668670381741654   Change is   -0.198621262343760
 Root     33 :     9.720940074383924   Change is   -0.369354877432348
 Root     34 :     9.784175846786809   Change is   -0.160719434224359
 Root     35 :     9.816103547538146   Change is   -0.463696482939265
 Root     36 :     9.869286677590155   Change is   -0.303318277104389
 Root     37 :    10.070451678128920   Change is   -0.377100614555148
 Root     38 :    10.201704284574830   Change is   -0.411071916758370
 Root     39 :    10.313897869832390   Change is   -0.492623224026090
 Root     40 :    10.758854370510210   Change is   -0.309299778689928
 Root     41 :    10.788293611261920   Change is   -0.339550624872798
 Root     42 :    10.938748117807620   Change is   -0.280984240720373
 Root     43 :    11.068003463437400   Change is   -0.390916003877527
 Root     44 :    11.116847912939630   Change is   -0.139808131583343
 Root     45 :    11.218456119058490   Change is   -0.373525606360624
 Root     46 :    11.273191416857180   Change is   -0.277509961956052
 Root     47 :    11.337814544955650   Change is   -0.276290632068615
 Root     48 :    11.541363847863480   Change is   -0.320103655030134
 Root     49 :    11.638001119851430   Change is   -0.253627192910052
 Root     50 :    11.777719218596900   Change is   -0.394815887435946
 Root     51 :    11.845022732749360   Change is   -0.233252636803453
 Root     52 :    12.243996768262320   Change is   -0.383094182415125
 Root     53 :    12.382599418110450   Change is   -0.092874220039365
 Root     54 :    12.474407651279870   Change is   -0.409360839229557
 Root     55 :    12.677173245842870   Change is   -0.250338988261063
 Root     56 :    12.826587066345370   Change is   -0.297261553069143
 Root     57 :    13.065814152473740   Change is   -0.179867287856794
 Root     58 :    13.108816284638920   Change is   -0.169586045430109
 Root     59 :    13.167442402570670
 Root     60 :    13.279122548283170   Change is   -0.434275630483098
 Iteration     3 Dimension   135 NMult   120 NNew     15
 CISAX will form    15 AO SS matrices at one time.
 NMat=    15 NSing=    15 JSym2X= 0.
 Root      1 not converged, maximum delta is    0.001952935859106
 Root      2 not converged, maximum delta is    0.000183018096469
 Root      3 not converged, maximum delta is    0.000275116468565
 Root      4 not converged, maximum delta is    0.000434655741484
 Root      5 not converged, maximum delta is    0.000416926626583
 Root      6 not converged, maximum delta is    0.000333602904074
 Root      7 not converged, maximum delta is    0.002797794826626
 Root      8 not converged, maximum delta is    0.002745576797095
 Root      9 not converged, maximum delta is    0.002416211366648
 Root     10 not converged, maximum delta is    0.000900216342177
 Root     11 not converged, maximum delta is    0.000238618763493
 Root     12 not converged, maximum delta is    0.000897520997592
 Root     13 not converged, maximum delta is    0.001095415134322
 Root     14 not converged, maximum delta is    0.000204893734665
 Root     15 not converged, maximum delta is    0.000159109705323
 Excitation Energies [eV] at current iteration:
 Root      1 :     4.413371076521767   Change is   -0.000490570143419
 Root      2 :     4.776072449145874   Change is   -0.000010850795154
 Root      3 :     5.014507005061572   Change is   -0.000030968430598
 Root      4 :     5.762958806429493   Change is   -0.000017747944959
 Root      5 :     6.154091710119308   Change is   -0.000021822865177
 Root      6 :     6.168885345848705   Change is   -0.000014736617936
 Root      7 :     6.230585236406311   Change is   -0.000747625847001
 Root      8 :     6.524370102306198   Change is   -0.000140495760971
 Root      9 :     6.563444929699744   Change is   -0.000312710227760
 Root     10 :     6.989090041139240   Change is   -0.000116404607607
 Root     11 :     7.138802908394808   Change is   -0.000011622039176
 Root     12 :     7.252814104348183   Change is   -0.000111304825799
 Root     13 :     7.306023114676386   Change is   -0.000089660694015
 Root     14 :     7.561575141031732   Change is   -0.000016683590419
 Root     15 :     7.576062358762139   Change is   -0.000007564346383
 Iteration     4 Dimension   143 NMult   135 NNew      8
 CISAX will form     8 AO SS matrices at one time.
 NMat=     8 NSing=     8 JSym2X= 0.
 Root      1 not converged, maximum delta is    0.000046704589406
 Root      2 not converged, maximum delta is    0.000003331181682
 Root      3 not converged, maximum delta is    0.000011209294498
 Root      4 not converged, maximum delta is    0.000014812943194
 Root      5 not converged, maximum delta is    0.000009218561115
 Root      6 not converged, maximum delta is    0.000007638586185
 Root      7 not converged, maximum delta is    0.000127862384858
 Root      8 not converged, maximum delta is    0.000049025228773
 Root      9 not converged, maximum delta is    0.000079629813832
 Root     10 not converged, maximum delta is    0.000052981325442
 Root     11 not converged, maximum delta is    0.000011981962823
 Root     12 not converged, maximum delta is    0.000038541127283
 Root     13 not converged, maximum delta is    0.000049962837393
 Root     14 not converged, maximum delta is    0.000014464919874
 Root     15 not converged, maximum delta is    0.000004584376676
 Excitation Energies [eV] at current iteration:
 Root      1 :     4.413369918780729   Change is   -0.000001157741038
 Root      2 :     4.776072442844079   Change is   -0.000000006301796
 Root      3 :     5.014506973661375   Change is   -0.000000031400197
 Root      4 :     5.762958727273610   Change is   -0.000000079155884
 Root      5 :     6.154091677201222   Change is   -0.000000032918086
 Root      6 :     6.168885330097067   Change is   -0.000000015751638
 Root      7 :     6.230581532772188   Change is   -0.000003703634123
 Root      8 :     6.524369522835126   Change is   -0.000000579471071
 Root      9 :     6.563443342149045   Change is   -0.000001587550700
 Root     10 :     6.989089304682421   Change is   -0.000000736456818
 Root     11 :     7.138802847772691   Change is   -0.000000060622118
 Root     12 :     7.252813505477169   Change is   -0.000000598871014
 Root     13 :     7.306022363459144   Change is   -0.000000751217243
 Root     14 :     7.561575046030134   Change is   -0.000000095001598
 Root     15 :     7.576062351794638   Change is   -0.000000006967501
 Convergence achieved on expansion vectors.
 ***********************************************************************
 Excited states from <AA,BB:AA,BB> singles matrix:
 ***********************************************************************
 
 1PDM for each excited state written to RWF  633
 Ground to excited state transition densities written to RWF  633
 Ground to excited state transition electric dipole moments (Au):
       state          X           Y           Z        Dip. S.      Osc.
         1        -0.9046      0.3125      0.0756      0.9217      0.0997
         2         0.1042     -0.0051      0.0000      0.0109      0.0013
         3         0.1143      0.3121     -0.1019      0.1208      0.0148
         4         0.0332      0.0277     -0.1061      0.0131      0.0019
         5         0.0858      0.1552     -0.0603      0.0351      0.0053
         6        -0.0080     -0.0798      0.0761      0.0122      0.0018
         7         0.5317      1.3663     -0.0645      2.1536      0.3287
         8        -0.4376      0.4243     -0.0441      0.3735      0.0597
         9         0.7325     -0.3367      0.0956      0.6591      0.1060
        10         0.0609      0.3660      0.0811      0.1442      0.0247
        11        -0.0674      0.0409     -0.0067      0.0063      0.0011
        12         0.0101     -0.0507      0.0732      0.0080      0.0014
        13         0.0023     -0.0714     -0.1129      0.0178      0.0032
        14         0.0747     -0.0294      0.1020      0.0168      0.0031
        15        -0.0787     -0.0253      0.1661      0.0344      0.0064
 Ground to excited state transition velocity dipole moments (Au):
       state          X           Y           Z        Dip. S.      Osc.
         1         0.0316     -0.0311     -0.0176      0.0023      0.0094
         2         0.0050     -0.0003     -0.0088      0.0001      0.0004
         3        -0.0065     -0.0196      0.0223      0.0009      0.0033
         4        -0.0037     -0.0184      0.0295      0.0012      0.0039
         5        -0.0150     -0.0377      0.0553      0.0047      0.0139
         6        -0.0040      0.0170     -0.0609      0.0040      0.0118
         7        -0.0911     -0.2931      0.0059      0.0942      0.2744
         8         0.0798     -0.0893     -0.1342      0.0323      0.0899
         9        -0.1261      0.0744     -0.1247      0.0370      0.1022
        10        -0.0166     -0.0937      0.0275      0.0098      0.0255
        11         0.0090     -0.0055     -0.0044      0.0001      0.0003
        12         0.0024      0.0203      0.0142      0.0006      0.0016
        13        -0.0085      0.0142     -0.0128      0.0004      0.0011
        14        -0.0095     -0.0057     -0.0572      0.0034      0.0081
        15         0.0160     -0.0004     -0.0765      0.0061      0.0146
 Ground to excited state transition magnetic dipole moments (Au):
       state          X           Y           Z
         1        -0.0538     -0.0187     -0.5520
         2         0.0630      0.6075     -0.0042
         3         0.0680     -0.0412      0.0498
         4        -0.3247     -0.0173      0.0310
         5        -0.1601      0.0858      0.0049
         6         0.0243      0.0012      0.0070
         7        -0.3348      0.0044      0.1332
         8        -0.0374      0.1052     -0.0343
         9         0.0943     -0.1364      0.0870
        10         1.6040      0.0276     -0.0310
        11        -0.1079     -0.9416      0.0018
        12        -0.1709      0.3023      0.0109
        13        -0.6680      0.5593     -0.0370
        14        -0.5243      0.0704     -0.0748
        15        -0.4000     -0.0178      0.0573
 Ground to excited state transition velocity quadrupole moments (Au):
       state          XX          YY          ZZ          XY          XZ          YZ
         1        -0.0747      0.0585      0.0052     -0.4601      0.0325     -0.0072
         2         0.0038     -0.0091      0.0048      0.0201      0.1720     -0.0115
         3         0.1105     -0.1404      0.0697      0.0111     -0.0125     -0.0052
         4         0.0134     -0.0087      0.0078      0.0251      0.0834     -0.2233
         5         0.0248     -0.0170      0.0329     -0.0775     -0.1192     -0.2144
         6        -0.0261     -0.0516      0.0444     -0.0195     -0.0121      0.0480
         7         0.3673     -0.2050     -0.0482     -0.1825     -0.0287      0.0847
         8         0.1978     -0.1488     -0.0008      0.2860     -0.0546      0.1119
         9        -0.1641      0.1060      0.0121     -0.4059      0.0062      0.0306
        10         0.1148     -0.0575     -0.0075     -0.0650      0.0492     -0.0791
        11         0.0107      0.0090      0.0026      0.0544      0.2496     -0.0418
        12        -0.0420      0.0433     -0.0460      0.0006     -0.0227      0.1867
        13        -0.0409      0.0180      0.0201     -0.0694      0.1747     -0.1537
        14         0.0082     -0.0387     -0.0132     -0.0603     -0.1980     -0.3301
        15        -0.0006     -0.0501     -0.0079      0.0346     -0.1055     -0.2755
 <0|del|b> * <b|rxdel|0> + <0|del|b> * <b|delr+rdel|0>
 Rotatory Strengths (R) in cgs (10**-40 erg-esu-cm/Gauss)
       state          XX          YY          ZZ    R(velocity)    E-M Angle
         1        42.2241     -0.6886     -4.1485     12.4623       71.10
         2        -0.5342      0.9480      0.2971      0.2369       88.37
         3         3.6920      0.8710      1.0991      1.8874       58.86
         4         5.8626      3.7013     -1.3999      2.7214       77.65
         5       -18.3515     15.8787      0.7008     -0.5907       92.61
         6         1.5336     -2.9685     -0.1434     -0.5261      108.42
         7       -15.4127     38.0480     70.0230     30.8861       74.26
         8       -70.8591     72.1364    -24.2279     -7.6502      111.75
         9        42.7479   -113.2128    -25.9792    -32.1480      155.96
        10        -0.8483    -33.6443    -48.4552    -27.6493      100.92
        11         8.5085     -1.5088      4.3328      3.7775       67.17
        12         8.9834      0.2443      6.4102      5.2126       47.11
        13         9.0094      8.6544     19.5263     12.3967       39.45
        14         7.8795     11.3792      3.2743      7.5110       73.47
        15        -8.9588    -15.9700     -2.4805     -9.1364      109.96
 1/2[<0|r|b>*<b|rxdel|0> + (<0|rxdel|b>*<b|r|0>)*]
 Rotatory Strengths (R) in cgs (10**-40 erg-esu-cm/Gauss)
       state          XX          YY          ZZ     R(length)
         1       -34.4332      4.1286     29.5035     -0.2670
         2        -4.6434      2.2062     -0.0001     -0.8124
         3        -5.4940      9.0897      3.5880      2.3946
         4         7.6200      0.3390      2.3280      3.4290
         5         9.7093     -9.4135      0.2078      0.1679
         6         0.1374      0.0650     -0.3785     -0.0587
         7       125.8861     -4.2276      6.0710     42.5765
         8       -11.5662    -31.5621     -1.0695    -14.7326
         9       -48.8717    -32.4833     -5.8853    -29.0801
        10       -69.0751     -7.1371      1.7800    -24.8108
        11        -5.1394     27.2136      0.0087      7.3610
        12         1.2159     10.8387     -0.5626      3.8307
        13         1.0947     28.2347     -2.9535      8.7919
        14        27.7133      1.4656      5.3940     11.5243
        15       -22.2669     -0.3188     -6.7275     -9.7711
  1/2[<0|del|b>*<b|r|0> + (<0|r|b>*<b|del|0>)*] (Au)
       state          X           Y           Z        Dip. S.   Osc.(frdel)
         1        -0.0286     -0.0097     -0.0013      0.0396      0.0264
         2         0.0005      0.0000      0.0000     -0.0005     -0.0003
         3        -0.0007     -0.0061     -0.0023      0.0091      0.0061
         4        -0.0001     -0.0005     -0.0031      0.0038      0.0025
         5        -0.0013     -0.0058     -0.0033      0.0105      0.0070
         6         0.0000     -0.0014     -0.0046      0.0060      0.0040
         7        -0.0484     -0.4005     -0.0004      0.4493      0.2995
         8        -0.0349     -0.0379      0.0059      0.0669      0.0446
         9        -0.0923     -0.0250     -0.0119      0.1293      0.0862
        10        -0.0010     -0.0343      0.0022      0.0331      0.0221
        11        -0.0006     -0.0002      0.0000      0.0008      0.0005
        12         0.0000     -0.0010      0.0010      0.0000      0.0000
        13         0.0000     -0.0010      0.0014     -0.0004     -0.0003
        14        -0.0007      0.0002     -0.0058      0.0064      0.0042
        15        -0.0013      0.0000     -0.0127      0.0140      0.0093

 Excitation energies and oscillator strengths:
 
 Excited State   1:      Singlet-A      4.4134 eV  280.93 nm  f=0.0997  <S**2>=0.000
      12 -> 15         0.19489
      13 -> 14         0.66996
 This state for optimization and/or second-order correction.
 Total Energy, E(CIS) =  0.196376004141    
 Copying the excited state density for this state as the 1-particle RhoCI density.
 
 Excited State   2:      Singlet-A      4.7761 eV  259.59 nm  f=0.0013  <S**2>=0.000
      13 -> 16         0.68052
      13 -> 20         0.10668
      13 -> 22        -0.10777
 
 Excited State   3:      Singlet-A      5.0145 eV  247.25 nm  f=0.0148  <S**2>=0.000
      12 -> 14        -0.38881
      13 -> 15         0.58431
 
 Excited State   4:      Singlet-A      5.7630 eV  215.14 nm  f=0.0019  <S**2>=0.000
      12 -> 18         0.16737
      12 -> 21         0.11819
      13 -> 17         0.20625
      13 -> 18         0.50661
      13 -> 21         0.25698
      13 -> 22         0.15155
      13 -> 23         0.18215
 
 Excited State   5:      Singlet-A      6.1541 eV  201.47 nm  f=0.0053  <S**2>=0.000
      12 -> 16        -0.11243
      12 -> 19        -0.14234
      12 -> 20         0.11053
      12 -> 22         0.16193
      12 -> 23        -0.11470
      13 -> 17         0.21342
      13 -> 18        -0.10882
      13 -> 19         0.40967
      13 -> 20        -0.17671
      13 -> 22        -0.26450
      13 -> 23         0.20339
 
 Excited State   6:      Singlet-A      6.1689 eV  200.98 nm  f=0.0018  <S**2>=0.000
       7 -> 16        -0.16392
      12 -> 16         0.63860
      12 -> 20         0.11085
      12 -> 22        -0.10416
 
 Excited State   7:      Singlet-A      6.2306 eV  198.99 nm  f=0.3287  <S**2>=0.000
       9 -> 16        -0.10188
      11 -> 14        -0.10388
      12 -> 14         0.53514
      13 -> 15         0.35895
 
 Excited State   8:      Singlet-A      6.5244 eV  190.03 nm  f=0.0597  <S**2>=0.000
      12 -> 15        -0.38317
      13 -> 14         0.10324
      13 -> 17         0.41469
      13 -> 18        -0.12907
      13 -> 19        -0.30713
      13 -> 21        -0.10437
 
 Excited State   9:      Singlet-A      6.5634 eV  188.90 nm  f=0.1060  <S**2>=0.000
      12 -> 15         0.53577
      13 -> 14        -0.14566
      13 -> 17         0.30587
      13 -> 19        -0.22789
 
 Excited State  10:      Singlet-A      6.9891 eV  177.40 nm  f=0.0247  <S**2>=0.000
       9 -> 14        -0.25582
      10 -> 14        -0.16303
      10 -> 15         0.11035
      11 -> 14         0.52504
      11 -> 15         0.24824
      12 -> 14         0.10330
 
 Excited State  11:      Singlet-A      7.1388 eV  173.68 nm  f=0.0011  <S**2>=0.000
      12 -> 17        -0.26812
      12 -> 18         0.18322
      12 -> 19         0.28914
      12 -> 20        -0.10940
      12 -> 21         0.11149
      12 -> 23        -0.10901
      13 -> 18        -0.27032
      13 -> 19         0.14769
      13 -> 20        -0.12587
      13 -> 21         0.17485
      13 -> 22         0.32278
 
 Excited State  12:      Singlet-A      7.2528 eV  170.95 nm  f=0.0014  <S**2>=0.000
      10 -> 14         0.34673
      10 -> 15        -0.17338
      12 -> 17         0.25674
      12 -> 18        -0.11907
      12 -> 19         0.20452
      12 -> 20         0.10296
      12 -> 23         0.10629
      13 -> 17         0.16709
      13 -> 18        -0.12115
      13 -> 19         0.26371
      13 -> 20         0.23198
 
 Excited State  13:      Singlet-A      7.3060 eV  169.70 nm  f=0.0032  <S**2>=0.000
      10 -> 14         0.38484
      10 -> 15        -0.27258
      11 -> 14         0.22444
      11 -> 15         0.14235
      12 -> 17        -0.19346
      12 -> 18         0.16210
      12 -> 20        -0.10794
      12 -> 23        -0.14592
      13 -> 19        -0.11152
      13 -> 22        -0.14937
 
 Excited State  14:      Singlet-A      7.5616 eV  163.97 nm  f=0.0031  <S**2>=0.000
      12 -> 17         0.10773
      12 -> 19        -0.21104
      12 -> 20         0.10953
      12 -> 21        -0.15968
      12 -> 22         0.21888
      12 -> 23         0.22653
      13 -> 17        -0.15155
      13 -> 18        -0.16607
      13 -> 20        -0.15530
      13 -> 22         0.32556
      13 -> 23         0.28977
 
 Excited State  15:      Singlet-A      7.5761 eV  163.65 nm  f=0.0064  <S**2>=0.000
      12 -> 17         0.17260
      12 -> 18         0.35560
      12 -> 19         0.16803
      12 -> 20        -0.10107
      12 -> 22         0.15541
      13 -> 17        -0.15346
      13 -> 18        -0.15253
      13 -> 20         0.27706
      13 -> 22        -0.23190
      13 -> 23         0.15356
      13 -> 24         0.12989
 SavETr:  write IOETrn=   770 NScale= 10 NData=  16 NLR=1 NState=   15 LETran=     280.
 The selected state is a singlet
 CISAX will form     1 AO SS matrices at one time.
 NMat=     1 NSing=     1 JSym2X= 0.
 Leave Link  914 at Tue Dec 15 16:26:27 2015, MaxMem=    33554432 cpu:         0.1
 (Enter /home/Applications/g09/g09/l1002.exe)
 Minotr:  Closed shell wavefunction.
          Computing CIS/TD-HF/TD-KS derivatives.
          Using Z-Vector for PSCF gradient.
          Skipping F1 and S1 gradient terms here.
          IDoAtm=111111111
          Direct CPHF calculation.
          Differentiating once with respect to electric field.
                with respect to dipole field.
          Differentiating once with respect to nuclear coordinates.
          Electric field/nuclear overlap derivatives assumed to be zero.
          Requested convergence is 1.0D-10 RMS, and 1.0D-09 maximum.
          NewPWx=T KeepS1=F KeepF1=F KeepIn=T MapXYZ=F SortEE=F KeepMc=T.
          MDV=      33495423 using IRadAn=       0.
 Keep J ints in memory in canonical form, NReq=871704.
 FoFCou: FMM=F IPFlag=           0 FMFlag=           0 FMFlg1=           0
         NFxFlg=           0 DoJE=F BraDBF=F KetDBF=F FulRan=T
         wScrn=  0.000000 ICntrl=     600 IOpCl=  2 I1Cent=           0 NGrid=           0
         NMat0=    1 NMatS0=     54 NMatT0=    0 NMatD0=    1 NMtDS0=    0 NMtDT0=    0
 Symmetry not used in FoFCou.
          Solving linear equations separately, MaxMat=       0.
          There are     1 degrees of freedom in the 1st order CPHF.  IDoFFX=0 NUNeed=     1.
 LinEq1:  Iter=  0 NonCon=     1 RMS=1.18D-02 Max=7.55D-02 NDo=     1
 AX will form     1 AO Fock derivatives at one time.
 LinEq1:  Iter=  1 NonCon=     1 RMS=2.16D-03 Max=1.50D-02 NDo=     1
 LinEq1:  Iter=  2 NonCon=     1 RMS=3.54D-04 Max=2.96D-03 NDo=     1
 LinEq1:  Iter=  3 NonCon=     1 RMS=5.02D-05 Max=2.80D-04 NDo=     1
 LinEq1:  Iter=  4 NonCon=     1 RMS=5.40D-06 Max=2.06D-05 NDo=     1
 LinEq1:  Iter=  5 NonCon=     1 RMS=9.16D-07 Max=4.79D-06 NDo=     1
 LinEq1:  Iter=  6 NonCon=     1 RMS=1.12D-07 Max=3.38D-07 NDo=     1
 LinEq1:  Iter=  7 NonCon=     1 RMS=1.29D-08 Max=4.87D-08 NDo=     1
 LinEq1:  Iter=  8 NonCon=     1 RMS=1.39D-09 Max=3.61D-09 NDo=     1
 LinEq1:  Iter=  9 NonCon=     1 RMS=1.83D-10 Max=6.81D-10 NDo=     1
 LinEq1:  Iter= 10 NonCon=     0 RMS=2.61D-11 Max=9.29D-11 NDo=     1
 Linear equations converged to 1.000D-10 1.000D-09 after    10 iterations.
 End of Minotr F.D. properties file   721 does not exist.
 End of Minotr F.D. properties file   722 does not exist.
 End of Minotr F.D. properties file   788 does not exist.
 Leave Link 1002 at Tue Dec 15 16:26:27 2015, MaxMem=    33554432 cpu:         0.0
 (Enter /home/Applications/g09/g09/l601.exe)
 Copying SCF densities to generalized density rwf, IOpCl= 0 IROHF=0.

 **********************************************************************

            Population analysis using the SCF density.

 **********************************************************************

 Orbital symmetries:
       Occupied  (A) (A) (A) (A) (A) (A) (A) (A) (A) (A) (A) (A)
                 (A)
       Virtual   (A) (A) (A) (A) (A) (A) (A) (A) (A) (A) (A)
 The electronic state is 1-A.
 Alpha  occ. eigenvalues --   -1.60580  -1.24660  -1.10003  -0.83032  -0.80984
 Alpha  occ. eigenvalues --   -0.69044  -0.62097  -0.56689  -0.50886  -0.49778
 Alpha  occ. eigenvalues --   -0.49199  -0.39726  -0.34184
 Alpha virt. eigenvalues --    0.03237   0.06708   0.09527   0.14066   0.14630
 Alpha virt. eigenvalues --    0.15305   0.17853   0.18442   0.19009   0.20700
 Alpha virt. eigenvalues --    0.23056
     Molecular Orbital Coefficients:
                           1         2         3         4         5
                           O         O         O         O         O
     Eigenvalues --    -1.60580  -1.24660  -1.10003  -0.83032  -0.80984
   1 1   C  1S          0.28329  -0.50082  -0.23660   0.24182  -0.33747
   2        1PX         0.05089  -0.08490   0.17703  -0.26755  -0.15556
   3        1PY        -0.12381   0.04791   0.10543  -0.05152  -0.26998
   4        1PZ         0.00752  -0.01379  -0.00696   0.01194   0.00069
   5 2   C  1S          0.38227  -0.14189  -0.50166   0.04314   0.38593
   6        1PX         0.19225   0.02337   0.01201  -0.09840  -0.09522
   7        1PY        -0.04210  -0.25722  -0.00111   0.36396  -0.09476
   8        1PZ        -0.01652  -0.00055   0.02022   0.00901  -0.00161
   9 3   O  1S          0.64797   0.56854  -0.00381  -0.07582  -0.29633
  10        1PX         0.01472  -0.00012   0.36909   0.48658  -0.13707
  11        1PY         0.20564  -0.03538  -0.04446  -0.01677   0.21569
  12        1PZ         0.01583   0.00680  -0.00073  -0.00188   0.02497
  13 4   C  1S          0.34486  -0.09545   0.53140   0.20186   0.35832
  14        1PX        -0.18751  -0.07363  -0.00304  -0.09196   0.17026
  15        1PY         0.00538  -0.21453   0.01257  -0.34196   0.09527
  16        1PZ        -0.00936  -0.00347  -0.01221  -0.01297   0.01093
  17 5   C  1S          0.25825  -0.45903   0.30522  -0.42390  -0.12150
  18        1PX        -0.08134   0.11457   0.11760  -0.13166   0.23148
  19        1PY        -0.09788   0.02352  -0.13104  -0.06868  -0.27948
  20        1PZ        -0.00193   0.00367  -0.00128   0.00434   0.01422
  21 6   H  1S          0.05015  -0.13125   0.11815  -0.25430  -0.05802
  22 7   H  1S          0.07285  -0.01547   0.20850   0.15679   0.21108
  23 8   H  1S          0.07571  -0.03910  -0.19592   0.01998   0.23430
  24 9   H  1S          0.05799  -0.15535  -0.09167   0.15015  -0.22856
                           6         7         8         9        10
                           O         O         O         O         O
     Eigenvalues --    -0.69044  -0.62097  -0.56689  -0.50886  -0.49778
   1 1   C  1S         -0.07720   0.00160   0.18343  -0.01895  -0.02415
   2        1PX         0.16258   0.00937   0.00499  -0.37006   0.19906
   3        1PY        -0.22514   0.05086   0.17270   0.22722   0.47207
   4        1PZ         0.00794   0.22705  -0.01469  -0.01225  -0.04684
   5 2   C  1S         -0.10440   0.02101  -0.13802   0.01642   0.00246
   6        1PX         0.38674   0.01094   0.36817   0.19433  -0.28764
   7        1PY         0.05374  -0.03964  -0.14577  -0.02805  -0.44464
   8        1PZ         0.00824   0.40662  -0.03255  -0.01684  -0.01864
   9 3   O  1S         -0.19180  -0.01552  -0.02741  -0.09504  -0.14428
  10        1PX         0.08394  -0.00519  -0.41085   0.05418   0.05811
  11        1PY         0.48935  -0.04420   0.06714   0.47517   0.30143
  12        1PZ         0.04118   0.77424  -0.01187   0.01452  -0.00937
  13 4   C  1S         -0.10076   0.01489   0.15889  -0.00361   0.10704
  14        1PX        -0.34792  -0.01003   0.41169  -0.08981  -0.20499
  15        1PY         0.12759  -0.03253  -0.05278  -0.09823  -0.03162
  16        1PZ         0.01044   0.36409   0.00720  -0.01362  -0.03245
  17 5   C  1S         -0.10252   0.00497  -0.18790  -0.03187  -0.02217
  18        1PX        -0.20495  -0.01492  -0.16255   0.44291  -0.26394
  19        1PY        -0.17699   0.02605  -0.09667   0.26800  -0.03896
  20        1PZ         0.00870   0.20162  -0.00020  -0.01222  -0.03361
  21 6   H  1S         -0.21246   0.00106  -0.23459   0.37990  -0.19462
  22 7   H  1S         -0.26695   0.00703   0.35691  -0.01531  -0.04220
  23 8   H  1S         -0.28009   0.00124  -0.30214  -0.12595   0.33964
  24 9   H  1S         -0.20513   0.03260   0.20696   0.29384   0.23551
                          11        12        13        14        15
                           O         O         O         V         V
     Eigenvalues --    -0.49199  -0.39726  -0.34184   0.03237   0.06708
   1 1   C  1S          0.03689  -0.04040   0.01721   0.00384  -0.02785
   2        1PX        -0.36022   0.02932  -0.00440   0.02048   0.01405
   3        1PY         0.16670   0.03216  -0.01987   0.01720  -0.00720
   4        1PZ         0.03027   0.62472  -0.30984  -0.20776   0.63998
   5 2   C  1S         -0.12211   0.01888  -0.03802   0.03883  -0.04648
   6        1PX        -0.06974  -0.00060  -0.02469   0.00295  -0.00811
   7        1PY         0.07023  -0.00210   0.00248   0.00506   0.03347
   8        1PZ         0.00941   0.19342  -0.57222   0.50941  -0.44477
   9 3   O  1S          0.12075   0.00162  -0.00250   0.00498   0.00496
  10        1PX        -0.07035   0.00299   0.00232  -0.00121  -0.02561
  11        1PY        -0.16674   0.06041   0.00938   0.01239   0.00999
  12        1PZ        -0.02102  -0.48265  -0.01222  -0.39432   0.06489
  13 4   C  1S          0.05928  -0.00029   0.02181   0.02756   0.01760
  14        1PX        -0.11433   0.01100  -0.02295  -0.00105  -0.00453
  15        1PY         0.50852  -0.02319  -0.02865  -0.00831  -0.01246
  16        1PZ         0.03308   0.10249   0.63082   0.61554   0.27095
  17 5   C  1S         -0.04040   0.01300   0.00866  -0.02618  -0.01529
  18        1PX         0.19700  -0.03055  -0.00780   0.00516  -0.01041
  19        1PY        -0.49297   0.04964   0.03285  -0.00633  -0.01781
  20        1PZ         0.05933   0.56249   0.41425  -0.39665  -0.55270
  21 6   H  1S         -0.18065  -0.00309   0.00706   0.01881   0.02133
  22 7   H  1S         -0.29205   0.02257  -0.00761  -0.02263  -0.01316
  23 8   H  1S         -0.04716   0.01055   0.02221  -0.02689   0.04368
  24 9   H  1S          0.29017   0.00747  -0.01903  -0.00165   0.02575
                          16        17        18        19        20
                           V         V         V         V         V
     Eigenvalues --     0.09527   0.14066   0.14630   0.15305   0.17853
   1 1   C  1S          0.03114   0.26943   0.08776   0.18609  -0.03749
   2        1PX         0.00792   0.17241  -0.15961  -0.29592   0.42348
   3        1PY         0.05302  -0.08185   0.27200  -0.10891   0.14726
   4        1PZ        -0.02619  -0.00029   0.01497   0.01619  -0.00446
   5 2   C  1S         -0.29409  -0.28383   0.07532  -0.24642   0.28599
   6        1PX        -0.09052   0.26846  -0.22453  -0.27408  -0.25081
   7        1PY         0.35822  -0.04703   0.14358  -0.12729   0.11644
   8        1PZ         0.04946   0.03682  -0.01277   0.03818  -0.04523
   9 3   O  1S          0.24532  -0.02197   0.05315   0.00108   0.09052
  10        1PX         0.07684  -0.05874  -0.12588  -0.23819   0.18988
  11        1PY         0.44742  -0.04651   0.08276   0.05182   0.11714
  12        1PZ         0.04702  -0.00772   0.02169  -0.00366   0.03230
  13 4   C  1S         -0.27672   0.26275   0.39541  -0.03052  -0.08198
  14        1PX         0.30004   0.15652   0.11067  -0.35092   0.25992
  15        1PY         0.29002  -0.04062   0.22291   0.09856   0.16786
  16        1PZ         0.02877  -0.03044  -0.02286  -0.00432  -0.00117
  17 5   C  1S          0.04351  -0.37070  -0.09680  -0.15920  -0.33365
  18        1PX         0.02733   0.06692  -0.12399  -0.31793  -0.04824
  19        1PY         0.03452  -0.05898   0.46251  -0.13170  -0.25190
  20        1PZ        -0.00594   0.03904  -0.01798   0.00655   0.02963
  21 6   H  1S         -0.13167   0.32926  -0.13383   0.45014   0.40806
  22 7   H  1S          0.27362  -0.38692  -0.30130   0.34605  -0.02965
  23 8   H  1S          0.37552   0.47005  -0.22505  -0.07287  -0.34611
  24 9   H  1S         -0.11360  -0.08091  -0.41548  -0.21780   0.10305
                          21        22        23        24
                           V         V         V         V
     Eigenvalues --     0.18442   0.19009   0.20700   0.23056
   1 1   C  1S         -0.43728  -0.05183   0.28601   0.05430
   2        1PX         0.00720   0.18177   0.30621  -0.28230
   3        1PY        -0.28482   0.39238  -0.38101  -0.10621
   4        1PZ        -0.05080  -0.00672   0.03048   0.02660
   5 2   C  1S         -0.04404   0.20417  -0.11851   0.08560
   6        1PX         0.03787   0.38827  -0.24570   0.22594
   7        1PY         0.22373   0.18442  -0.23922  -0.48799
   8        1PZ         0.01914  -0.03533   0.01190  -0.02551
   9 3   O  1S          0.01974  -0.09250   0.00380  -0.02018
  10        1PX        -0.11936   0.02261   0.00422   0.53613
  11        1PY        -0.03056  -0.27803   0.01523  -0.09616
  12        1PZ         0.00627  -0.01669  -0.00099  -0.01159
  13 4   C  1S          0.20722  -0.00997   0.06108  -0.10905
  14        1PX        -0.04195  -0.37613  -0.16812   0.28020
  15        1PY         0.23520   0.31560   0.26424   0.37247
  16        1PZ        -0.01609   0.00335   0.00483   0.03282
  17 5   C  1S         -0.07986  -0.21041  -0.21998  -0.02144
  18        1PX        -0.38926   0.10320   0.42798  -0.22748
  19        1PY         0.32101   0.12132   0.30218   0.14070
  20        1PZ         0.00424  -0.00203  -0.00380  -0.02411
  21 6   H  1S          0.11751   0.02765  -0.22860   0.05255
  22 7   H  1S         -0.01290   0.36184   0.16068   0.04101
  23 8   H  1S          0.10047   0.16930  -0.12677   0.00975
  24 9   H  1S          0.51992  -0.15727   0.16559  -0.06039
     Density Matrix:
                           1         2         3         4         5
   1 1   C  1S          1.20652
   2        1PX        -0.04223   0.94134
   3        1PY         0.06516  -0.04064   0.98215
   4        1PZ        -0.03540   0.00870   0.02100   1.08361
   5 2   C  1S          0.30945  -0.21446  -0.45359   0.06927   1.23220
   6        1PX         0.17249   0.02385  -0.23272   0.03240  -0.11175
   7        1PY         0.44037  -0.31800  -0.48874   0.04461   0.00701
   8        1PZ        -0.05793   0.02587   0.04772   0.78442   0.03899
   9 3   O  1S          0.00155  -0.03609  -0.00261   0.00935   0.11651
  10        1PX        -0.01225  -0.02856  -0.02605   0.00884  -0.30799
  11        1PY        -0.08119   0.00393   0.06838   0.01000   0.31371
  12        1PZ         0.01343  -0.00632  -0.00042  -0.24360   0.04550
  13 4   C  1S         -0.03067  -0.00857   0.02330  -0.01400   0.01363
  14        1PX         0.01746  -0.05256  -0.01674   0.01756  -0.01123
  15        1PY        -0.01321  -0.07223  -0.01974   0.01152  -0.04329
  16        1PZ         0.01045  -0.01707  -0.01460  -0.09237  -0.02825
  17 5   C  1S          0.28413   0.48635  -0.00092   0.01944  -0.02684
  18        1PX        -0.45175  -0.63275  -0.00478  -0.02163   0.00623
  19        1PY         0.08283   0.14924   0.12835   0.01845   0.02143
  20        1PZ        -0.03717  -0.01916   0.01117   0.54485  -0.00849
  21 6   H  1S         -0.05094  -0.07681   0.00039  -0.00967   0.05446
  22 7   H  1S          0.04263   0.05751  -0.00390   0.01068   0.05690
  23 8   H  1S         -0.05650   0.03016   0.07701  -0.02144   0.59781
  24 9   H  1S          0.56406  -0.40560   0.68040   0.02460  -0.05432
                           6         7         8         9        10
   6        1PX         0.93522
   7        1PY         0.08653   0.87704
   8        1PZ         0.01483   0.00183   1.06560
   9 3   O  1S          0.20744  -0.20687  -0.02226   1.83779
  10        1PX        -0.29552   0.44278   0.04075  -0.03000   1.15827
  11        1PY         0.49954  -0.33391  -0.05956  -0.30613   0.03561
  12        1PZ         0.05721  -0.05789   0.45716  -0.03207   0.00037
  13 4   C  1S          0.00000  -0.04696  -0.01504   0.10485   0.35684
  14        1PX         0.04396  -0.03104   0.00230  -0.25369  -0.55801
  15        1PY         0.01114  -0.02039   0.01105  -0.13605  -0.37042
  16        1PZ        -0.00475  -0.00179  -0.38466  -0.01907  -0.03922
  17 5   C  1S         -0.02025  -0.01262   0.00790  -0.00116  -0.00929
  18        1PX        -0.02290   0.07212  -0.00499   0.03422  -0.01850
  19        1PY         0.01320  -0.04319  -0.01310  -0.00942   0.05393
  20        1PZ        -0.00799   0.02236  -0.08955   0.00910  -0.00945
  21 6   H  1S          0.02449   0.06083  -0.00671   0.02240   0.05822
  22 7   H  1S          0.07713  -0.06058   0.00029  -0.04636  -0.05276
  23 8   H  1S         -0.70394  -0.25934  -0.02537  -0.04831   0.04668
  24 9   H  1S         -0.03957  -0.04241   0.01910   0.02461  -0.04364
                          11        12        13        14        15
  11        1PY         1.37286
  12        1PZ        -0.05619   1.67209
  13 4   C  1S          0.21224   0.03211   1.26131
  14        1PX        -0.44936  -0.05606   0.10923   0.86497
  15        1PY        -0.09583  -0.03589  -0.00222  -0.09162   0.92590
  16        1PZ        -0.03769   0.44922   0.01938  -0.01695  -0.01228
  17 5   C  1S         -0.08108  -0.01085   0.28409  -0.05406   0.43299
  18        1PX         0.02343   0.01395   0.11228   0.10832   0.18480
  19        1PY         0.06519  -0.00771  -0.50088   0.07467  -0.61312
  20        1PZ         0.01978  -0.24170   0.03040  -0.01026   0.00228
  21 6   H  1S          0.06709   0.01249  -0.05624   0.03394  -0.05315
  22 7   H  1S         -0.05566  -0.01681   0.61289   0.58390  -0.45257
  23 8   H  1S         -0.06060  -0.01897   0.05689  -0.10586  -0.04248
  24 9   H  1S          0.08852   0.00172   0.05899  -0.00591   0.06566
                          16        17        18        19        20
  16        1PZ         1.08807
  17 5   C  1S          0.01124   1.22847
  18        1PX        -0.00916   0.04955   0.95756
  19        1PY         0.02866   0.07322   0.04258   0.94278
  20        1PZ         0.79161   0.00728  -0.01375   0.02044   1.06753
  21 6   H  1S         -0.00601   0.57900   0.56114   0.53808  -0.02375
  22 7   H  1S         -0.02225  -0.05754  -0.02436   0.10148  -0.00787
  23 8   H  1S          0.00740   0.04995  -0.06157   0.01364   0.00742
  24 9   H  1S         -0.01079  -0.04329   0.05403  -0.00066   0.00722
                          21        22        23        24
  21 6   H  1S          0.83361
  22 7   H  1S          0.01246   0.80946
  23 8   H  1S         -0.01562  -0.02751   0.80946
  24 9   H  1S         -0.00833  -0.01440   0.00357   0.84617
    Full Mulliken population analysis:
                           1         2         3         4         5
   1 1   C  1S          1.20652
   2        1PX         0.00000   0.94134
   3        1PY         0.00000   0.00000   0.98215
   4        1PZ         0.00000   0.00000   0.00000   1.08361
   5 2   C  1S          0.00000   0.00000   0.00000   0.00000   1.23220
   6        1PX         0.00000   0.00000   0.00000   0.00000   0.00000
   7        1PY         0.00000   0.00000   0.00000   0.00000   0.00000
   8        1PZ         0.00000   0.00000   0.00000   0.00000   0.00000
   9 3   O  1S          0.00000   0.00000   0.00000   0.00000   0.00000
  10        1PX         0.00000   0.00000   0.00000   0.00000   0.00000
  11        1PY         0.00000   0.00000   0.00000   0.00000   0.00000
  12        1PZ         0.00000   0.00000   0.00000   0.00000   0.00000
  13 4   C  1S          0.00000   0.00000   0.00000   0.00000   0.00000
  14        1PX         0.00000   0.00000   0.00000   0.00000   0.00000
  15        1PY         0.00000   0.00000   0.00000   0.00000   0.00000
  16        1PZ         0.00000   0.00000   0.00000   0.00000   0.00000
  17 5   C  1S          0.00000   0.00000   0.00000   0.00000   0.00000
  18        1PX         0.00000   0.00000   0.00000   0.00000   0.00000
  19        1PY         0.00000   0.00000   0.00000   0.00000   0.00000
  20        1PZ         0.00000   0.00000   0.00000   0.00000   0.00000
  21 6   H  1S          0.00000   0.00000   0.00000   0.00000   0.00000
  22 7   H  1S          0.00000   0.00000   0.00000   0.00000   0.00000
  23 8   H  1S          0.00000   0.00000   0.00000   0.00000   0.00000
  24 9   H  1S          0.00000   0.00000   0.00000   0.00000   0.00000
                           6         7         8         9        10
   6        1PX         0.93522
   7        1PY         0.00000   0.87704
   8        1PZ         0.00000   0.00000   1.06560
   9 3   O  1S          0.00000   0.00000   0.00000   1.83779
  10        1PX         0.00000   0.00000   0.00000   0.00000   1.15827
  11        1PY         0.00000   0.00000   0.00000   0.00000   0.00000
  12        1PZ         0.00000   0.00000   0.00000   0.00000   0.00000
  13 4   C  1S          0.00000   0.00000   0.00000   0.00000   0.00000
  14        1PX         0.00000   0.00000   0.00000   0.00000   0.00000
  15        1PY         0.00000   0.00000   0.00000   0.00000   0.00000
  16        1PZ         0.00000   0.00000   0.00000   0.00000   0.00000
  17 5   C  1S          0.00000   0.00000   0.00000   0.00000   0.00000
  18        1PX         0.00000   0.00000   0.00000   0.00000   0.00000
  19        1PY         0.00000   0.00000   0.00000   0.00000   0.00000
  20        1PZ         0.00000   0.00000   0.00000   0.00000   0.00000
  21 6   H  1S          0.00000   0.00000   0.00000   0.00000   0.00000
  22 7   H  1S          0.00000   0.00000   0.00000   0.00000   0.00000
  23 8   H  1S          0.00000   0.00000   0.00000   0.00000   0.00000
  24 9   H  1S          0.00000   0.00000   0.00000   0.00000   0.00000
                          11        12        13        14        15
  11        1PY         1.37286
  12        1PZ         0.00000   1.67209
  13 4   C  1S          0.00000   0.00000   1.26131
  14        1PX         0.00000   0.00000   0.00000   0.86497
  15        1PY         0.00000   0.00000   0.00000   0.00000   0.92590
  16        1PZ         0.00000   0.00000   0.00000   0.00000   0.00000
  17 5   C  1S          0.00000   0.00000   0.00000   0.00000   0.00000
  18        1PX         0.00000   0.00000   0.00000   0.00000   0.00000
  19        1PY         0.00000   0.00000   0.00000   0.00000   0.00000
  20        1PZ         0.00000   0.00000   0.00000   0.00000   0.00000
  21 6   H  1S          0.00000   0.00000   0.00000   0.00000   0.00000
  22 7   H  1S          0.00000   0.00000   0.00000   0.00000   0.00000
  23 8   H  1S          0.00000   0.00000   0.00000   0.00000   0.00000
  24 9   H  1S          0.00000   0.00000   0.00000   0.00000   0.00000
                          16        17        18        19        20
  16        1PZ         1.08807
  17 5   C  1S          0.00000   1.22847
  18        1PX         0.00000   0.00000   0.95756
  19        1PY         0.00000   0.00000   0.00000   0.94278
  20        1PZ         0.00000   0.00000   0.00000   0.00000   1.06753
  21 6   H  1S          0.00000   0.00000   0.00000   0.00000   0.00000
  22 7   H  1S          0.00000   0.00000   0.00000   0.00000   0.00000
  23 8   H  1S          0.00000   0.00000   0.00000   0.00000   0.00000
  24 9   H  1S          0.00000   0.00000   0.00000   0.00000   0.00000
                          21        22        23        24
  21 6   H  1S          0.83361
  22 7   H  1S          0.00000   0.80946
  23 8   H  1S          0.00000   0.00000   0.80946
  24 9   H  1S          0.00000   0.00000   0.00000   0.84617
     Gross orbital populations:
                           1
   1 1   C  1S          1.20652
   2        1PX         0.94134
   3        1PY         0.98215
   4        1PZ         1.08361
   5 2   C  1S          1.23220
   6        1PX         0.93522
   7        1PY         0.87704
   8        1PZ         1.06560
   9 3   O  1S          1.83779
  10        1PX         1.15827
  11        1PY         1.37286
  12        1PZ         1.67209
  13 4   C  1S          1.26131
  14        1PX         0.86497
  15        1PY         0.92590
  16        1PZ         1.08807
  17 5   C  1S          1.22847
  18        1PX         0.95756
  19        1PY         0.94278
  20        1PZ         1.06753
  21 6   H  1S          0.83361
  22 7   H  1S          0.80946
  23 8   H  1S          0.80946
  24 9   H  1S          0.84617
          Condensed to atoms (all electrons):
               1          2          3          4          5          6
     1  C    4.213621   0.000000   0.000000   0.000000   0.000000   0.000000
     2  C    0.000000   4.110075   0.000000   0.000000   0.000000   0.000000
     3  O    0.000000   0.000000   6.041020   0.000000   0.000000   0.000000
     4  C    0.000000   0.000000   0.000000   4.140247   0.000000   0.000000
     5  C    0.000000   0.000000   0.000000   0.000000   4.196341   0.000000
     6  H    0.000000   0.000000   0.000000   0.000000   0.000000   0.833606
     7  H    0.000000   0.000000   0.000000   0.000000   0.000000   0.000000
     8  H    0.000000   0.000000   0.000000   0.000000   0.000000   0.000000
     9  H    0.000000   0.000000   0.000000   0.000000   0.000000   0.000000
               7          8          9
     1  C    0.000000   0.000000   0.000000
     2  C    0.000000   0.000000   0.000000
     3  O    0.000000   0.000000   0.000000
     4  C    0.000000   0.000000   0.000000
     5  C    0.000000   0.000000   0.000000
     6  H    0.000000   0.000000   0.000000
     7  H    0.809458   0.000000   0.000000
     8  H    0.000000   0.809458   0.000000
     9  H    0.000000   0.000000   0.846175
 Mulliken charges:
               1
     1  C   -0.213621
     2  C   -0.110075
     3  O   -0.041020
     4  C   -0.140247
     5  C   -0.196341
     6  H    0.166394
     7  H    0.190542
     8  H    0.190542
     9  H    0.153825
 Sum of Mulliken charges =   0.00000
 Mulliken charges with hydrogens summed into heavy atoms:
               1
     1  C   -0.059796
     2  C    0.080467
     3  O   -0.041020
     4  C    0.050295
     5  C   -0.029947
 Charge=              0.0000 electrons
 Dipole moment (field-independent basis, Debye):
    X=              0.0453    Y=              0.2161    Z=             -0.1002  Tot=              0.2425
 N-N= 1.040980886961D+02 E-N=-1.720931958119D+02  KE=-1.661735631332D+01
 Orbital energies and kinetic energies (alpha):
                                 1                 2
   1         O                -1.605804         -1.340036
   2         O                -1.246599         -1.058818
   3         O                -1.100029         -0.957032
   4         O                -0.830317         -0.705250
   5         O                -0.809838         -0.715859
   6         O                -0.690436         -0.605564
   7         O                -0.620974         -0.499207
   8         O                -0.566892         -0.508922
   9         O                -0.508864         -0.434619
  10         O                -0.497782         -0.412711
  11         O                -0.491987         -0.416175
  12         O                -0.397259         -0.344629
  13         O                -0.341844         -0.309858
  14         V                 0.032375         -0.190326
  15         V                 0.067084         -0.188698
  16         V                 0.095266         -0.194908
  17         V                 0.140656         -0.249155
  18         V                 0.146301         -0.194774
  19         V                 0.153046         -0.190382
  20         V                 0.178528         -0.169417
  21         V                 0.184415         -0.175737
  22         V                 0.190089         -0.123108
  23         V                 0.206996         -0.118323
  24         V                 0.230556         -0.032045
 Total kinetic energy from orbitals=-1.661735631332D+01
 Leave Link  601 at Tue Dec 15 16:26:27 2015, MaxMem=    33554432 cpu:         0.0
 (Enter /home/Applications/g09/g09/l701.exe)
 Compute integral first derivatives.
 ... and contract with generalized density number  6.
 Leave Link  701 at Tue Dec 15 16:26:27 2015, MaxMem=    33554432 cpu:         0.0
 (Enter /home/Applications/g09/g09/l702.exe)
 L702 exits ... SP integral derivatives will be done elsewhere.
 Leave Link  702 at Tue Dec 15 16:26:27 2015, MaxMem=    33554432 cpu:         0.0
 (Enter /home/Applications/g09/g09/l703.exe)
 Compute integral first derivatives, UseDBF=F ICtDFT=           0.
 Integral derivatives from FoFJK, PRISM(SPDF).
 Calling FoFJK, ICntrl=  10005127 FMM=F ISym2X=0 I1Cent= 0 IOpClX= 0 NMat=1 NMatS=1 NMatT=0.
 FoFJK:  IHMeth= 8 ICntrl=10005127 DoSepK=F KAlg= 0 I1Cent=   0 FoldK=F
 IRaf=         0 NMat=   1 IRICut=       1 DoRegI=T DoRafI=F ISym2E= 0.
 FoFCou: FMM=F IPFlag=           0 FMFlag=      100000 FMFlg1=         800
         NFxFlg=           0 DoJE=F BraDBF=F KetDBF=F FulRan=T
         wScrn=  0.000000 ICntrl=10005127 IOpCl=  0 I1Cent=           0 NGrid=           0
         NMat0=    1 NMatS0=      1 NMatT0=    0 NMatD0=    1 NMtDS0=    0 NMtDT0=    0
 Symmetry not used in FoFCou.
 Leave Link  703 at Tue Dec 15 16:26:27 2015, MaxMem=    33554432 cpu:         0.0
 (Enter /home/Applications/g09/g09/l716.exe)
 Dipole        =-4.99578005D-02 1.99482109D-01-3.47004620D-02
 ***** Axes restored to original set *****
 -------------------------------------------------------------------
 Center     Atomic                   Forces (Hartrees/Bohr)
 Number     Number              X              Y              Z
 -------------------------------------------------------------------
      1        6           0.164830920   -0.006571450   -0.013113030
      2        6          -0.048238638   -0.150283535    0.006729336
      3        8          -0.166601155    0.030619353    0.007610859
      4        6           0.005665679    0.078222709   -0.002239997
      5        6           0.065099341    0.045528597    0.008395576
      6        1          -0.009754020   -0.022384515   -0.002908927
      7        1          -0.003693795    0.009976487   -0.002712862
      8        1          -0.006427353    0.013570582   -0.006882961
      9        1          -0.000880978    0.001321772    0.005122006
 -------------------------------------------------------------------
 Cartesian Forces:  Max     0.166601155 RMS     0.059209970
 Z-matrix is all fixed cartesians, so copy forces.
 Force constants in Cartesian coordinates: 
                1             2             3             4             5 
      1  0.971717D+00
      2  0.740995D-02  0.860003D+00
      3  0.179387D-01 -0.156224D-02  0.230578D+00
      4 -0.573393D+00 -0.115235D+00 -0.345729D-01  0.101296D+01
      5 -0.903136D-01 -0.218735D+00 -0.109827D-01 -0.453875D-01  0.962024D+00
      6 -0.333873D-01 -0.909086D-02 -0.107882D+00 -0.547148D-02  0.249522D-01
      7 -0.856918D-02  0.313045D-01  0.392518D-02 -0.330421D+00  0.214486D+00
      8 -0.603365D-02  0.222791D-01  0.143112D-02  0.263325D+00 -0.462196D+00
      9 -0.184687D-02  0.349958D-02  0.112799D-01  0.346594D-01 -0.331163D-01
     10  0.107529D-01 -0.595060D-03 -0.306805D-03  0.254618D-01  0.186302D-01
     11  0.341499D-01 -0.207720D-02  0.891424D-03 -0.188544D-01 -0.138188D-01
     12 -0.270427D-02  0.814110D-03 -0.258058D-02 -0.369617D-02 -0.314340D-02
     13 -0.177315D+00 -0.668857D-02 -0.195974D-03  0.948482D-02 -0.363856D-01
     14 -0.333527D-01 -0.475321D+00  0.194552D-01 -0.570999D-03  0.204289D-02
     15 -0.884082D-03  0.237607D-01 -0.979473D-01  0.631046D-03 -0.470716D-02
     16  0.188758D-01 -0.117290D-02 -0.740725D-04  0.447141D-04 -0.306839D-04
     17 -0.212597D-01  0.125677D-02 -0.134476D-02 -0.231731D-04  0.159019D-04
     18  0.349643D-02  0.874056D-03  0.242423D-01 -0.453475D-03  0.311185D-03
     19  0.000000D+00 -0.722221D-05 -0.161602D-03  0.616622D-04  0.000000D+00
     20 -0.169829D-05 -0.156726D-04 -0.350684D-03  0.419160D-05  0.000000D+00
     21  0.272598D-04  0.251566D-03  0.562894D-02  0.618197D-03 -0.974574D-05
     22  0.700439D-02 -0.267884D-01  0.217250D-02 -0.139187D+00 -0.793660D-01
     23 -0.292694D-02  0.108053D-01  0.849571D-03 -0.772098D-01 -0.291979D+00
     24 -0.171451D-03 -0.496326D-02  0.253450D-01  0.109791D-01  0.220193D-01
     25 -0.249073D+00  0.111772D+00  0.112749D-01 -0.500969D-02  0.183682D-01
     26  0.112328D+00 -0.198196D+00 -0.838685D-02 -0.604917D-02  0.226463D-01
     27  0.175315D-01 -0.135837D-01 -0.886638D-01 -0.269368D-02  0.467659D-02
                6             7             8             9            10 
      6  0.206492D+00
      7  0.282330D-01  0.602169D+00
      8 -0.323697D-01 -0.376424D-01  0.833583D+00
      9 -0.578330D-01 -0.547315D-01  0.539485D-02  0.695093D-01
     10 -0.318007D-02 -0.298537D+00 -0.226663D+00  0.276826D-01  0.864289D+00
     11  0.224190D-02 -0.181936D+00 -0.398760D+00  0.250721D-01  0.398398D-02
     12 -0.238645D-02  0.249877D-01  0.270891D-01 -0.502000D-01 -0.266787D-01
     13  0.329299D-02 -0.897338D-02  0.648352D-02  0.295610D-03 -0.424052D+00
     14 -0.359309D-03 -0.284804D-01  0.207935D-01 -0.152867D-03  0.931379D-01
     15 -0.111777D-02  0.319499D-02 -0.646265D-03  0.748931D-02 -0.726373D-02
     16 -0.620414D-03 -0.121716D-05 -0.665892D-05 -0.949652D-04 -0.567382D-02
     17  0.321529D-03 -0.214260D-05 -0.117219D-04 -0.167170D-03  0.635540D-02
     18  0.629202D-02  0.594466D-04  0.325225D-03  0.463814D-02 -0.456610D-03
     19  0.553211D-03  0.217887D-01 -0.160450D-01 -0.212591D-02 -0.172341D+00
     20  0.376055D-04  0.118301D-01 -0.872513D-02 -0.132497D-02  0.105140D+00
     21  0.554624D-02 -0.240082D-02  0.205742D-02  0.387733D-02  0.944687D-02
     22  0.855640D-02  0.225377D-01  0.165608D-01 -0.363401D-02  0.973479D-04
     23  0.139333D-01 -0.958906D-02 -0.706293D-02  0.175095D-02  0.101119D-04
     24 -0.737024D-01 -0.302604D-02 -0.246679D-02  0.344766D-02  0.731655D-03
     25  0.202362D-02  0.634680D-05  0.213750D-04 -0.204366D-03  0.252771D-05
     26  0.333272D-03  0.296952D-04  0.100009D-03 -0.956180D-03  0.000000D+00
     27  0.245918D-01 -0.241974D-03 -0.814929D-03  0.779151D-02  0.247142D-04
               11            12            13            14            15 
     11  0.900459D+00
     12 -0.167899D-01  0.181823D+00
     13  0.685255D-01  0.590943D-03  0.795187D+00
     14 -0.198450D+00  0.126455D-02  0.475765D-01  0.840776D+00
     15  0.349546D-02 -0.878923D-01  0.106697D-01 -0.149103D-01  0.207172D+00
     16 -0.181342D-01 -0.141283D-02 -0.220130D+00 -0.102158D+00 -0.743911D-02
     17  0.202797D-01  0.457123D-03 -0.106496D+00 -0.201796D+00 -0.557398D-02
     18 -0.900326D-03  0.190003D-01 -0.105907D-01 -0.723339D-02 -0.805786D-01
     19  0.112244D+00  0.751795D-02  0.782100D-02  0.249909D-01  0.174229D-02
     20 -0.307641D+00 -0.997959D-02  0.421071D-02  0.134227D-01 -0.156035D-03
     21 -0.142272D-01 -0.694310D-01 -0.100686D-03  0.361140D-03  0.233246D-01
     22 -0.153467D-05  0.873370D-03  0.454740D-04 -0.312054D-04 -0.630958D-03
     23  0.000000D+00  0.907207D-04 -0.551079D-04  0.378164D-04  0.764630D-03
     24 -0.115344D-04  0.656415D-02 -0.522917D-03  0.358839D-03  0.725555D-02
     25  0.233268D-04  0.521952D-03  0.179331D-01 -0.111206D-02 -0.201934D-04
     26  0.881600D-05  0.197264D-03  0.228286D-01 -0.150568D-02 -0.202707D-02
     27  0.228073D-03  0.510328D-02 -0.343898D-02  0.121617D-02  0.222950D-01
               16            17            18            19            20 
     16  0.206801D+00
     17  0.121479D+00  0.180291D+00
     18  0.861554D-02  0.647138D-02  0.430517D-01
     19 -0.463074D-05 -0.815163D-05  0.226167D-03  0.142675D+00
     20 -0.100489D-04 -0.176894D-04  0.490794D-03 -0.121173D+00  0.302977D+00
     21  0.161299D-03  0.283939D-03 -0.787791D-02 -0.775212D-02  0.112829D-01
     22  0.000000D+00  0.000000D+00  0.000000D+00  0.000000D+00  0.000000D+00
     23  0.000000D+00  0.000000D+00  0.000000D+00  0.000000D+00  0.000000D+00
     24  0.000000D+00  0.000000D+00  0.000000D+00  0.000000D+00  0.000000D+00
     25  0.884243D-04 -0.458258D-04 -0.896768D-03  0.000000D+00  0.000000D+00
     26  0.334186D-04 -0.173192D-04 -0.338920D-03  0.000000D+00  0.000000D+00
     27  0.864551D-03 -0.448053D-03 -0.876798D-02  0.000000D+00  0.000000D+00
               21            22            23            24            25 
     21  0.389318D-01
     22  0.000000D+00  0.109527D+00
     23  0.000000D+00  0.897410D-01  0.288060D+00
     24  0.000000D+00 -0.827235D-02 -0.162561D-01  0.418424D-01
     25  0.000000D+00 -0.245257D-04  0.297216D-04  0.282027D-03  0.236076D+00
     26  0.000000D+00 -0.114750D-03  0.139060D-03  0.131954D-02 -0.129057D+00
     27  0.000000D+00  0.935049D-03 -0.113314D-02 -0.107524D-01 -0.129812D-01
               26            27 
     26  0.176825D+00
     27  0.985895D-02  0.484025D-01
 Leave Link  716 at Tue Dec 15 16:26:27 2015, MaxMem=    33554432 cpu:         0.0
 (Enter /home/Applications/g09/g09/l103.exe)

 GradGradGradGradGradGradGradGradGradGradGradGradGradGradGradGradGradGrad
 Berny optimization.
 Search for a local minimum.
 Step number   1 out of a maximum of    2
 All quantities printed in internal units (Hartrees-Bohrs-Radians)
 Second derivative matrix not updated -- first step.
 ITU=  0
     Eigenvalues ---    0.01991   0.03430   0.06804   0.07205   0.07747
     Eigenvalues ---    0.08817   0.13052   0.15561   0.16230   0.23705
     Eigenvalues ---    0.25728   0.30037   0.40274   0.44047   0.61691
     Eigenvalues ---    0.80540   1.14472   1.40219   1.43626   1.57409
     Eigenvalues ---    1.77718
 Quadratic step=5.442D-01 exceeds max=3.000D-01 adjusted using Lamda=-2.255D-01.
 Angle between NR and scaled steps=  23.64 degrees.
 Angle between quadratic step and forces=  27.48 degrees.
 Linear search not attempted -- first point.
 TrRot= -0.008080  0.000475  0.001273 -0.313551  0.000300  0.314644
 Variable       Old X    -DE/DX   Delta X   Delta X   Delta X     New X
                                 (Linear)    (Quad)   (Total)
    X1        1.72138   0.16483   0.00000   0.14751   0.14094   1.86233
    Y1       -1.35551  -0.00657   0.00000  -0.01887  -0.01635  -1.37186
    Z1        0.06444  -0.01311   0.00000  -0.02966  -0.02905   0.03539
    X2       -0.69700  -0.04824   0.00000  -0.02936  -0.03517  -0.73217
    Y2       -1.99940  -0.15028   0.00000  -0.09084  -0.09116  -2.09055
    Z2       -0.07801   0.00673   0.00000   0.03304   0.03433  -0.04368
    X3       -2.14137  -0.16660   0.00000  -0.17541  -0.18349  -2.32486
    Y3        0.00235   0.03062   0.00000   0.01191   0.00985   0.01220
    Z3        0.08650   0.00761   0.00000  -0.00981  -0.00787   0.07863
    X4       -0.64771   0.00567   0.00000  -0.01531  -0.02572  -0.67343
    Y4        2.05228   0.07822   0.00000   0.05936   0.05911   2.11140
    Z4       -0.07638  -0.00224   0.00000   0.00657   0.00823  -0.06815
    X5        1.88335   0.06510   0.00000   0.07883   0.06931   1.95267
    Y5        1.25856   0.04553   0.00000   0.04160   0.04422   1.30278
    Z5       -0.05317   0.00840   0.00000   0.01460   0.01543  -0.03774
    X6        3.45728  -0.00975   0.00000   0.03316   0.02220   3.47948
    Y6        2.66966  -0.02238   0.00000  -0.02044  -0.01616   2.65351
    Z6        0.02992  -0.00291   0.00000  -0.00326  -0.00274   0.02718
    X7       -1.60718  -0.00369   0.00000  -0.00504  -0.01737  -1.62455
    Y7        3.83640   0.00998   0.00000   0.05853   0.05724   3.89364
    Z7        0.00722  -0.00271   0.00000  -0.01150  -0.00940  -0.00218
    X8       -1.50096  -0.00643   0.00000  -0.03946  -0.04321  -1.54417
    Y8       -3.93116   0.01357   0.00000  -0.02538  -0.02659  -3.95775
    Z8        0.05566  -0.00688   0.00000  -0.01088  -0.00954   0.04612
    X9        3.34103  -0.00088   0.00000   0.07768   0.07250   3.41352
    Y9       -2.64527   0.00132   0.00000  -0.02438  -0.02017  -2.66544
    Z9       -0.05136   0.00512   0.00000   0.00056   0.00061  -0.05074
         Item               Value     Threshold  Converged?
 Maximum Force            0.166601     0.000450     NO 
 RMS     Force            0.059210     0.000300     NO 
 Maximum Displacement     0.183486     0.001800     NO 
 RMS     Displacement     0.057576     0.001200     NO 
 Predicted change in Energy=-5.116619D-02
 GradGradGradGradGradGradGradGradGradGradGradGradGradGradGradGradGradGrad

 Leave Link  103 at Tue Dec 15 16:26:27 2015, MaxMem=    33554432 cpu:         0.0
 (Enter /home/Applications/g09/g09/l9999.exe)
 1\1\GINC-DUSTIN-DESKTOP\Force\RAM1-FC\STO-3G\C4H4O1\DUSTIN\15-Dec-2015
 \0\\#P AM1(Input,print) CIS(Singlets,NStates=15) pop(full) force\\AM1-
 Reparam Input\\0,1\C,0.910916,-0.717304,0.034102\C,-0.368838,-1.058036
 ,-0.04128\O,-1.133165,0.001242,0.045775\C,-0.342753,1.086022,-0.04042\
 C,0.996627,0.666001,-0.028135\H,1.829514,1.412725,0.015832\H,-0.850481
 ,2.030136,0.003822\H,-0.794274,-2.080281,0.029453\H,1.767995,-1.399817
 ,-0.027176\\Version=ES64L-G09RevD.01\State=1-A\HF=0.0341876\RMSD=7.108
 e-09\RMSF=5.921e-02\Dipole=0.1909863,-0.0767174,0.0336408\PG=C01 [X(C4
 H4O1)]\\@


 "ANNA, YOU MUSN'T SPEAK OF OXIDIZED MURIATIC ACID
 ANYMORE, FROM NOW ON YOU MUST SAY CHLORINE."
   -- JENS JACOB BERZELIUS, IN 1820, TO HIS COOK, WHO HAD
 COMPLAINED OF THE SMELL OF THE FLASK SHE WAS CLEANING.
 Job cpu time:       0 days  0 hours  0 minutes  0.4 seconds.
 File lengths (MBytes):  RWF=      7 Int=      0 D2E=      0 Chk=      2 Scr=      1
 Normal termination of Gaussian 09 at Tue Dec 15 16:26:27 2015.
