 Entering Gaussian System, Link 0=g09
 Input=FuranDFT_15.com
 Output=FuranDFT_15.log
 Initial command:
 /home/Applications/g09/g09/l1.exe "/home/Applications/g09/scratch/Gau-5558.inp" -scrdir="/home/Applications/g09/scratch/"
 Entering Link 1 = /home/Applications/g09/g09/l1.exe PID=      5560.
  
 Copyright (c) 1988,1990,1992,1993,1995,1998,2003,2009,2013,
            Gaussian, Inc.  All Rights Reserved.
  
 This is part of the Gaussian(R) 09 program.  It is based on
 the Gaussian(R) 03 system (copyright 2003, Gaussian, Inc.),
 the Gaussian(R) 98 system (copyright 1998, Gaussian, Inc.),
 the Gaussian(R) 94 system (copyright 1995, Gaussian, Inc.),
 the Gaussian 92(TM) system (copyright 1992, Gaussian, Inc.),
 the Gaussian 90(TM) system (copyright 1990, Gaussian, Inc.),
 the Gaussian 88(TM) system (copyright 1988, Gaussian, Inc.),
 the Gaussian 86(TM) system (copyright 1986, Carnegie Mellon
 University), and the Gaussian 82(TM) system (copyright 1983,
 Carnegie Mellon University). Gaussian is a federally registered
 trademark of Gaussian, Inc.
  
 This software contains proprietary and confidential information,
 including trade secrets, belonging to Gaussian, Inc.
  
 This software is provided under written license and may be
 used, copied, transmitted, or stored only in accord with that
 written license.
  
 The following legend is applicable only to US Government
 contracts under FAR:
  
                    RESTRICTED RIGHTS LEGEND
  
 Use, reproduction and disclosure by the US Government is
 subject to restrictions as set forth in subparagraphs (a)
 and (c) of the Commercial Computer Software - Restricted
 Rights clause in FAR 52.227-19.
  
 Gaussian, Inc.
 340 Quinnipiac St., Bldg. 40, Wallingford CT 06492
  
  
 ---------------------------------------------------------------
 Warning -- This program may not be used in any manner that
 competes with the business of Gaussian, Inc. or will provide
 assistance to any competitor of Gaussian, Inc.  The licensee
 of this program is prohibited from giving any competitor of
 Gaussian, Inc. access to this program.  By using this program,
 the user acknowledges that Gaussian, Inc. is engaged in the
 business of creating and licensing software in the field of
 computational chemistry and represents and warrants to the
 licensee that it is not a competitor of Gaussian, Inc. and that
 it will not use this program in any manner prohibited above.
 ---------------------------------------------------------------
  

 Cite this work as:
 Gaussian 09, Revision D.01,
 M. J. Frisch, G. W. Trucks, H. B. Schlegel, G. E. Scuseria, 
 M. A. Robb, J. R. Cheeseman, G. Scalmani, V. Barone, B. Mennucci, 
 G. A. Petersson, H. Nakatsuji, M. Caricato, X. Li, H. P. Hratchian, 
 A. F. Izmaylov, J. Bloino, G. Zheng, J. L. Sonnenberg, M. Hada, 
 M. Ehara, K. Toyota, R. Fukuda, J. Hasegawa, M. Ishida, T. Nakajima, 
 Y. Honda, O. Kitao, H. Nakai, T. Vreven, J. A. Montgomery, Jr., 
 J. E. Peralta, F. Ogliaro, M. Bearpark, J. J. Heyd, E. Brothers, 
 K. N. Kudin, V. N. Staroverov, T. Keith, R. Kobayashi, J. Normand, 
 K. Raghavachari, A. Rendell, J. C. Burant, S. S. Iyengar, J. Tomasi, 
 M. Cossi, N. Rega, J. M. Millam, M. Klene, J. E. Knox, J. B. Cross, 
 V. Bakken, C. Adamo, J. Jaramillo, R. Gomperts, R. E. Stratmann, 
 O. Yazyev, A. J. Austin, R. Cammi, C. Pomelli, J. W. Ochterski, 
 R. L. Martin, K. Morokuma, V. G. Zakrzewski, G. A. Voth, 
 P. Salvador, J. J. Dannenberg, S. Dapprich, A. D. Daniels, 
 O. Farkas, J. B. Foresman, J. V. Ortiz, J. Cioslowski, 
 and D. J. Fox, Gaussian, Inc., Wallingford CT, 2013.
 
 ******************************************
 Gaussian 09:  ES64L-G09RevD.01 24-Apr-2013
                15-Dec-2015 
 ******************************************
 -------------------------------------------------------
 #P B3LYP/3-21G CIS(Singlets,NStates=15) pop(full) force
 -------------------------------------------------------
 1/10=7,30=1,38=1/1,3;
 2/12=2,17=6,18=5,40=1/2;
 3/5=5,11=9,16=1,25=1,30=1,71=1,74=-5/1,2,8,3;
 4//1;
 5/5=2,38=5/2;
 8/6=1,10=1,108=15/1;
 9/15=2,41=15,42=1,48=1/14;
 10/5=4/2;
 6/7=3,18=1/1;
 7/12=6,13=5,29=1/1,2,3,16;
 1/10=7,30=1/3;
 99//99;
 Leave Link    1 at Tue Dec 15 16:13:00 2015, MaxMem=           0 cpu:         0.0
 (Enter /home/Applications/g09/g09/l101.exe)
 --------
 FuranDFT
 --------
 Symbolic Z-matrix:
 Charge =  0 Multiplicity = 1
 6                     0.92271  -0.70638   0.0385 
 6                    -0.34662  -1.07523   0.0011 
 8                    -1.11436   0.01364  -0.01345 
 6                    -0.36058   1.05053  -0.00662 
 6                     0.92119   0.7015    0.03 
 1                     1.83468   1.4114   -0.01435 
 1                    -0.87381   2.05082   0.02731 
 1                    -0.87611  -2.07163   0.03716 
 1                     1.7656   -1.33683   0.00143 
 
 NAtoms=      9 NQM=        9 NQMF=       0 NMMI=      0 NMMIF=      0
                NMic=       0 NMicF=      0.
                    Isotopes and Nuclear Properties:
 (Nuclear quadrupole moments (NQMom) in fm**2, nuclear magnetic moments (NMagM)
  in nuclear magnetons)

  Atom         1           2           3           4           5           6           7           8           9
 IAtWgt=          12          12          16          12          12           1           1           1           1
 AtmWgt=  12.0000000  12.0000000  15.9949146  12.0000000  12.0000000   1.0078250   1.0078250   1.0078250   1.0078250
 NucSpn=           0           0           0           0           0           1           1           1           1
 AtZEff=   0.0000000   0.0000000   0.0000000   0.0000000   0.0000000   0.0000000   0.0000000   0.0000000   0.0000000
 NQMom=    0.0000000   0.0000000   0.0000000   0.0000000   0.0000000   0.0000000   0.0000000   0.0000000   0.0000000
 NMagM=    0.0000000   0.0000000   0.0000000   0.0000000   0.0000000   2.7928460   2.7928460   2.7928460   2.7928460
 AtZNuc=   6.0000000   6.0000000   8.0000000   6.0000000   6.0000000   1.0000000   1.0000000   1.0000000   1.0000000
 Leave Link  101 at Tue Dec 15 16:13:00 2015, MaxMem=    33554432 cpu:         0.0
 (Enter /home/Applications/g09/g09/l103.exe)

 GradGradGradGradGradGradGradGradGradGradGradGradGradGradGradGradGradGrad
 Berny optimization.
 Initialization pass.
 Trust Radius=3.00D-01 FncErr=1.00D-07 GrdErr=1.00D-07
 Number of steps in this run=      2 maximum allowed number of steps=      2.
 GradGradGradGradGradGradGradGradGradGradGradGradGradGradGradGradGradGrad

 Leave Link  103 at Tue Dec 15 16:13:00 2015, MaxMem=    33554432 cpu:         0.0
 (Enter /home/Applications/g09/g09/l202.exe)
                          Input orientation:                          
 ---------------------------------------------------------------------
 Center     Atomic      Atomic             Coordinates (Angstroms)
 Number     Number       Type             X           Y           Z
 ---------------------------------------------------------------------
      1          6           0        0.922713   -0.706378    0.038500
      2          6           0       -0.346620   -1.075226    0.001102
      3          8           0       -1.114359    0.013635   -0.013448
      4          6           0       -0.360582    1.050530   -0.006622
      5          6           0        0.921190    0.701503    0.030000
      6          1           0        1.834683    1.411398   -0.014351
      7          1           0       -0.873811    2.050817    0.027306
      8          1           0       -0.876105   -2.071633    0.037156
      9          1           0        1.765595   -1.336826    0.001434
 ---------------------------------------------------------------------
                    Distance matrix (angstroms):
                    1          2          3          4          5
     1  C    0.000000
     2  C    1.322367   0.000000
     3  O    2.161199   1.332386   0.000000
     4  C    2.176145   2.125816   1.281943   0.000000
     5  C    1.407907   2.182875   2.149072   1.328947   0.000000
     6  H    2.306395   3.307812   3.263524   2.224741   1.157751
     7  H    3.290858   3.170294   2.051739   1.124780   2.245592
     8  H    2.258245   1.128929   2.099445   3.164740   3.304634
     9  H    1.053228   2.128353   3.180896   3.196899   2.206495
                    6          7          8          9
     6  H    0.000000
     7  H    2.783259   0.000000
     8  H    4.413902   4.122462   0.000000
     9  H    2.749138   4.294562   2.742225   0.000000
 Stoichiometry    C4H4O
 Framework group  C1[X(C4H4O)]
 Deg. of freedom    21
 Full point group                 C1      NOp   1
 Largest Abelian subgroup         C1      NOp   1
 Largest concise Abelian subgroup C1      NOp   1
                         Standard orientation:                         
 ---------------------------------------------------------------------
 Center     Atomic      Atomic             Coordinates (Angstroms)
 Number     Number       Type             X           Y           Z
 ---------------------------------------------------------------------
      1          6           0       -0.680242    0.948863   -0.013063
      2          6           0       -1.083726   -0.310280    0.007307
      3          8           0       -0.016349   -1.107750    0.006145
      4          6           0        1.040856   -0.382702    0.006055
      5          6           0        0.727086    0.908568   -0.010395
      6          1           0        1.462002    1.801478    0.044368
      7          1           0        2.026513   -0.922641   -0.039495
      8          1           0       -2.094448   -0.811625   -0.032368
      9          1           0       -1.287123    1.808097    0.038915
 ---------------------------------------------------------------------
 Rotational constants (GHZ):      9.8711115      9.8152096      4.9225273
 Leave Link  202 at Tue Dec 15 16:13:00 2015, MaxMem=    33554432 cpu:         0.0
 (Enter /home/Applications/g09/g09/l301.exe)
 Standard basis: 3-21G (6D, 7F)
 Ernie: Thresh=  0.10000D-02 Tol=  0.10000D-05 Strict=F.
 There are    53 symmetry adapted cartesian basis functions of A   symmetry.
 There are    53 symmetry adapted basis functions of A   symmetry.
    53 basis functions,    87 primitive gaussians,    53 cartesian basis functions
    18 alpha electrons       18 beta electrons
       nuclear repulsion energy       164.6503930573 Hartrees.
 IExCor=  402 DFT=T Ex+Corr=B3LYP ExCW=0 ScaHFX=  0.200000
 ScaDFX=  0.800000  0.720000  1.000000  0.810000 ScalE2=  1.000000  1.000000
 IRadAn=      0 IRanWt=     -1 IRanGd=            0 ICorTp=0 IEmpDi=  4
 NAtoms=    9 NActive=    9 NUniq=    9 SFac= 1.00D+00 NAtFMM=   60 NAOKFM=F Big=F
 Integral buffers will be    131072 words long.
 Regular integral format.
 Two-electron integral symmetry is turned on.
 Leave Link  301 at Tue Dec 15 16:13:00 2015, MaxMem=    33554432 cpu:         0.0
 (Enter /home/Applications/g09/g09/l302.exe)
 NPDir=0 NMtPBC=     1 NCelOv=     1 NCel=       1 NClECP=     1 NCelD=      1
         NCelK=      1 NCelE2=     1 NClLst=     1 CellRange=     0.0.
 One-electron integrals computed using PRISM.
 NBasis=    53 RedAO= T EigKep=  2.77D-03  NBF=    53
 NBsUse=    53 1.00D-06 EigRej= -1.00D+00 NBFU=    53
 Precomputing XC quadrature grid using
 IXCGrd= 4 IRadAn=           0 IRanWt=          -1 IRanGd=           0 AccXCQ= 0.00D+00.
 Generated NRdTot=       0 NPtTot=           0 NUsed=           0 NTot=          32
 NSgBfM=    53    53    53    53    53 MxSgAt=     9 MxSgA2=     9.
 Leave Link  302 at Tue Dec 15 16:13:00 2015, MaxMem=    33554432 cpu:         0.1
 (Enter /home/Applications/g09/g09/l308.exe)
 Leave Link  308 at Tue Dec 15 16:13:00 2015, MaxMem=    33554432 cpu:         0.0
 (Enter /home/Applications/g09/g09/l303.exe)
 DipDrv:  MaxL=1.
 Leave Link  303 at Tue Dec 15 16:13:00 2015, MaxMem=    33554432 cpu:         0.0
 (Enter /home/Applications/g09/g09/l401.exe)
 ExpMin= 1.83D-01 ExpMax= 3.22D+02 ExpMxC= 3.22D+02 IAcc=1 IRadAn=         1 AccDes= 0.00D+00
 Harris functional with IExCor=  402 and IRadAn=       1 diagonalized for initial guess.
 HarFok:  IExCor=  402 AccDes= 0.00D+00 IRadAn=         1 IDoV= 1 UseB2=F ITyADJ=14
 ICtDFT=  3500011 ScaDFX=  1.000000  1.000000  1.000000  1.000000
 FoFCou: FMM=F IPFlag=           0 FMFlag=      100000 FMFlg1=           0
         NFxFlg=           0 DoJE=T BraDBF=F KetDBF=T FulRan=T
         wScrn=  0.000000 ICntrl=     500 IOpCl=  0 I1Cent=   200000004 NGrid=           0
         NMat0=    1 NMatS0=      1 NMatT0=    0 NMatD0=    1 NMtDS0=    0 NMtDT0=    0
 Petite list used in FoFCou.
 Harris En= -228.717115969255    
 JPrj=0 DoOrth=F DoCkMO=F.
 Leave Link  401 at Tue Dec 15 16:13:00 2015, MaxMem=    33554432 cpu:         0.2
 (Enter /home/Applications/g09/g09/l502.exe)
 Closed shell SCF:
 Using DIIS extrapolation, IDIIS=  1040.
 Integral symmetry usage will be decided dynamically.
 Keep R1 ints in memory in canonical form, NReq=1925595.
 IVT=       27707 IEndB=       27707 NGot=    33554432 MDV=    32502130
 LenX=    32502130 LenY=    32498880
 Requested convergence on RMS density matrix=1.00D-08 within 128 cycles.
 Requested convergence on MAX density matrix=1.00D-06.
 Requested convergence on             energy=1.00D-06.
 No special actions if energy rises.
 FoFCou: FMM=F IPFlag=           0 FMFlag=           0 FMFlg1=           0
         NFxFlg=           0 DoJE=F BraDBF=F KetDBF=F FulRan=T
         wScrn=  0.000000 ICntrl=     600 IOpCl=  0 I1Cent=           0 NGrid=           0
         NMat0=    1 NMatS0=   1431 NMatT0=    0 NMatD0=    1 NMtDS0=    0 NMtDT0=    0
 Symmetry not used in FoFCou.
 Integral accuracy reduced to 1.0D-05 until final iterations.

 Cycle   1  Pass 0  IDiag  1:
 E= -228.634843416162    
 DIIS: error= 3.56D-02 at cycle   1 NSaved=   1.
 NSaved= 1 IEnMin= 1 EnMin= -228.634843416162     IErMin= 1 ErrMin= 3.56D-02
 ErrMax= 3.56D-02  0.00D+00 EMaxC= 1.00D-01 BMatC= 8.67D-02 BMatP= 8.67D-02
 IDIUse=3 WtCom= 6.44D-01 WtEn= 3.56D-01
 Coeff-Com:  0.100D+01
 Coeff-En:   0.100D+01
 Coeff:      0.100D+01
 Gap=     0.249 Goal=   None    Shift=    0.000
 GapD=    0.249 DampG=1.000 DampE=0.500 DampFc=0.5000 IDamp=-1.
 Damping current iteration by 5.00D-01
 RMSDP=1.30D-02 MaxDP=1.19D-01              OVMax= 1.99D-01

 Cycle   2  Pass 0  IDiag  1:
 E= -228.671471341198     Delta-E=       -0.036627925036 Rises=F Damp=T
 DIIS: error= 1.22D-02 at cycle   2 NSaved=   2.
 NSaved= 2 IEnMin= 2 EnMin= -228.671471341198     IErMin= 2 ErrMin= 1.22D-02
 ErrMax= 1.22D-02  0.00D+00 EMaxC= 1.00D-01 BMatC= 8.10D-03 BMatP= 8.67D-02
 IDIUse=3 WtCom= 8.78D-01 WtEn= 1.22D-01
 Coeff-Com:  0.962D-01 0.904D+00
 Coeff-En:   0.177D+00 0.823D+00
 Coeff:      0.106D+00 0.894D+00
 Gap=     0.267 Goal=   None    Shift=    0.000
 RMSDP=4.25D-03 MaxDP=3.46D-02 DE=-3.66D-02 OVMax= 1.58D-01

 Cycle   3  Pass 0  IDiag  1:
 E= -228.716593998988     Delta-E=       -0.045122657790 Rises=F Damp=F
 DIIS: error= 1.72D-02 at cycle   3 NSaved=   3.
 NSaved= 3 IEnMin= 3 EnMin= -228.716593998988     IErMin= 2 ErrMin= 1.22D-02
 ErrMax= 1.72D-02  0.00D+00 EMaxC= 1.00D-01 BMatC= 9.79D-03 BMatP= 8.10D-03
 IDIUse=2 WtCom= 0.00D+00 WtEn= 1.00D+00
 Coeff-En:   0.000D+00 0.000D+00 0.100D+01
 Coeff:      0.000D+00 0.000D+00 0.100D+01
 Gap=     0.260 Goal=   None    Shift=    0.000
 RMSDP=5.42D-03 MaxDP=4.58D-02 DE=-4.51D-02 OVMax= 1.08D-01

 Cycle   4  Pass 0  IDiag  1:
 E= -228.694451877261     Delta-E=        0.022142121727 Rises=F Damp=F
 DIIS: error= 3.42D-02 at cycle   4 NSaved=   4.
 NSaved= 4 IEnMin= 3 EnMin= -228.716593998988     IErMin= 2 ErrMin= 1.22D-02
 ErrMax= 3.42D-02  0.00D+00 EMaxC= 1.00D-01 BMatC= 3.45D-02 BMatP= 8.10D-03
 IDIUse=2 WtCom= 0.00D+00 WtEn= 1.00D+00
 Coeff-En:   0.000D+00 0.000D+00 0.734D+00 0.266D+00
 Coeff:      0.000D+00 0.000D+00 0.734D+00 0.266D+00
 Gap=     0.269 Goal=   None    Shift=    0.000
 RMSDP=2.73D-03 MaxDP=2.17D-02 DE= 2.21D-02 OVMax= 5.94D-02

 Cycle   5  Pass 0  IDiag  1:
 E= -228.723923183380     Delta-E=       -0.029471306119 Rises=F Damp=F
 DIIS: error= 7.28D-03 at cycle   5 NSaved=   5.
 NSaved= 5 IEnMin= 5 EnMin= -228.723923183380     IErMin= 5 ErrMin= 7.28D-03
 ErrMax= 7.28D-03  0.00D+00 EMaxC= 1.00D-01 BMatC= 1.70D-03 BMatP= 8.10D-03
 IDIUse=3 WtCom= 9.27D-01 WtEn= 7.28D-02
 Coeff-Com: -0.635D-02 0.214D-01 0.233D+00-0.688D-01 0.821D+00
 Coeff-En:   0.000D+00 0.000D+00 0.178D+00 0.000D+00 0.822D+00
 Coeff:     -0.589D-02 0.199D-01 0.229D+00-0.638D-01 0.821D+00
 Gap=     0.273 Goal=   None    Shift=    0.000
 RMSDP=8.55D-04 MaxDP=6.13D-03 DE=-2.95D-02 OVMax= 1.71D-02

 Cycle   6  Pass 0  IDiag  1:
 E= -228.725464028166     Delta-E=       -0.001540844786 Rises=F Damp=F
 DIIS: error= 4.06D-04 at cycle   6 NSaved=   6.
 NSaved= 6 IEnMin= 6 EnMin= -228.725464028166     IErMin= 6 ErrMin= 4.06D-04
 ErrMax= 4.06D-04  0.00D+00 EMaxC= 1.00D-01 BMatC= 7.14D-06 BMatP= 1.70D-03
 IDIUse=3 WtCom= 9.96D-01 WtEn= 4.06D-03
 Coeff-Com: -0.529D-02 0.116D-01 0.491D-01-0.500D-01 0.350D+00 0.645D+00
 Coeff-En:   0.000D+00 0.000D+00 0.000D+00 0.000D+00 0.000D+00 0.100D+01
 Coeff:     -0.527D-02 0.115D-01 0.489D-01-0.498D-01 0.349D+00 0.646D+00
 Gap=     0.273 Goal=   None    Shift=    0.000
 RMSDP=6.19D-05 MaxDP=6.60D-04 DE=-1.54D-03 OVMax= 1.28D-03

 Cycle   7  Pass 0  IDiag  1:
 E= -228.725471451372     Delta-E=       -0.000007423206 Rises=F Damp=F
 DIIS: error= 8.53D-05 at cycle   7 NSaved=   7.
 NSaved= 7 IEnMin= 7 EnMin= -228.725471451372     IErMin= 7 ErrMin= 8.53D-05
 ErrMax= 8.53D-05  0.00D+00 EMaxC= 1.00D-01 BMatC= 2.18D-07 BMatP= 7.14D-06
 IDIUse=1 WtCom= 1.00D+00 WtEn= 0.00D+00
 Coeff-Com: -0.238D-02 0.479D-02 0.180D-01-0.229D-01 0.155D+00 0.371D+00
 Coeff-Com:  0.477D+00
 Coeff:     -0.238D-02 0.479D-02 0.180D-01-0.229D-01 0.155D+00 0.371D+00
 Coeff:      0.477D+00
 Gap=     0.273 Goal=   None    Shift=    0.000
 RMSDP=9.93D-06 MaxDP=1.12D-04 DE=-7.42D-06 OVMax= 2.76D-04

 Initial convergence to 1.0D-05 achieved.  Increase integral accuracy.
 Cycle   8  Pass 1  IDiag  1:
 E= -228.725510860742     Delta-E=       -0.000039409371 Rises=F Damp=F
 DIIS: error= 1.58D-05 at cycle   1 NSaved=   1.
 NSaved= 1 IEnMin= 1 EnMin= -228.725510860742     IErMin= 1 ErrMin= 1.58D-05
 ErrMax= 1.58D-05  0.00D+00 EMaxC= 1.00D-01 BMatC= 1.84D-08 BMatP= 1.84D-08
 IDIUse=1 WtCom= 1.00D+00 WtEn= 0.00D+00
 Coeff-Com:  0.100D+01
 Coeff:      0.100D+01
 Gap=     0.273 Goal=   None    Shift=    0.000
 RMSDP=9.93D-06 MaxDP=1.12D-04 DE=-3.94D-05 OVMax= 6.32D-05

 Cycle   9  Pass 1  IDiag  1:
 E= -228.725510861339     Delta-E=       -0.000000000596 Rises=F Damp=F
 DIIS: error= 2.21D-05 at cycle   2 NSaved=   2.
 NSaved= 2 IEnMin= 2 EnMin= -228.725510861339     IErMin= 1 ErrMin= 1.58D-05
 ErrMax= 2.21D-05  0.00D+00 EMaxC= 1.00D-01 BMatC= 2.05D-08 BMatP= 1.84D-08
 IDIUse=1 WtCom= 1.00D+00 WtEn= 0.00D+00
 Coeff-Com:  0.515D+00 0.485D+00
 Coeff:      0.515D+00 0.485D+00
 Gap=     0.273 Goal=   None    Shift=    0.000
 RMSDP=2.87D-06 MaxDP=3.19D-05 DE=-5.96D-10 OVMax= 6.68D-05

 Cycle  10  Pass 1  IDiag  1:
 E= -228.725510879340     Delta-E=       -0.000000018001 Rises=F Damp=F
 DIIS: error= 4.41D-06 at cycle   3 NSaved=   3.
 NSaved= 3 IEnMin= 3 EnMin= -228.725510879340     IErMin= 3 ErrMin= 4.41D-06
 ErrMax= 4.41D-06  0.00D+00 EMaxC= 1.00D-01 BMatC= 8.27D-10 BMatP= 1.84D-08
 IDIUse=1 WtCom= 1.00D+00 WtEn= 0.00D+00
 Coeff-Com:  0.381D-02 0.163D+00 0.834D+00
 Coeff:      0.381D-02 0.163D+00 0.834D+00
 Gap=     0.273 Goal=   None    Shift=    0.000
 RMSDP=8.11D-07 MaxDP=8.07D-06 DE=-1.80D-08 OVMax= 1.45D-05

 Cycle  11  Pass 1  IDiag  1:
 E= -228.725510879974     Delta-E=       -0.000000000634 Rises=F Damp=F
 DIIS: error= 3.16D-06 at cycle   4 NSaved=   4.
 NSaved= 4 IEnMin= 4 EnMin= -228.725510879974     IErMin= 4 ErrMin= 3.16D-06
 ErrMax= 3.16D-06  0.00D+00 EMaxC= 1.00D-01 BMatC= 2.48D-10 BMatP= 8.27D-10
 IDIUse=1 WtCom= 1.00D+00 WtEn= 0.00D+00
 Coeff-Com: -0.154D-01 0.956D-01 0.558D+00 0.361D+00
 Coeff:     -0.154D-01 0.956D-01 0.558D+00 0.361D+00
 Gap=     0.273 Goal=   None    Shift=    0.000
 RMSDP=2.87D-07 MaxDP=3.12D-06 DE=-6.34D-10 OVMax= 5.30D-06

 Cycle  12  Pass 1  IDiag  1:
 E= -228.725510880184     Delta-E=       -0.000000000211 Rises=F Damp=F
 DIIS: error= 1.33D-07 at cycle   5 NSaved=   5.
 NSaved= 5 IEnMin= 5 EnMin= -228.725510880184     IErMin= 5 ErrMin= 1.33D-07
 ErrMax= 1.33D-07  0.00D+00 EMaxC= 1.00D-01 BMatC= 1.31D-12 BMatP= 2.48D-10
 IDIUse=1 WtCom= 1.00D+00 WtEn= 0.00D+00
 Coeff-Com: -0.602D-02 0.240D-01 0.143D+00 0.961D-01 0.743D+00
 Coeff:     -0.602D-02 0.240D-01 0.143D+00 0.961D-01 0.743D+00
 Gap=     0.273 Goal=   None    Shift=    0.000
 RMSDP=2.95D-08 MaxDP=2.69D-07 DE=-2.11D-10 OVMax= 5.24D-07

 Cycle  13  Pass 1  IDiag  1:
 E= -228.725510880186     Delta-E=       -0.000000000002 Rises=F Damp=F
 DIIS: error= 8.84D-08 at cycle   6 NSaved=   6.
 NSaved= 6 IEnMin= 6 EnMin= -228.725510880186     IErMin= 6 ErrMin= 8.84D-08
 ErrMax= 8.84D-08  0.00D+00 EMaxC= 1.00D-01 BMatC= 3.45D-13 BMatP= 1.31D-12
 IDIUse=1 WtCom= 1.00D+00 WtEn= 0.00D+00
 Coeff-Com: -0.140D-02 0.353D-02 0.197D-01 0.111D-01 0.348D+00 0.619D+00
 Coeff:     -0.140D-02 0.353D-02 0.197D-01 0.111D-01 0.348D+00 0.619D+00
 Gap=     0.273 Goal=   None    Shift=    0.000
 RMSDP=1.50D-08 MaxDP=1.72D-07 DE=-1.82D-12 OVMax= 3.67D-07

 Cycle  14  Pass 1  IDiag  1:
 E= -228.725510880186     Delta-E=        0.000000000001 Rises=F Damp=F
 DIIS: error= 3.53D-08 at cycle   7 NSaved=   7.
 NSaved= 7 IEnMin= 6 EnMin= -228.725510880186     IErMin= 7 ErrMin= 3.53D-08
 ErrMax= 3.53D-08  0.00D+00 EMaxC= 1.00D-01 BMatC= 4.14D-14 BMatP= 3.45D-13
 IDIUse=1 WtCom= 1.00D+00 WtEn= 0.00D+00
 Coeff-Com: -0.239D-04-0.790D-03-0.621D-02-0.441D-02 0.907D-01 0.322D+00
 Coeff-Com:  0.599D+00
 Coeff:     -0.239D-04-0.790D-03-0.621D-02-0.441D-02 0.907D-01 0.322D+00
 Coeff:      0.599D+00
 Gap=     0.273 Goal=   None    Shift=    0.000
 RMSDP=4.82D-09 MaxDP=3.90D-08 DE= 6.82D-13 OVMax= 9.67D-08

 SCF Done:  E(RB3LYP) =  -228.725510880     A.U. after   14 cycles
            NFock= 14  Conv=0.48D-08     -V/T= 2.0065
 KE= 2.272507357679D+02 PE=-8.619811903012D+02 EE= 2.413545505958D+02
 Leave Link  502 at Tue Dec 15 16:13:04 2015, MaxMem=    33554432 cpu:         3.7
 (Enter /home/Applications/g09/g09/l801.exe)
 DoSCS=F DFT=T ScalE2(SS,OS)=  1.000000  1.000000
 ExpMin= 1.83D-01 ExpMax= 3.22D+02 ExpMxC= 3.22D+02 IAcc=3 IRadAn=         5 AccDes= 0.00D+00
 HarFok:  IExCor=  205 AccDes= 0.00D+00 IRadAn=         5 IDoV=-2 UseB2=F ITyADJ=14
 ICtDFT= 12500011 ScaDFX=  1.000000  1.000000  1.000000  1.000000
 Largest valence mixing into a core orbital is  1.79D-04
 Largest core mixing into a valence orbital is  4.62D-05
 Range of M.O.s used for correlation:     6    53
 NBasis=    53 NAE=    18 NBE=    18 NFC=     5 NFV=     0
 NROrb=     48 NOA=    13 NOB=    13 NVA=    35 NVB=    35
 Leave Link  801 at Tue Dec 15 16:13:04 2015, MaxMem=    33554432 cpu:         0.2
 (Enter /home/Applications/g09/g09/l914.exe)
 RHF ground state
 MDV=    33554432 DFT=T DoStab=F Mixed=T DoRPA=F DoScal=F NonHer=F
 Keep R1, R2, and R3 ints in memory in canonical form, NReq=5596273.
 FoFCou: FMM=F IPFlag=           0 FMFlag=           0 FMFlg1=           0
         NFxFlg=           0 DoJE=F BraDBF=F KetDBF=F FulRan=T
         wScrn=  0.000000 ICntrl=     600 IOpCl=  0 I1Cent=           0 NGrid=           0
         NMat0=    1 NMatS0=   1431 NMatT0=    0 NMatD0=    1 NMtDS0=    0 NMtDT0=    0
 Symmetry not used in FoFCou.
 Making orbital integer symmetry assigments:
 Orbital symmetries:
       Occupied  (A) (A) (A) (A) (A) (A) (A) (A) (A) (A) (A) (A)
                 (A) (A) (A) (A) (A) (A)
       Virtual   (A) (A) (A) (A) (A) (A) (A) (A) (A) (A) (A) (A)
                 (A) (A) (A) (A) (A) (A) (A) (A) (A) (A) (A) (A)
                 (A) (A) (A) (A) (A) (A) (A) (A) (A) (A) (A)
    60 initial guesses have been made.
 Convergence on wavefunction:    0.000001000000000
 Davidson Disk Diagonalization:  ConvIn= 1.00D-06 SkipCon=T Conv= 1.00D-06.
 Max sub-space:   240 roots to seek:    60 dimension of matrix:          910
 Iteration     1 Dimension    60 NMult     0 NNew     60
 CISAX will form    60 AO SS matrices at one time.
 NMat=    60 NSing=    60 JSym2X= 0.
 New state      1 was old state      3
 New state      2 was old state      4
 New state      3 was old state      1
 New state      4 was old state      8
 New state      5 was old state      7
 New state      7 was old state      9
 New state      8 was old state     12
 New state      9 was old state     10
 New state     10 was old state      5
 New state     12 was old state     15
 New state     15 was old state      2
 Excitation Energies [eV] at current iteration:
 Root      1 :     7.841634837780274
 Root      2 :     8.426313375306222
 Root      3 :     8.725138735095769
 Root      4 :     9.226031723162970
 Root      5 :     9.430287106296426
 Root      6 :     9.475411668417356
 Root      7 :     9.746239039528014
 Root      8 :    10.381903437814150
 Root      9 :    10.540228007264870
 Root     10 :    10.610317629592780
 Root     11 :    10.657207087433450
 Root     12 :    10.683209361194730
 Root     13 :    10.866759590317120
 Root     14 :    11.020727619853520
 Root     15 :    11.417271960878860
 Root     16 :    11.513359869005530
 Root     17 :    11.618312272688700
 Root     18 :    11.733549728352100
 Root     19 :    11.814351869390390
 Root     20 :    12.103088248571770
 Root     21 :    12.117150896104170
 Root     22 :    12.293413025195610
 Root     23 :    12.742899175463220
 Root     24 :    12.802294229609780
 Root     25 :    13.020493166805790
 Root     26 :    13.246517114179150
 Root     27 :    13.372518857651820
 Root     28 :    13.421129849586900
 Root     29 :    13.766977185123400
 Root     30 :    13.905259670973760
 Root     31 :    14.116542772931930
 Root     32 :    14.242864480197310
 Root     33 :    14.392449922141440
 Root     34 :    14.535601676486150
 Root     35 :    14.560641960790650
 Root     36 :    14.701276076489830
 Root     37 :    14.887841218985380
 Root     38 :    14.958157113969420
 Root     39 :    15.135619318975370
 Root     40 :    15.218130575513600
 Root     41 :    15.253961819214640
 Root     42 :    15.462125862532850
 Root     43 :    15.550911727603090
 Root     44 :    15.603224438194980
 Root     45 :    15.838489436360120
 Root     46 :    15.950306880506960
 Root     47 :    15.985866521857340
 Root     48 :    16.038763026180150
 Root     49 :    16.095414698493810
 Root     50 :    16.194036210115310
 Root     51 :    16.409182042505560
 Root     52 :    16.434399269079050
 Root     53 :    16.518890489227150
 Root     54 :    16.562319985450910
 Root     55 :    16.664472053396420
 Root     56 :    16.816784248807990
 Root     57 :    17.066420432459900
 Root     58 :    17.133948370558970
 Root     59 :    17.928437379216780
 Root     60 :    19.300569138906880
 Iteration     2 Dimension   120 NMult    60 NNew     60
 CISAX will form    60 AO SS matrices at one time.
 NMat=    60 NSing=    60 JSym2X= 0.
 Root      1 not converged, maximum delta is    0.275168534858084
 New state      2 was old state      3
 Root      2 not converged, maximum delta is    0.390632218745929
 New state      3 was old state      2
 Root      3 not converged, maximum delta is    0.383699154848568
 Root      4 not converged, maximum delta is    0.018253959749511
 Root      5 not converged, maximum delta is    0.039818538594847
 Root      6 not converged, maximum delta is    0.018674980772696
 Root      7 not converged, maximum delta is    0.053036255059610
 New state      8 was old state     10
 Root      8 not converged, maximum delta is    0.201483293842427
 New state      9 was old state     15
 Root      9 not converged, maximum delta is    0.359129358729995
 New state     10 was old state      8
 Root     10 not converged, maximum delta is    0.250059035938873
 New state     11 was old state      9
 Root     11 not converged, maximum delta is    0.095636395317071
 New state     12 was old state     11
 Root     12 not converged, maximum delta is    0.102270745694274
 New state     13 was old state     12
 Root     13 not converged, maximum delta is    0.156046876560798
 New state     14 was old state     13
 Root     14 not converged, maximum delta is    0.181549085833392
 New state     15 was old state     14
 Root     15 not converged, maximum delta is    0.040670677630348
 Excitation Energies [eV] at current iteration:
 Root      1 :     7.651238682840818   Change is   -0.190396154939456
 Root      2 :     7.865924802441369   Change is   -0.859213932654400
 Root      3 :     8.486913210814770   Change is    0.060599835508548
 Root      4 :     9.198088266311515   Change is   -0.027943456851455
 Root      5 :     9.410025747458135   Change is   -0.020261358838290
 Root      6 :     9.453870725569884   Change is   -0.021540942847474
 Root      7 :     9.725115493248143   Change is   -0.021123546279869
 Root      8 :    10.015735941808840   Change is   -0.594581687783936
 Root      9 :    10.202453847983270   Change is   -1.214818112895593
 Root     10 :    10.426745681921080   Change is    0.044842244106932
 Root     11 :    10.526795096941120   Change is   -0.013432910323751
 Root     12 :    10.649405888329320   Change is   -0.007801199104134
 Root     13 :    10.666417116756670   Change is   -0.016792244438060
 Root     14 :    10.835172257219360   Change is   -0.031587333097758
 Root     15 :    11.011967652413810   Change is   -0.008759967439702
 Root     16 :    11.489838361005680   Change is   -0.023521507999845
 Root     17 :    11.580076767539430   Change is   -0.038235505149277
 Root     18 :    11.712060726793550   Change is   -0.021489001558552
 Root     19 :    11.775407268643200   Change is   -0.038944600747182
 Root     20 :    12.048150177879280   Change is   -0.054938070692495
 Root     21 :    12.084021219083360   Change is   -0.033129677020806
 Root     22 :    12.248140373954560   Change is   -0.045272651241051
 Root     23 :    12.713627902822400   Change is   -0.029271272640823
 Root     24 :    12.726291907048700   Change is   -0.076002322561082
 Root     25 :    12.990658157167640   Change is   -0.029835009638158
 Root     26 :    13.223743320646470   Change is   -0.022773793532679
 Root     27 :    13.296891568618290   Change is   -0.075627289033535
 Root     28 :    13.355341296915110   Change is   -0.065788552671791
 Root     29 :    13.599908101903870   Change is   -0.167069083219524
 Root     30 :    13.719868240668530   Change is   -0.185391430305226
 Root     31 :    13.969688492327650   Change is   -0.146854280604273
 Root     32 :    14.123292179737120   Change is   -1.012327139238245
 Root     33 :    14.199881543666170   Change is   -0.042982936531141
 Root     34 :    14.386968522562980   Change is   -0.005481399578467
 Root     35 :    14.422478639040830   Change is   -0.138163321749810
 Root     36 :    14.499427735735170   Change is   -0.036173940750984
 Root     37 :    14.629457067432570   Change is   -0.071819009057259
 Root     38 :    14.721061508078010   Change is   -0.166779710907365
 Root     39 :    14.974675829633060   Change is    0.016518715663644
 Root     40 :    14.999334879744330   Change is   -0.462790982788519
 Root     41 :    15.074606044846050   Change is   -0.143524530667551
 Root     42 :    15.220724284390850   Change is   -0.033237534823789
 Root     43 :    15.350528984251750   Change is   -0.200382743351342
 Root     44 :    15.434936140446460   Change is   -0.168288297748525
 Root     45 :    15.542577329095480   Change is   -0.295912107264641
 Root     46 :    15.689217233346560   Change is   -0.296649288510778
 Root     47 :    15.901719350072580   Change is   -0.048587530434389
 Root     48 :    15.948193347357220   Change is   -0.090569678822923
 Root     49 :    15.984334985536730   Change is   -0.111079712957077
 Root     50 :    16.007660611375930   Change is   -1.058759821083973
 Root     51 :    16.152092934312850   Change is   -0.041943275802460
 Root     52 :    16.204367202369760   Change is   -0.230032066709293
 Root     53 :    16.339945669308420   Change is   -0.069236373197141
 Root     54 :    16.438296748620820   Change is   -0.226175304775606
 Root     55 :    16.471825941848370   Change is   -0.047064547378778
 Root     56 :    16.509210669707570   Change is   -0.053109315743334
 Root     57 :    16.779263373715510   Change is   -0.037520875092486
 Root     58 :    16.885235210618950   Change is   -1.043202168597834
 Root     59 :    17.100746163475510   Change is   -0.033202207083457
 Root     60 :    17.701133772643870   Change is   -1.599435366263011
 Iteration     3 Dimension   135 NMult   120 NNew     15
 CISAX will form    15 AO SS matrices at one time.
 NMat=    15 NSing=    15 JSym2X= 0.
 Root      1 not converged, maximum delta is    0.001420476364551
 Root      2 not converged, maximum delta is    0.002378210010444
 Root      3 not converged, maximum delta is    0.000528878073894
 Root      4 not converged, maximum delta is    0.000279605365770
 Root      5 not converged, maximum delta is    0.000456335686535
 Root      6 not converged, maximum delta is    0.000358570239495
 Root      7 not converged, maximum delta is    0.000589205131776
 Root      8 not converged, maximum delta is    0.003566643674925
 Root      9 not converged, maximum delta is    0.005085812654513
 Root     10 not converged, maximum delta is    0.003256937529069
 Root     11 not converged, maximum delta is    0.001109895116226
 Root     12 not converged, maximum delta is    0.001016880865291
 Root     13 not converged, maximum delta is    0.000559744046399
 Root     14 not converged, maximum delta is    0.000459267371885
 Root     15 not converged, maximum delta is    0.000125208332487
 Excitation Energies [eV] at current iteration:
 Root      1 :     7.649873443667566   Change is   -0.001365239173252
 Root      2 :     7.864410220456314   Change is   -0.001514581985055
 Root      3 :     8.486844863921622   Change is   -0.000068346893149
 Root      4 :     9.198060003551809   Change is   -0.000028262759706
 Root      5 :     9.409924285084058   Change is   -0.000101462374077
 Root      6 :     9.453847096777391   Change is   -0.000023628792492
 Root      7 :     9.724992191261752   Change is   -0.000123301986393
 Root      8 :    10.013563884001060   Change is   -0.002172057807783
 Root      9 :    10.198769378631550   Change is   -0.003684469351712
 Root     10 :    10.425763539535300   Change is   -0.000982142385777
 Root     11 :    10.526693689689580   Change is   -0.000101407251535
 Root     12 :    10.649273148645630   Change is   -0.000132739683691
 Root     13 :    10.666398222693150   Change is   -0.000018894063524
 Root     14 :    10.835137652672810   Change is   -0.000034604546555
 Root     15 :    11.011958263757720   Change is   -0.000009388656089
 Iteration     4 Dimension   150 NMult   135 NNew     15
 CISAX will form    15 AO SS matrices at one time.
 NMat=    15 NSing=    15 JSym2X= 0.
 Root      1 not converged, maximum delta is    0.000044317084143
 Root      2 not converged, maximum delta is    0.000071215261612
 Root      3 not converged, maximum delta is    0.000016289170299
 Root      4 not converged, maximum delta is    0.000003897347184
 Root      5 not converged, maximum delta is    0.000013606908178
 Root      6 not converged, maximum delta is    0.000004963727281
 Root      7 not converged, maximum delta is    0.000012421221123
 Root      8 not converged, maximum delta is    0.000071630245974
 Root      9 not converged, maximum delta is    0.000090932752164
 Root     10 not converged, maximum delta is    0.000047161419178
 Root     11 not converged, maximum delta is    0.000013525479330
 Root     12 not converged, maximum delta is    0.000017775561999
 Root     13 not converged, maximum delta is    0.000004519747020
 Root     14 not converged, maximum delta is    0.000009380899390
 Root     15 not converged, maximum delta is    0.000009393484019
 Excitation Energies [eV] at current iteration:
 Root      1 :     7.649871366173357   Change is   -0.000002077494210
 Root      2 :     7.864408487730815   Change is   -0.000001732725499
 Root      3 :     8.486844783729504   Change is   -0.000000080192118
 Root      4 :     9.198059988995801   Change is   -0.000000014556007
 Root      5 :     9.409924140311297   Change is   -0.000000144772761
 Root      6 :     9.453847077853540   Change is   -0.000000018923851
 Root      7 :     9.724992028331336   Change is   -0.000000162930414
 Root      8 :    10.013560396178940   Change is   -0.000003487822120
 Root      9 :    10.198763789667780   Change is   -0.000005588963777
 Root     10 :    10.425762005933910   Change is   -0.000001533601391
 Root     11 :    10.526693559945100   Change is   -0.000000129744481
 Root     12 :    10.649272954722290   Change is   -0.000000193923341
 Root     13 :    10.666398205123290   Change is   -0.000000017569856
 Root     14 :    10.835137599112790   Change is   -0.000000053560021
 Root     15 :    11.011958248834520   Change is   -0.000000014923206
 Iteration     5 Dimension   165 NMult   150 NNew     15
 CISAX will form    15 AO SS matrices at one time.
 NMat=    15 NSing=    15 JSym2X= 0.
 Root      1 not converged, maximum delta is    0.000001755315107
 Root      2 not converged, maximum delta is    0.000002311744647
 Root      3 has converged.
 Root      4 has converged.
 Root      5 has converged.
 Root      6 has converged.
 Root      7 has converged.
 Root      8 not converged, maximum delta is    0.000002593821660
 Root      9 not converged, maximum delta is    0.000002942341478
 Root     10 not converged, maximum delta is    0.000001752599625
 Root     11 has converged.
 Root     12 has converged.
 Root     13 has converged.
 Root     14 has converged.
 Root     15 has converged.
 Excitation Energies [eV] at current iteration:
 Root      1 :     7.649871363862903   Change is   -0.000000002310454
 Root      2 :     7.864408486286718   Change is   -0.000000001444097
 Root      3 :     8.486844783660697   Change is   -0.000000000068806
 Root      4 :     9.198059988988799   Change is   -0.000000000007003
 Root      5 :     9.409924140199239   Change is   -0.000000000112058
 Root      6 :     9.453847077839507   Change is   -0.000000000014033
 Root      7 :     9.724992028217835   Change is   -0.000000000113502
 Root      8 :    10.013560392930360   Change is   -0.000000003248577
 Root      9 :    10.198763784773570   Change is   -0.000000004894205
 Root     10 :    10.425762004522970   Change is   -0.000000001410943
 Root     11 :    10.526693559815010   Change is   -0.000000000130087
 Root     12 :    10.649272954536280   Change is   -0.000000000186012
 Root     13 :    10.666398205106030   Change is   -0.000000000017265
 Root     14 :    10.835137599052960   Change is   -0.000000000059831
 Root     15 :    11.011958248815590   Change is   -0.000000000018929
 Iteration     6 Dimension   170 NMult   165 NNew      5
 CISAX will form     5 AO SS matrices at one time.
 NMat=     5 NSing=     5 JSym2X= 0.
 Root      1 has converged.
 Root      2 has converged.
 Root      3 has converged.
 Root      4 has converged.
 Root      5 has converged.
 Root      6 has converged.
 Root      7 has converged.
 Root      8 has converged.
 Root      9 has converged.
 Root     10 has converged.
 Root     11 has converged.
 Root     12 has converged.
 Root     13 has converged.
 Root     14 has converged.
 Root     15 has converged.
 Excitation Energies [eV] at current iteration:
 Root      1 :     7.649871363861394   Change is   -0.000000000001508
 Root      2 :     7.864408486286034   Change is   -0.000000000000684
 Root      3 :     8.486844783660670   Change is   -0.000000000000027
 Root      4 :     9.198059988988780   Change is   -0.000000000000020
 Root      5 :     9.409924140199184   Change is   -0.000000000000056
 Root      6 :     9.453847077839509   Change is    0.000000000000003
 Root      7 :     9.724992028217777   Change is   -0.000000000000057
 Root      8 :    10.013560392928230   Change is   -0.000000000002139
 Root      9 :    10.198763784769620   Change is   -0.000000000003955
 Root     10 :    10.425762004521860   Change is   -0.000000000001109
 Root     11 :    10.526693559814900   Change is   -0.000000000000116
 Root     12 :    10.649272954536130   Change is   -0.000000000000142
 Root     13 :    10.666398205106020   Change is   -0.000000000000012
 Root     14 :    10.835137599052920   Change is   -0.000000000000041
 Root     15 :    11.011958248815570   Change is   -0.000000000000021
 Convergence achieved on expansion vectors.
 ***********************************************************************
 Excited states from <AA,BB:AA,BB> singles matrix:
 ***********************************************************************
 
 1PDM for each excited state written to RWF  633
 Ground to excited state transition densities written to RWF  633
 Ground to excited state transition electric dipole moments (Au):
       state          X           Y           Z        Dip. S.      Osc.
         1         0.6496     -0.0470     -0.0078      0.4243      0.0795
         2         0.9203     -0.0660      0.0065      0.8513      0.1640
         3         0.1863      0.0121     -0.0200      0.0353      0.0073
         4         0.0014     -0.0486     -0.1582      0.0274      0.0062
         5        -0.0535     -0.2051      0.0678      0.0495      0.0114
         6         0.0168      0.0592     -0.0457      0.0059      0.0014
         7         0.1017      0.1834     -0.0455      0.0460      0.0110
         8         0.8719      0.2014      0.0012      0.8007      0.1964
         9        -0.0388      1.3386     -0.0826      1.8002      0.4498
        10         0.0395      0.6927      0.0737      0.4868      0.1243
        11         0.0100      0.1924     -0.0475      0.0394      0.0102
        12        -0.0496      0.2386      0.0439      0.0613      0.0160
        13        -0.0004      0.0581      0.0034      0.0034      0.0009
        14         0.0686     -0.0425      0.0033      0.0065      0.0017
        15         0.0124      0.0178      0.0053      0.0005      0.0001
 Ground to excited state transition velocity dipole moments (Au):
       state          X           Y           Z        Dip. S.      Osc.
         1        -0.0199     -0.0442      0.0020      0.0024      0.0056
         2        -0.0231      0.0237      0.0001      0.0011      0.0025
         3        -0.0071      0.0023     -0.0087      0.0001      0.0003
         4        -0.0008      0.0041      0.0920      0.0085      0.0167
         5         0.0060      0.0043      0.0356      0.0013      0.0026
         6        -0.0021     -0.0019     -0.0124      0.0002      0.0003
         7        -0.0110     -0.0086     -0.0144      0.0004      0.0008
         8        -0.1093     -0.0114      0.0060      0.0121      0.0220
         9         0.0088     -0.0719      0.0198      0.0056      0.0100
        10        -0.0072     -0.0481     -0.0212      0.0028      0.0049
        11        -0.0007     -0.0151      0.0233      0.0008      0.0013
        12         0.0123     -0.0198      0.0026      0.0005      0.0009
        13        -0.0019     -0.0050      0.0289      0.0009      0.0015
        14        -0.0087      0.0032      0.0026      0.0001      0.0002
        15         0.0032     -0.0011      0.0012      0.0000      0.0000
 Ground to excited state transition magnetic dipole moments (Au):
       state          X           Y           Z
         1         0.0127     -0.0068      0.2404
         2         0.0145     -0.0311      0.3499
         3        -0.0718      0.4430      0.0890
         4        -1.5528     -0.0196      0.0010
         5         0.4840      0.0805      0.0138
         6        -0.0254      0.1411      0.0209
         7        -0.1035      0.0002     -0.0501
         8         0.0246     -0.0125     -0.2894
         9         0.0276      0.0077      0.0400
        10         0.0588     -0.2334      0.0028
        11         0.1741      0.1616      0.0274
        12        -0.0970      0.5559      0.0116
        13        -0.1461     -0.1613     -0.0061
        14         0.0199     -0.1485     -0.0837
        15        -0.2868     -0.2669     -0.0485
 Ground to excited state transition velocity quadrupole moments (Au):
       state          XX          YY          ZZ          XY          XZ          YZ
         1        -0.0031     -0.0368      0.0263      0.1348      0.0064      0.0027
         2         0.0152      0.0117     -0.0126      0.2757      0.0158      0.0025
         3         0.0077     -0.0028     -0.0017      0.0677     -0.1254     -0.0256
         4        -0.0221      0.0136      0.0055      0.0065      0.0064     -0.2132
         5        -0.0437      0.0383      0.0023      0.0121      0.0183      0.0042
         6         0.0150     -0.0076     -0.0040     -0.0028      0.1413     -0.0363
         7         0.0337     -0.0430     -0.0075     -0.0597     -0.0155     -0.0889
         8         0.0129     -0.0385     -0.0077     -0.4145      0.0090      0.0085
         9         0.3156     -0.2548     -0.0505      0.0330      0.0025      0.0154
        10         0.1766     -0.1500     -0.0293     -0.0061     -0.0024     -0.0122
        11         0.0445     -0.0552      0.0038      0.0060      0.0379      0.1086
        12         0.0772     -0.0510     -0.0154     -0.0003     -0.0512     -0.0470
        13         0.0265     -0.0107     -0.0052      0.0170     -0.0276     -0.0295
        14        -0.0181      0.0103      0.0029     -0.0823     -0.0044      0.0181
        15        -0.0014     -0.0048     -0.0008      0.0006      0.0551     -0.0504
 <0|del|b> * <b|rxdel|0> + <0|del|b> * <b|delr+rdel|0>
 Rotatory Strengths (R) in cgs (10**-40 erg-esu-cm/Gauss)
       state          XX          YY          ZZ    R(velocity)    E-M Angle
         1         1.6696     -0.1233     -0.2233      0.4410       87.42
         2        -1.3141     -0.4758     -0.7783     -0.8561       95.18
         3        -0.0560      0.5754      1.2083      0.5759       81.68
         4         0.6110      0.9929      1.0985      0.9008       89.48
         5         1.2151      3.0543      3.3698      2.5464       77.92
         6        -0.2263     -0.1643     -0.5599     -0.3168      104.72
         7         1.4292      1.9634      0.2903      1.2276       36.33
         8        -3.8117     -2.7532     -1.6532     -2.7394       97.68
         9         1.0109      0.4879     -0.5874      0.3038       82.49
        10        10.3212     -0.4864      9.9985      6.6111       32.77
        11        -0.9939      0.2859     -2.7916     -1.1665      106.76
        12       -10.8134     -1.5694     -9.5648     -7.3159      156.87
        13         0.8936     -0.3051      1.0567      0.5484       81.82
        14        -0.7833     -0.2978     -0.4427     -0.5080      121.23
        15         0.2708     -0.9895     -0.4489     -0.3892      118.23
 1/2[<0|r|b>*<b|rxdel|0> + (<0|rxdel|b>*<b|r|0>)*]
 Rotatory Strengths (R) in cgs (10**-40 erg-esu-cm/Gauss)
       state          XX          YY          ZZ     R(length)
         1        -5.8264     -0.2268      1.3200     -1.5778
         2        -9.4282     -1.4490     -1.6015     -4.1596
         3         9.4598     -3.8060      1.2612      2.3050
         4         1.5710     -0.6734      0.1121      0.3366
         5        18.3022     11.6764     -0.6629      9.7719
         6         0.3030     -5.9040      0.6745     -1.6422
         7         7.4409     -0.0308     -1.6108      1.9331
         8       -15.1510      1.7752      0.2552     -4.3735
         9         0.7561     -7.2662      2.3382     -1.3907
        10        -1.6414    114.3236     -0.1456     37.5122
        11        -1.2256    -21.9878      0.9228     -7.4302
        12        -3.4056    -93.7879     -0.3597    -32.5178
        13        -0.0372      6.6263      0.0145      2.2012
        14        -0.9641     -4.4609      0.1978     -1.7424
        15         2.5220      3.3524      0.1807      2.0184
  1/2[<0|del|b>*<b|r|0> + (<0|r|b>*<b|del|0>)*] (Au)
       state          X           Y           Z        Dip. S.   Osc.(frdel)
         1        -0.0129      0.0021      0.0000      0.0109      0.0073
         2        -0.0213     -0.0016      0.0000      0.0228      0.0152
         3        -0.0013      0.0000      0.0002      0.0011      0.0007
         4         0.0000     -0.0002     -0.0146      0.0148      0.0098
         5        -0.0003     -0.0009      0.0024     -0.0012     -0.0008
         6         0.0000     -0.0001      0.0006     -0.0004     -0.0003
         7        -0.0011     -0.0016      0.0007      0.0021      0.0014
         8        -0.0953     -0.0023      0.0000      0.0976      0.0651
         9        -0.0003     -0.0963     -0.0016      0.0983      0.0655
        10        -0.0003     -0.0333     -0.0016      0.0352      0.0235
        11         0.0000     -0.0029     -0.0011      0.0040      0.0027
        12        -0.0006     -0.0047      0.0001      0.0052      0.0035
        13         0.0000     -0.0003      0.0001      0.0002      0.0001
        14        -0.0006     -0.0001      0.0000      0.0007      0.0005
        15         0.0000      0.0000      0.0000      0.0000      0.0000

 Excitation energies and oscillator strengths:
 
 Excited State   1:      Singlet-A      7.6499 eV  162.07 nm  f=0.0795  <S**2>=0.000
      17 -> 19         0.40268
      18 -> 19         0.41042
      18 -> 20         0.38979
 This state for optimization and/or second-order correction.
 Total Energy, E(CIS) =  -228.444383268    
 Copying the excited state density for this state as the 1-particle RhoCI density.
 
 Excited State   2:      Singlet-A      7.8644 eV  157.65 nm  f=0.1640  <S**2>=0.000
      17 -> 19        -0.30413
      18 -> 19         0.54407
      18 -> 20        -0.29169
 
 Excited State   3:      Singlet-A      8.4868 eV  146.09 nm  f=0.0073  <S**2>=0.000
      18 -> 21         0.69403
 
 Excited State   4:      Singlet-A      9.1981 eV  134.79 nm  f=0.0062  <S**2>=0.000
      16 -> 19         0.67784
      18 -> 23         0.17301
 
 Excited State   5:      Singlet-A      9.4099 eV  131.76 nm  f=0.0114  <S**2>=0.000
      16 -> 19        -0.17265
      17 -> 21        -0.27407
      18 -> 22         0.10784
      18 -> 23         0.59270
 
 Excited State   6:      Singlet-A      9.4538 eV  131.15 nm  f=0.0014  <S**2>=0.000
      18 -> 22         0.68639
 
 Excited State   7:      Singlet-A      9.7250 eV  127.49 nm  f=0.0110  <S**2>=0.000
      17 -> 20         0.10417
      17 -> 21         0.60869
      18 -> 23         0.30838
 
 Excited State   8:      Singlet-A     10.0136 eV  123.82 nm  f=0.1964  <S**2>=0.000
      17 -> 20         0.65719
      17 -> 21        -0.13733
 
 Excited State   9:      Singlet-A     10.1988 eV  121.57 nm  f=0.4498  <S**2>=0.000
      15 -> 19        -0.28521
      17 -> 19        -0.38783
      17 -> 20        -0.13205
      17 -> 21        -0.12812
      18 -> 20         0.40716
      18 -> 24        -0.10921
 
 Excited State  10:      Singlet-A     10.4258 eV  118.92 nm  f=0.1243  <S**2>=0.000
      15 -> 19         0.61324
      16 -> 20        -0.15255
      17 -> 19        -0.18144
      18 -> 20         0.18166
 
 Excited State  11:      Singlet-A     10.5267 eV  117.78 nm  f=0.0102  <S**2>=0.000
      17 -> 22        -0.17262
      18 -> 24         0.66303
 
 Excited State  12:      Singlet-A     10.6493 eV  116.43 nm  f=0.0160  <S**2>=0.000
      14 -> 19         0.41702
      15 -> 19         0.10464
      16 -> 20         0.41846
      17 -> 22         0.34060
 
 Excited State  13:      Singlet-A     10.6664 eV  116.24 nm  f=0.0009  <S**2>=0.000
      14 -> 19        -0.26068
      16 -> 20        -0.22664
      17 -> 22         0.58163
      18 -> 24         0.16241
 
 Excited State  14:      Singlet-A     10.8351 eV  114.43 nm  f=0.0017  <S**2>=0.000
      17 -> 23         0.69277
 
 Excited State  15:      Singlet-A     11.0120 eV  112.59 nm  f=0.0001  <S**2>=0.000
      13 -> 19        -0.11400
      14 -> 19         0.47989
      16 -> 20        -0.47937
 SavETr:  write IOETrn=   770 NScale= 10 NData=  16 NLR=1 NState=   15 LETran=     280.
 The selected state is a singlet
 CISAX will form     1 AO SS matrices at one time.
 NMat=     1 NSing=     1 JSym2X= 0.
 CISAX will form     1 AO SS matrices at one time.
 NMat=     1 NSing=     1 JSym2X= 0.
 Leave Link  914 at Tue Dec 15 16:13:38 2015, MaxMem=    33554432 cpu:        33.0
 (Enter /home/Applications/g09/g09/l1002.exe)
 Minotr:  Closed shell wavefunction.
          Computing CIS/TD-HF/TD-KS derivatives.
          Using Z-Vector for PSCF gradient.
          Skipping F1 and S1 gradient terms here.
          IDoAtm=111111111
          Frozen-core window.
          Direct CPHF calculation.
          Differentiating once with respect to electric field.
                with respect to dipole field.
          Differentiating once with respect to nuclear coordinates.
          Requested convergence is 1.0D-10 RMS, and 1.0D-09 maximum.
          NewPWx=F KeepS1=T KeepF1=T KeepIn=T MapXYZ=F SortEE=F KeepMc=T.
          MDV=      33554290 using IRadAn=       0.
 Using stored XC quadrature information.
 Keep R1 ints in memory in canonical form, NReq=1898913.
 FoFCou: FMM=F IPFlag=           0 FMFlag=           0 FMFlg1=           0
         NFxFlg=           0 DoJE=F BraDBF=F KetDBF=F FulRan=T
         wScrn=  0.000000 ICntrl=     600 IOpCl=  0 I1Cent=           0 NGrid=           0
         NMat0=    1 NMatS0=   1431 NMatT0=    0 NMatD0=    1 NMtDS0=    0 NMtDT0=    0
 Symmetry not used in FoFCou.
          Solving linear equations separately, MaxMat=       0.
          There are     1 degrees of freedom in the 1st order CPHF.  IDoFFX=0 NUNeed=     1.
 LinEq1:  Iter=  0 NonCon=     1 RMS=4.13D-02 Max=6.44D-01 NDo=     1
 AX will form     1 AO Fock derivatives at one time.
 LinEq1:  Iter=  1 NonCon=     1 RMS=1.34D-02 Max=1.77D-01 NDo=     1
 LinEq1:  Iter=  2 NonCon=     1 RMS=9.44D-03 Max=1.15D-01 NDo=     1
 LinEq1:  Iter=  3 NonCon=     1 RMS=4.22D-03 Max=5.22D-02 NDo=     1
 LinEq1:  Iter=  4 NonCon=     1 RMS=3.01D-03 Max=3.01D-02 NDo=     1
 LinEq1:  Iter=  5 NonCon=     1 RMS=6.57D-04 Max=5.59D-03 NDo=     1
 LinEq1:  Iter=  6 NonCon=     1 RMS=2.12D-04 Max=1.52D-03 NDo=     1
 LinEq1:  Iter=  7 NonCon=     1 RMS=6.52D-05 Max=6.34D-04 NDo=     1
 LinEq1:  Iter=  8 NonCon=     1 RMS=2.58D-05 Max=2.95D-04 NDo=     1
 LinEq1:  Iter=  9 NonCon=     1 RMS=8.32D-06 Max=4.79D-05 NDo=     1
 LinEq1:  Iter= 10 NonCon=     1 RMS=9.45D-07 Max=5.76D-06 NDo=     1
 LinEq1:  Iter= 11 NonCon=     1 RMS=1.46D-07 Max=1.03D-06 NDo=     1
 LinEq1:  Iter= 12 NonCon=     1 RMS=1.57D-08 Max=1.01D-07 NDo=     1
 LinEq1:  Iter= 13 NonCon=     1 RMS=2.00D-09 Max=1.18D-08 NDo=     1
 LinEq1:  Iter= 14 NonCon=     1 RMS=2.02D-10 Max=9.97D-10 NDo=     1
 LinEq1:  Iter= 15 NonCon=     0 RMS=1.89D-11 Max=1.10D-10 NDo=     1
 Linear equations converged to 1.000D-10 1.000D-09 after    15 iterations.
 End of Minotr F.D. properties file   721 does not exist.
 End of Minotr F.D. properties file   722 does not exist.
 End of Minotr F.D. properties file   788 does not exist.
 Leave Link 1002 at Tue Dec 15 16:13:47 2015, MaxMem=    33554432 cpu:         8.9
 (Enter /home/Applications/g09/g09/l601.exe)
 Copying SCF densities to generalized density rwf, IOpCl= 0 IROHF=0.

 **********************************************************************

            Population analysis using the SCF density.

 **********************************************************************

 Orbital symmetries:
       Occupied  (A) (A) (A) (A) (A) (A) (A) (A) (A) (A) (A) (A)
                 (A) (A) (A) (A) (A) (A)
       Virtual   (A) (A) (A) (A) (A) (A) (A) (A) (A) (A) (A) (A)
                 (A) (A) (A) (A) (A) (A) (A) (A) (A) (A) (A) (A)
                 (A) (A) (A) (A) (A) (A) (A) (A) (A) (A) (A)
 The electronic state is 1-A.
 Alpha  occ. eigenvalues --  -19.11749 -10.17341 -10.17302 -10.12096 -10.11534
 Alpha  occ. eigenvalues --   -1.17305  -0.81646  -0.76517  -0.61546  -0.56031
 Alpha  occ. eigenvalues --   -0.54590  -0.47485  -0.44118  -0.41591  -0.39853
 Alpha  occ. eigenvalues --   -0.35980  -0.28190  -0.23588
 Alpha virt. eigenvalues --    0.03714   0.09173   0.11972   0.15270   0.15918
 Alpha virt. eigenvalues --    0.19091   0.23709   0.25732   0.37543   0.43366
 Alpha virt. eigenvalues --    0.51140   0.69327   0.69936   0.72074   0.76235
 Alpha virt. eigenvalues --    0.76518   0.78844   0.80725   0.83409   0.84240
 Alpha virt. eigenvalues --    0.92905   0.97154   0.97698   1.02359   1.19100
 Alpha virt. eigenvalues --    1.20075   1.33839   1.37155   1.50495   1.55761
 Alpha virt. eigenvalues --    1.62183   1.73851   1.98249   2.13920   3.25339
     Molecular Orbital Coefficients:
                           1         2         3         4         5
                           O         O         O         O         O
     Eigenvalues --   -19.11749 -10.17341 -10.17302 -10.12096 -10.11534
   1 1   C  1S          0.00014  -0.00656  -0.00502  -0.10909   0.97994
   2        2S          0.00050  -0.00446  -0.00346  -0.01638   0.10965
   3        2PX         0.00109   0.00122   0.00094  -0.00150   0.00092
   4        2PY         0.00089   0.00215   0.00231   0.00062  -0.00175
   5        2PZ        -0.00003  -0.00002  -0.00002   0.00003   0.00012
   6        3S         -0.00592   0.04263   0.00930   0.05185  -0.10484
   7        3PX        -0.00448  -0.00296  -0.00331   0.02375  -0.01618
   8        3PY         0.00775  -0.02320  -0.00289  -0.01393   0.02853
   9        3PZ         0.00002   0.00031  -0.00006  -0.00001  -0.00055
  10 2   C  1S         -0.00036   0.79384   0.58387  -0.00075   0.00785
  11        2S         -0.00023   0.08809   0.06068  -0.00005  -0.00431
  12        2PX         0.00218   0.00307   0.00119   0.00014  -0.00105
  13        2PY        -0.00176   0.00022  -0.00063  -0.00069  -0.00260
  14        2PZ        -0.00001  -0.00006  -0.00009   0.00001   0.00001
  15        3S          0.01894  -0.07314  -0.02968  -0.01420   0.04446
  16        3PX         0.01565  -0.01898   0.00761  -0.00671   0.01753
  17        3PY         0.00024  -0.02164  -0.00063  -0.00341   0.02046
  18        3PZ        -0.00007   0.00035   0.00039   0.00012  -0.00019
  19 3   O  1S          0.98288   0.00003   0.00051   0.00005   0.00007
  20        2S          0.10908   0.00048   0.00285   0.00017   0.00025
  21        2PX         0.00031  -0.00020  -0.00024   0.00001  -0.00003
  22        2PY         0.00443   0.00034   0.00060  -0.00006  -0.00010
  23        2PZ         0.00001   0.00001   0.00003   0.00001   0.00001
  24        3S         -0.06561  -0.00016  -0.00315  -0.00348  -0.00424
  25        3PX        -0.00142   0.00209  -0.00125  -0.00263   0.00216
  26        3PY        -0.01495  -0.00084  -0.00646  -0.00148  -0.00188
  27        3PZ        -0.00004  -0.00004  -0.00018  -0.00003  -0.00006
  28 4   C  1S         -0.00021  -0.58481   0.79306   0.00907   0.00110
  29        2S          0.00011  -0.06619   0.08417  -0.00395  -0.00099
  30        2PX        -0.00238   0.00267  -0.00227   0.00072   0.00002
  31        2PY        -0.00175  -0.00035  -0.00067  -0.00244  -0.00127
  32        2PZ        -0.00001   0.00002  -0.00011  -0.00001   0.00002
  33        3S          0.02085   0.06015  -0.04732   0.04587  -0.00448
  34        3PX        -0.01732  -0.01861  -0.00441  -0.01625   0.00236
  35        3PY        -0.00011   0.02101  -0.00645   0.02131   0.00106
  36        3PZ         0.00000  -0.00011   0.00049  -0.00011   0.00005
  37 5   C  1S          0.00015   0.00549  -0.00770   0.98005   0.10861
  38        2S          0.00056   0.00324  -0.00444   0.11012   0.00803
  39        2PX        -0.00111   0.00083  -0.00111  -0.00161   0.00113
  40        2PY         0.00097  -0.00135   0.00277  -0.00206   0.00017
  41        2PZ        -0.00002   0.00001  -0.00003   0.00007   0.00006
  42        3S         -0.00688  -0.03737   0.01827  -0.11231   0.02818
  43        3PX         0.00581  -0.00011   0.00514   0.02297  -0.01958
  44        3PY         0.00664   0.02090  -0.00831   0.02896  -0.00642
  45        3PZ        -0.00002  -0.00024   0.00002  -0.00035  -0.00018
  46 6   H  1S         -0.00090   0.00025  -0.00117  -0.00260  -0.00038
  47        2S         -0.00242  -0.00196   0.00009   0.00275   0.00449
  48 7   H  1S          0.00028   0.00282  -0.00132  -0.00022  -0.00009
  49        2S          0.00379   0.00113   0.01095   0.00492   0.00068
  50 8   H  1S          0.00033  -0.00316  -0.00049  -0.00013  -0.00010
  51        2S          0.00362   0.00172   0.01019  -0.00075   0.00531
  52 9   H  1S         -0.00094  -0.00074  -0.00097   0.00013  -0.00404
  53        2S         -0.00300   0.00240   0.00008   0.00432   0.00484
                           6         7         8         9        10
                           O         O         O         O         O
     Eigenvalues --    -1.17305  -0.81646  -0.76517  -0.61546  -0.56031
   1 1   C  1S         -0.02773   0.15414   0.04783  -0.11349   0.04136
   2        2S          0.02705  -0.16444  -0.05275   0.11569  -0.04027
   3        2PX         0.00985  -0.05705   0.06302  -0.11799  -0.15765
   4        2PY        -0.03444   0.07286   0.06416  -0.00631  -0.11747
   5        2PZ         0.00054  -0.00323  -0.00133   0.00484  -0.00301
   6        3S          0.04863  -0.30697  -0.08247   0.38317  -0.14243
   7        3PX         0.02491  -0.03016  -0.02325  -0.02818  -0.07110
   8        3PY        -0.04471   0.04376  -0.01464  -0.03076  -0.03121
   9        3PZ         0.00005  -0.00174  -0.00058   0.00398  -0.00188
  10 2   C  1S         -0.07374   0.06852   0.14188   0.00211  -0.10704
  11        2S          0.08073  -0.07985  -0.15312   0.00125   0.11761
  12        2PX         0.08493  -0.02447  -0.04993  -0.06336  -0.14684
  13        2PY        -0.02921  -0.12890   0.03069   0.21339   0.02873
  14        2PZ        -0.00055   0.00179   0.00247  -0.00050  -0.00800
  15        3S          0.03630  -0.10068  -0.34785  -0.05067   0.34619
  16        3PX        -0.04629  -0.01476  -0.02477  -0.03846  -0.08219
  17        3PY        -0.01235  -0.03456  -0.03386   0.04903   0.01551
  18        3PZ        -0.00018   0.00070   0.00201  -0.00021  -0.00591
  19 3   O  1S         -0.20931  -0.09084   0.01607  -0.00321   0.04451
  20        2S          0.18796   0.08781  -0.01403   0.00445  -0.04493
  21        2PX         0.01503   0.03050   0.25414   0.26591   0.01021
  22        2PY         0.12097  -0.02897  -0.00024  -0.02040  -0.02659
  23        2PZ        -0.00014   0.00071  -0.00029  -0.00001  -0.00793
  24        3S          0.67483   0.33261  -0.06195   0.01168  -0.19983
  25        3PX         0.01315   0.02541   0.20839   0.23131   0.01028
  26        3PY         0.15292  -0.00991  -0.00653  -0.02052  -0.02818
  27        3PZ         0.00002   0.00040  -0.00023   0.00003  -0.00681
  28 4   C  1S         -0.08537   0.03481  -0.15027   0.00292  -0.10352
  29        2S          0.09229  -0.04296   0.16551  -0.00505   0.11409
  30        2PX        -0.09990  -0.00067  -0.04935  -0.05897   0.15054
  31        2PY        -0.03404  -0.13992  -0.00050  -0.23355   0.00777
  32        2PZ        -0.00045   0.00118  -0.00268   0.00075  -0.00844
  33        3S          0.04134  -0.03934   0.35208   0.02936   0.33504
  34        3PX         0.05430   0.01647  -0.02225  -0.02066   0.08831
  35        3PY        -0.00985  -0.03024   0.04785  -0.06340   0.00496
  36        3PZ        -0.00055   0.00027  -0.00196   0.00027  -0.00627
  37 5   C  1S         -0.02839   0.13763  -0.07999   0.10109   0.04235
  38        2S          0.02767  -0.14712   0.08723  -0.10319  -0.04191
  39        2PX        -0.01163   0.07550   0.03815  -0.09529   0.15014
  40        2PY        -0.03564   0.05971  -0.08048   0.06546  -0.11291
  41        2PZ         0.00044  -0.00201   0.00144  -0.00285  -0.00258
  42        3S          0.05385  -0.26555   0.14920  -0.33733  -0.13859
  43        3PX        -0.03206   0.01900  -0.02941  -0.01243   0.06262
  44        3PY        -0.03729   0.03547   0.00887   0.05371  -0.03301
  45        3PZ         0.00025  -0.00133   0.00074  -0.00250  -0.00168
  46 6   H  1S          0.00634  -0.04051   0.03080  -0.07150  -0.02856
  47        2S          0.01379  -0.01088   0.00863  -0.04375  -0.02043
  48 7   H  1S          0.01109  -0.00383   0.07172   0.01970   0.14742
  49        2S         -0.02416  -0.00443   0.02793   0.01411   0.08059
  50 8   H  1S          0.00915  -0.01712  -0.06924  -0.01490   0.14647
  51        2S         -0.02159  -0.00600  -0.02644  -0.01680   0.08179
  52 9   H  1S          0.00782  -0.06047  -0.02443   0.11532  -0.03880
  53        2S          0.01729  -0.01658  -0.00470   0.05805  -0.02687
                          11        12        13        14        15
                           O         O         O         O         O
     Eigenvalues --    -0.54590  -0.47485  -0.44118  -0.41591  -0.39853
   1 1   C  1S         -0.04315   0.00285  -0.04369   0.00009   0.02193
   2        2S          0.04075  -0.00292   0.04713  -0.00554  -0.02277
   3        2PX        -0.02044  -0.01492  -0.04766  -0.16280  -0.27242
   4        2PY         0.21886  -0.00084   0.02204   0.27113  -0.05052
   5        2PZ         0.00409   0.10626   0.00608   0.00594   0.00492
   6        3S          0.19308  -0.01036   0.14302   0.00099  -0.11298
   7        3PX        -0.04572  -0.01182  -0.02663  -0.13000  -0.14611
   8        3PY         0.11632   0.00534   0.03352   0.16438   0.00415
   9        3PZ         0.00424   0.07428   0.00432   0.00501   0.00191
  10 2   C  1S          0.01536  -0.00379   0.03298   0.03261  -0.01591
  11        2S         -0.02043   0.00449  -0.03059  -0.03958   0.02267
  12        2PX        -0.12570  -0.00211   0.26428  -0.07127   0.11104
  13        2PY        -0.12143   0.00408   0.02843  -0.15518   0.13845
  14        2PZ         0.00169   0.18350   0.00848  -0.00086  -0.00608
  15        3S         -0.01700   0.01314  -0.12360  -0.11163   0.06806
  16        3PX        -0.08635   0.00286   0.17824  -0.05969   0.08261
  17        3PY        -0.11558   0.00614   0.03187  -0.06794   0.14461
  18        3PZ        -0.00012   0.16063   0.00645  -0.00271  -0.00697
  19 3   O  1S         -0.05547   0.00186  -0.00301   0.00752  -0.00140
  20        2S          0.05539  -0.00191   0.00163  -0.00945  -0.00257
  21        2PX        -0.04379   0.00138  -0.22423  -0.03853   0.02253
  22        2PY        -0.20504   0.00717  -0.00020   0.11679   0.16982
  23        2PZ         0.00140   0.38569   0.00136  -0.01181  -0.02234
  24        3S          0.20894  -0.00799   0.01320  -0.01020   0.04705
  25        3PX        -0.03943   0.00153  -0.21293  -0.04607   0.02556
  26        3PY        -0.18875   0.00624   0.00261   0.11892   0.17519
  27        3PZ         0.00188   0.38484   0.00143  -0.01224  -0.02344
  28 4   C  1S          0.00893  -0.00395  -0.03173  -0.04023   0.01482
  29        2S         -0.01267   0.00496   0.02760   0.05134  -0.01538
  30        2PX         0.14699  -0.00136   0.25103  -0.13248  -0.04702
  31        2PY        -0.06329   0.00643  -0.00459   0.20197   0.00367
  32        2PZ         0.00033   0.20267  -0.00730  -0.00551  -0.00392
  33        3S         -0.00582   0.01113   0.12741   0.14762  -0.04192
  34        3PX         0.09365  -0.00352   0.15893  -0.09579  -0.02460
  35        3PY        -0.09990   0.00753  -0.02552   0.17057   0.06227
  36        3PZ        -0.00093   0.17331  -0.00523  -0.00479  -0.00599
  37 5   C  1S         -0.06067   0.00204   0.05035   0.02350   0.00379
  38        2S          0.05772  -0.00230  -0.05341  -0.01888  -0.00957
  39        2PX         0.04668   0.01451  -0.00738   0.06863   0.31969
  40        2PY         0.17182  -0.00444  -0.04812  -0.22335   0.13487
  41        2PZ         0.00369   0.10871  -0.00370  -0.00212   0.00910
  42        3S          0.25771  -0.00537  -0.17021  -0.12831  -0.02680
  43        3PX         0.04991   0.00880  -0.00450  -0.00742   0.21225
  44        3PY         0.08267   0.00074  -0.04698  -0.10585   0.12411
  45        3PZ         0.00391   0.07373  -0.00279  -0.00365   0.00670
  46 6   H  1S          0.12105   0.00374  -0.07848  -0.11101   0.20716
  47        2S          0.07133   0.00078  -0.06008  -0.10239   0.20282
  48 7   H  1S          0.06684  -0.00254   0.17915  -0.09356  -0.05592
  49        2S          0.02798   0.00084   0.14840  -0.08624  -0.04911
  50 8   H  1S          0.06391   0.00067  -0.19867   0.04435  -0.09848
  51        2S          0.02824   0.00342  -0.16508   0.04367  -0.09335
  52 9   H  1S          0.13384   0.00438   0.08088   0.22035   0.05604
  53        2S          0.06589  -0.00073   0.05184   0.19171   0.05380
                          16        17        18        19        20
                           O         O         O         V         V
     Eigenvalues --    -0.35980  -0.28190  -0.23588   0.03714   0.09173
   1 1   C  1S          0.01787  -0.00270   0.00313  -0.00199  -0.00394
   2        2S         -0.01836   0.00302  -0.00429  -0.00021   0.00401
   3        2PX         0.11214  -0.01417   0.00112  -0.00336  -0.00743
   4        2PY         0.14496   0.00376  -0.00235   0.01163   0.00997
   5        2PZ        -0.00072  -0.31110   0.16065  -0.18407  -0.33125
   6        3S         -0.12432   0.00684  -0.00118   0.02530   0.01508
   7        3PX         0.12879  -0.01174   0.00594  -0.00685  -0.04823
   8        3PY         0.09543   0.00629  -0.01131   0.02297   0.02833
   9        3PZ        -0.00181  -0.31777   0.16510  -0.33465  -0.68934
  10 2   C  1S         -0.02377   0.00127  -0.00331  -0.00703   0.00096
  11        2S          0.02791  -0.00150   0.00425   0.00427  -0.00347
  12        2PX         0.01850   0.00271  -0.00623  -0.01043  -0.01557
  13        2PY        -0.19532   0.00116   0.00385  -0.00414  -0.00793
  14        2PZ         0.00121  -0.10684   0.32728   0.32500   0.20197
  15        3S          0.09620  -0.00076   0.00521   0.06710   0.01129
  16        3PX        -0.01142   0.00250  -0.01275  -0.02656  -0.02524
  17        3PY        -0.01002   0.00475  -0.00101  -0.00323  -0.01218
  18        3PZ         0.00095  -0.06770   0.35150   0.51634   0.42129
  19 3   O  1S          0.06890  -0.00094  -0.00030   0.00112   0.00038
  20        2S         -0.06829   0.00073   0.00027  -0.00187  -0.00006
  21        2PX        -0.00227  -0.00054   0.00559   0.00037  -0.00341
  22        2PY         0.38823   0.00647  -0.00036   0.00391  -0.00346
  23        2PZ         0.00277   0.29868   0.03685  -0.29701   0.01848
  24        3S         -0.25437   0.00701   0.00167  -0.00211  -0.00510
  25        3PX        -0.00323  -0.00025   0.00373   0.00040  -0.00649
  26        3PY         0.42161   0.00715  -0.00041   0.00785  -0.00647
  27        3PZ         0.00317   0.34078   0.04645  -0.42979   0.03034
  28 4   C  1S         -0.02016   0.00043   0.00342  -0.00640   0.00286
  29        2S          0.02363  -0.00049  -0.00425   0.00386   0.00042
  30        2PX         0.01266  -0.00133  -0.00756   0.01205  -0.02361
  31        2PY        -0.21985   0.00183  -0.00130  -0.00545   0.01240
  32        2PZ        -0.00126  -0.03210  -0.32716   0.31524  -0.23021
  33        3S          0.07682   0.00052  -0.00590   0.05902  -0.05367
  34        3PX         0.04863   0.00061  -0.01314   0.03068  -0.04847
  35        3PY        -0.02534   0.00482   0.00357  -0.00846   0.01780
  36        3PZ        -0.00116   0.00190  -0.33887   0.49684  -0.45655
  37 5   C  1S          0.02236  -0.00157  -0.00341  -0.00227   0.00748
  38        2S         -0.02330   0.00144   0.00453  -0.00016  -0.00608
  39        2PX        -0.09603   0.01417   0.00502   0.00567  -0.01702
  40        2PY         0.18709   0.00272   0.00225   0.01250  -0.02295
  41        2PZ        -0.00125  -0.27335  -0.22419  -0.14860   0.34299
  42        3S         -0.14500   0.00620   0.00269   0.02917  -0.05145
  43        3PX        -0.09784   0.00981   0.01006   0.00970  -0.06725
  44        3PY         0.13170   0.00408   0.01090   0.02011  -0.05540
  45        3PZ        -0.00126  -0.27894  -0.23573  -0.26444   0.70922
  46 6   H  1S          0.03887   0.00185   0.00134  -0.00996   0.01778
  47        2S          0.06256   0.00404  -0.00024  -0.04124   0.10633
  48 7   H  1S          0.12123  -0.00299  -0.00045  -0.01208   0.01310
  49        2S          0.12720  -0.00463   0.00009  -0.05547   0.08141
  50 8   H  1S          0.08803  -0.00333  -0.00079  -0.01231  -0.00741
  51        2S          0.09349  -0.00491  -0.00218  -0.05549  -0.03167
  52 9   H  1S          0.02184   0.00197  -0.00116  -0.01020  -0.01002
  53        2S          0.04944   0.00361   0.00143  -0.03718  -0.03882
                          21        22        23        24        25
                           V         V         V         V         V
     Eigenvalues --     0.11972   0.15270   0.15918   0.19091   0.23709
   1 1   C  1S          0.01645   0.01598  -0.03749   0.11096  -0.08288
   2        2S          0.00053  -0.01487   0.04250  -0.09077   0.02120
   3        2PX         0.05159   0.06646   0.06077   0.07732  -0.03283
   4        2PY        -0.11958  -0.02659  -0.06471  -0.18748   0.06993
   5        2PZ        -0.00054   0.00453  -0.01775  -0.02834   0.00187
   6        3S         -0.36155  -0.16107   0.12202  -1.11518   1.65966
   7        3PX         0.09923   0.22851   0.10135   0.57433   0.18620
   8        3PY        -0.28058  -0.13249   0.03466  -0.98406   0.17978
   9        3PZ        -0.00587   0.01596  -0.05566  -0.09572   0.01575
  10 2   C  1S          0.06721  -0.08891   0.05622  -0.04343  -0.04649
  11        2S         -0.05135   0.06004  -0.03662   0.05107   0.03882
  12        2PX         0.12808  -0.00340   0.26530   0.10018   0.19973
  13        2PY         0.03933  -0.16788   0.07001  -0.00965  -0.19347
  14        2PZ         0.01639  -0.01080   0.02118   0.00640   0.00235
  15        3S         -0.73486   0.85821  -0.65171   0.05476   0.29058
  16        3PX         0.37097  -0.15309   0.87254  -0.10419   0.59685
  17        3PY         0.07444  -0.49161   0.23625  -0.10046  -0.80516
  18        3PZ         0.03673  -0.02706   0.05532   0.03899   0.00062
  19 3   O  1S          0.00433   0.08459   0.00227   0.03096   0.07946
  20        2S         -0.00050  -0.06247  -0.00128  -0.02032  -0.03659
  21        2PX        -0.01206   0.02266   0.00964   0.05866   0.20403
  22        2PY        -0.06505  -0.12033   0.00090  -0.04928  -0.05548
  23        2PZ        -0.01980   0.00632   0.00140  -0.00037  -0.00232
  24        3S         -0.06297  -0.69436  -0.01706  -0.28236  -0.85144
  25        3PX        -0.01125   0.05065   0.05784   0.03491   0.43680
  26        3PY        -0.12884  -0.18172   0.00067  -0.09401  -0.19073
  27        3PZ        -0.03447   0.01021   0.00284  -0.00148  -0.00439
  28 4   C  1S          0.04959  -0.09140  -0.05364   0.02578   0.06364
  29        2S         -0.03074   0.07038   0.03524  -0.03801  -0.03736
  30        2PX        -0.13633   0.02148   0.24292  -0.00477  -0.11756
  31        2PY         0.06604  -0.11621  -0.09169  -0.06776  -0.04260
  32        2PZ         0.03583  -0.00645  -0.02399  -0.00443   0.00371
  33        3S         -0.65253   0.78795   0.61956  -0.01513  -1.08394
  34        3PX        -0.31944   0.28663   0.80741  -0.25517  -0.39828
  35        3PY         0.10213  -0.43527  -0.29047  -0.18221  -0.35735
  36        3PZ         0.08309  -0.01170  -0.06175  -0.02580   0.01498
  37 5   C  1S          0.05959   0.06976   0.03066  -0.08278  -0.00468
  38        2S         -0.03581  -0.05461  -0.03836   0.06645   0.00163
  39        2PX        -0.09237  -0.08188   0.09013   0.07510   0.23798
  40        2PY        -0.18292  -0.11228   0.06831   0.09698  -0.03984
  41        2PZ        -0.03520  -0.01118   0.01978   0.02177   0.00541
  42        3S         -0.64197  -0.61265  -0.04993   0.68761   0.16076
  43        3PX        -0.25865  -0.32750   0.14934   0.45475   1.09955
  44        3PY        -0.48060  -0.43635  -0.00754   0.58651  -0.33208
  45        3PZ        -0.08487  -0.02492   0.05968   0.07524   0.01038
  46 6   H  1S          0.10256   0.07269  -0.01053  -0.03756   0.01384
  47        2S          1.04049   0.94328  -0.13687  -1.03772  -0.47549
  48 7   H  1S          0.06337  -0.07324  -0.07732   0.00669  -0.04273
  49        2S          0.77740  -0.93820  -1.29053   0.13041   0.59777
  50 8   H  1S          0.07338  -0.06038   0.08032  -0.01989   0.01691
  51        2S          0.85138  -0.86000   1.34078  -0.14245   0.03396
  52 9   H  1S          0.06692   0.04293   0.01063   0.07061   0.07956
  53        2S          0.64975   0.43499   0.04133   1.84809  -0.65308
                          26        27        28        29        30
                           V         V         V         V         V
     Eigenvalues --     0.25732   0.37543   0.43366   0.51140   0.69327
   1 1   C  1S          0.01054   0.07655  -0.02871  -0.11924   0.00390
   2        2S         -0.00074  -0.02504  -0.01538   0.02036  -0.03391
   3        2PX        -0.25728  -0.10524  -0.18563   0.12561   0.16942
   4        2PY        -0.02441   0.09106  -0.18810  -0.15920   0.13118
   5        2PZ         0.00777   0.00509  -0.00119  -0.01656   0.34593
   6        3S         -0.09095  -1.59979   1.30387   3.40715  -0.00654
   7        3PX        -1.39506   0.22583  -1.05501   1.91219  -0.12752
   8        3PY        -0.20475   1.53994  -1.80175  -1.73869  -0.09554
   9        3PZ         0.02283  -0.01131   0.02364   0.00572  -0.15448
  10 2   C  1S          0.06447  -0.08140   0.04472   0.09692  -0.01604
  11        2S         -0.04405  -0.00417  -0.01365  -0.02933  -0.02906
  12        2PX         0.05425   0.13551  -0.00467  -0.28121   0.06640
  13        2PY        -0.04502   0.21098  -0.08538   0.20501  -0.12426
  14        2PZ         0.00189   0.00114  -0.00484  -0.01547   0.58687
  15        3S         -1.04549   1.84645  -1.59759  -1.99517   0.01698
  16        3PX         0.23808   1.05303  -0.07765  -1.51651   0.02005
  17        3PY        -0.37127   1.08063  -2.01364  -1.01181   0.23220
  18        3PZ         0.00807  -0.01924   0.02379   0.02796  -0.54241
  19 3   O  1S          0.07759   0.05862  -0.00519   0.00931   0.01331
  20        2S         -0.03532  -0.01810   0.00066   0.00140  -0.02729
  21        2PX        -0.22727   0.00216   0.18722  -0.28297   0.00509
  22        2PY        -0.03540  -0.14839  -0.01074   0.01628  -0.06228
  23        2PZ        -0.00179   0.00065  -0.00075   0.00044   0.05599
  24        3S         -0.86414  -0.84315   0.10348  -0.18156  -0.03103
  25        3PX        -0.51192  -0.00505   0.57784  -0.63087  -0.02641
  26        3PY        -0.15066  -0.52167  -0.01893  -0.02802  -0.08255
  27        3PZ        -0.00307   0.00306  -0.00122   0.00026   0.15059
  28 4   C  1S         -0.06284  -0.08168  -0.04363  -0.09702  -0.02317
  29        2S          0.04597  -0.00604   0.02623   0.01222  -0.02051
  30        2PX        -0.17978  -0.12245  -0.01113  -0.25684  -0.04309
  31        2PY        -0.16384   0.23571   0.08580  -0.15510  -0.05967
  32        2PZ         0.00230   0.00161   0.00579   0.01602   0.60906
  33        3S          0.54487   1.83030   1.49915   2.08670   0.24247
  34        3PX        -0.56177  -0.97960   0.12728  -1.54869  -0.17258
  35        3PY        -0.81890   1.09082   2.07624   0.89719   0.27381
  36        3PZ         0.00445  -0.01150  -0.01575  -0.02213  -0.57698
[...]
     1  C    5.256814   0.475933  -0.087310  -0.148674   0.453699  -0.023733
     2  C    0.475933   5.080465   0.293367  -0.168801  -0.154148   0.004736
     3  O   -0.087310   0.293367   8.163273   0.288490  -0.094466   0.002114
     4  C   -0.148674  -0.168801   0.288490   5.047685   0.475979  -0.025897
     5  C    0.453699  -0.154148  -0.094466   0.475979   5.259105   0.372519
     6  H   -0.023733   0.004736   0.002114  -0.025897   0.372519   0.496637
     7  H    0.003031   0.004593  -0.031873   0.381431  -0.038858  -0.000574
     8  H   -0.037285   0.381378  -0.027181   0.003822   0.002968  -0.000024
     9  H    0.385498  -0.030515   0.002730   0.005707  -0.026286  -0.001296
               7          8          9
     1  C    0.003031  -0.037285   0.385498
     2  C    0.004593   0.381378  -0.030515
     3  O   -0.031873  -0.027181   0.002730
     4  C    0.381431   0.003822   0.005707
     5  C   -0.038858   0.002968  -0.026286
     6  H   -0.000574  -0.000024  -0.001296
     7  H    0.472567  -0.000038  -0.000025
     8  H   -0.000038   0.466736  -0.000577
     9  H   -0.000025  -0.000577   0.475852
 Mulliken charges:
               1
     1  C   -0.277973
     2  C    0.112991
     3  O   -0.509144
     4  C    0.140258
     5  C   -0.250512
     6  H    0.175519
     7  H    0.209746
     8  H    0.210202
     9  H    0.188913
 Sum of Mulliken charges =   0.00000
 Mulliken charges with hydrogens summed into heavy atoms:
               1
     1  C   -0.089060
     2  C    0.323193
     3  O   -0.509144
     4  C    0.350004
     5  C   -0.074993
 Electronic spatial extent (au):  <R**2>=            281.6070
 Charge=              0.0000 electrons
 Dipole moment (field-independent basis, Debye):
    X=             -0.0406    Y=              0.5049    Z=              0.0152  Tot=              0.5068
 Quadrupole moment (field-independent basis, Debye-Ang):
   XX=            -23.9647   YY=            -28.0584   ZZ=            -31.6076
   XY=             -0.0912   XZ=              0.0088   YZ=              0.2691
 Traceless Quadrupole moment (field-independent basis, Debye-Ang):
   XX=              3.9122   YY=             -0.1815   ZZ=             -3.7307
   XY=             -0.0912   XZ=              0.0088   YZ=              0.2691
 Octapole moment (field-independent basis, Debye-Ang**2):
  XXX=             -0.7387  YYY=              1.4629  ZZZ=              0.0809  XYY=              0.3358
  XXY=             -4.2448  XXZ=             -0.1837  XZZ=             -0.1295  YZZ=             -3.4353
  YYZ=              0.2832  XYZ=              0.0459
 Hexadecapole moment (field-independent basis, Debye-Ang**3):
 XXXX=           -153.7598 YYYY=           -151.9799 ZZZZ=            -30.5753 XXXY=              0.7846
 XXXZ=              0.0520 YYYX=             -0.4256 YYYZ=              0.8612 ZZZX=             -0.0026
 ZZZY=              0.1981 XXYY=            -43.9959 XXZZ=            -38.6852 YYZZ=            -33.3206
 XXYZ=              0.8001 YYXZ=              0.0182 ZZXY=             -0.2566
 N-N= 1.646503930573D+02 E-N=-8.619811912027D+02  KE= 2.272507357679D+02
 Orbital energies and kinetic energies (alpha):
                                 1                 2
   1         O               -19.117491         28.826996
   2         O               -10.173406         15.805293
   3         O               -10.173022         15.790605
   4         O               -10.120964         15.805294
   5         O               -10.115345         15.803679
   6         O                -1.173047          2.547961
   7         O                -0.816464          1.845420
   8         O                -0.765175          1.934635
   9         O                -0.615462          1.743706
  10         O                -0.560310          1.392664
  11         O                -0.545898          1.351853
  12         O                -0.474853          1.620272
  13         O                -0.441184          1.398735
  14         O                -0.415909          1.405596
  15         O                -0.398526          1.379856
  16         O                -0.359803          2.208509
  17         O                -0.281898          1.523480
  18         O                -0.235879          1.240812
  19         V                 0.037136          1.860254
  20         V                 0.091732          1.495565
  21         V                 0.119725          1.116247
  22         V                 0.152704          1.637621
  23         V                 0.159184          1.199954
  24         V                 0.190908          1.317011
  25         V                 0.237094          1.898154
  26         V                 0.257321          1.941128
  27         V                 0.375426          1.905880
  28         V                 0.433659          1.568025
  29         V                 0.511397          2.939036
  30         V                 0.693271          2.476034
  31         V                 0.699364          2.586511
  32         V                 0.720742          2.836269
  33         V                 0.762347          2.706987
  34         V                 0.765175          2.494007
  35         V                 0.788440          2.589615
  36         V                 0.807247          2.702955
  37         V                 0.834087          2.726502
  38         V                 0.842405          2.618975
  39         V                 0.929055          2.844164
  40         V                 0.971538          3.201441
  41         V                 0.976981          3.214632
  42         V                 1.023586          3.221394
  43         V                 1.190998          2.876375
  44         V                 1.200753          2.769481
  45         V                 1.338393          2.574997
  46         V                 1.371548          2.861652
  47         V                 1.504953          4.964086
  48         V                 1.557611          3.371463
  49         V                 1.621826          3.683528
  50         V                 1.738514          4.372520
  51         V                 1.982490          4.161007
  52         V                 2.139202          4.149187
  53         V                 3.253392          6.854415
 Total kinetic energy from orbitals= 2.272507357679D+02
 No NMR shielding tensors so no spin-rotation constants.
 Leave Link  601 at Tue Dec 15 16:13:47 2015, MaxMem=    33554432 cpu:         0.1
 (Enter /home/Applications/g09/g09/l701.exe)
 Compute integral first derivatives.
 ... and contract with generalized density number  6.
 Leave Link  701 at Tue Dec 15 16:13:47 2015, MaxMem=    33554432 cpu:         0.1
 (Enter /home/Applications/g09/g09/l702.exe)
 L702 exits ... SP integral derivatives will be done elsewhere.
 Leave Link  702 at Tue Dec 15 16:13:47 2015, MaxMem=    33554432 cpu:         0.0
 (Enter /home/Applications/g09/g09/l703.exe)
 Compute integral first derivatives, UseDBF=F ICtDFT=           0.
 Integral derivatives from FoFJK, PRISM(SPDF).
 Calling FoFJK, ICntrl=  10005127 FMM=F ISym2X=0 I1Cent= 0 IOpClX= 0 NMat=1 NMatS=1 NMatT=0.
 FoFJK:  IHMeth= 1 ICntrl=10005127 DoSepK=F KAlg= 0 I1Cent=   0 FoldK=F
 IRaf=         0 NMat=   1 IRICut=       1 DoRegI=T DoRafI=F ISym2E= 0.
 FoFCou: FMM=F IPFlag=           0 FMFlag=      100000 FMFlg1=         800
         NFxFlg=           0 DoJE=F BraDBF=F KetDBF=F FulRan=T
         wScrn=  0.000000 ICntrl=10005127 IOpCl=  0 I1Cent=           0 NGrid=           0
         NMat0=    1 NMatS0=      1 NMatT0=    0 NMatD0=    1 NMtDS0=    0 NMtDT0=    0
 Symmetry not used in FoFCou.
 Leave Link  703 at Tue Dec 15 16:13:49 2015, MaxMem=    33554432 cpu:         1.8
 (Enter /home/Applications/g09/g09/l716.exe)
 Dipole        = 6.79177340D-01 2.63945200D-01 5.00793628D-04
 ***** Axes restored to original set *****
 -------------------------------------------------------------------
 Center     Atomic                   Forces (Hartrees/Bohr)
 Number     Number              X              Y              Z
 -------------------------------------------------------------------
      1        6           0.129450652   -0.027223079    0.010006504
      2        6          -0.063518069   -0.160260450   -0.003704572
      3        8          -0.144198175    0.018726887   -0.004382380
      4        6          -0.073360639    0.154395869   -0.000315334
      5        6           0.141659166    0.045312638   -0.002320583
      6        1          -0.036881622   -0.028507076    0.003198167
      7        1           0.016283527   -0.025706485   -0.000623174
      8        1           0.016948358    0.030884286    0.001242388
      9        1           0.013616801   -0.007622590   -0.003101015
 -------------------------------------------------------------------
 Cartesian Forces:  Max     0.160260450 RMS     0.067890044
 Z-matrix is all fixed cartesians, so copy forces.
 Force constants in Cartesian coordinates: 
                1             2             3             4             5 
      1  0.101901D+01
      2 -0.220100D-01  0.854195D+00
      3  0.562033D-02  0.777035D-02  0.238315D+00
      4 -0.578843D+00 -0.127783D+00 -0.151682D-01  0.100258D+01
      5 -0.101219D+00 -0.228572D+00 -0.483808D-02 -0.236996D-02  0.906109D+00
      6 -0.160342D-01 -0.411646D-02 -0.119331D+00  0.140751D-01 -0.683336D-02
      7 -0.904756D-02  0.311435D-01 -0.569351D-04 -0.304761D+00  0.189723D+00
      8 -0.638778D-02  0.219839D-01 -0.219633D-04  0.239508D+00 -0.428288D+00
      9 -0.806873D-03  0.191621D-02  0.773196D-02 -0.214202D-02  0.262776D-02
     10  0.983120D-02  0.128778D-04  0.505270D-03  0.270966D-01  0.191055D-01
     11  0.360656D-01  0.507576D-04  0.191101D-02 -0.196999D-01 -0.138891D-01
     12 -0.305487D-03  0.470688D-04 -0.175526D-02  0.160990D-03  0.570872D-04
     13 -0.170975D+00  0.122310D-01  0.230362D-03  0.104751D-01 -0.360689D-01
     14 -0.140670D-01 -0.443334D+00 -0.476481D-03  0.154763D-04 -0.517737D-04
     15  0.324833D-03  0.521738D-02 -0.885729D-01  0.608313D-03 -0.209285D-02
     16  0.168712D-01  0.175444D-04 -0.116998D-03 -0.652643D-05  0.125556D-05
     17 -0.216864D-01 -0.154898D-04  0.132008D-02  0.000000D+00  0.000000D+00
     18  0.375012D-03  0.113425D-03  0.187198D-01 -0.148929D-03  0.286511D-04
     19  0.885819D-05 -0.197594D-05 -0.328869D-03 -0.220793D-05  0.000000D+00
     20  0.113817D-04 -0.253884D-05 -0.422555D-03  0.226444D-05  0.000000D+00
     21 -0.201564D-03  0.449616D-04  0.748325D-02 -0.100161D-03  0.254718D-04
     22  0.734528D-02 -0.253479D-01  0.692400D-03 -0.151138D+00 -0.876360D-01
     23 -0.391382D-02  0.133863D-01  0.813656D-03 -0.825394D-01 -0.259864D+00
     24 -0.292193D-03 -0.230541D-02  0.326551D-01  0.423928D-02  0.882909D-02
     25 -0.294197D+00  0.131737D+00  0.862260D-02 -0.540219D-02  0.184639D-01
     26  0.133207D+00 -0.217691D+00 -0.605601D-02 -0.713288D-02  0.245563D-01
     27  0.113202D-01 -0.868752D-02 -0.952459D-01 -0.152443D-02  0.219624D-02
                6             7             8             9            10 
      6  0.218233D+00
      7 -0.351384D-02  0.643499D+00
      8  0.490791D-02  0.620363D-01  0.913435D+00
      9 -0.563572D-01  0.654096D-02 -0.194679D-02  0.748558D-01
     10 -0.910346D-04 -0.364816D+00 -0.300401D+00 -0.649695D-03  0.105092D+01
     11  0.932070D-04 -0.250920D+00 -0.514061D+00 -0.714688D-03  0.741271D-01
     12 -0.486387D-03 -0.261845D-02 -0.298239D-02 -0.592004D-01  0.124106D-01
     13  0.286361D-03 -0.872732D-02  0.634655D-02 -0.807423D-03 -0.568219D+00
     14 -0.533360D-04 -0.320348D-01  0.233008D-01 -0.186409D-02  0.118817D+00
     15 -0.327212D-02  0.126804D-03 -0.655894D-04  0.112588D-01 -0.147113D-01
     16  0.209132D-03  0.165080D-05  0.000000D+00 -0.651292D-04 -0.471947D-02
     17  0.290385D-04 -0.141728D-04  0.662199D-05  0.559160D-03  0.599608D-02
     18  0.477226D-02 -0.192852D-03  0.901069D-04  0.760861D-02 -0.123136D-02
     19  0.158523D-03  0.223547D-01 -0.162440D-01 -0.104158D-02 -0.150085D+00
     20 -0.162580D-03  0.114718D-01 -0.833539D-02 -0.623822D-03  0.823451D-01
     21  0.719125D-02 -0.588487D-04  0.254276D-04  0.263596D-02  0.398824D-02
     22  0.365838D-02  0.214944D-01  0.151426D-01 -0.955167D-03 -0.152186D-05
     23  0.623075D-02 -0.114220D-01 -0.804510D-02  0.625878D-03 -0.217485D-05
     24 -0.808302D-01  0.000000D+00  0.437006D-04  0.326960D-02 -0.824551D-04
     25  0.125159D-02  0.202236D-05  0.000000D+00 -0.730744D-04 -0.670909D-05
     26 -0.951682D-04  0.160411D-04  0.356515D-05 -0.579616D-03  0.000000D+00
     27  0.300799D-01 -0.226851D-03 -0.504179D-04  0.819686D-02 -0.138245D-03
               11            12            13            14            15 
     11  0.991869D+00
     12  0.450694D-02  0.218715D+00
     13  0.896575D-01 -0.146349D-01  0.924187D+00
     14 -0.220584D+00  0.426743D-02 -0.123316D-01  0.796648D+00
     15  0.472182D-02 -0.114244D+00  0.736936D-02 -0.109968D-01  0.218778D+00
     16 -0.172037D-01  0.122116D-02 -0.211798D+00 -0.860604D-01  0.602322D-02
     17  0.220217D-01  0.153448D-04 -0.875810D-01 -0.169084D+00  0.469260D-02
     18 -0.185717D-02  0.253978D-01  0.811636D-02  0.682011D-02 -0.810822D-01
     19  0.879711D-01  0.340777D-02  0.696051D-02  0.256444D-01  0.786167D-03
     20 -0.265408D+00 -0.609890D-02  0.358009D-02  0.130852D-01 -0.594245D-03
     21 -0.871293D-02 -0.794791D-01 -0.258688D-03  0.213610D-02  0.294122D-01
     22  0.000000D+00  0.109265D-03  0.116921D-04 -0.224933D-05 -0.374658D-03
     23  0.000000D+00  0.156148D-03 -0.151616D-04  0.291681D-05  0.485836D-03
     24  0.209690D-04  0.592002D-02 -0.247307D-03  0.475770D-04  0.792464D-02
     25  0.149656D-05  0.249082D-03  0.180846D-01  0.186413D-04 -0.152720D-03
     26  0.000000D+00  0.312565D-04  0.241815D-01  0.178986D-04 -0.136816D-02
     27  0.308375D-04  0.513249D-02 -0.541134D-04  0.119470D-03  0.197979D-01
               16            17            18            19            20 
     16  0.199670D+00
     17  0.103253D+00  0.147026D+00
     18 -0.705013D-02 -0.576886D-02  0.427041D-01
     19 -0.411373D-05  0.353179D-04  0.480579D-03  0.120767D+00
     20 -0.528563D-05  0.453792D-04  0.617485D-03 -0.974053D-01  0.260616D+00
     21  0.936058D-04 -0.803643D-03 -0.109353D-01 -0.346259D-02  0.728461D-02
     22  0.000000D+00  0.000000D+00  0.000000D+00  0.000000D+00  0.000000D+00
     23  0.000000D+00  0.000000D+00  0.000000D+00  0.000000D+00  0.000000D+00
     24  0.000000D+00  0.000000D+00  0.000000D+00  0.000000D+00  0.000000D+00
     25 -0.152803D-04 -0.212171D-05 -0.348687D-03  0.000000D+00  0.000000D+00
     26 -0.191748D-05  0.000000D+00 -0.437557D-04  0.000000D+00  0.000000D+00
     27 -0.314860D-03 -0.437191D-04 -0.718492D-02  0.000000D+00  0.000000D+00
               21            22            23            24            25 
     21  0.436917D-01
     22  0.000000D+00  0.122294D+00
     23  0.000000D+00  0.978856D-01  0.254465D+00
     24  0.000000D+00 -0.373054D-02 -0.753381D-02  0.437585D-01
     25  0.000000D+00 -0.535178D-05  0.693991D-05  0.113199D-03  0.281540D+00
     26  0.000000D+00 -0.424496D-04  0.550464D-04  0.897880D-03 -0.150227D+00
     27  0.000000D+00  0.600317D-03 -0.778459D-03 -0.126977D-01 -0.966199D-02
               26            27 
     26  0.193059D+00
     27  0.721357D-02  0.519214D-01
 Leave Link  716 at Tue Dec 15 16:13:49 2015, MaxMem=    33554432 cpu:         0.0
 (Enter /home/Applications/g09/g09/l103.exe)

 GradGradGradGradGradGradGradGradGradGradGradGradGradGradGradGradGradGrad
 Berny optimization.
 Search for a local minimum.
 Step number   1 out of a maximum of    2
 All quantities printed in internal units (Hartrees-Bohrs-Radians)
 Second derivative matrix not updated -- first step.
 ITU=  0
     Eigenvalues ---    0.02136   0.03571   0.06578   0.07082   0.07626
     Eigenvalues ---    0.09421   0.12927   0.14790   0.16278   0.22637
     Eigenvalues ---    0.26007   0.34663   0.38424   0.43579   0.60323
     Eigenvalues ---    0.80962   1.14953   1.43356   1.56174   1.70797
     Eigenvalues ---    1.88752
 Quadratic step=4.788D-01 exceeds max=3.000D-01 adjusted using Lamda=-2.225D-01.
 Angle between NR and scaled steps=  19.39 degrees.
 Angle between quadratic step and forces=  24.13 degrees.
 Linear search not attempted -- first point.
 TrRot= -0.008745  0.004667 -0.000752 -0.397826 -0.000556  0.397357
 Variable       Old X    -DE/DX   Delta X   Delta X   Delta X     New X
                                 (Linear)    (Quad)   (Total)
    X1        1.74367   0.12945   0.00000   0.11879   0.10935   1.85302
    Y1       -1.33486  -0.02722   0.00000  -0.05225  -0.04844  -1.38330
    Z1        0.07275   0.01001   0.00000   0.01165   0.01215   0.08491
    X2       -0.65502  -0.06352   0.00000  -0.03540  -0.04514  -0.70016
    Y2       -2.03188  -0.16026   0.00000  -0.10437  -0.09938  -2.13126
    Z2        0.00208  -0.00370   0.00000  -0.00283  -0.00347  -0.00139
    X3       -2.10583  -0.14420   0.00000  -0.14144  -0.15014  -2.25598
    Y3        0.02577   0.01873   0.00000   0.02593   0.03165   0.05741
    Z3       -0.02541  -0.00438   0.00000  -0.00746  -0.00937  -0.03479
    X4       -0.68140  -0.07336   0.00000  -0.05622  -0.06397  -0.74537
    Y4        1.98521   0.15440   0.00000   0.11007   0.11508   2.10029
    Z4       -0.01251  -0.00032   0.00000   0.00164   0.00006  -0.01245
    X5        1.74080   0.14166   0.00000   0.09688   0.08875   1.82955
    Y5        1.32565   0.04531   0.00000   0.04168   0.04550   1.37114
    Z5        0.05669  -0.00232   0.00000  -0.00446  -0.00456   0.05213
    X6        3.46705  -0.03688   0.00000  -0.02193  -0.02943   3.43762
    Y6        2.66716  -0.02851   0.00000  -0.02848  -0.02544   2.64172
    Z6       -0.02712   0.00320   0.00000   0.00467   0.00512  -0.02200
    X7       -1.65126   0.01628   0.00000   0.00781   0.00087  -1.65040
    Y7        3.87548  -0.02571   0.00000   0.01898   0.02443   3.89991
    Z7        0.05160  -0.00062   0.00000   0.00373   0.00129   0.05290
    X8       -1.65560   0.01695   0.00000   0.01297   0.00235  -1.65325
    Y8       -3.91482   0.03088   0.00000  -0.00265   0.00280  -3.91202
    Z8        0.07021   0.00124   0.00000   0.00636   0.00561   0.07582
    X9        3.33649   0.01362   0.00000   0.09733   0.08737   3.42387
    Y9       -2.52624  -0.00762   0.00000  -0.04925  -0.04619  -2.57243
    Z9        0.00271  -0.00310   0.00000  -0.00839  -0.00683  -0.00412
         Item               Value     Threshold  Converged?
 Maximum Force            0.160260     0.000450     NO 
 RMS     Force            0.067890     0.000300     NO 
 Maximum Displacement     0.150143     0.001800     NO 
 RMS     Displacement     0.057514     0.001200     NO 
 Predicted change in Energy=-5.838833D-02
 GradGradGradGradGradGradGradGradGradGradGradGradGradGradGradGradGradGrad

 Leave Link  103 at Tue Dec 15 16:13:49 2015, MaxMem=    33554432 cpu:         0.0
 (Enter /home/Applications/g09/g09/l9999.exe)
 1\1\GINC-DUSTIN-DESKTOP\Force\RB3LYP-FC\3-21G\C4H4O1\DUSTIN\15-Dec-201
 5\0\\#P B3LYP/3-21G CIS(Singlets,NStates=15) pop(full) force\\FuranDFT
 \\0,1\C,0.922713,-0.706378,0.0385\C,-0.34662,-1.075226,0.001102\O,-1.1
 14359,0.013635,-0.013448\C,-0.360582,1.05053,-0.006622\C,0.92119,0.701
 503,0.03\H,1.834683,1.411398,-0.014351\H,-0.873811,2.050817,0.027306\H
 ,-0.876105,-2.071633,0.037156\H,1.765595,-1.336826,0.001434\\Version=E
 S64L-G09RevD.01\State=1-A\HF=-228.7255109\RMSD=4.823e-09\RMSF=6.789e-0
 2\Dipole=0.2825075,0.6716681,0.0008556\PG=C01 [X(C4H4O1)]\\@


 ALTHOUGH J.J. COULD DIAGNOSE THE FAULTS OF AN
 APPARATUS WITH UNCANNY ACCURACY, IT WAS JUST AS
 WELL NOT TO LET HIM HANDLE IT.
   -- GEORGE THOMPSON, ABOUT HIS FATHER
 Job cpu time:       0 days  0 hours  0 minutes 48.3 seconds.
 File lengths (MBytes):  RWF=     14 Int=      0 D2E=      0 Chk=      3 Scr=      1
 Normal termination of Gaussian 09 at Tue Dec 15 16:13:49 2015.
