 Entering Gaussian System, Link 0=g09
 Input=FuranAM1_9P6.com
 Output=FuranAM1_9P6.log
 Initial command:
 /home/Applications/g09/g09/l1.exe "/home/Applications/g09/scratch/Gau-8090.inp" -scrdir="/home/Applications/g09/scratch/"
 Entering Link 1 = /home/Applications/g09/g09/l1.exe PID=      8093.
  
 Copyright (c) 1988,1990,1992,1993,1995,1998,2003,2009,2013,
            Gaussian, Inc.  All Rights Reserved.
  
 This is part of the Gaussian(R) 09 program.  It is based on
 the Gaussian(R) 03 system (copyright 2003, Gaussian, Inc.),
 the Gaussian(R) 98 system (copyright 1998, Gaussian, Inc.),
 the Gaussian(R) 94 system (copyright 1995, Gaussian, Inc.),
 the Gaussian 92(TM) system (copyright 1992, Gaussian, Inc.),
 the Gaussian 90(TM) system (copyright 1990, Gaussian, Inc.),
 the Gaussian 88(TM) system (copyright 1988, Gaussian, Inc.),
 the Gaussian 86(TM) system (copyright 1986, Carnegie Mellon
 University), and the Gaussian 82(TM) system (copyright 1983,
 Carnegie Mellon University). Gaussian is a federally registered
 trademark of Gaussian, Inc.
  
 This software contains proprietary and confidential information,
 including trade secrets, belonging to Gaussian, Inc.
  
 This software is provided under written license and may be
 used, copied, transmitted, or stored only in accord with that
 written license.
  
 The following legend is applicable only to US Government
 contracts under FAR:
  
                    RESTRICTED RIGHTS LEGEND
  
 Use, reproduction and disclosure by the US Government is
 subject to restrictions as set forth in subparagraphs (a)
 and (c) of the Commercial Computer Software - Restricted
 Rights clause in FAR 52.227-19.
  
 Gaussian, Inc.
 340 Quinnipiac St., Bldg. 40, Wallingford CT 06492
  
  
 ---------------------------------------------------------------
 Warning -- This program may not be used in any manner that
 competes with the business of Gaussian, Inc. or will provide
 assistance to any competitor of Gaussian, Inc.  The licensee
 of this program is prohibited from giving any competitor of
 Gaussian, Inc. access to this program.  By using this program,
 the user acknowledges that Gaussian, Inc. is engaged in the
 business of creating and licensing software in the field of
 computational chemistry and represents and warrants to the
 licensee that it is not a competitor of Gaussian, Inc. and that
 it will not use this program in any manner prohibited above.
 ---------------------------------------------------------------
  

 Cite this work as:
 Gaussian 09, Revision D.01,
 M. J. Frisch, G. W. Trucks, H. B. Schlegel, G. E. Scuseria, 
 M. A. Robb, J. R. Cheeseman, G. Scalmani, V. Barone, B. Mennucci, 
 G. A. Petersson, H. Nakatsuji, M. Caricato, X. Li, H. P. Hratchian, 
 A. F. Izmaylov, J. Bloino, G. Zheng, J. L. Sonnenberg, M. Hada, 
 M. Ehara, K. Toyota, R. Fukuda, J. Hasegawa, M. Ishida, T. Nakajima, 
 Y. Honda, O. Kitao, H. Nakai, T. Vreven, J. A. Montgomery, Jr., 
 J. E. Peralta, F. Ogliaro, M. Bearpark, J. J. Heyd, E. Brothers, 
 K. N. Kudin, V. N. Staroverov, T. Keith, R. Kobayashi, J. Normand, 
 K. Raghavachari, A. Rendell, J. C. Burant, S. S. Iyengar, J. Tomasi, 
 M. Cossi, N. Rega, J. M. Millam, M. Klene, J. E. Knox, J. B. Cross, 
 V. Bakken, C. Adamo, J. Jaramillo, R. Gomperts, R. E. Stratmann, 
 O. Yazyev, A. J. Austin, R. Cammi, C. Pomelli, J. W. Ochterski, 
 R. L. Martin, K. Morokuma, V. G. Zakrzewski, G. A. Voth, 
 P. Salvador, J. J. Dannenberg, S. Dapprich, A. D. Daniels, 
 O. Farkas, J. B. Foresman, J. V. Ortiz, J. Cioslowski, 
 and D. J. Fox, Gaussian, Inc., Wallingford CT, 2013.
 
 ******************************************
 Gaussian 09:  ES64L-G09RevD.01 24-Apr-2013
                15-Dec-2015 
 ******************************************
 ------------------------------------------------------------
 #P AM1(Input,print) CIS(Singlets,NStates=15) pop(full) force
 ------------------------------------------------------------
 1/10=7,30=1,38=1/1,3;
 2/12=2,17=6,18=5,40=1/2;
 3/5=2,16=1,25=1,41=700000,71=1,135=100,136=1/1,2,8,3;
 4/35=1/1;
 5/5=2,35=1,38=5/2;
 8/6=1,10=1,108=15/1;
 9/15=2,41=15,42=1,48=1,49=10/14;
 10/5=4/2;
 6/7=3,18=1/1;
 7/12=6,13=5,29=1/1,2,3,16;
 1/10=7,30=1/3;
 99//99;
 Leave Link    1 at Tue Dec 15 17:06:11 2015, MaxMem=           0 cpu:         0.0
 (Enter /home/Applications/g09/g09/l101.exe)
 -----------------
 AM1-Reparam Input
 -----------------
 Symbolic Z-matrix:
 Charge =  0 Multiplicity = 1
 6                     0.988    -0.66656  -0.00728 
 6                    -0.31878  -1.05403   0.00862 
 8                    -1.18833   0.03972   0.01133 
 6                    -0.31402   1.08203  -0.00924 
 6                     0.96835   0.70346  -0.01875 
 1                     1.80206   1.34343  -0.02526 
 1                    -0.87089   2.05004  -0.03286 
 1                    -0.85936  -2.00286   0.02937 
 1                     1.83723  -1.37353   0.02088 
 
 NAtoms=      9 NQM=        9 NQMF=       0 NMMI=      0 NMMIF=      0
                NMic=       0 NMicF=      0.
                    Isotopes and Nuclear Properties:
 (Nuclear quadrupole moments (NQMom) in fm**2, nuclear magnetic moments (NMagM)
  in nuclear magnetons)

  Atom         1           2           3           4           5           6           7           8           9
 IAtWgt=          12          12          16          12          12           1           1           1           1
 AtmWgt=  12.0000000  12.0000000  15.9949146  12.0000000  12.0000000   1.0078250   1.0078250   1.0078250   1.0078250
 NucSpn=           0           0           0           0           0           1           1           1           1
 AtZEff=   0.0000000   0.0000000   0.0000000   0.0000000   0.0000000   0.0000000   0.0000000   0.0000000   0.0000000
 NQMom=    0.0000000   0.0000000   0.0000000   0.0000000   0.0000000   0.0000000   0.0000000   0.0000000   0.0000000
 NMagM=    0.0000000   0.0000000   0.0000000   0.0000000   0.0000000   2.7928460   2.7928460   2.7928460   2.7928460
 AtZNuc=   6.0000000   6.0000000   8.0000000   6.0000000   6.0000000   1.0000000   1.0000000   1.0000000   1.0000000
 Leave Link  101 at Tue Dec 15 17:06:11 2015, MaxMem=    33554432 cpu:         0.1
 (Enter /home/Applications/g09/g09/l103.exe)

 GradGradGradGradGradGradGradGradGradGradGradGradGradGradGradGradGradGrad
 Berny optimization.
 Initialization pass.
 Trust Radius=3.00D-01 FncErr=1.00D-07 GrdErr=1.00D-07
 Number of steps in this run=      2 maximum allowed number of steps=      2.
 GradGradGradGradGradGradGradGradGradGradGradGradGradGradGradGradGradGrad

 Leave Link  103 at Tue Dec 15 17:06:11 2015, MaxMem=    33554432 cpu:         0.0
 (Enter /home/Applications/g09/g09/l202.exe)
                          Input orientation:                          
 ---------------------------------------------------------------------
 Center     Atomic      Atomic             Coordinates (Angstroms)
 Number     Number       Type             X           Y           Z
 ---------------------------------------------------------------------
      1          6           0        0.988001   -0.666563   -0.007277
      2          6           0       -0.318781   -1.054031    0.008621
      3          8           0       -1.188327    0.039717    0.011334
      4          6           0       -0.314021    1.082031   -0.009239
      5          6           0        0.968351    0.703462   -0.018750
      6          1           0        1.802061    1.343429   -0.025263
      7          1           0       -0.870885    2.050039   -0.032863
      8          1           0       -0.859361   -2.002859    0.029371
      9          1           0        1.837234   -1.373533    0.020882
 ---------------------------------------------------------------------
                    Distance matrix (angstroms):
                    1          2          3          4          5
     1  C    0.000000
     2  C    1.363108   0.000000
     3  O    2.288139   1.397284   0.000000
     4  C    2.180102   2.136142   1.360607   0.000000
     5  C    1.370214   2.178587   2.256706   1.337117   0.000000
     6  H    2.168660   3.201083   3.262426   2.132226   1.051034
     7  H    3.291814   3.153060   2.035711   1.117003   2.279530
     8  H    2.280302   1.092214   2.068976   3.132959   3.266040
     9  H    1.105349   2.179595   3.339369   3.264751   2.251763
                    6          7          8          9
     6  H    0.000000
     7  H    2.764778   0.000000
     8  H    4.275955   4.053392   0.000000
     9  H    2.717581   4.365506   2.769070   0.000000
 Stoichiometry    C4H4O
 Framework group  C1[X(C4H4O)]
 Deg. of freedom    21
 Full point group                 C1      NOp   1
 Largest Abelian subgroup         C1      NOp   1
 Largest concise Abelian subgroup C1      NOp   1
                         Standard orientation:                         
 ---------------------------------------------------------------------
 Center     Atomic      Atomic             Coordinates (Angstroms)
 Number     Number       Type             X           Y           Z
 ---------------------------------------------------------------------
      1          6           0        1.167013   -0.258812   -0.004737
      2          6           0        0.108758   -1.117973   -0.004070
      3          8           0       -1.113809   -0.441459    0.003735
      4          6           0       -0.706110    0.856629    0.002176
      5          6           0        0.623408    0.998950   -0.000937
      6          1           0        1.147896    1.909734    0.006692
      7          1           0       -1.591595    1.537298   -0.015170
      8          1           0       -0.026602   -2.201753    0.001494
      9          1           0        2.222362   -0.586368    0.022516
 ---------------------------------------------------------------------
 Rotational constants (GHZ):      9.9933246      8.9918390      4.7332085
 Leave Link  202 at Tue Dec 15 17:06:11 2015, MaxMem=    33554432 cpu:         0.0
 (Enter /home/Applications/g09/g09/l301.exe)

 Semi-emprical parameters in input format:
 Method=8 CoreType=1 PeptideFC=0.0106250000 RIJScale=0.5404210000
 ****
 H       
 PQN=1 NValence=1 F0ss=0.4721550000 ZetaOverlap=1.0856700000 U=-0.4219420000
 Beta=-0.2344680000 CoreKO=1.1349760000 KON=0,0,0,1.0458670000 KON=1,0,1,1.0589200000
 KON=0,1,1,1.0589200000 KON=2,1,1,1.0697690000 EISol=-0.4188110042 EHeat=0.0830298228
 Alpha=1.4609850000
 GCore=0.0079790000,1.5127750000,2.2676710000
 GCore=0.0003530000,1.4368830000,3.4779940000
 GCore=-0.0011950000,0.5600570000,3.5861320000
 ****
 C       
 PQN=2,2 NValence=4 F0ss=0.4494440000 F0sp=0.4215150000 F0pp=0.3497590000 F2pp=0.1878900000
 G1sp=0.2701540000
 ZetaOverlap=1.8086650000,1.3781170000
 U=-1.7687090000,-1.4557970000
 Beta=-0.5453250000,-0.3063130000 DDN=0,1,0.7474020000 DDN=1,1,0.7268010000
 CoreKO=1.1356210000 KON=0,0,0,1.1124280000 KON=1,0,1,0.8998210000 KON=0,1,1,1.1124280000
 KON=2,1,1,0.8516400000 EISol=-4.4398989268 EHeat=0.2723305520 Alpha=1.2789610000
 DipHyp=1.4947180026
 GCore=0.0007260000,1.3361580000,2.6678360000
 GCore=0.0028980000,1.4001430000,3.2840710000
 GCore=-0.0015090000,1.3017660000,3.8739390000
 GCore=-0.0001030000,1.4822700000,4.6744780000
 ****
 O       
 PQN=2,2 NValence=6 F0ss=0.5666750000 F0sp=0.5321300000 F0pp=0.4826590000 F2pp=0.2358080000
 G1sp=0.4216980000
 ZetaOverlap=2.6354490000,2.4967270000
 U=-3.3169990000,-1.9779290000
 Beta=-1.1573400000,-1.2994290000 DDN=0,1,0.4953610000 DDN=1,1,0.4852320000
 CoreKO=0.8515990000 KON=0,0,0,0.8822960000 KON=1,0,1,0.5019540000 KON=0,1,1,0.8682050000
 KON=2,1,1,0.5068780000 EISol=-11.6164441184 EHeat=0.0949133088 Alpha=2.4031680000
 DipHyp=0.9906650029
 GCore=0.0204720000,1.4001430000,1.6023330000
 GCore=0.0051530000,1.9602000000,2.7307880000
 ****
 
 Standard basis: VSTO-6G (5D, 7F)
 Ernie: Thresh=  0.10000D-02 Tol=  0.10000D-05 Strict=F.
  NNHCO=     0 NNPyr=     0 NCTC=     0               EPep=         0.000000000
    EC=        68.496976102  ECS=         2.439176206   EG=         0.336916026
   EHC=         0.000000000  EAt=       -31.051283842  AtH=         1.516354808
 EPDDG=         0.000000000  ECC=        71.273068333 EAtT=        32.567638650
 There are    24 symmetry adapted cartesian basis functions of A   symmetry.
 There are    24 symmetry adapted basis functions of A   symmetry.
    24 basis functions,   144 primitive gaussians,    24 cartesian basis functions
    13 alpha electrons       13 beta electrons
       nuclear repulsion energy       103.8407069838 Hartrees.
 IExCor=    0 DFT=F Ex=HF Corr=None ExCW=0 ScaHFX=  1.000000
 ScaDFX=  1.000000  1.000000  1.000000  1.000000 ScalE2=  1.000000  1.000000
 IRadAn=      0 IRanWt=     -1 IRanGd=            0 ICorTp=0 IEmpDi=  4
 Integral buffers will be    131072 words long.
 Regular integral format.
 Two-electron integral symmetry is turned off.
 Leave Link  301 at Tue Dec 15 17:06:11 2015, MaxMem=    33554432 cpu:         0.0
 (Enter /home/Applications/g09/g09/l302.exe)
 Do NDO integrals.
 NPDir=0 NMtPBC=     1 NCelOv=     1 NCel=       1 NClECP=     1 NCelD=      1
         NCelK=      1 NCelE2=     1 NClLst=     1 CellRange=     0.0.
 One-electron integrals computed using PRISM.
 NBasis=    24 RedAO= F EigKep=  0.00D+00  NBF=    24
 NBsUse=    24 1.00D-04 EigRej=  0.00D+00 NBFU=    24
 Leave Link  302 at Tue Dec 15 17:06:11 2015, MaxMem=    33554432 cpu:         0.0
 (Enter /home/Applications/g09/g09/l308.exe)
 Leave Link  308 at Tue Dec 15 17:06:11 2015, MaxMem=    33554432 cpu:         0.0
 (Enter /home/Applications/g09/g09/l303.exe)
 DipDrv:  MaxL=1.
 Leave Link  303 at Tue Dec 15 17:06:11 2015, MaxMem=    33554432 cpu:         0.0
 (Enter /home/Applications/g09/g09/l401.exe)
 Simple Huckel Guess.
 JPrj=0 DoOrth=F DoCkMO=F.
 Leave Link  401 at Tue Dec 15 17:06:11 2015, MaxMem=    33554432 cpu:         0.0
 (Enter /home/Applications/g09/g09/l502.exe)
 Closed shell SCF:
 Using DIIS extrapolation, IDIIS=  1040.
 Overlap will be assumed to be unity.
 Two-electron integral symmetry not used.
 Keep J ints in memory in canonical form, NReq=888082.
 IVT=       79475 IEndB=       79475 NGot=    33554432 MDV=    33473473
 LenX=    33473473 LenY=    33472456
 Requested convergence on RMS density matrix=1.00D-08 within 128 cycles.
 Requested convergence on MAX density matrix=1.00D-06.
 Requested convergence on             energy=1.00D-06.
 No special actions if energy rises.
 FoFCou: FMM=F IPFlag=           0 FMFlag=           0 FMFlg1=           0
         NFxFlg=           0 DoJE=F BraDBF=F KetDBF=F FulRan=T
         wScrn=  0.000000 ICntrl=     600 IOpCl=  2 I1Cent=           0 NGrid=           0
         NMat0=    1 NMatS0=     54 NMatT0=    0 NMatD0=    1 NMtDS0=    0 NMtDT0=    0
 Symmetry not used in FoFCou.

 Cycle   1  Pass 1  IDiag  1:
 E=  4.86542999887789    
 DIIS: error= 1.55D-01 at cycle   1 NSaved=   1.
 NSaved= 1 IEnMin= 1 EnMin=  4.86542999887789     IErMin= 1 ErrMin= 1.55D-01
 ErrMax= 1.55D-01  0.00D+00 EMaxC= 1.00D-01 BMatC= 4.83D-01 BMatP= 4.83D-01
 IDIUse=3 WtCom= 0.00D+00 WtEn= 1.00D+00
 Coeff-Com:  0.100D+01
 Coeff-En:   0.100D+01
 Coeff:      0.100D+01
 GapD=    2.000 DampG=2.000 DampE=0.250 DampFc=0.5000 IDamp=-1.
 Damping current iteration by 5.00D-01
 RMSDP=6.48D-02 MaxDP=7.20D-01              OVMax= 0.00D+00

 Cycle   2  Pass 1  IDiag  1:
 E=  3.86940000462782     Delta-E=       -0.996029994250 Rises=F Damp=T
 DIIS: error= 8.85D-02 at cycle   2 NSaved=   2.
 NSaved= 2 IEnMin= 2 EnMin=  3.86940000462782     IErMin= 2 ErrMin= 8.85D-02
 ErrMax= 8.85D-02  0.00D+00 EMaxC= 1.00D-01 BMatC= 1.64D-01 BMatP= 4.83D-01
 IDIUse=3 WtCom= 1.15D-01 WtEn= 8.85D-01
 Coeff-Com: -0.112D+01 0.212D+01
 Coeff-En:   0.000D+00 0.100D+01
 Coeff:     -0.128D+00 0.113D+01
 RMSDP=3.62D-02 MaxDP=3.68D-01 DE=-9.96D-01 OVMax= 0.00D+00

 Cycle   3  Pass 1  IDiag  1:
 E=  2.62991467582444     Delta-E=       -1.239485328803 Rises=F Damp=F
 DIIS: error= 1.86D-02 at cycle   3 NSaved=   3.
 NSaved= 3 IEnMin= 3 EnMin=  2.62991467582444     IErMin= 3 ErrMin= 1.86D-02
 ErrMax= 1.86D-02  0.00D+00 EMaxC= 1.00D-01 BMatC= 1.34D-02 BMatP= 1.64D-01
 IDIUse=3 WtCom= 8.14D-01 WtEn= 1.86D-01
 Coeff-Com:  0.362D+00-0.836D+00 0.147D+01
 Coeff-En:   0.000D+00 0.000D+00 0.100D+01
 Coeff:      0.295D+00-0.681D+00 0.139D+01
 RMSDP=1.11D-02 MaxDP=5.86D-02 DE=-1.24D+00 OVMax= 0.00D+00

 Cycle   4  Pass 1  IDiag  3:
 E=  2.57704558608103     Delta-E=       -0.052869089743 Rises=F Damp=F
 DIIS: error= 4.58D-03 at cycle   4 NSaved=   4.
 NSaved= 4 IEnMin= 4 EnMin=  2.57704558608103     IErMin= 4 ErrMin= 4.58D-03
 ErrMax= 4.58D-03  0.00D+00 EMaxC= 1.00D-01 BMatC= 1.01D-03 BMatP= 1.34D-02
 IDIUse=3 WtCom= 9.54D-01 WtEn= 4.58D-02
 Coeff-Com: -0.627D-01 0.120D+00-0.390D+00 0.133D+01
 Coeff-En:   0.000D+00 0.000D+00 0.000D+00 0.100D+01
 Coeff:     -0.599D-01 0.114D+00-0.372D+00 0.132D+01
 Gap=     0.420 Goal=   None    Shift=    0.000
 RMSDP=3.79D-03 MaxDP=2.22D-02 DE=-5.29D-02 OVMax= 4.05D-02

 Cycle   5  Pass 1  IDiag  3:
 E=  2.57244310557660     Delta-E=       -0.004602480504 Rises=F Damp=F
 DIIS: error= 1.17D-03 at cycle   5 NSaved=   5.
 NSaved= 5 IEnMin= 5 EnMin=  2.57244310557660     IErMin= 5 ErrMin= 1.17D-03
 ErrMax= 1.17D-03  0.00D+00 EMaxC= 1.00D-01 BMatC= 4.44D-05 BMatP= 1.01D-03
 IDIUse=3 WtCom= 9.88D-01 WtEn= 1.17D-02
 Coeff-Com:  0.153D-01-0.268D-01 0.108D+00-0.536D+00 0.144D+01
 Coeff-En:   0.000D+00 0.000D+00 0.000D+00 0.000D+00 0.100D+01
 Coeff:      0.152D-01-0.265D-01 0.106D+00-0.529D+00 0.143D+01
 Gap=     0.420 Goal=   None    Shift=    0.000
 RMSDP=9.12D-04 MaxDP=5.40D-03 DE=-4.60D-03 OVMax= 7.95D-03

 Cycle   6  Pass 1  IDiag  3:
 E=  2.57221442573622     Delta-E=       -0.000228679840 Rises=F Damp=F
 DIIS: error= 2.34D-04 at cycle   6 NSaved=   6.
 NSaved= 6 IEnMin= 6 EnMin=  2.57221442573622     IErMin= 6 ErrMin= 2.34D-04
 ErrMax= 2.34D-04  0.00D+00 EMaxC= 1.00D-01 BMatC= 1.63D-06 BMatP= 4.44D-05
 IDIUse=3 WtCom= 9.98D-01 WtEn= 2.34D-03
 Coeff-Com: -0.146D-02 0.264D-02-0.246D-01 0.147D+00-0.544D+00 0.142D+01
 Coeff-En:   0.000D+00 0.000D+00 0.000D+00 0.000D+00 0.000D+00 0.100D+01
 Coeff:     -0.146D-02 0.263D-02-0.245D-01 0.146D+00-0.543D+00 0.142D+01
 Gap=     0.421 Goal=   None    Shift=    0.000
 RMSDP=1.72D-04 MaxDP=1.09D-03 DE=-2.29D-04 OVMax= 1.18D-03

 Cycle   7  Pass 1  IDiag  3:
 E=  2.57220677970864     Delta-E=       -0.000007646028 Rises=F Damp=F
 DIIS: error= 2.60D-05 at cycle   7 NSaved=   7.
 NSaved= 7 IEnMin= 7 EnMin=  2.57220677970864     IErMin= 7 ErrMin= 2.60D-05
 ErrMax= 2.60D-05  0.00D+00 EMaxC= 1.00D-01 BMatC= 3.86D-08 BMatP= 1.63D-06
 IDIUse=1 WtCom= 1.00D+00 WtEn= 0.00D+00
 Coeff-Com:  0.176D-03-0.264D-03 0.882D-02-0.571D-01 0.222D+00-0.640D+00
 Coeff-Com:  0.147D+01
 Coeff:      0.176D-03-0.264D-03 0.882D-02-0.571D-01 0.222D+00-0.640D+00
 Coeff:      0.147D+01
 Gap=     0.421 Goal=   None    Shift=    0.000
 RMSDP=2.36D-05 MaxDP=1.56D-04 DE=-7.65D-06 OVMax= 1.95D-04

 Cycle   8  Pass 1  IDiag  3:
 E=  2.57220661287308     Delta-E=       -0.000000166836 Rises=F Damp=F
 DIIS: error= 4.89D-06 at cycle   8 NSaved=   8.
 NSaved= 8 IEnMin= 8 EnMin=  2.57220661287308     IErMin= 8 ErrMin= 4.89D-06
 ErrMax= 4.89D-06  0.00D+00 EMaxC= 1.00D-01 BMatC= 8.56D-10 BMatP= 3.86D-08
 IDIUse=1 WtCom= 1.00D+00 WtEn= 0.00D+00
 Coeff-Com:  0.596D-05-0.569D-04-0.166D-02 0.121D-01-0.499D-01 0.146D+00
 Coeff-Com: -0.405D+00 0.130D+01
 Coeff:      0.596D-05-0.569D-04-0.166D-02 0.121D-01-0.499D-01 0.146D+00
 Coeff:     -0.405D+00 0.130D+01
 Gap=     0.421 Goal=   None    Shift=    0.000
 RMSDP=3.42D-06 MaxDP=2.54D-05 DE=-1.67D-07 OVMax= 2.29D-05

 Cycle   9  Pass 1  IDiag  3:
 E=  2.57220660922472     Delta-E=       -0.000000003648 Rises=F Damp=F
 DIIS: error= 9.99D-07 at cycle   9 NSaved=   9.
 NSaved= 9 IEnMin= 9 EnMin=  2.57220660922472     IErMin= 9 ErrMin= 9.99D-07
 ErrMax= 9.99D-07  0.00D+00 EMaxC= 1.00D-01 BMatC= 3.23D-11 BMatP= 8.56D-10
 IDIUse=1 WtCom= 1.00D+00 WtEn= 0.00D+00
 Coeff-Com:  0.200D-05 0.388D-05 0.138D-03-0.107D-02 0.473D-02-0.132D-01
 Coeff-Com:  0.383D-01-0.247D+00 0.122D+01
 Coeff:      0.200D-05 0.388D-05 0.138D-03-0.107D-02 0.473D-02-0.132D-01
 Coeff:      0.383D-01-0.247D+00 0.122D+01
 Gap=     0.421 Goal=   None    Shift=    0.000
 RMSDP=7.11D-07 MaxDP=5.30D-06 DE=-3.65D-09 OVMax= 4.92D-06

 Cycle  10  Pass 1  IDiag  3:
 E=  2.57220660905823     Delta-E=       -0.000000000166 Rises=F Damp=F
 DIIS: error= 3.36D-07 at cycle  10 NSaved=  10.
 NSaved=10 IEnMin=10 EnMin=  2.57220660905823     IErMin=10 ErrMin= 3.36D-07
 ErrMax= 3.36D-07  0.00D+00 EMaxC= 1.00D-01 BMatC= 3.64D-12 BMatP= 3.23D-11
 IDIUse=1 WtCom= 1.00D+00 WtEn= 0.00D+00
 Coeff-Com:  0.878D-06-0.351D-05-0.256D-04 0.211D-03-0.101D-02 0.245D-02
 Coeff-Com: -0.725D-02 0.822D-01-0.671D+00 0.159D+01
 Coeff:      0.878D-06-0.351D-05-0.256D-04 0.211D-03-0.101D-02 0.245D-02
 Coeff:     -0.725D-02 0.822D-01-0.671D+00 0.159D+01
 Gap=     0.421 Goal=   None    Shift=    0.000
 RMSDP=3.18D-07 MaxDP=2.75D-06 DE=-1.66D-10 OVMax= 2.88D-06

 Cycle  11  Pass 1  IDiag  3:
 E=  2.57220660903451     Delta-E=       -0.000000000024 Rises=F Damp=F
 DIIS: error= 1.19D-07 at cycle  11 NSaved=  11.
 NSaved=11 IEnMin=11 EnMin=  2.57220660903451     IErMin=11 ErrMin= 1.19D-07
 ErrMax= 1.19D-07  0.00D+00 EMaxC= 1.00D-01 BMatC= 2.50D-13 BMatP= 3.64D-12
 IDIUse=1 WtCom= 1.00D+00 WtEn= 0.00D+00
 Coeff-Com: -0.690D-06 0.149D-05 0.124D-05-0.125D-04 0.914D-04 0.284D-04
 Coeff-Com:  0.666D-04-0.250D-01 0.281D+00-0.885D+00 0.163D+01
 Coeff:     -0.690D-06 0.149D-05 0.124D-05-0.125D-04 0.914D-04 0.284D-04
 Coeff:      0.666D-04-0.250D-01 0.281D+00-0.885D+00 0.163D+01
 Gap=     0.421 Goal=   None    Shift=    0.000
 RMSDP=9.43D-08 MaxDP=8.16D-07 DE=-2.37D-11 OVMax= 9.12D-07

 Cycle  12  Pass 1  IDiag  3:
 E=  2.57220660903288     Delta-E=       -0.000000000002 Rises=F Damp=F
 DIIS: error= 1.90D-08 at cycle  12 NSaved=  12.
 NSaved=12 IEnMin=12 EnMin=  2.57220660903288     IErMin=12 ErrMin= 1.90D-08
 ErrMax= 1.90D-08  0.00D+00 EMaxC= 1.00D-01 BMatC= 7.20D-15 BMatP= 2.50D-13
 IDIUse=1 WtCom= 1.00D+00 WtEn= 0.00D+00
 Coeff-Com:  0.706D-07-0.118D-06 0.111D-05-0.971D-05 0.316D-04-0.202D-03
 Coeff-Com:  0.531D-03 0.639D-02-0.881D-01 0.300D+00-0.667D+00 0.145D+01
 Coeff:      0.706D-07-0.118D-06 0.111D-05-0.971D-05 0.316D-04-0.202D-03
 Coeff:      0.531D-03 0.639D-02-0.881D-01 0.300D+00-0.667D+00 0.145D+01
 Gap=     0.421 Goal=   None    Shift=    0.000
 RMSDP=1.31D-08 MaxDP=1.11D-07 DE=-1.63D-12 OVMax= 1.10D-07

 Cycle  13  Pass 1  IDiag  3:
 E=  2.57220660903305     Delta-E=        0.000000000000 Rises=F Damp=F
 DIIS: error= 2.08D-09 at cycle  13 NSaved=  13.
 NSaved=13 IEnMin=12 EnMin=  2.57220660903288     IErMin=13 ErrMin= 2.08D-09
 ErrMax= 2.08D-09  0.00D+00 EMaxC= 1.00D-01 BMatC= 2.66D-16 BMatP= 7.20D-15
 IDIUse=1 WtCom= 1.00D+00 WtEn= 0.00D+00
 Coeff-Com:  0.626D-08-0.981D-08-0.636D-07 0.144D-05-0.361D-05 0.494D-04
 Coeff-Com: -0.138D-03-0.227D-02 0.300D-01-0.102D+00 0.233D+00-0.601D+00
 Coeff-Com:  0.144D+01
 Coeff:      0.626D-08-0.981D-08-0.636D-07 0.144D-05-0.361D-05 0.494D-04
 Coeff:     -0.138D-03-0.227D-02 0.300D-01-0.102D+00 0.233D+00-0.601D+00
 Coeff:      0.144D+01
 Gap=     0.421 Goal=   None    Shift=    0.000
 RMSDP=2.49D-09 MaxDP=1.15D-08 DE= 1.71D-13 OVMax= 1.94D-08

 Cycle  14  Pass 2  IDiag  1:
 SCF Done:  E(RAM1) =   2.57220660903     A.U. after   14 cycles
            NFock= 13  Conv=0.25D-08     -V/T= 1.1709
 KE=-1.505180883276D+01 PE=-1.689354813390D+02 EE= 8.271878979700D+01
 Leave Link  502 at Tue Dec 15 17:06:11 2015, MaxMem=    33554432 cpu:         0.0
 (Enter /home/Applications/g09/g09/l801.exe)
 Range of M.O.s used for correlation:     1    24
 NBasis=    24 NAE=    13 NBE=    13 NFC=     0 NFV=     0
 NROrb=     24 NOA=    13 NOB=    13 NVA=    11 NVB=    11
 Leave Link  801 at Tue Dec 15 17:06:11 2015, MaxMem=    33554432 cpu:         0.0
 (Enter /home/Applications/g09/g09/l914.exe)
 RHF ground state
 MDV=    33554432 DFT=F DoStab=F Mixed=F DoRPA=F DoScal=F NonHer=F
 Making orbital integer symmetry assigments:
 Orbital symmetries:
       Occupied  (A) (A) (A) (A) (A) (A) (A) (A) (A) (A) (A) (A)
                 (A)
       Virtual   (A) (A) (A) (A) (A) (A) (A) (A) (A) (A) (A)
    60 initial guesses have been made.
 Convergence on wavefunction:    0.000001000000000
 Davidson Disk Diagonalization:  ConvIn= 1.00D-06 SkipCon=T Conv= 1.00D-06.
 Max sub-space:   240 roots to seek:    60 dimension of matrix:          286
 Iteration     1 Dimension    60 NMult     0 NNew     60
 CISAX will form    60 AO SS matrices at one time.
 NMat=    60 NSing=    60 JSym2X= 0.
 FoFJK:  IHMeth= 8 ICntrl=       0 DoSepK=F KAlg= 0 I1Cent=   0 FoldK=F
 IRaf=         1 NMat= 120 IRICut=       1 DoRegI=T DoRafI=F ISym2E= 0.
 FoFCou: FMM=F IPFlag=           0 FMFlag=      100000 FMFlg1=           0
         NFxFlg=           0 DoJE=F BraDBF=F KetDBF=F FulRan=T
         wScrn=  0.000000 ICntrl=       0 IOpCl=  0 I1Cent=           0 NGrid=           0
         NMat0=  120 NMatS0=     60 NMatT0=    0 NMatD0=  120 NMtDS0=    0 NMtDT0=    0
 Symmetry not used in FoFCou.
 New state      5 was old state      6
 New state      6 was old state      5
 New state      7 was old state      9
 New state      8 was old state      7
 New state      9 was old state     11
 New state     10 was old state      8
 New state     11 was old state     13
 New state     12 was old state     10
 New state     13 was old state     17
 New state     14 was old state     16
 New state     15 was old state     12
 Excitation Energies [eV] at current iteration:
 Root      1 :     5.686982234310972
 Root      2 :     6.186840857472243
 Root      3 :     6.586327946597716
 Root      4 :     7.251518725871556
 Root      5 :     7.880646764735817
 Root      6 :     8.193432198061053
 Root      7 :     8.324100658480415
 Root      8 :     8.927933086934305
 Root      9 :     8.992767060647076
 Root     10 :     9.326095423456001
 Root     11 :     9.547371701395223
 Root     12 :     9.688127266774792
 Root     13 :     9.836521294326067
 Root     14 :     9.945938050882113
 Root     15 :    10.005953578823030
 Root     16 :    10.145007426331710
 Root     17 :    10.170917976813410
 Root     18 :    10.658479834010780
 Root     19 :    10.779703285913300
 Root     20 :    11.135438647578090
 Root     21 :    11.456792101111040
 Root     22 :    11.609296704398070
 Root     23 :    11.625847411976670
 Root     24 :    11.908341072878440
 Root     25 :    12.042560597011300
 Root     26 :    12.156271181630120
 Root     27 :    12.243472143663520
 Root     28 :    12.276638961298860
 Root     29 :    12.426946768535100
 Root     30 :    12.567962374519290
 Root     31 :    12.684316469790760
 Root     32 :    12.819565653405210
 Root     33 :    13.031497793637490
 Root     34 :    13.151793588555890
 Root     35 :    13.160051611629080
 Root     36 :    13.310509584691540
 Root     37 :    13.641177965552830
 Root     38 :    14.161856281092690
 Root     39 :    14.278623507190050
 Root     40 :    14.478169655154760
 Root     41 :    14.540573633410940
 Root     42 :    14.734930371779930
 Root     43 :    14.852899043070150
 Root     44 :    15.009296173150450
 Root     45 :    15.062313647624480
 Root     46 :    15.245954935908630
 Root     47 :    15.261004730698040
 Root     48 :    15.284515212149950
 Root     49 :    15.696791649488180
 Root     50 :    15.819478289097640
 Root     51 :    15.988088138541600
 Root     52 :    16.026028809034930
 Root     53 :    16.270450087706290
 Root     54 :    16.390276022892350
 Root     55 :    16.590725039067160
 Root     56 :    16.698471248776640
 Root     57 :    17.113802861071680
 Root     58 :    17.320011467375680
 Root     59 :    17.587926256568340
 Root     60 :    17.663101155926710
 Iteration     2 Dimension   120 NMult    60 NNew     60
 CISAX will form    60 AO SS matrices at one time.
 NMat=    60 NSing=    60 JSym2X= 0.
 Root      1 not converged, maximum delta is    0.021996436498906
 Root      2 not converged, maximum delta is    0.014221899214774
 Root      3 not converged, maximum delta is    0.020620751005296
 Root      4 not converged, maximum delta is    0.030461370067233
 Root      5 not converged, maximum delta is    0.016579484886182
 Root      6 not converged, maximum delta is    0.030568527807920
 Root      7 not converged, maximum delta is    0.041630652526441
 Root      8 not converged, maximum delta is    0.017985828033369
 Root      9 not converged, maximum delta is    0.031707807138747
 Root     10 not converged, maximum delta is    0.094349268309736
 New state     11 was old state     12
 Root     11 not converged, maximum delta is    0.373357254394782
 New state     12 was old state     11
 Root     12 not converged, maximum delta is    0.237405518838314
 Root     13 not converged, maximum delta is    0.060385506256254
 Root     14 not converged, maximum delta is    0.258143076490512
 Root     15 not converged, maximum delta is    0.263797087634588
 Excitation Energies [eV] at current iteration:
 Root      1 :     5.622673306429046   Change is   -0.064308927881926
 Root      2 :     6.171488563917087   Change is   -0.015352293555155
 Root      3 :     6.563315682038496   Change is   -0.023012264559220
 Root      4 :     7.214830668452968   Change is   -0.036688057418587
 Root      5 :     7.864051607661406   Change is   -0.016595157074412
 Root      6 :     8.163101899669357   Change is   -0.030330298391697
 Root      7 :     8.272647712824096   Change is   -0.051452945656320
 Root      8 :     8.905246309378896   Change is   -0.022686777555408
 Root      9 :     8.955853710502437   Change is   -0.036913350144639
 Root     10 :     9.202929549680436   Change is   -0.123165873775566
 Root     11 :     9.516330918040495   Change is   -0.171796348734298
 Root     12 :     9.539323661926119   Change is   -0.008048039469105
 Root     13 :     9.793148223051343   Change is   -0.043373071274723
 Root     14 :     9.879859447882099   Change is   -0.066078603000013
 Root     15 :     9.943486217285082   Change is   -0.062467361537946
 Root     16 :     9.987246599457754   Change is   -0.183671377355660
 Root     17 :    10.100914939452110   Change is   -0.044092486879598
 Root     18 :    10.424746719999810   Change is   -0.233733114010970
 Root     19 :    10.674075010369580   Change is   -0.105628275543717
 Root     20 :    10.879873739949980   Change is   -0.255564907628105
 Root     21 :    11.289954416766170   Change is   -0.166837684344871
 Root     22 :    11.426634532414260   Change is   -0.199212879562405
 Root     23 :    11.578470484281990   Change is   -0.030826220116082
 Root     24 :    11.682496911434410   Change is   -0.225844161444027
 Root     25 :    11.912928756011480   Change is   -0.129631840999816
 Root     26 :    12.016311909989270   Change is   -0.139959271640851
 Root     27 :    12.094016007329790   Change is   -0.149456136333729
 Root     28 :    12.107794043873210   Change is   -0.168844917425649
 Root     29 :    12.288845893352230   Change is   -0.138100875182873
 Root     30 :    12.354582399309070   Change is   -0.213379975210216
 Root     31 :    12.476951279355440   Change is   -0.207365190435317
 Root     32 :    12.734606881173740   Change is   -0.084958772231471
 Root     33 :    12.756791818607400   Change is   -0.274705975030091
 Root     34 :    13.004458196482280   Change is   -0.155593415146804
 Root     35 :    13.098210203178110   Change is   -0.053583385377778
 Root     36 :    13.205452327558100   Change is   -0.105057257133439
 Root     37 :    13.531470841086660   Change is   -0.109707124466174
 Root     38 :    14.036503555773610   Change is   -0.125352725319076
 Root     39 :    14.092955183048080   Change is   -0.185668324141977
 Root     40 :    14.356123864760820   Change is   -0.122045790393941
 Root     41 :    14.502631391040530   Change is   -0.037942242370408
 Root     42 :    14.517238751951120   Change is   -0.545074895673357
 Root     43 :    14.636917923385300   Change is   -0.098012448394628
 Root     44 :    14.736794423647730   Change is   -0.116104619422419
 Root     45 :    14.841993831457400   Change is   -0.167302341693057
 Root     46 :    15.080051685252320   Change is   -0.165903250656315
 Root     47 :    15.121103226914930   Change is   -0.139901503783101
 Root     48 :    15.172724428963810   Change is   -0.111790783186135
 Root     49 :    15.583786704767910   Change is   -0.113004944720264
 Root     50 :    15.603090309096510   Change is   -0.216387980001127
 Root     51 :    15.888084109503240   Change is   -0.100004029038364
 Root     52 :    15.933950026380910   Change is   -0.092078782654027
 Root     53 :    16.074363370128880   Change is   -0.196086717577419
 Root     54 :    16.177543053451920   Change is   -0.212732969440426
 Root     55 :    16.343020224037710   Change is   -0.247704815029456
 Root     56 :    16.515194018020660   Change is   -0.183277230755984
 Root     57 :    16.663544017620990
 Root     58 :    16.769392944843650   Change is   -0.344409916228034
 Root     59 :    16.987215760478910
 Root     60 :    17.073120177338820
 Iteration     3 Dimension   135 NMult   120 NNew     15
 CISAX will form    15 AO SS matrices at one time.
 NMat=    15 NSing=    15 JSym2X= 0.
 Root      1 not converged, maximum delta is    0.001707484731078
 Root      2 not converged, maximum delta is    0.000053844930042
 Root      3 not converged, maximum delta is    0.000016993621455
 Root      4 not converged, maximum delta is    0.000063712910836
 Root      5 not converged, maximum delta is    0.000042885858827
 Root      6 not converged, maximum delta is    0.000060464299610
 Root      7 not converged, maximum delta is    0.000015230405829
 Root      8 not converged, maximum delta is    0.000952202609127
 Root      9 not converged, maximum delta is    0.000025005967623
 Root     10 not converged, maximum delta is    0.002325283275338
 Root     11 not converged, maximum delta is    0.006750344211138
 Root     12 not converged, maximum delta is    0.005027830016041
 Root     13 not converged, maximum delta is    0.000132368546554
 Root     14 not converged, maximum delta is    0.001690537352484
 Root     15 not converged, maximum delta is    0.002229227409418
 Excitation Energies [eV] at current iteration:
 Root      1 :     5.622266937664081   Change is   -0.000406368764965
 Root      2 :     6.171488121722128   Change is   -0.000000442194960
 Root      3 :     6.563315610616509   Change is   -0.000000071421987
 Root      4 :     7.214830361044626   Change is   -0.000000307408342
 Root      5 :     7.864051475786248   Change is   -0.000000131875159
 Root      6 :     8.163101372564796   Change is   -0.000000527104561
 Root      7 :     8.272647637169822   Change is   -0.000000075654273
 Root      8 :     8.905080955185610   Change is   -0.000165354193284
 Root      9 :     8.955853544275293   Change is   -0.000000166227144
 Root     10 :     9.201873382331170   Change is   -0.001056167349265
 Root     11 :     9.515857022797109   Change is   -0.000473895243386
 Root     12 :     9.539153722112021   Change is   -0.000169939814099
 Root     13 :     9.793147129475981   Change is   -0.000001093575361
 Root     14 :     9.879482088908318   Change is   -0.000377358973780
 Root     15 :     9.943347129630530   Change is   -0.000139087654552
 Iteration     4 Dimension   143 NMult   135 NNew      8
 CISAX will form     8 AO SS matrices at one time.
 NMat=     8 NSing=     8 JSym2X= 0.
 Root      1 not converged, maximum delta is    0.000061997634281
 Root      2 not converged, maximum delta is    0.000002131381335
 Root      3 not converged, maximum delta is    0.000001047774533
 Root      4 not converged, maximum delta is    0.000001082723288
 Root      5 not converged, maximum delta is    0.000001151791095
 Root      6 not converged, maximum delta is    0.000002652727697
 Root      7 has converged.
 Root      8 not converged, maximum delta is    0.000040480260257
 Root      9 not converged, maximum delta is    0.000001577754948
 Root     10 not converged, maximum delta is    0.000093641659966
 Root     11 not converged, maximum delta is    0.000044254735254
 Root     12 not converged, maximum delta is    0.000025747785593
 Root     13 not converged, maximum delta is    0.000003246522609
 Root     14 not converged, maximum delta is    0.000096738145094
 Root     15 not converged, maximum delta is    0.000073411518009
 Excitation Energies [eV] at current iteration:
 Root      1 :     5.622265887054552   Change is   -0.000001050609529
 Root      2 :     6.171488120565442   Change is   -0.000000001156686
 Root      3 :     6.563315610276426   Change is   -0.000000000340083
 Root      4 :     7.214830360712564   Change is   -0.000000000332062
 Root      5 :     7.864051475478765   Change is   -0.000000000307483
 Root      6 :     8.163101370705673   Change is   -0.000000001859123
 Root      7 :     8.272647637108980   Change is   -0.000000000060843
 Root      8 :     8.905080494619900   Change is   -0.000000460565711
 Root      9 :     8.955853543855653   Change is   -0.000000000419640
 Root     10 :     9.201869953120775   Change is   -0.000003429210395
 Root     11 :     9.515856324661080   Change is   -0.000000698136028
 Root     12 :     9.539153488535597   Change is   -0.000000233576423
 Root     13 :     9.793147127389648   Change is   -0.000000002086333
 Root     14 :     9.879480867803013   Change is   -0.000001221105307
 Root     15 :     9.943346268107696   Change is   -0.000000861522834
 Convergence achieved on expansion vectors.
 ***********************************************************************
 Excited states from <AA,BB:AA,BB> singles matrix:
 ***********************************************************************
 
 1PDM for each excited state written to RWF  633
 Ground to excited state transition densities written to RWF  633
 Ground to excited state transition electric dipole moments (Au):
       state          X           Y           Z        Dip. S.      Osc.
         1        -0.5806      1.4114      0.0082      2.3293      0.3208
         2        -0.0131      0.0359      0.0335      0.0026      0.0004
         3        -0.0044      0.0128      0.0607      0.0039      0.0006
         4        -0.0104      0.0125      0.0199      0.0007      0.0001
         5         0.0012      0.0160     -0.2226      0.0498      0.0096
         6         0.0088     -0.0228     -0.2317      0.0543      0.0109
         7         0.0048     -0.0003      0.0426      0.0018      0.0004
         8        -0.4138     -0.2648      0.0100      0.2415      0.0527
         9         0.0136     -0.0053      0.0310      0.0012      0.0003
        10        -0.4142      0.3174     -0.0083      0.2724      0.0614
        11         0.4339     -0.3200      0.0830      0.2976      0.0694
        12         0.2678     -0.2184     -0.1337      0.1372      0.0321
        13         0.0047     -0.0304      0.0924      0.0095      0.0023
        14        -0.0421     -0.6966     -0.1347      0.5052      0.1223
        15        -0.1019     -0.3669      0.3164      0.2451      0.0597
 Ground to excited state transition velocity dipole moments (Au):
       state          X           Y           Z        Dip. S.      Osc.
         1         0.0764     -0.1852      0.0035      0.0402      0.1296
         2         0.0013     -0.0058     -0.1194      0.0143      0.0420
         3         0.0005     -0.0027     -0.1547      0.0239      0.0662
         4         0.0032     -0.0037      0.0038      0.0000      0.0001
         5        -0.0005     -0.0034      0.0068      0.0001      0.0001
         6        -0.0014      0.0035      0.0623      0.0039      0.0087
         7        -0.0013      0.0006     -0.0107      0.0001      0.0003
         8         0.1897      0.0868      0.0017      0.0435      0.0887
         9        -0.0056      0.0019     -0.0091      0.0001      0.0002
        10         0.0757     -0.0655     -0.0052      0.0101      0.0198
        11        -0.0273      0.0437      0.0614      0.0064      0.0122
        12        -0.0107      0.0320     -0.0939      0.0100      0.0189
        13         0.0000      0.0054     -0.0594      0.0036      0.0066
        14        -0.0345      0.0843     -0.0512      0.0109      0.0201
        15         0.0065      0.0501      0.0944      0.0115      0.0209
 Ground to excited state transition magnetic dipole moments (Au):
       state          X           Y           Z
         1         0.0105      0.0079     -0.6003
         2        -0.3189     -0.0841     -0.0122
         3         0.2059      0.2188     -0.0071
         4        -0.8327     -0.2557     -0.0177
         5         0.2907     -0.9077     -0.0067
         6         0.1052     -0.4149      0.0084
         7        -0.6936     -0.1634      0.0025
         8         0.0147     -0.0046      0.0059
         9         0.0675      0.0201      0.0102
        10        -0.0170     -0.0187     -0.0006
        11         0.1543      0.1446      0.0304
        12        -0.2196     -0.2344      0.0159
        13        -0.0762     -0.0748      0.0034
        14         0.1622      0.0024      0.0509
        15        -0.2963     -0.0184      0.0268
 Ground to excited state transition velocity quadrupole moments (Au):
       state          XX          YY          ZZ          XY          XZ          YZ
         1         0.2407     -0.2302      0.0004     -0.2367      0.0033      0.0015
         2         0.0094     -0.0095      0.0011     -0.0070      0.0126     -0.2299
         3         0.0032      0.0011      0.0006     -0.0035     -0.1607      0.1470
         4         0.0128     -0.0012      0.0015     -0.0055     -0.0652      0.2173
         5         0.0107      0.0034      0.0017     -0.0058     -0.1122     -0.0221
         6        -0.0131     -0.0039      0.0026      0.0074      0.2794      0.0462
         7        -0.0058      0.0036     -0.0007     -0.0001      0.1221     -0.4527
         8         0.2827     -0.0822      0.0011      0.1413     -0.0137      0.0002
         9        -0.0121      0.0056     -0.0010      0.0041      0.0590     -0.1317
        10        -0.0185     -0.1107     -0.0332      0.0795      0.0065     -0.0054
        11        -0.1131      0.3727      0.0417      0.1166     -0.1307      0.0759
        12        -0.0600      0.2294      0.0287      0.0807      0.1996     -0.1082
        13        -0.0220     -0.0003      0.0001      0.0185      0.1139     -0.0576
        14        -0.2824     -0.2081     -0.0869      0.2223      0.0228      0.1322
        15        -0.1786     -0.1774     -0.0532      0.1356     -0.0466     -0.2341
 <0|del|b> * <b|rxdel|0> + <0|del|b> * <b|delr+rdel|0>
 Rotatory Strengths (R) in cgs (10**-40 erg-esu-cm/Gauss)
       state          XX          YY          ZZ    R(velocity)    E-M Angle
         1        -6.4803     -0.6028     -2.3472     -3.1435       91.31
         2         4.4460     -0.1589      0.4682      1.5851       87.79
         3         0.9084      1.0635     -0.1879      0.5946       89.25
         4         0.8267     -2.6497     -2.8262     -1.5497      108.93
         5         3.1766     -0.1684      4.0182      2.3421       66.61
         6        -1.7244     -0.1790     -0.6621     -0.8552       92.33
         7        -0.2290      1.6729      0.3297      0.5912       84.29
         8         1.1105      2.8193      1.2513      1.7270       45.85
         9        -0.2169      0.3269     -1.0431     -0.3111      124.13
        10         1.2986     -1.3417     -0.0780     -0.0404       90.00
        11        21.2792    -11.7098     -1.5548      2.6715       76.62
        12       -23.1482      9.6766      0.0809     -4.4636      101.94
        13        -2.2744      0.8785      0.2068     -0.3964       95.46
        14       -15.2876     -1.3457      1.0633     -5.1900      116.74
        15        16.1972    -13.2695     -3.5417     -0.2047       90.57
 1/2[<0|r|b>*<b|rxdel|0> + (<0|rxdel|b>*<b|r|0>)*]
 Rotatory Strengths (R) in cgs (10**-40 erg-esu-cm/Gauss)
       state          XX          YY          ZZ     R(length)
         1         4.3257     -7.8575      3.4889     -0.0143
         2        -2.9542      2.1337      0.2882     -0.1774
         3         0.6419     -1.9798      0.3050     -0.3443
         4        -6.1170      2.2674      0.2484     -1.2004
         5        -0.2412     10.2741     -1.0572      2.9919
         6        -0.6552     -6.6959      1.3821     -1.9897
         7         2.3413     -0.0329     -0.0763      0.7440
         8         4.3040     -0.8692     -0.0414      1.1311
         9        -0.6487      0.0748     -0.2229     -0.2656
        10        -4.9781      4.2029     -0.0033     -0.2595
        11       -47.3622     32.7217     -1.7859     -5.4755
        12        41.5777    -36.2032      1.5043      2.2929
        13         0.2554     -1.6093     -0.2240     -0.5260
        14         4.8257      1.1769      4.8484      3.6170
        15       -21.3575     -4.7693     -5.9878    -10.7049
  1/2[<0|del|b>*<b|r|0> + (<0|r|b>*<b|del|0>)*] (Au)
       state          X           Y           Z        Dip. S.   Osc.(frdel)
         1        -0.0444     -0.2614      0.0000      0.3058      0.2038
         2         0.0000     -0.0002     -0.0040      0.0042      0.0028
         3         0.0000      0.0000     -0.0094      0.0094      0.0063
         4         0.0000      0.0000      0.0001      0.0000      0.0000
         5         0.0000     -0.0001     -0.0015      0.0016      0.0010
         6         0.0000     -0.0001     -0.0144      0.0145      0.0097
         7         0.0000      0.0000     -0.0005      0.0005      0.0003
         8        -0.0785     -0.0230      0.0000      0.1015      0.0677
         9        -0.0001      0.0000     -0.0003      0.0004      0.0002
        10        -0.0314     -0.0208      0.0000      0.0521      0.0347
        11        -0.0119     -0.0140      0.0051      0.0208      0.0138
        12        -0.0029     -0.0070      0.0126     -0.0027     -0.0018
        13         0.0000     -0.0002     -0.0055      0.0057      0.0038
        14         0.0015     -0.0588      0.0069      0.0504      0.0336
        15        -0.0007     -0.0184      0.0299     -0.0108     -0.0072

 Excitation energies and oscillator strengths:
 
 Excited State   1:      Singlet-A      5.6223 eV  220.52 nm  f=0.3208  <S**2>=0.000
      11 -> 17        -0.10537
      13 -> 14         0.69227
 This state for optimization and/or second-order correction.
 Total Energy, E(CIS) =   2.77882108759    
 Copying the excited state density for this state as the 1-particle RhoCI density.
 
 Excited State   2:      Singlet-A      6.1715 eV  200.90 nm  f=0.0004  <S**2>=0.000
      10 -> 15         0.13270
      13 -> 15         0.67465
      13 -> 17        -0.10294
 
 Excited State   3:      Singlet-A      6.5633 eV  188.90 nm  f=0.0006  <S**2>=0.000
      10 -> 16        -0.13718
      13 -> 16         0.66233
      13 -> 17        -0.14270
 
 Excited State   4:      Singlet-A      7.2148 eV  171.85 nm  f=0.0001  <S**2>=0.000
      12 -> 14         0.69652
 
 Excited State   5:      Singlet-A      7.8641 eV  157.66 nm  f=0.0096  <S**2>=0.000
      10 -> 14         0.16641
      11 -> 14         0.64713
      13 -> 17         0.20377
 
 Excited State   6:      Singlet-A      8.1631 eV  151.88 nm  f=0.0109  <S**2>=0.000
      10 -> 15         0.10324
      11 -> 14        -0.20814
      13 -> 17         0.63680
 
 Excited State   7:      Singlet-A      8.2726 eV  149.87 nm  f=0.0004  <S**2>=0.000
      10 -> 16         0.10314
      13 -> 18         0.60239
      13 -> 21        -0.30977
 
 Excited State   8:      Singlet-A      8.9051 eV  139.23 nm  f=0.0527  <S**2>=0.000
      10 -> 14         0.63791
      11 -> 14        -0.16371
      12 -> 15        -0.17434
 
 Excited State   9:      Singlet-A      8.9559 eV  138.44 nm  f=0.0003  <S**2>=0.000
      13 -> 18         0.11043
      13 -> 19         0.67436
 
 Excited State  10:      Singlet-A      9.2019 eV  134.74 nm  f=0.0614  <S**2>=0.000
       8 -> 15        -0.15848
       8 -> 16        -0.14703
      10 -> 14         0.11717
      11 -> 17        -0.17369
      12 -> 15         0.49446
      12 -> 16        -0.26144
      12 -> 18        -0.19679
 
 Excited State  11:      Singlet-A      9.5159 eV  130.29 nm  f=0.0694  <S**2>=0.000
       9 -> 15         0.15058
      10 -> 14        -0.10413
      10 -> 15        -0.24307
      11 -> 15         0.39415
      11 -> 16         0.13879
      11 -> 17        -0.21651
      12 -> 15        -0.28730
      12 -> 16        -0.14626
      12 -> 18        -0.15840
 
 Excited State  12:      Singlet-A      9.5392 eV  129.97 nm  f=0.0321  <S**2>=0.000
       7 -> 15        -0.10941
      10 -> 15         0.56257
      11 -> 17        -0.10538
      12 -> 15        -0.20926
      13 -> 15        -0.13872
      13 -> 18        -0.10739
      13 -> 21        -0.10074
 
 Excited State  13:      Singlet-A      9.7931 eV  126.60 nm  f=0.0023  <S**2>=0.000
      10 -> 15         0.17663
      13 -> 18         0.30489
      13 -> 20        -0.19256
      13 -> 21         0.56040
 
 Excited State  14:      Singlet-A      9.8795 eV  125.50 nm  f=0.1223  <S**2>=0.000
       9 -> 16        -0.10489
      10 -> 16        -0.17791
      11 -> 16         0.40381
      11 -> 17        -0.14130
      12 -> 16         0.43899
      13 -> 20         0.10918
 
 Excited State  15:      Singlet-A      9.9433 eV  124.69 nm  f=0.0597  <S**2>=0.000
      10 -> 16         0.53395
      12 -> 16         0.26247
      13 -> 16         0.13054
      13 -> 20        -0.25443
 SavETr:  write IOETrn=   770 NScale= 10 NData=  16 NLR=1 NState=   15 LETran=     280.
 The selected state is a singlet
 CISAX will form     1 AO SS matrices at one time.
 NMat=     1 NSing=     1 JSym2X= 0.
 Leave Link  914 at Tue Dec 15 17:06:11 2015, MaxMem=    33554432 cpu:         0.1
 (Enter /home/Applications/g09/g09/l1002.exe)
 Minotr:  Closed shell wavefunction.
          Computing CIS/TD-HF/TD-KS derivatives.
          Using Z-Vector for PSCF gradient.
          Skipping F1 and S1 gradient terms here.
          IDoAtm=111111111
          Direct CPHF calculation.
          Differentiating once with respect to electric field.
                with respect to dipole field.
          Differentiating once with respect to nuclear coordinates.
          Electric field/nuclear overlap derivatives assumed to be zero.
          Requested convergence is 1.0D-10 RMS, and 1.0D-09 maximum.
          NewPWx=T KeepS1=F KeepF1=F KeepIn=T MapXYZ=F SortEE=F KeepMc=T.
          MDV=      33495423 using IRadAn=       0.
 Keep J ints in memory in canonical form, NReq=871704.
 FoFCou: FMM=F IPFlag=           0 FMFlag=           0 FMFlg1=           0
         NFxFlg=           0 DoJE=F BraDBF=F KetDBF=F FulRan=T
         wScrn=  0.000000 ICntrl=     600 IOpCl=  2 I1Cent=           0 NGrid=           0
         NMat0=    1 NMatS0=     54 NMatT0=    0 NMatD0=    1 NMtDS0=    0 NMtDT0=    0
 Symmetry not used in FoFCou.
          Solving linear equations separately, MaxMat=       0.
          There are     1 degrees of freedom in the 1st order CPHF.  IDoFFX=0 NUNeed=     1.
 LinEq1:  Iter=  0 NonCon=     1 RMS=6.55D-03 Max=4.72D-02 NDo=     1
 AX will form     1 AO Fock derivatives at one time.
 LinEq1:  Iter=  1 NonCon=     1 RMS=5.16D-04 Max=2.00D-03 NDo=     1
 LinEq1:  Iter=  2 NonCon=     1 RMS=5.25D-05 Max=2.84D-04 NDo=     1
 LinEq1:  Iter=  3 NonCon=     1 RMS=5.64D-06 Max=2.80D-05 NDo=     1
 LinEq1:  Iter=  4 NonCon=     1 RMS=1.08D-06 Max=7.45D-06 NDo=     1
 LinEq1:  Iter=  5 NonCon=     1 RMS=1.45D-07 Max=6.66D-07 NDo=     1
 LinEq1:  Iter=  6 NonCon=     1 RMS=1.96D-08 Max=5.89D-08 NDo=     1
 LinEq1:  Iter=  7 NonCon=     1 RMS=2.44D-09 Max=9.93D-09 NDo=     1
 LinEq1:  Iter=  8 NonCon=     1 RMS=2.79D-10 Max=1.14D-09 NDo=     1
 LinEq1:  Iter=  9 NonCon=     0 RMS=3.15D-11 Max=1.32D-10 NDo=     1
 Linear equations converged to 1.000D-10 1.000D-09 after     9 iterations.
 End of Minotr F.D. properties file   721 does not exist.
 End of Minotr F.D. properties file   722 does not exist.
 End of Minotr F.D. properties file   788 does not exist.
 Leave Link 1002 at Tue Dec 15 17:06:11 2015, MaxMem=    33554432 cpu:         0.0
 (Enter /home/Applications/g09/g09/l601.exe)
 Copying SCF densities to generalized density rwf, IOpCl= 0 IROHF=0.

 **********************************************************************

            Population analysis using the SCF density.

 **********************************************************************

 Orbital symmetries:
       Occupied  (A) (A) (A) (A) (A) (A) (A) (A) (A) (A) (A) (A)
                 (A)
       Virtual   (A) (A) (A) (A) (A) (A) (A) (A) (A) (A) (A)
 The electronic state is 1-A.
 Alpha  occ. eigenvalues --   -1.72968  -1.17694  -0.93616  -0.80285  -0.76092
 Alpha  occ. eigenvalues --   -0.67051  -0.64051  -0.52371  -0.50280  -0.42422
 Alpha  occ. eigenvalues --   -0.42081  -0.40166  -0.28408
 Alpha virt. eigenvalues --    0.13690   0.16528   0.18632   0.26204   0.28621
 Alpha virt. eigenvalues --    0.30220   0.32599   0.34765   0.38361   0.48505
 Alpha virt. eigenvalues --    0.51392
     Molecular Orbital Coefficients:
                           1         2         3         4         5
                           O         O         O         O         O
     Eigenvalues --    -1.72968  -1.17694  -0.93616  -0.80285  -0.76092
   1 1   C  1S          0.11358   0.47034  -0.23721   0.27319  -0.18524
   2        1PX        -0.13651  -0.14939   0.03768   0.08504  -0.24088
   3        1PY         0.01419   0.12202   0.22451  -0.22376  -0.28088
   4        1PZ         0.00056   0.00157  -0.00163   0.00115  -0.00415
   5 2   C  1S          0.27427   0.19567  -0.50668  -0.07850   0.40511
   6        1PX        -0.20839   0.23060   0.03215   0.50548  -0.07159
   7        1PY         0.18536   0.21200   0.06795   0.06213  -0.15916
   8        1PZ         0.00162   0.00012  -0.00281  -0.00142  -0.00292
   9 3   O  1S          0.76887  -0.33599  -0.01355  -0.05000  -0.30845
  10        1PX         0.07654   0.12635  -0.08700  -0.08458   0.14475
  11        1PY         0.03751   0.04624   0.21853   0.26215   0.03284
  12        1PZ        -0.00042  -0.00033  -0.00033   0.00055  -0.00281
  13 4   C  1S          0.29664   0.19977   0.51654   0.14761   0.36439
  14        1PX        -0.02765   0.33753  -0.09170  -0.41578  -0.08437
  15        1PY        -0.29241   0.02562   0.05368  -0.30269   0.11326
  16        1PZ        -0.00012  -0.00090  -0.00223   0.00013  -0.00652
  17 5   C  1S          0.11853   0.48960   0.22673  -0.27563  -0.14542
  18        1PX        -0.09125  -0.01923  -0.19402   0.04371  -0.38470
  19        1PY        -0.10867  -0.17982   0.15200  -0.22768   0.05025
  20        1PZ         0.00015   0.00022  -0.00042  -0.00058  -0.00309
  21 6   H  1S          0.01231   0.16397   0.12854  -0.22436  -0.14640
  22 7   H  1S          0.06639   0.00852   0.28228   0.10758   0.25246
  23 8   H  1S          0.06104   0.01182  -0.26781  -0.06686   0.28508
  24 9   H  1S          0.00989   0.14201  -0.12581   0.20437  -0.16161
                           6         7         8         9        10
                           O         O         O         O         O
     Eigenvalues --    -0.67051  -0.64051  -0.52371  -0.50280  -0.42422
   1 1   C  1S         -0.19524  -0.00893   0.13245  -0.04676   0.02082
   2        1PX        -0.26669  -0.00390  -0.04362  -0.10631   0.13073
   3        1PY         0.05175  -0.00290  -0.09924  -0.35923   0.01231
   4        1PZ        -0.00975   0.38220   0.00651  -0.00412   0.22544
   5 2   C  1S         -0.10792  -0.00214   0.08559  -0.12133  -0.04038
   6        1PX        -0.11868  -0.00079  -0.13096   0.50668  -0.07829
   7        1PY         0.39002   0.00130   0.56074  -0.00529  -0.03747
   8        1PZ        -0.01097   0.53434   0.01098  -0.00683   0.66770
   9 3   O  1S         -0.20334  -0.00693   0.04251   0.32740  -0.00420
  10        1PX         0.19565   0.00588   0.04225  -0.16987   0.01245
  11        1PY         0.07927   0.00403  -0.17094  -0.04726  -0.01544
  12        1PZ        -0.00455   0.23388   0.00126   0.00122  -0.00313
  13 4   C  1S         -0.07905   0.00648  -0.11361  -0.07581   0.03888
  14        1PX         0.21346   0.00674  -0.19616   0.43737   0.07978
  15        1PY        -0.37388  -0.00966   0.55550   0.23147   0.01289
  16        1PZ        -0.00730   0.59353  -0.00052   0.00235  -0.63686
  17 5   C  1S         -0.17837  -0.00367  -0.13943  -0.02514  -0.02123
  18        1PX        -0.17221  -0.00974   0.00090  -0.38085  -0.09136
  19        1PY        -0.22850  -0.00140  -0.03553   0.14799  -0.06849
  20        1PZ        -0.00765   0.40104   0.00288  -0.00032  -0.16350
  21 6   H  1S         -0.27302  -0.00428  -0.10034  -0.05898  -0.09688
  22 7   H  1S         -0.29418  -0.00829   0.30767  -0.14491  -0.00498
  23 8   H  1S         -0.29166  -0.00129  -0.33073  -0.06596   0.00316
  24 9   H  1S         -0.26933  -0.00201   0.06350  -0.02463   0.11322
                          11        12        13        14        15
                           O         O         O         V         V
     Eigenvalues --    -0.42081  -0.40166  -0.28408   0.13690   0.16528
   1 1   C  1S          0.08915  -0.06401  -0.00378  -0.00325  -0.07577
   2        1PX         0.48035   0.29017  -0.01039  -0.01246   0.05193
   3        1PY         0.04261  -0.39200   0.00150   0.00284  -0.08915
   4        1PZ        -0.05687   0.00361   0.57654   0.68266   0.01133
   5 2   C  1S         -0.12861   0.12120  -0.00101   0.00040  -0.01776
   6        1PX        -0.30676  -0.11797   0.00198  -0.00112   0.04273
   7        1PY        -0.12035   0.27276  -0.00244  -0.00103  -0.06054
   8        1PZ        -0.19055  -0.00408  -0.38087  -0.20473  -0.00450
   9 3   O  1S         -0.02094  -0.13144   0.00126  -0.00024   0.00937
  10        1PX         0.04698   0.17873  -0.00262  -0.00235   0.08583
  11        1PY        -0.05818   0.07052   0.00006   0.00066  -0.01295
  12        1PZ        -0.00213  -0.00417  -0.20675   0.00278   0.00230
  13 4   C  1S          0.14983   0.09164  -0.00401   0.00208  -0.21199
  14        1PX         0.26610   0.04658  -0.00053  -0.00959   0.44740
  15        1PY         0.06763  -0.26550  -0.00047   0.00487  -0.29378
  16        1PZ         0.17133  -0.00751  -0.35047   0.19790   0.00809
  17 5   C  1S         -0.07796  -0.05762   0.00013   0.00331  -0.08946
  18        1PX        -0.32096  -0.01219   0.00183  -0.00387   0.21553
  19        1PY        -0.24684   0.52823  -0.00445   0.00404  -0.02051
  20        1PZ         0.04489   0.00204   0.59730  -0.67253  -0.01242
  21 6   H  1S         -0.34447   0.33667   0.00068  -0.00088  -0.01086
  22 7   H  1S         -0.01207  -0.14024   0.00201  -0.01321   0.75966
  23 8   H  1S          0.00516  -0.15174   0.00028  -0.00102  -0.06102
  24 9   H  1S          0.41321   0.28485  -0.00208   0.00835  -0.05087
                          16        17        18        19        20
                           V         V         V         V         V
     Eigenvalues --     0.18632   0.26204   0.28621   0.30220   0.32599
   1 1   C  1S         -0.10195  -0.03444  -0.09239  -0.07583   0.46685
   2        1PX         0.17250  -0.44119  -0.27484  -0.37279  -0.00767
   3        1PY         0.19066  -0.08360   0.42846  -0.33742  -0.28936
   4        1PZ         0.00358  -0.00981  -0.00800  -0.00529   0.00383
   5 2   C  1S         -0.19409  -0.30720   0.18612  -0.29963  -0.26196
   6        1PX         0.14271  -0.17118   0.12847  -0.15958  -0.26555
   7        1PY         0.51919  -0.00543  -0.03796  -0.01768  -0.01197
   8        1PZ        -0.00262   0.00196   0.00105   0.00111   0.00081
   9 3   O  1S          0.01382  -0.03698   0.00654   0.00853  -0.05169
  10        1PX         0.07081  -0.02192  -0.00994   0.03092  -0.11439
  11        1PY         0.06666  -0.00106   0.03300  -0.02901  -0.05018
  12        1PZ        -0.00085   0.00121   0.00058   0.00011  -0.00177
  13 4   C  1S         -0.03392  -0.33274  -0.07589   0.35899  -0.15225
  14        1PX         0.05509  -0.16943  -0.01320   0.18227  -0.12213
  15        1PY         0.03402  -0.12128  -0.06920   0.14303  -0.15442
  16        1PZ         0.00084   0.00086  -0.00077  -0.00144   0.00111
  17 5   C  1S         -0.09380   0.04903   0.05323  -0.03500   0.33706
  18        1PX         0.01221  -0.36816   0.00019   0.56395  -0.10024
  19        1PY         0.11197  -0.14887   0.50820  -0.03144   0.32787
  20        1PZ        -0.00132   0.00219   0.00644   0.00109   0.00093
  21 6   H  1S         -0.07250   0.32036  -0.47068  -0.17976  -0.37245
  22 7   H  1S          0.03784   0.13666   0.04802  -0.11859   0.06199
  23 8   H  1S          0.74242   0.16454  -0.10632   0.11597   0.09566
  24 9   H  1S         -0.03902   0.45706   0.41407   0.24767  -0.30963
                          21        22        23        24
                           V         V         V         V
     Eigenvalues --     0.34765   0.38361   0.48505   0.51392
   1 1   C  1S         -0.52513   0.00070   0.06368   0.02943
   2        1PX         0.18282   0.00062   0.01945  -0.01630
   3        1PY        -0.27104  -0.00072  -0.02418  -0.04263
   4        1PZ        -0.00213   0.02995   0.00019  -0.00013
   5 2   C  1S          0.14108  -0.00023  -0.15962   0.14881
   6        1PX         0.10122  -0.00145   0.10150  -0.23471
   7        1PY         0.11272   0.00040  -0.20434   0.02022
   8        1PZ         0.00013  -0.21216  -0.00077   0.00125
   9 3   O  1S         -0.00609  -0.00010   0.15932   0.01212
  10        1PX        -0.02863   0.00518   0.85175  -0.29309
  11        1PY         0.01408  -0.00124   0.28889   0.86013
  12        1PZ        -0.00062   0.94997  -0.00461   0.00277
  13 4   C  1S         -0.16178  -0.00009  -0.15317  -0.17072
  14        1PX        -0.17329  -0.00197  -0.09210   0.15281
  15        1PY        -0.02602  -0.00012   0.19816   0.19499
  16        1PZ         0.00051  -0.22480   0.00039  -0.00097
  17 5   C  1S          0.62682   0.00134   0.07423  -0.02586
  18        1PX         0.07303  -0.00026  -0.00265   0.04320
  19        1PY        -0.23447   0.00059   0.03552  -0.01453
  20        1PZ         0.00023   0.03277   0.00000  -0.00002
  21 6   H  1S         -0.22898  -0.00090  -0.04640  -0.00323
  22 7   H  1S          0.01061  -0.00091  -0.02386  -0.01227
  23 8   H  1S         -0.00221   0.00035  -0.02864   0.00959
  24 9   H  1S          0.10395  -0.00083  -0.03976  -0.00062
     Density Matrix:
                           1         2         3         4         5
   1 1   C  1S          0.93950
   2        1PX         0.10289   1.04820
   3        1PY         0.03873  -0.05206   0.98335
   4        1PZ        -0.00193  -0.00161  -0.00047   1.06545
   5 2   C  1S          0.32986  -0.36789  -0.41237  -0.00225   1.21415
   6        1PX         0.37845  -0.30579  -0.40711  -0.00100  -0.25713
   7        1PY         0.24100  -0.24449  -0.14306  -0.00120   0.09027
   8        1PZ        -0.00236  -0.00029   0.00184   0.29241   0.00015
   9 3   O  1S          0.02505  -0.03279  -0.03411  -0.00020   0.00754
  10        1PX         0.01428  -0.06913  -0.05147   0.00054   0.34659
  11        1PY        -0.01253  -0.01518  -0.00986  -0.00026  -0.19894
  12        1PZ         0.00050   0.00088   0.00052  -0.06070  -0.00227
  13 4   C  1S         -0.01972   0.02332   0.02901  -0.00123  -0.01396
  14        1PX         0.02728  -0.01652   0.00876   0.00133  -0.04265
  15        1PY         0.04314  -0.01372  -0.00709  -0.00116  -0.02861
  16        1PZ         0.00220   0.00312   0.00036  -0.25694   0.00116
  17 5   C  1S          0.31091  -0.13960   0.49500  -0.00040  -0.01914
  18        1PX         0.26342   0.04229   0.33778   0.00017   0.03725
  19        1PY        -0.45742   0.17705  -0.46484  -0.00454  -0.00315
  20        1PZ        -0.00569  -0.00884  -0.00160   0.91670  -0.00037
  21 6   H  1S          0.00477  -0.00424   0.01910   0.00076   0.09140
  22 7   H  1S          0.08008  -0.03612   0.06219   0.00237   0.06222
  23 8   H  1S          0.06284  -0.07292  -0.04351  -0.00054   0.53494
  24 9   H  1S          0.53333   0.79329  -0.23032   0.01112   0.05408
                           6         7         8         9        10
   6        1PX         1.52077
   7        1PY        -0.11897   1.33996
   8        1PZ         0.00196   0.00169   1.82608
   9 3   O  1S         -0.06923   0.05194   0.00043   1.94000
  10        1PX        -0.38806   0.30062   0.00465  -0.28205   0.32154
  11        1PY         0.27960   0.00960  -0.00165  -0.11954  -0.00340
  12        1PZ         0.00453  -0.00143   0.40423   0.00147  -0.00102
  13 4   C  1S         -0.04920  -0.01000  -0.00012   0.01041   0.11967
  14        1PX         0.01022  -0.00712  -0.00043  -0.01447   0.10501
  15        1PY         0.01188   0.00287  -0.00014  -0.09009  -0.22998
  16        1PZ        -0.00116   0.00070  -0.01427  -0.00001   0.00091
  17 5   C  1S          0.05128  -0.01195  -0.00013   0.02725   0.00541
  18        1PX        -0.01522   0.00767   0.00054  -0.05090  -0.07867
  19        1PY        -0.01420  -0.00708   0.00151   0.00024  -0.01423
  20        1PZ        -0.00009  -0.00103  -0.26161   0.00012  -0.00082
  21 6   H  1S          0.05130   0.05923  -0.00049   0.00870   0.00676
  22 7   H  1S         -0.04929   0.04344   0.00076   0.01066  -0.07330
  23 8   H  1S         -0.02447  -0.78979   0.00216   0.01096  -0.02059
  24 9   H  1S         -0.03307   0.03246  -0.00039   0.00813   0.02973
                          11        12        13        14        15
  11        1PY         0.33490
  12        1PZ         0.00024   0.19502
  13 4   C  1S          0.39563   0.00068   1.21320
  14        1PX        -0.20171  -0.00013  -0.12144   1.31564
  15        1PY        -0.46422   0.00212  -0.24433   0.09433   1.54150
  16        1PZ         0.00078   0.42599   0.00441  -0.00281   0.00382
  17 5   C  1S          0.02253   0.00032   0.34089   0.44238   0.10044
  18        1PX        -0.04902  -0.00021  -0.55060  -0.53746  -0.16771
  19        1PY        -0.00716   0.00019   0.02942  -0.00966   0.10416
  20        1PZ         0.00059  -0.05848  -0.00056  -0.00067   0.00077
  21 6   H  1S          0.03213  -0.00056   0.05847   0.00145  -0.04475
  22 7   H  1S          0.04570  -0.00191   0.51889  -0.57520   0.55156
  23 8   H  1S         -0.07675   0.00060   0.05751  -0.00215  -0.05730
  24 9   H  1S         -0.01807  -0.00126   0.09190   0.07876  -0.00420
                          16        17        18        19        20
  16        1PZ         1.82045
  17 5   C  1S         -0.00070   0.92807
  18        1PX         0.00040   0.09508   0.96510
  19        1PY        -0.00079   0.04249   0.03321   1.08332
  20        1PZ         0.28114   0.00014   0.00072  -0.00114   1.09285
  21 6   H  1S         -0.00046   0.53543   0.40408   0.71833   0.00427
  22 7   H  1S         -0.00819   0.06411  -0.08231  -0.02711   0.00019
  23 8   H  1S          0.00001   0.07471   0.01708  -0.06586  -0.00073
  24 9   H  1S         -0.00161  -0.00375   0.00256  -0.00803   0.00257
                          21        22        23        24
  21 6   H  1S          0.88966
  22 7   H  1S         -0.01429   0.76316
  23 8   H  1S          0.01015   0.01630   0.76638
  24 9   H  1S         -0.00749   0.00878  -0.01063   0.89173
    Full Mulliken population analysis:
                           1         2         3         4         5
   1 1   C  1S          0.93950
   2        1PX         0.00000   1.04820
   3        1PY         0.00000   0.00000   0.98335
   4        1PZ         0.00000   0.00000   0.00000   1.06545
   5 2   C  1S          0.00000   0.00000   0.00000   0.00000   1.21415
   6        1PX         0.00000   0.00000   0.00000   0.00000   0.00000
   7        1PY         0.00000   0.00000   0.00000   0.00000   0.00000
   8        1PZ         0.00000   0.00000   0.00000   0.00000   0.00000
   9 3   O  1S          0.00000   0.00000   0.00000   0.00000   0.00000
  10        1PX         0.00000   0.00000   0.00000   0.00000   0.00000
  11        1PY         0.00000   0.00000   0.00000   0.00000   0.00000
  12        1PZ         0.00000   0.00000   0.00000   0.00000   0.00000
  13 4   C  1S          0.00000   0.00000   0.00000   0.00000   0.00000
  14        1PX         0.00000   0.00000   0.00000   0.00000   0.00000
  15        1PY         0.00000   0.00000   0.00000   0.00000   0.00000
  16        1PZ         0.00000   0.00000   0.00000   0.00000   0.00000
  17 5   C  1S          0.00000   0.00000   0.00000   0.00000   0.00000
  18        1PX         0.00000   0.00000   0.00000   0.00000   0.00000
  19        1PY         0.00000   0.00000   0.00000   0.00000   0.00000
  20        1PZ         0.00000   0.00000   0.00000   0.00000   0.00000
  21 6   H  1S          0.00000   0.00000   0.00000   0.00000   0.00000
  22 7   H  1S          0.00000   0.00000   0.00000   0.00000   0.00000
  23 8   H  1S          0.00000   0.00000   0.00000   0.00000   0.00000
  24 9   H  1S          0.00000   0.00000   0.00000   0.00000   0.00000
                           6         7         8         9        10
   6        1PX         1.52077
   7        1PY         0.00000   1.33996
   8        1PZ         0.00000   0.00000   1.82608
   9 3   O  1S          0.00000   0.00000   0.00000   1.94000
  10        1PX         0.00000   0.00000   0.00000   0.00000   0.32154
  11        1PY         0.00000   0.00000   0.00000   0.00000   0.00000
  12        1PZ         0.00000   0.00000   0.00000   0.00000   0.00000
  13 4   C  1S          0.00000   0.00000   0.00000   0.00000   0.00000
  14        1PX         0.00000   0.00000   0.00000   0.00000   0.00000
  15        1PY         0.00000   0.00000   0.00000   0.00000   0.00000
  16        1PZ         0.00000   0.00000   0.00000   0.00000   0.00000
  17 5   C  1S          0.00000   0.00000   0.00000   0.00000   0.00000
  18        1PX         0.00000   0.00000   0.00000   0.00000   0.00000
  19        1PY         0.00000   0.00000   0.00000   0.00000   0.00000
  20        1PZ         0.00000   0.00000   0.00000   0.00000   0.00000
  21 6   H  1S          0.00000   0.00000   0.00000   0.00000   0.00000
  22 7   H  1S          0.00000   0.00000   0.00000   0.00000   0.00000
  23 8   H  1S          0.00000   0.00000   0.00000   0.00000   0.00000
  24 9   H  1S          0.00000   0.00000   0.00000   0.00000   0.00000
                          11        12        13        14        15
  11        1PY         0.33490
  12        1PZ         0.00000   0.19502
  13 4   C  1S          0.00000   0.00000   1.21320
  14        1PX         0.00000   0.00000   0.00000   1.31564
  15        1PY         0.00000   0.00000   0.00000   0.00000   1.54150
  16        1PZ         0.00000   0.00000   0.00000   0.00000   0.00000
  17 5   C  1S          0.00000   0.00000   0.00000   0.00000   0.00000
  18        1PX         0.00000   0.00000   0.00000   0.00000   0.00000
  19        1PY         0.00000   0.00000   0.00000   0.00000   0.00000
  20        1PZ         0.00000   0.00000   0.00000   0.00000   0.00000
  21 6   H  1S          0.00000   0.00000   0.00000   0.00000   0.00000
  22 7   H  1S          0.00000   0.00000   0.00000   0.00000   0.00000
  23 8   H  1S          0.00000   0.00000   0.00000   0.00000   0.00000
  24 9   H  1S          0.00000   0.00000   0.00000   0.00000   0.00000
                          16        17        18        19        20
  16        1PZ         1.82045
  17 5   C  1S          0.00000   0.92807
  18        1PX         0.00000   0.00000   0.96510
  19        1PY         0.00000   0.00000   0.00000   1.08332
  20        1PZ         0.00000   0.00000   0.00000   0.00000   1.09285
  21 6   H  1S          0.00000   0.00000   0.00000   0.00000   0.00000
  22 7   H  1S          0.00000   0.00000   0.00000   0.00000   0.00000
  23 8   H  1S          0.00000   0.00000   0.00000   0.00000   0.00000
  24 9   H  1S          0.00000   0.00000   0.00000   0.00000   0.00000
                          21        22        23        24
  21 6   H  1S          0.88966
  22 7   H  1S          0.00000   0.76316
  23 8   H  1S          0.00000   0.00000   0.76638
  24 9   H  1S          0.00000   0.00000   0.00000   0.89173
     Gross orbital populations:
                           1
   1 1   C  1S          0.93950
   2        1PX         1.04820
   3        1PY         0.98335
   4        1PZ         1.06545
   5 2   C  1S          1.21415
   6        1PX         1.52077
   7        1PY         1.33996
   8        1PZ         1.82608
   9 3   O  1S          1.94000
  10        1PX         0.32154
  11        1PY         0.33490
  12        1PZ         0.19502
  13 4   C  1S          1.21320
  14        1PX         1.31564
  15        1PY         1.54150
  16        1PZ         1.82045
  17 5   C  1S          0.92807
  18        1PX         0.96510
  19        1PY         1.08332
  20        1PZ         1.09285
  21 6   H  1S          0.88966
  22 7   H  1S          0.76316
  23 8   H  1S          0.76638
  24 9   H  1S          0.89173
          Condensed to atoms (all electrons):
               1          2          3          4          5          6
     1  C    4.036505   0.000000   0.000000   0.000000   0.000000   0.000000
     2  C    0.000000   5.900960   0.000000   0.000000   0.000000   0.000000
     3  O    0.000000   0.000000   2.791463   0.000000   0.000000   0.000000
     4  C    0.000000   0.000000   0.000000   5.890796   0.000000   0.000000
     5  C    0.000000   0.000000   0.000000   0.000000   4.069347   0.000000
     6  H    0.000000   0.000000   0.000000   0.000000   0.000000   0.889657
     7  H    0.000000   0.000000   0.000000   0.000000   0.000000   0.000000
     8  H    0.000000   0.000000   0.000000   0.000000   0.000000   0.000000
     9  H    0.000000   0.000000   0.000000   0.000000   0.000000   0.000000
               7          8          9
     1  C    0.000000   0.000000   0.000000
     2  C    0.000000   0.000000   0.000000
     3  O    0.000000   0.000000   0.000000
     4  C    0.000000   0.000000   0.000000
     5  C    0.000000   0.000000   0.000000
     6  H    0.000000   0.000000   0.000000
     7  H    0.763163   0.000000   0.000000
     8  H    0.000000   0.766375   0.000000
     9  H    0.000000   0.000000   0.891734
 Mulliken charges:
               1
     1  C   -0.036505
     2  C   -1.900960
     3  O    3.208537
     4  C   -1.890796
     5  C   -0.069347
     6  H    0.110343
     7  H    0.236837
     8  H    0.233625
     9  H    0.108266
 Sum of Mulliken charges =   0.00000
 Mulliken charges with hydrogens summed into heavy atoms:
               1
     1  C    0.071761
     2  C   -1.667336
     3  O    3.208537
     4  C   -1.653959
     5  C    0.040996
 Charge=              0.0000 electrons
 Dipole moment (field-independent basis, Debye):
    X=            -10.8377    Y=             -4.0997    Z=              0.0616  Tot=             11.5874
 N-N= 1.038407069838D+02 E-N=-1.689354813468D+02  KE=-1.505180883276D+01
 Orbital energies and kinetic energies (alpha):
                                 1                 2
   1         O                -1.729682         -1.223421
   2         O                -1.176945         -1.041592
   3         O                -0.936159         -0.862128
   4         O                -0.802854         -0.618142
   5         O                -0.760916         -0.661308
   6         O                -0.670510         -0.588518
   7         O                -0.640513         -0.529865
   8         O                -0.523712         -0.371699
   9         O                -0.502796         -0.270335
  10         O                -0.424222         -0.326517
  11         O                -0.420810         -0.418810
  12         O                -0.401658         -0.344384
  13         O                -0.284078         -0.269186
  14         V                 0.136899         -0.168136
  15         V                 0.165283         -0.202793
  16         V                 0.186316         -0.192903
  17         V                 0.262037         -0.155321
  18         V                 0.286209         -0.156435
  19         V                 0.302197         -0.085417
  20         V                 0.325994         -0.113459
  21         V                 0.347648         -0.094192
  22         V                 0.383607          0.508891
  23         V                 0.485055          0.547811
  24         V                 0.513923          0.601253
 Total kinetic energy from orbitals=-1.505180883276D+01
 Leave Link  601 at Tue Dec 15 17:06:11 2015, MaxMem=    33554432 cpu:         0.0
 (Enter /home/Applications/g09/g09/l701.exe)
 Compute integral first derivatives.
 ... and contract with generalized density number  6.
 Leave Link  701 at Tue Dec 15 17:06:11 2015, MaxMem=    33554432 cpu:         0.0
 (Enter /home/Applications/g09/g09/l702.exe)
 L702 exits ... SP integral derivatives will be done elsewhere.
 Leave Link  702 at Tue Dec 15 17:06:11 2015, MaxMem=    33554432 cpu:         0.0
 (Enter /home/Applications/g09/g09/l703.exe)
 Compute integral first derivatives, UseDBF=F ICtDFT=           0.
 Integral derivatives from FoFJK, PRISM(SPDF).
 Calling FoFJK, ICntrl=  10005127 FMM=F ISym2X=0 I1Cent= 0 IOpClX= 0 NMat=1 NMatS=1 NMatT=0.
 FoFJK:  IHMeth= 8 ICntrl=10005127 DoSepK=F KAlg= 0 I1Cent=   0 FoldK=F
 IRaf=         0 NMat=   1 IRICut=       1 DoRegI=T DoRafI=F ISym2E= 0.
 FoFCou: FMM=F IPFlag=           0 FMFlag=      100000 FMFlg1=         800
         NFxFlg=           0 DoJE=F BraDBF=F KetDBF=F FulRan=T
         wScrn=  0.000000 ICntrl=10005127 IOpCl=  0 I1Cent=           0 NGrid=           0
         NMat0=    1 NMatS0=      1 NMatT0=    0 NMatD0=    1 NMtDS0=    0 NMtDT0=    0
 Symmetry not used in FoFCou.
 Leave Link  703 at Tue Dec 15 17:06:11 2015, MaxMem=    33554432 cpu:         0.0
 (Enter /home/Applications/g09/g09/l716.exe)
 Dipole        =-4.63977213D+00-1.78310920D+00 2.66050797D-02
 ***** Axes restored to original set *****
 -------------------------------------------------------------------
 Center     Atomic                   Forces (Hartrees/Bohr)
 Number     Number              X              Y              Z
 -------------------------------------------------------------------
      1        6           0.178481055   -0.146956964   -0.000121656
      2        6          -0.325313677   -0.064252225    0.003276680
      3        8           0.200412282   -0.034519864   -0.002076470
      4        6          -0.358806313    0.119586574    0.002992407
      5        6           0.193375471    0.105540779   -0.003573026
      6        1           0.065487443    0.051863479   -0.001084182
      7        1           0.012545291    0.039058364   -0.000632775
      8        1           0.003826108   -0.049433848    0.000448994
      9        1           0.029992341   -0.020886295    0.000770029
 -------------------------------------------------------------------
 Cartesian Forces:  Max     0.358806313 RMS     0.123053190
 Z-matrix is all fixed cartesians, so copy forces.
 Force constants in Cartesian coordinates: 
                1             2             3             4             5 
      1  0.886979D+00
      2 -0.242846D-01  0.887209D+00
      3 -0.719907D-04 -0.102631D-01  0.227484D+00
      4 -0.495390D+00 -0.105086D+00  0.413314D-02  0.907114D+00
      5 -0.804701D-01 -0.213438D+00  0.218424D-02  0.431357D-01  0.808367D+00
      6  0.532245D-02  0.257595D-02 -0.104076D+00 -0.899499D-02 -0.699378D-02
      7 -0.817722D-02  0.275794D-01  0.202727D-04 -0.270281D+00  0.144571D+00
      8 -0.650191D-02  0.219275D-01 -0.232749D-04  0.187487D+00 -0.317117D+00
      9  0.265651D-03 -0.653269D-03  0.603400D-02  0.175240D-02  0.165506D-03
     10  0.108156D-01  0.153288D-03 -0.232025D-03  0.220793D-01  0.175542D-01
     11  0.366396D-01  0.519549D-03 -0.720084D-03 -0.185242D-01 -0.147278D-01
     12 -0.956294D-04 -0.350494D-05 -0.118163D-02 -0.199911D-03 -0.165736D-03
     13 -0.181699D+00  0.183284D-01 -0.928714D-04  0.106556D-01 -0.359308D-01
     14 -0.683664D-02 -0.509234D+00  0.392020D-02  0.151673D-03 -0.512974D-03
     15  0.303760D-03  0.229445D-02 -0.101694D+00 -0.124488D-03  0.292040D-03
     16  0.189420D-01  0.271954D-03  0.325826D-04  0.000000D+00  0.000000D+00
     17 -0.246787D-01 -0.352211D-03  0.209164D-03  0.000000D+00  0.000000D+00
     18 -0.221243D-03  0.203866D-03  0.247232D-01  0.606029D-04  0.535057D-04
     19  0.141620D-05  0.121453D-05  0.142605D-03  0.000000D+00  0.000000D+00
     20  0.277709D-05  0.238162D-05  0.279640D-03  0.132014D-05  0.000000D+00
     21  0.804102D-04  0.689594D-04  0.809693D-02  0.586569D-04  0.359340D-04
     22  0.743822D-02 -0.250593D-01  0.656582D-03 -0.168762D+00 -0.107092D+00
     23 -0.423522D-02  0.142944D-01  0.257411D-03 -0.100675D+00 -0.284466D+00
     24  0.118298D-03  0.785817D-03  0.288759D-01  0.297528D-02  0.458731D-02
     25 -0.238909D+00  0.108096D+00 -0.458830D-02 -0.541574D-02  0.182313D-01
     26  0.110365D+00 -0.200928D+00  0.415578D-02 -0.649203D-02  0.218936D-01
     27 -0.570171D-02  0.499081D-02 -0.882619D-01  0.339313D-03 -0.159024D-03
                6             7             8             9            10 
      6  0.193083D+00
      7  0.187599D-02  0.557301D+00
      8 -0.246325D-03  0.315866D-01  0.640742D+00
      9 -0.435690D-01 -0.671591D-02 -0.571185D-02  0.523396D-01
     10 -0.391563D-03 -0.310043D+00 -0.219028D+00  0.448520D-02  0.989530D+00
     11  0.284734D-03 -0.175352D+00 -0.350794D+00  0.487056D-02 -0.152719D-01
     12 -0.282235D-02  0.459894D-02  0.589480D-02 -0.468721D-01 -0.565455D-02
     13  0.173862D-03 -0.834262D-02  0.700111D-02  0.152206D-03 -0.546777D+00
     14 -0.221916D-04 -0.282713D-01  0.237205D-01  0.303268D-03  0.118264D+00
     15 -0.193067D-02  0.450504D-03 -0.192537D-03  0.828711D-02  0.381289D-02
     16  0.860340D-05  0.000000D+00  0.000000D+00  0.580621D-04 -0.549299D-02
     17  0.527599D-04  0.000000D+00  0.000000D+00  0.286954D-05  0.716037D-02
     18  0.628548D-02  0.818874D-04  0.835757D-04  0.771432D-02  0.435745D-03
     19 -0.142355D-04  0.195813D-01 -0.164155D-01  0.480056D-03 -0.160111D+00
     20  0.970770D-04  0.112588D-01 -0.943633D-02  0.390032D-03  0.911668D-01
     21  0.431335D-02 -0.232327D-03  0.286974D-03  0.466594D-02 -0.256875D-02
     22  0.284699D-02  0.199602D-01  0.158698D-01 -0.479245D-03  0.000000D+00
     23  0.428878D-02 -0.113751D-01 -0.904435D-02  0.390087D-03  0.000000D+00
     24 -0.752986D-01 -0.142494D-03 -0.126560D-03  0.535205D-02  0.486585D-04
     25 -0.827105D-03  0.000000D+00  0.000000D+00  0.158669D-05 -0.170670D-05
     26 -0.370109D-04  0.253491D-05  0.141303D-05  0.242803D-03  0.000000D+00
     27  0.240150D-01  0.631428D-04  0.351975D-04  0.604805D-02  0.643963D-04
               11            12            13            14            15 
     11  0.830181D+00
     12 -0.101488D-01  0.212026D+00
     13  0.929754D-01  0.368044D-02  0.993422D+00
     14 -0.227324D+00 -0.493289D-04  0.258794D-01  0.920941D+00
     15 -0.250186D-03 -0.119120D+00 -0.536967D-02 -0.487347D-02  0.248543D+00
     16 -0.186130D-01  0.235885D-03 -0.293535D+00 -0.134388D+00  0.143929D-02
     17  0.242556D-01 -0.163403D-04 -0.135216D+00 -0.222259D+00  0.116462D-02
     18  0.757786D-03  0.285893D-01  0.126934D-02  0.736358D-03 -0.986637D-01
     19  0.981474D-01 -0.245716D-02  0.735529D-02  0.249287D-01 -0.528072D-03
     20 -0.262111D+00  0.439517D-02  0.423515D-02  0.143338D-01  0.494848D-03
     21  0.512094D-02 -0.806821D-01  0.159464D-03 -0.281983D-03  0.327244D-01
     22  0.000000D+00  0.638399D-04  0.000000D+00  0.000000D+00  0.494452D-04
     23  0.000000D+00  0.418783D-04  0.125345D-05  0.110666D-05  0.130003D-03
     24  0.298088D-04  0.357812D-02  0.697360D-04  0.615693D-04  0.723273D-02
     25 -0.146366D-05 -0.171857D-03  0.189201D-01  0.271085D-03 -0.336542D-04
     26  0.000000D+00  0.518374D-04  0.227257D-01  0.333824D-03  0.940234D-03
     27  0.552259D-04  0.648440D-02 -0.425070D-04  0.205572D-03  0.246208D-01
               16            17            18            19            20 
     16  0.280086D+00
     17  0.152731D+00  0.198356D+00
     18 -0.166714D-02 -0.132597D-02  0.536434D-01
     19 -0.165268D-05  0.000000D+00 -0.219581D-03  0.133175D+00
     20 -0.324081D-05  0.000000D+00 -0.430584D-03 -0.106662D+00  0.257211D+00
     21 -0.938371D-04 -0.463761D-05 -0.124675D-01  0.259638D-02 -0.522619D-02
     22  0.000000D+00  0.000000D+00  0.000000D+00  0.000000D+00  0.000000D+00
     23  0.000000D+00  0.000000D+00  0.000000D+00  0.000000D+00  0.000000D+00
     24  0.000000D+00  0.000000D+00  0.000000D+00  0.000000D+00  0.000000D+00
     25  0.000000D+00  0.218563D-05  0.260382D-03  0.000000D+00  0.000000D+00
     26  0.000000D+00  0.000000D+00 -0.785393D-04  0.000000D+00  0.000000D+00
     27 -0.134476D-04 -0.824668D-04 -0.982457D-02  0.000000D+00  0.000000D+00
               21            22            23            24            25 
     21  0.433490D-01
     22  0.000000D+00  0.141362D+00
     23  0.000000D+00  0.116283D+00  0.279222D+00
     24  0.000000D+00 -0.306676D-02 -0.492187D-02  0.406239D-01
     25  0.000000D+00  0.000000D+00  0.000000D+00 -0.271900D-05  0.225406D+00
     26  0.000000D+00 -0.284441D-05 -0.747858D-05 -0.416073D-03 -0.126599D+00
     27  0.000000D+00 -0.708521D-04 -0.186286D-03 -0.103641D-01  0.536166D-02
               26            27 
     26  0.178707D+00
     27 -0.485903D-02  0.472823D-01
 Leave Link  716 at Tue Dec 15 17:06:11 2015, MaxMem=    33554432 cpu:         0.0
 (Enter /home/Applications/g09/g09/l103.exe)

 GradGradGradGradGradGradGradGradGradGradGradGradGradGradGradGradGradGrad
 Berny optimization.
 Search for a local minimum.
 Step number   1 out of a maximum of    2
 All quantities printed in internal units (Hartrees-Bohrs-Radians)
 Second derivative matrix not updated -- first step.
 ITU=  0
     Eigenvalues ---    0.02215   0.02976   0.06947   0.07374   0.07882
     Eigenvalues ---    0.08892   0.13278   0.15895   0.16194   0.22967
     Eigenvalues ---    0.26858   0.32620   0.42847   0.44753   0.62751
     Eigenvalues ---    0.83090   1.05813   1.30516   1.45138   1.59152
     Eigenvalues ---    1.69940
 Quadratic step=1.382D+00 exceeds max=3.000D-01 adjusted using Lamda=-1.096D+00.
 Angle between NR and scaled steps=  34.86 degrees.
 Angle between quadratic step and forces=  17.12 degrees.
 Linear search not attempted -- first point.
 TrRot= -0.001752 -0.001610 -0.000025  0.000108  0.000019  0.000108
 Variable       Old X    -DE/DX   Delta X   Delta X   Delta X     New X
                                 (Linear)    (Quad)   (Total)
    X1        1.86705   0.17848   0.00000   0.06656   0.06510   1.93215
    Y1       -1.25962  -0.14696   0.00000  -0.07615  -0.07735  -1.33697
    Z1       -0.01375  -0.00012   0.00000   0.00008   0.00002  -0.01373
    X2       -0.60241  -0.32531   0.00000  -0.13661  -0.13792  -0.74033
    Y2       -1.99183  -0.06425   0.00000  -0.05020  -0.05197  -2.04380
    Z2        0.01629   0.00328   0.00000   0.00132   0.00131   0.01760
    X3       -2.24561   0.20041   0.00000   0.08882   0.08706  -2.15855
    Y3        0.07505  -0.03452   0.00000  -0.01679  -0.01886   0.05619
    Z3        0.02142  -0.00208   0.00000  -0.00092  -0.00090   0.02051
    X4       -0.59341  -0.35881   0.00000  -0.14520  -0.14741  -0.74082
    Y4        2.04474   0.11959   0.00000   0.07567   0.07390   2.11864
    Z4       -0.01746   0.00299   0.00000   0.00131   0.00130  -0.01616
    X5        1.82992   0.19338   0.00000   0.07068   0.06862   1.89854
    Y5        1.32935   0.10554   0.00000   0.06137   0.06017   1.38952
    Z5       -0.03543  -0.00357   0.00000  -0.00168  -0.00174  -0.03717
    X6        3.40540   0.06549   0.00000   0.06364   0.06133   3.46673
    Y6        2.53871   0.05186   0.00000   0.05152   0.05066   2.58937
    Z6       -0.04774  -0.00108   0.00000  -0.00103  -0.00112  -0.04886
    X7       -1.64573   0.01255   0.00000  -0.01210  -0.01470  -1.66043
    Y7        3.87401   0.03906   0.00000   0.05160   0.04963   3.92364
    Z7       -0.06210  -0.00063   0.00000  -0.00088  -0.00087  -0.06297
    X8       -1.62396   0.00383   0.00000  -0.01765  -0.01858  -1.64254
    Y8       -3.78485  -0.04943   0.00000  -0.05225  -0.05421  -3.83907
    Z8        0.05550   0.00045   0.00000   0.00090   0.00091   0.05641
    X9        3.47187   0.02999   0.00000   0.03768   0.03649   3.50836
    Y9       -2.59560  -0.02089   0.00000  -0.03110  -0.03196  -2.62756
    Z9        0.03946   0.00077   0.00000   0.00118   0.00109   0.04055
         Item               Value     Threshold  Converged?
 Maximum Force            0.358806     0.000450     NO 
 RMS     Force            0.123053     0.000300     NO 
 Maximum Displacement     0.147405     0.001800     NO 
 RMS     Displacement     0.057752     0.001200     NO 
 Predicted change in Energy=-1.410934D-01
 GradGradGradGradGradGradGradGradGradGradGradGradGradGradGradGradGradGrad

 Leave Link  103 at Tue Dec 15 17:06:12 2015, MaxMem=    33554432 cpu:         0.0
 (Enter /home/Applications/g09/g09/l9999.exe)
 1\1\GINC-DUSTIN-DESKTOP\Force\RAM1-FC\STO-3G\C4H4O1\DUSTIN\15-Dec-2015
 \0\\#P AM1(Input,print) CIS(Singlets,NStates=15) pop(full) force\\AM1-
 Reparam Input\\0,1\C,0.988001,-0.666563,-0.007277\C,-0.318781,-1.05403
 1,0.008621\O,-1.188327,0.039717,0.011334\C,-0.314021,1.082031,-0.00923
 9\C,0.968351,0.703462,-0.01875\H,1.802061,1.343429,-0.025263\H,-0.8708
 85,2.050039,-0.032863\H,-0.859361,-2.002859,0.029371\H,1.837234,-1.373
 533,0.020882\\Version=ES64L-G09RevD.01\State=1-A\HF=2.5722066\RMSD=2.4
 92e-09\RMSF=1.231e-01\Dipole=-4.9684479,0.1333635,0.0664182\PG=C01 [X(
 C4H4O1)]\\@


 HONESTY IN A LAWYER IS LIKE A HEN'S HIND LEGS.
  -- MAGNUS OLESON, LAKE WOBEGON PATRIARCH, C.1875
 Job cpu time:       0 days  0 hours  0 minutes  0.7 seconds.
 File lengths (MBytes):  RWF=      7 Int=      0 D2E=      0 Chk=      2 Scr=      1
 Normal termination of Gaussian 09 at Tue Dec 15 17:06:12 2015.
