 Entering Gaussian System, Link 0=g09
 Input=FuranAM1_16.com
 Output=FuranAM1_16.log
 Initial command:
 /home/Applications/g09/g09/l1.exe "/home/Applications/g09/scratch/Gau-5582.inp" -scrdir="/home/Applications/g09/scratch/"
 Entering Link 1 = /home/Applications/g09/g09/l1.exe PID=      5584.
  
 Copyright (c) 1988,1990,1992,1993,1995,1998,2003,2009,2013,
            Gaussian, Inc.  All Rights Reserved.
  
 This is part of the Gaussian(R) 09 program.  It is based on
 the Gaussian(R) 03 system (copyright 2003, Gaussian, Inc.),
 the Gaussian(R) 98 system (copyright 1998, Gaussian, Inc.),
 the Gaussian(R) 94 system (copyright 1995, Gaussian, Inc.),
 the Gaussian 92(TM) system (copyright 1992, Gaussian, Inc.),
 the Gaussian 90(TM) system (copyright 1990, Gaussian, Inc.),
 the Gaussian 88(TM) system (copyright 1988, Gaussian, Inc.),
 the Gaussian 86(TM) system (copyright 1986, Carnegie Mellon
 University), and the Gaussian 82(TM) system (copyright 1983,
 Carnegie Mellon University). Gaussian is a federally registered
 trademark of Gaussian, Inc.
  
 This software contains proprietary and confidential information,
 including trade secrets, belonging to Gaussian, Inc.
  
 This software is provided under written license and may be
 used, copied, transmitted, or stored only in accord with that
 written license.
  
 The following legend is applicable only to US Government
 contracts under FAR:
  
                    RESTRICTED RIGHTS LEGEND
  
 Use, reproduction and disclosure by the US Government is
 subject to restrictions as set forth in subparagraphs (a)
 and (c) of the Commercial Computer Software - Restricted
 Rights clause in FAR 52.227-19.
  
 Gaussian, Inc.
 340 Quinnipiac St., Bldg. 40, Wallingford CT 06492
  
  
 ---------------------------------------------------------------
 Warning -- This program may not be used in any manner that
 competes with the business of Gaussian, Inc. or will provide
 assistance to any competitor of Gaussian, Inc.  The licensee
 of this program is prohibited from giving any competitor of
 Gaussian, Inc. access to this program.  By using this program,
 the user acknowledges that Gaussian, Inc. is engaged in the
 business of creating and licensing software in the field of
 computational chemistry and represents and warrants to the
 licensee that it is not a competitor of Gaussian, Inc. and that
 it will not use this program in any manner prohibited above.
 ---------------------------------------------------------------
  

 Cite this work as:
 Gaussian 09, Revision D.01,
 M. J. Frisch, G. W. Trucks, H. B. Schlegel, G. E. Scuseria, 
 M. A. Robb, J. R. Cheeseman, G. Scalmani, V. Barone, B. Mennucci, 
 G. A. Petersson, H. Nakatsuji, M. Caricato, X. Li, H. P. Hratchian, 
 A. F. Izmaylov, J. Bloino, G. Zheng, J. L. Sonnenberg, M. Hada, 
 M. Ehara, K. Toyota, R. Fukuda, J. Hasegawa, M. Ishida, T. Nakajima, 
 Y. Honda, O. Kitao, H. Nakai, T. Vreven, J. A. Montgomery, Jr., 
 J. E. Peralta, F. Ogliaro, M. Bearpark, J. J. Heyd, E. Brothers, 
 K. N. Kudin, V. N. Staroverov, T. Keith, R. Kobayashi, J. Normand, 
 K. Raghavachari, A. Rendell, J. C. Burant, S. S. Iyengar, J. Tomasi, 
 M. Cossi, N. Rega, J. M. Millam, M. Klene, J. E. Knox, J. B. Cross, 
 V. Bakken, C. Adamo, J. Jaramillo, R. Gomperts, R. E. Stratmann, 
 O. Yazyev, A. J. Austin, R. Cammi, C. Pomelli, J. W. Ochterski, 
 R. L. Martin, K. Morokuma, V. G. Zakrzewski, G. A. Voth, 
 P. Salvador, J. J. Dannenberg, S. Dapprich, A. D. Daniels, 
 O. Farkas, J. B. Foresman, J. V. Ortiz, J. Cioslowski, 
 and D. J. Fox, Gaussian, Inc., Wallingford CT, 2013.
 
 ******************************************
 Gaussian 09:  ES64L-G09RevD.01 24-Apr-2013
                15-Dec-2015 
 ******************************************
 ------------------------------------------------------------
 #P AM1(Input,print) CIS(Singlets,NStates=15) pop(full) force
 ------------------------------------------------------------
 1/10=7,30=1,38=1/1,3;
 2/12=2,17=6,18=5,40=1/2;
 3/5=2,16=1,25=1,41=700000,71=1,135=100,136=1/1,2,8,3;
 4/35=1/1;
 5/5=2,35=1,38=5/2;
 8/6=1,10=1,108=15/1;
 9/15=2,41=15,42=1,48=1,49=10/14;
 10/5=4/2;
 6/7=3,18=1/1;
 7/12=6,13=5,29=1/1,2,3,16;
 1/10=7,30=1/3;
 99//99;
 Leave Link    1 at Tue Dec 15 16:13:46 2015, MaxMem=           0 cpu:         0.0
 (Enter /home/Applications/g09/g09/l101.exe)
 -----------------
 AM1-Reparam Input
 -----------------
 Symbolic Z-matrix:
 Charge =  0 Multiplicity = 1
 6                     0.92959  -0.74771   0.00251 
 6                    -0.3016   -1.12653  -0.02785 
 8                    -1.16963   0.01631  -0.01544 
 6                    -0.38713   1.09407  -0.01204 
 6                     1.00367   0.7245   -0.01826 
 1                     1.81379   1.41698   0.0255 
 1                    -0.83695   2.08989  -0.02796 
 1                    -0.80326  -2.049    -0.04575 
 1                     1.85272  -1.38873   0.00731 
 
 NAtoms=      9 NQM=        9 NQMF=       0 NMMI=      0 NMMIF=      0
                NMic=       0 NMicF=      0.
                    Isotopes and Nuclear Properties:
 (Nuclear quadrupole moments (NQMom) in fm**2, nuclear magnetic moments (NMagM)
  in nuclear magnetons)

  Atom         1           2           3           4           5           6           7           8           9
 IAtWgt=          12          12          16          12          12           1           1           1           1
 AtmWgt=  12.0000000  12.0000000  15.9949146  12.0000000  12.0000000   1.0078250   1.0078250   1.0078250   1.0078250
 NucSpn=           0           0           0           0           0           1           1           1           1
 AtZEff=   0.0000000   0.0000000   0.0000000   0.0000000   0.0000000   0.0000000   0.0000000   0.0000000   0.0000000
 NQMom=    0.0000000   0.0000000   0.0000000   0.0000000   0.0000000   0.0000000   0.0000000   0.0000000   0.0000000
 NMagM=    0.0000000   0.0000000   0.0000000   0.0000000   0.0000000   2.7928460   2.7928460   2.7928460   2.7928460
 AtZNuc=   6.0000000   6.0000000   8.0000000   6.0000000   6.0000000   1.0000000   1.0000000   1.0000000   1.0000000
 Leave Link  101 at Tue Dec 15 16:13:46 2015, MaxMem=    33554432 cpu:         0.0
 (Enter /home/Applications/g09/g09/l103.exe)

 GradGradGradGradGradGradGradGradGradGradGradGradGradGradGradGradGradGrad
 Berny optimization.
 Initialization pass.
 Trust Radius=3.00D-01 FncErr=1.00D-07 GrdErr=1.00D-07
 Number of steps in this run=      2 maximum allowed number of steps=      2.
 GradGradGradGradGradGradGradGradGradGradGradGradGradGradGradGradGradGrad

 Leave Link  103 at Tue Dec 15 16:13:46 2015, MaxMem=    33554432 cpu:         0.0
 (Enter /home/Applications/g09/g09/l202.exe)
                          Input orientation:                          
 ---------------------------------------------------------------------
 Center     Atomic      Atomic             Coordinates (Angstroms)
 Number     Number       Type             X           Y           Z
 ---------------------------------------------------------------------
      1          6           0        0.929586   -0.747713    0.002512
      2          6           0       -0.301604   -1.126526   -0.027848
      3          8           0       -1.169632    0.016308   -0.015437
      4          6           0       -0.387132    1.094070   -0.012039
      5          6           0        1.003672    0.724500   -0.018257
      6          1           0        1.813788    1.416984    0.025498
      7          1           0       -0.836953    2.089893   -0.027961
      8          1           0       -0.803262   -2.048997   -0.045753
      9          1           0        1.852723   -1.388729    0.007311
 ---------------------------------------------------------------------
                    Distance matrix (angstroms):
                    1          2          3          4          5
     1  C    0.000000
     2  C    1.288507   0.000000
     3  O    2.234002   1.435164   0.000000
     4  C    2.264094   2.222299   1.331874   0.000000
     5  C    1.474222   2.264980   2.285781   1.439082   0.000000
     6  H    2.338430   3.308651   3.296113   2.224799   1.066647
     7  H    3.342693   3.260667   2.100140   1.092820   2.291788
     8  H    2.167587   1.050207   2.097768   3.170674   3.310295
     9  H    1.123880   2.170509   3.333058   3.343892   2.277560
                    6          7          8          9
     6  H    0.000000
     7  H    2.735341   0.000000
     8  H    4.343622   4.139065   0.000000
     9  H    2.806042   4.397319   2.737339   0.000000
 Stoichiometry    C4H4O
 Framework group  C1[X(C4H4O)]
 Deg. of freedom    21
 Full point group                 C1      NOp   1
 Largest Abelian subgroup         C1      NOp   1
 Largest concise Abelian subgroup C1      NOp   1
                         Standard orientation:                         
 ---------------------------------------------------------------------
 Center     Atomic      Atomic             Coordinates (Angstroms)
 Number     Number       Type             X           Y           Z
 ---------------------------------------------------------------------
      1          6           0       -0.947164    0.716686   -0.010814
      2          6           0       -1.014519   -0.569908    0.008926
      3          8           0        0.305405   -1.133132   -0.007615
      4          6           0        1.159974   -0.111578   -0.002272
      5          6           0        0.462598    1.147134    0.014043
      6          1           0        0.936790    2.101913   -0.021668
      7          1           0        2.235390   -0.305277    0.012470
      8          1           0       -1.786927   -1.281373    0.020675
      9          1           0       -1.793824    1.455788   -0.009853
 ---------------------------------------------------------------------
 Rotational constants (GHZ):      9.3198647      8.9749854      4.5726436
 Leave Link  202 at Tue Dec 15 16:13:46 2015, MaxMem=    33554432 cpu:         0.0
 (Enter /home/Applications/g09/g09/l301.exe)

 Semi-emprical parameters in input format:
 Method=8 CoreType=1 PeptideFC=0.0114510000 RIJScale=0.5291770000
 ****
 H       
 PQN=1 NValence=1 F0ss=0.4721550000 ZetaOverlap=1.1880780000 U=-0.4188110000
 Beta=-0.2268830000 CoreKO=1.0589200000 KON=0,0,0,1.0589200000 KON=1,0,1,1.0589200000
 KON=0,1,1,1.0589200000 KON=2,1,1,1.0589200000 EISol=-0.4188110042 EHeat=0.0830298228
 Alpha=1.5252600000
 GCore=0.0085280000,1.4001430000,2.2676710000
 GCore=0.0003530000,1.4001430000,3.4015070000
 GCore=-0.0012730000,0.5600570000,3.9684250000
 ****
 C       
 PQN=2,2 NValence=4 F0ss=0.4494440000 F0sp=0.4215150000 F0pp=0.3768030000 F2pp=0.1898720000
 G1sp=0.2679030000
 ZetaOverlap=1.8086650000,1.6851160000
 U=-1.9120180000,-1.4557970000
 Beta=-0.5775440000,-0.2836780000 DDN=0,1,0.8236740000 DDN=1,1,0.7268010000
 CoreKO=1.1124280000 KON=0,0,0,1.1124280000 KON=1,0,1,0.8219700000 KON=0,1,1,1.1124280000
 KON=2,1,1,0.7783930000 EISol=-4.4398989268 EHeat=0.2723305520 Alpha=1.4014060000
 DipHyp=1.6472532266
 GCore=0.0007890000,1.4001430000,3.0235620000
 GCore=0.0031890000,1.4001430000,3.4959930000
 GCore=-0.0013930000,1.4001430000,3.8739390000
 GCore=-0.0000880000,1.4001430000,5.0077740000
 ****
 O       
 PQN=2,2 NValence=6 F0ss=0.5666750000 F0sp=0.5321300000 F0pp=0.4958710000 F2pp=0.2358080000
 G1sp=0.4343770000
 ZetaOverlap=3.1080320000,2.5240390000
 U=-3.5951870000,-2.8760900000
 Beta=-1.0757550000,-1.0757550000 DDN=0,1,0.4988900000 DDN=1,1,0.4852320000
 CoreKO=0.8822960000 KON=0,0,0,0.8822960000 KON=1,0,1,0.5019540000 KON=0,1,1,0.8822960000
 KON=2,1,1,0.5515580000 EISol=-11.6164441184 EHeat=0.0949133088 Alpha=2.3576810000
 DipHyp=0.9977225968
 GCore=0.0195120000,1.4001430000,1.6023330000
 GCore=0.0056550000,1.9602000000,2.7307880000
 ****
 
 Standard basis: VSTO-6G (5D, 7F)
 Ernie: Thresh=  0.10000D-02 Tol=  0.10000D-05 Strict=F.
  NNHCO=     0 NNPyr=     0 NCTC=     0               EPep=         0.000000000
    EC=        68.163882914  ECS=         1.762941723   EG=         0.344848957
   EHC=         0.000000000  EAt=       -31.051283842  AtH=         1.516354808
 EPDDG=         0.000000000  ECC=        70.271673595 EAtT=        32.567638650
 There are    24 symmetry adapted cartesian basis functions of A   symmetry.
 There are    24 symmetry adapted basis functions of A   symmetry.
    24 basis functions,   144 primitive gaussians,    24 cartesian basis functions
    13 alpha electrons       13 beta electrons
       nuclear repulsion energy       102.8393122451 Hartrees.
 IExCor=    0 DFT=F Ex=HF Corr=None ExCW=0 ScaHFX=  1.000000
 ScaDFX=  1.000000  1.000000  1.000000  1.000000 ScalE2=  1.000000  1.000000
 IRadAn=      0 IRanWt=     -1 IRanGd=            0 ICorTp=0 IEmpDi=  4
 Integral buffers will be    131072 words long.
 Regular integral format.
 Two-electron integral symmetry is turned off.
 Leave Link  301 at Tue Dec 15 16:13:46 2015, MaxMem=    33554432 cpu:         0.0
 (Enter /home/Applications/g09/g09/l302.exe)
 Do NDO integrals.
 NPDir=0 NMtPBC=     1 NCelOv=     1 NCel=       1 NClECP=     1 NCelD=      1
         NCelK=      1 NCelE2=     1 NClLst=     1 CellRange=     0.0.
 One-electron integrals computed using PRISM.
 NBasis=    24 RedAO= F EigKep=  0.00D+00  NBF=    24
 NBsUse=    24 1.00D-04 EigRej=  0.00D+00 NBFU=    24
 Leave Link  302 at Tue Dec 15 16:13:46 2015, MaxMem=    33554432 cpu:         0.0
 (Enter /home/Applications/g09/g09/l308.exe)
 Leave Link  308 at Tue Dec 15 16:13:46 2015, MaxMem=    33554432 cpu:         0.0
 (Enter /home/Applications/g09/g09/l303.exe)
 DipDrv:  MaxL=1.
 Leave Link  303 at Tue Dec 15 16:13:46 2015, MaxMem=    33554432 cpu:         0.0
 (Enter /home/Applications/g09/g09/l401.exe)
 Simple Huckel Guess.
 JPrj=0 DoOrth=F DoCkMO=F.
 Leave Link  401 at Tue Dec 15 16:13:46 2015, MaxMem=    33554432 cpu:         0.0
 (Enter /home/Applications/g09/g09/l502.exe)
 Closed shell SCF:
 Using DIIS extrapolation, IDIIS=  1040.
 Overlap will be assumed to be unity.
 Two-electron integral symmetry not used.
 Keep J ints in memory in canonical form, NReq=888082.
 IVT=       79475 IEndB=       79475 NGot=    33554432 MDV=    33473473
 LenX=    33473473 LenY=    33472456
 Requested convergence on RMS density matrix=1.00D-08 within 128 cycles.
 Requested convergence on MAX density matrix=1.00D-06.
 Requested convergence on             energy=1.00D-06.
 No special actions if energy rises.
 FoFCou: FMM=F IPFlag=           0 FMFlag=           0 FMFlg1=           0
         NFxFlg=           0 DoJE=F BraDBF=F KetDBF=F FulRan=T
         wScrn=  0.000000 ICntrl=     600 IOpCl=  2 I1Cent=           0 NGrid=           0
         NMat0=    1 NMatS0=     54 NMatT0=    0 NMatD0=    1 NMtDS0=    0 NMtDT0=    0
 Symmetry not used in FoFCou.

 Cycle   1  Pass 1  IDiag  1:
 E= 0.339856769915215    
 DIIS: error= 6.03D-02 at cycle   1 NSaved=   1.
 NSaved= 1 IEnMin= 1 EnMin= 0.339856769915215     IErMin= 1 ErrMin= 6.03D-02
 ErrMax= 6.03D-02  0.00D+00 EMaxC= 1.00D-01 BMatC= 1.11D-01 BMatP= 1.11D-01
 IDIUse=3 WtCom= 3.97D-01 WtEn= 6.03D-01
 Coeff-Com:  0.100D+01
 Coeff-En:   0.100D+01
 Coeff:      0.100D+01
 GapD=    2.000 DampG=2.000 DampE=0.500 DampFc=1.0000 IDamp=-1.
 RMSDP=1.96D-02 MaxDP=1.62D-01              OVMax= 0.00D+00

 Cycle   2  Pass 1  IDiag  1:
 E= 0.592256466574810E-01 Delta-E=       -0.280631123258 Rises=F Damp=F
 DIIS: error= 2.03D-02 at cycle   2 NSaved=   2.
 NSaved= 2 IEnMin= 2 EnMin= 0.592256466574810E-01 IErMin= 2 ErrMin= 2.03D-02
 ErrMax= 2.03D-02  0.00D+00 EMaxC= 1.00D-01 BMatC= 9.64D-03 BMatP= 1.11D-01
 IDIUse=3 WtCom= 7.97D-01 WtEn= 2.03D-01
 Coeff-Com: -0.360D+00 0.136D+01
 Coeff-En:   0.000D+00 0.100D+01
 Coeff:     -0.287D+00 0.129D+01
 RMSDP=8.28D-03 MaxDP=7.65D-02 DE=-2.81D-01 OVMax= 0.00D+00

 Cycle   3  Pass 1  IDiag  1:
 E= 0.281961320815185E-01 Delta-E=       -0.031029514576 Rises=F Damp=F
 DIIS: error= 3.93D-03 at cycle   3 NSaved=   3.
 NSaved= 3 IEnMin= 3 EnMin= 0.281961320815185E-01 IErMin= 3 ErrMin= 3.93D-03
 ErrMax= 3.93D-03  0.00D+00 EMaxC= 1.00D-01 BMatC= 3.79D-04 BMatP= 9.64D-03
 IDIUse=3 WtCom= 9.61D-01 WtEn= 3.93D-02
 Coeff-Com:  0.126D+00-0.567D+00 0.144D+01
 Coeff-En:   0.000D+00 0.000D+00 0.100D+01
 Coeff:      0.121D+00-0.545D+00 0.142D+01
 RMSDP=2.52D-03 MaxDP=2.91D-02 DE=-3.10D-02 OVMax= 0.00D+00

 Cycle   4  Pass 1  IDiag  3:
 E= 0.261354726361276E-01 Delta-E=       -0.002060659445 Rises=F Damp=F
 DIIS: error= 1.24D-03 at cycle   4 NSaved=   4.
 NSaved= 4 IEnMin= 4 EnMin= 0.261354726361276E-01 IErMin= 4 ErrMin= 1.24D-03
 ErrMax= 1.24D-03  0.00D+00 EMaxC= 1.00D-01 BMatC= 3.11D-05 BMatP= 3.79D-04
 IDIUse=3 WtCom= 9.88D-01 WtEn= 1.24D-02
 Coeff-Com:  0.194D-01-0.691D-01-0.190D+00 0.124D+01
 Coeff-En:   0.000D+00 0.000D+00 0.000D+00 0.100D+01
 Coeff:      0.192D-01-0.683D-01-0.187D+00 0.124D+01
 Gap=     0.369 Goal=   None    Shift=    0.000
 RMSDP=8.72D-04 MaxDP=1.08D-02 DE=-2.06D-03 OVMax= 8.98D-03

 Cycle   5  Pass 1  IDiag  3:
 E= 0.259435820246665E-01 Delta-E=       -0.000191890611 Rises=F Damp=F
 DIIS: error= 2.22D-04 at cycle   5 NSaved=   5.
 NSaved= 5 IEnMin= 5 EnMin= 0.259435820246665E-01 IErMin= 5 ErrMin= 2.22D-04
 ErrMax= 2.22D-04  0.00D+00 EMaxC= 1.00D-01 BMatC= 1.88D-06 BMatP= 3.11D-05
 IDIUse=3 WtCom= 9.98D-01 WtEn= 2.22D-03
 Coeff-Com: -0.917D-02 0.359D-01 0.171D-01-0.463D+00 0.142D+01
 Coeff-En:   0.000D+00 0.000D+00 0.000D+00 0.000D+00 0.100D+01
 Coeff:     -0.915D-02 0.359D-01 0.171D-01-0.462D+00 0.142D+01
 Gap=     0.369 Goal=   None    Shift=    0.000
 RMSDP=2.52D-04 MaxDP=2.05D-03 DE=-1.92D-04 OVMax= 2.26D-03

 Cycle   6  Pass 1  IDiag  3:
 E= 0.259293448478246E-01 Delta-E=       -0.000014237177 Rises=F Damp=F
 DIIS: error= 9.66D-05 at cycle   6 NSaved=   6.
 NSaved= 6 IEnMin= 6 EnMin= 0.259293448478246E-01 IErMin= 6 ErrMin= 9.66D-05
 ErrMax= 9.66D-05  0.00D+00 EMaxC= 1.00D-01 BMatC= 2.07D-07 BMatP= 1.88D-06
 IDIUse=1 WtCom= 1.00D+00 WtEn= 0.00D+00
 Coeff-Com:  0.325D-02-0.125D-01 0.552D-02 0.133D+00-0.679D+00 0.155D+01
 Coeff:      0.325D-02-0.125D-01 0.552D-02 0.133D+00-0.679D+00 0.155D+01
 Gap=     0.369 Goal=   None    Shift=    0.000
 RMSDP=1.02D-04 MaxDP=8.46D-04 DE=-1.42D-05 OVMax= 1.11D-03

 Cycle   7  Pass 1  IDiag  3:
 E= 0.259274070370878E-01 Delta-E=       -0.000001937811 Rises=F Damp=F
 DIIS: error= 3.48D-05 at cycle   7 NSaved=   7.
 NSaved= 7 IEnMin= 7 EnMin= 0.259274070370878E-01 IErMin= 7 ErrMin= 3.48D-05
 ErrMax= 3.48D-05  0.00D+00 EMaxC= 1.00D-01 BMatC= 2.10D-08 BMatP= 2.07D-07
 IDIUse=1 WtCom= 1.00D+00 WtEn= 0.00D+00
 Coeff-Com: -0.475D-03 0.119D-02 0.360D-03-0.283D-01 0.179D+00-0.733D+00
 Coeff-Com:  0.158D+01
 Coeff:     -0.475D-03 0.119D-02 0.360D-03-0.283D-01 0.179D+00-0.733D+00
 Coeff:      0.158D+01
 Gap=     0.369 Goal=   None    Shift=    0.000
 RMSDP=4.05D-05 MaxDP=3.63D-04 DE=-1.94D-06 OVMax= 3.99D-04

 Cycle   8  Pass 1  IDiag  3:
 E= 0.259271939165870E-01 Delta-E=       -0.000000213121 Rises=F Damp=F
 DIIS: error= 5.54D-06 at cycle   8 NSaved=   8.
 NSaved= 8 IEnMin= 8 EnMin= 0.259271939165870E-01 IErMin= 8 ErrMin= 5.54D-06
 ErrMax= 5.54D-06  0.00D+00 EMaxC= 1.00D-01 BMatC= 8.27D-10 BMatP= 2.10D-08
 IDIUse=1 WtCom= 1.00D+00 WtEn= 0.00D+00
 Coeff-Com:  0.229D-04 0.308D-03-0.113D-02 0.822D-02-0.540D-01 0.279D+00
 Coeff-Com: -0.777D+00 0.154D+01
 Coeff:      0.229D-04 0.308D-03-0.113D-02 0.822D-02-0.540D-01 0.279D+00
 Coeff:     -0.777D+00 0.154D+01
 Gap=     0.369 Goal=   None    Shift=    0.000
 RMSDP=7.14D-06 MaxDP=5.97D-05 DE=-2.13D-07 OVMax= 7.35D-05

 Cycle   9  Pass 1  IDiag  3:
 E= 0.259271869617805E-01 Delta-E=       -0.000000006955 Rises=F Damp=F
 DIIS: error= 1.13D-06 at cycle   9 NSaved=   9.
 NSaved= 9 IEnMin= 9 EnMin= 0.259271869617805E-01 IErMin= 9 ErrMin= 1.13D-06
 ErrMax= 1.13D-06  0.00D+00 EMaxC= 1.00D-01 BMatC= 2.92D-11 BMatP= 8.27D-10
 IDIUse=1 WtCom= 1.00D+00 WtEn= 0.00D+00
 Coeff-Com:  0.328D-04-0.278D-03 0.523D-03-0.171D-02 0.124D-01-0.820D-01
 Coeff-Com:  0.256D+00-0.623D+00 0.144D+01
 Coeff:      0.328D-04-0.278D-03 0.523D-03-0.171D-02 0.124D-01-0.820D-01
 Coeff:      0.256D+00-0.623D+00 0.144D+01
 Gap=     0.369 Goal=   None    Shift=    0.000
 RMSDP=1.03D-06 MaxDP=1.10D-05 DE=-6.95D-09 OVMax= 9.52D-06

 Cycle  10  Pass 1  IDiag  3:
 E= 0.259271867709714E-01 Delta-E=       -0.000000000191 Rises=F Damp=F
 DIIS: error= 2.28D-07 at cycle  10 NSaved=  10.
 NSaved=10 IEnMin=10 EnMin= 0.259271867709714E-01 IErMin=10 ErrMin= 2.28D-07
 ErrMax= 2.28D-07  0.00D+00 EMaxC= 1.00D-01 BMatC= 1.54D-12 BMatP= 2.92D-11
 IDIUse=1 WtCom= 1.00D+00 WtEn= 0.00D+00
 Coeff-Com: -0.177D-04 0.136D-03-0.247D-03 0.685D-03-0.469D-02 0.334D-01
 Coeff-Com: -0.107D+00 0.266D+00-0.746D+00 0.156D+01
 Coeff:     -0.177D-04 0.136D-03-0.247D-03 0.685D-03-0.469D-02 0.334D-01
 Coeff:     -0.107D+00 0.266D+00-0.746D+00 0.156D+01
 Gap=     0.369 Goal=   None    Shift=    0.000
 RMSDP=2.54D-07 MaxDP=2.46D-06 DE=-1.91D-10 OVMax= 2.49D-06

 Cycle  11  Pass 1  IDiag  3:
 E= 0.259271867595459E-01 Delta-E=       -0.000000000011 Rises=F Damp=F
 DIIS: error= 4.33D-08 at cycle  11 NSaved=  11.
 NSaved=11 IEnMin=11 EnMin= 0.259271867595459E-01 IErMin=11 ErrMin= 4.33D-08
 ErrMax= 4.33D-08  0.00D+00 EMaxC= 1.00D-01 BMatC= 8.94D-14 BMatP= 1.54D-12
 IDIUse=1 WtCom= 1.00D+00 WtEn= 0.00D+00
 Coeff-Com:  0.524D-05-0.425D-04 0.834D-04-0.259D-03 0.155D-02-0.107D-01
 Coeff-Com:  0.335D-01-0.814D-01 0.239D+00-0.662D+00 0.148D+01
 Coeff:      0.524D-05-0.425D-04 0.834D-04-0.259D-03 0.155D-02-0.107D-01
 Coeff:      0.335D-01-0.814D-01 0.239D+00-0.662D+00 0.148D+01
 Gap=     0.369 Goal=   None    Shift=    0.000
 RMSDP=6.38D-08 MaxDP=4.99D-07 DE=-1.14D-11 OVMax= 6.10D-07

 Cycle  12  Pass 1  IDiag  3:
 E= 0.259271867586932E-01 Delta-E=       -0.000000000001 Rises=F Damp=F
 DIIS: error= 1.39D-08 at cycle  12 NSaved=  12.
 NSaved=12 IEnMin=12 EnMin= 0.259271867586932E-01 IErMin=12 ErrMin= 1.39D-08
 ErrMax= 1.39D-08  0.00D+00 EMaxC= 1.00D-01 BMatC= 6.50D-15 BMatP= 8.94D-14
 IDIUse=1 WtCom= 1.00D+00 WtEn= 0.00D+00
 Coeff-Com: -0.110D-05 0.928D-05-0.176D-04 0.571D-04-0.318D-03 0.229D-02
 Coeff-Com: -0.712D-02 0.165D-01-0.498D-01 0.169D+00-0.597D+00 0.147D+01
 Coeff:     -0.110D-05 0.928D-05-0.176D-04 0.571D-04-0.318D-03 0.229D-02
 Coeff:     -0.712D-02 0.165D-01-0.498D-01 0.169D+00-0.597D+00 0.147D+01
 Gap=     0.369 Goal=   None    Shift=    0.000
 RMSDP=1.80D-08 MaxDP=1.54D-07 DE=-8.53D-13 OVMax= 1.55D-07

 Cycle  13  Pass 1  IDiag  3:
 E= 0.259271867587216E-01 Delta-E=        0.000000000000 Rises=F Damp=F
 DIIS: error= 3.08D-09 at cycle  13 NSaved=  13.
 NSaved=13 IEnMin=12 EnMin= 0.259271867586932E-01 IErMin=13 ErrMin= 3.08D-09
 ErrMax= 3.08D-09  0.00D+00 EMaxC= 1.00D-01 BMatC= 4.70D-16 BMatP= 6.50D-15
 IDIUse=1 WtCom= 1.00D+00 WtEn= 0.00D+00
 Coeff-Com:  0.106D-06-0.951D-06 0.186D-05-0.695D-05 0.224D-04-0.184D-03
 Coeff-Com:  0.528D-03-0.856D-03 0.288D-02-0.203D-01 0.128D+00-0.586D+00
 Coeff-Com:  0.148D+01
 Coeff:      0.106D-06-0.951D-06 0.186D-05-0.695D-05 0.224D-04-0.184D-03
 Coeff:      0.528D-03-0.856D-03 0.288D-02-0.203D-01 0.128D+00-0.586D+00
 Coeff:      0.148D+01
 Gap=     0.369 Goal=   None    Shift=    0.000
 RMSDP=4.70D-09 MaxDP=4.11D-08 DE= 2.84D-14 OVMax= 3.69D-08

 Cycle  14  Pass 2  IDiag  1:
 SCF Done:  E(RAM1) =  0.259271867587E-01 A.U. after   14 cycles
            NFock= 13  Conv=0.47D-08     -V/T= 1.0016
 KE=-1.647961527816D+01 PE=-1.700170614532D+02 EE= 8.368329167301D+01
 Leave Link  502 at Tue Dec 15 16:13:46 2015, MaxMem=    33554432 cpu:         0.0
 (Enter /home/Applications/g09/g09/l801.exe)
 Range of M.O.s used for correlation:     1    24
 NBasis=    24 NAE=    13 NBE=    13 NFC=     0 NFV=     0
 NROrb=     24 NOA=    13 NOB=    13 NVA=    11 NVB=    11
 Leave Link  801 at Tue Dec 15 16:13:46 2015, MaxMem=    33554432 cpu:         0.0
 (Enter /home/Applications/g09/g09/l914.exe)
 RHF ground state
 MDV=    33554432 DFT=F DoStab=F Mixed=F DoRPA=F DoScal=F NonHer=F
 Making orbital integer symmetry assigments:
 Orbital symmetries:
       Occupied  (A) (A) (A) (A) (A) (A) (A) (A) (A) (A) (A) (A)
                 (A)
       Virtual   (A) (A) (A) (A) (A) (A) (A) (A) (A) (A) (A)
    60 initial guesses have been made.
 Convergence on wavefunction:    0.000001000000000
 Davidson Disk Diagonalization:  ConvIn= 1.00D-06 SkipCon=T Conv= 1.00D-06.
 Max sub-space:   240 roots to seek:    60 dimension of matrix:          286
 Iteration     1 Dimension    60 NMult     0 NNew     60
 CISAX will form    60 AO SS matrices at one time.
 NMat=    60 NSing=    60 JSym2X= 0.
 FoFJK:  IHMeth= 8 ICntrl=       0 DoSepK=F KAlg= 0 I1Cent=   0 FoldK=F
 IRaf=         1 NMat= 120 IRICut=       1 DoRegI=T DoRafI=F ISym2E= 0.
 FoFCou: FMM=F IPFlag=           0 FMFlag=      100000 FMFlg1=           0
         NFxFlg=           0 DoJE=F BraDBF=F KetDBF=F FulRan=T
         wScrn=  0.000000 ICntrl=       0 IOpCl=  0 I1Cent=           0 NGrid=           0
         NMat0=  120 NMatS0=     60 NMatT0=    0 NMatD0=  120 NMtDS0=    0 NMtDT0=    0
 Symmetry not used in FoFCou.
 New state      2 was old state      4
 New state      3 was old state      2
 New state      4 was old state      6
 New state      5 was old state      8
 New state      6 was old state      7
 New state      7 was old state      3
 New state      8 was old state      5
 New state     10 was old state     11
 New state     11 was old state     12
 New state     12 was old state     16
 New state     13 was old state     19
 New state     14 was old state     13
 New state     15 was old state     18
 Excitation Energies [eV] at current iteration:
 Root      1 :     4.391314230205803
 Root      2 :     4.758503921618082
 Root      3 :     5.032340998277647
 Root      4 :     5.487985212297991
 Root      5 :     5.967011828515870
 Root      6 :     6.205611319959673
 Root      7 :     6.299015352024675
 Root      8 :     6.578877307571454
 Root      9 :     6.614516543285592
 Root     10 :     6.735578966006085
 Root     11 :     7.148056275786492
 Root     12 :     7.225715057514480
 Root     13 :     7.443283248859938
 Root     14 :     7.572845182269922
 Root     15 :     7.781331243834208
 Root     16 :     7.842295667621696
 Root     17 :     7.979737620839801
 Root     18 :     8.103233255059697
 Root     19 :     8.166866609629443
 Root     20 :     8.358884491666828
 Root     21 :     8.520344587455597
 Root     22 :     8.627285509686176
 Root     23 :     8.693798826223892
 Root     24 :     9.071380313718070
 Root     25 :     9.082799580084018
 Root     26 :     9.198213470804671
 Root     27 :     9.539628510553923
 Root     28 :     9.616156446540289
 Root     29 :     9.728289067859325
 Root     30 :     9.774568284912720
 Root     31 :     9.905975926519236
 Root     32 :     9.918370843593205
 Root     33 :    10.021556703221390
 Root     34 :    10.066245122767330
 Root     35 :    10.399627567562550
 Root     36 :    10.504359242324320
 Root     37 :    10.526459486926290
 Root     38 :    10.612740734058620
 Root     39 :    10.784388770897280
 Root     40 :    10.847732210960650
 Root     41 :    10.883038664066020
 Root     42 :    11.061854897901420
 Root     43 :    11.200324217043620
 Root     44 :    11.304957292510570
 Root     45 :    11.487812163833720
 Root     46 :    11.679573144329830
 Root     47 :    11.719273051707480
 Root     48 :    11.846477072778040
 Root     49 :    11.892913870251280
 Root     50 :    12.004289216066450
 Root     51 :    12.312606951265680
 Root     52 :    12.449215984949140
 Root     53 :    12.664891346290350
 Root     54 :    12.744760725831420
 Root     55 :    12.915020028438580
 Root     56 :    12.931586977632400
 Root     57 :    13.106270439401330
 Root     58 :    13.270354413809090
 Root     59 :    13.368845573641160
 Root     60 :    13.715854936176830
 Iteration     2 Dimension   120 NMult    60 NNew     60
 CISAX will form    60 AO SS matrices at one time.
 NMat=    60 NSing=    60 JSym2X= 0.
 Root      1 not converged, maximum delta is    0.029355028873679
 Root      2 not converged, maximum delta is    0.034253133245877
 Root      3 not converged, maximum delta is    0.013718190214473
 Root      4 not converged, maximum delta is    0.038367861761019
 Root      5 not converged, maximum delta is    0.047034768758250
 Root      6 not converged, maximum delta is    0.379827578845631
 Root      7 not converged, maximum delta is    0.346366173567159
 Root      8 not converged, maximum delta is    0.261491854416931
 Root      9 not converged, maximum delta is    0.348609893963008
 Root     10 not converged, maximum delta is    0.095344130778272
 Root     11 not converged, maximum delta is    0.117963901107631
 Root     12 not converged, maximum delta is    0.105858816399645
 Root     13 not converged, maximum delta is    0.092734826968389
 Root     14 not converged, maximum delta is    0.032932923906672
 Root     15 not converged, maximum delta is    0.199799685835093
 Excitation Energies [eV] at current iteration:
 Root      1 :     4.305720873023804   Change is   -0.085593357181999
 Root      2 :     4.712504751799460   Change is   -0.045999169818622
 Root      3 :     5.017432855663055   Change is   -0.014908142614592
 Root      4 :     5.395668221769252   Change is   -0.092316990528738
 Root      5 :     5.884061367398067   Change is   -0.082950461117804
 Root      6 :     6.153939967403491   Change is   -0.051671352556183
 Root      7 :     6.174958323064083   Change is   -0.124057028960592
 Root      8 :     6.489748372721919   Change is   -0.089128934849535
 Root      9 :     6.506608109381293   Change is   -0.107908433904298
 Root     10 :     6.646327095782344   Change is   -0.089251870223741
 Root     11 :     7.053750245288774   Change is   -0.094306030497717
 Root     12 :     7.165084999019323   Change is   -0.060630058495156
 Root     13 :     7.295347675595694   Change is   -0.147935573264245
 Root     14 :     7.522683138664941   Change is   -0.050162043604981
 Root     15 :     7.687737324417736   Change is   -0.093593919416471
 Root     16 :     7.744999551203396   Change is   -0.097296116418300
 Root     17 :     7.795521155907144   Change is   -0.184216464932657
 Root     18 :     7.982075138450668   Change is   -0.121158116609029
 Root     19 :     8.061160600574008   Change is   -0.105706009055435
 Root     20 :     8.238149278421396   Change is   -0.282195309034200
 Root     21 :     8.254535740941707   Change is   -0.104348750725120
 Root     22 :     8.576638854200208   Change is   -0.050646655485969
 Root     23 :     8.645229774167108   Change is   -0.048569052056786
 Root     24 :     8.719833059299633   Change is   -0.362966520784384
 Root     25 :     8.971790441207856   Change is   -0.099589872510213
 Root     26 :     9.116890539438735   Change is   -0.081322931365935
 Root     27 :     9.164503353458194   Change is   -0.375125157095729
 Root     28 :     9.337001941931684   Change is   -0.391287125927642
 Root     29 :     9.433212014653966   Change is   -0.472763911865270
 Root     30 :     9.467828279213457   Change is   -0.450542564379749
 Root     31 :     9.600759853104302   Change is   -0.015396593435988
 Root     32 :     9.661926738170164   Change is   -0.404318384597167
 Root     33 :     9.668124655912710   Change is   -0.106443629000011
 Root     34 :     9.861334261665094   Change is   -0.538293305897455
 Root     35 :     9.893795245207565   Change is   -0.127761458013822
 Root     36 :    10.095042909478530   Change is   -0.431416577447759
 Root     37 :    10.260485791405710   Change is   -0.523902979491577
 Root     38 :    10.341628142922900   Change is   -0.271112591135711
 Root     39 :    10.354055795215930   Change is   -0.150303447108385
 Root     40 :    10.449859069290920   Change is   -0.433179594775104
 Root     41 :    10.509447446071400   Change is   -0.552407451830012
 Root     42 :    10.558953972748520   Change is   -0.288778238212127
 Root     43 :    10.732405903560170   Change is   -0.572551388950396
 Root     44 :    11.009069467980750   Change is   -0.478742695852966
 Root     45 :    11.051032744115230   Change is   -0.668240307592243
 Root     46 :    11.100300875909670   Change is   -0.100023341133951
 Root     47 :    11.404032480954230   Change is   -0.488881389297056
 Root     48 :    11.452651443504240   Change is   -0.226921700825594
 Root     49 :    11.564902797564500   Change is   -0.281574275213532
 Root     50 :    11.647472408969620
 Root     51 :    11.818056804984850   Change is   -0.186232411081601
 Root     52 :    11.899928648279670   Change is   -0.412678302986011
 Root     53 :    12.261917332665960   Change is   -0.187298652283178
 Root     54 :    12.324237217535970   Change is   -0.340654128754381
 Root     55 :    12.546599122020050   Change is   -0.198161603811370
 Root     56 :    12.555809535522540
 Root     57 :    12.875614558055680   Change is   -0.055972419576725
 Root     58 :    12.880833069424680   Change is   -0.034186959013894
 Root     59 :    12.944055529963940   Change is   -0.424790043677219
 Root     60 :    12.951881879818090   Change is   -0.154388559583239
 Iteration     3 Dimension   135 NMult   120 NNew     15
 CISAX will form    15 AO SS matrices at one time.
 NMat=    15 NSing=    15 JSym2X= 0.
 Root      1 not converged, maximum delta is    0.001788739854166
 Root      2 not converged, maximum delta is    0.000046267553358
 Root      3 not converged, maximum delta is    0.000295117185562
 Root      4 not converged, maximum delta is    0.000049490206991
 Root      5 not converged, maximum delta is    0.000046709441008
 Root      6 not converged, maximum delta is    0.008810512913637
 Root      7 not converged, maximum delta is    0.009795766748853
 Root      8 not converged, maximum delta is    0.007192436787475
 Root      9 not converged, maximum delta is    0.005373698173996
 Root     10 not converged, maximum delta is    0.000216222054313
 Root     11 not converged, maximum delta is    0.000163074507152
 Root     12 not converged, maximum delta is    0.000088313673051
 Root     13 not converged, maximum delta is    0.000138489727593
 Root     14 not converged, maximum delta is    0.000213803577092
 Root     15 not converged, maximum delta is    0.000151788372327
 Excitation Energies [eV] at current iteration:
 Root      1 :     4.305480887056162   Change is   -0.000239985967643
 Root      2 :     4.712503976482486   Change is   -0.000000775316975
 Root      3 :     5.017409610171005   Change is   -0.000023245492050
 Root      4 :     5.395667269025696   Change is   -0.000000952743556
 Root      5 :     5.884060214188072   Change is   -0.000001153209994
 Root      6 :     6.153384273444275   Change is   -0.000555693959215
 Root      7 :     6.174595409915824   Change is   -0.000362913148259
 Root      8 :     6.489568995185571   Change is   -0.000179377536348
 Root      9 :     6.506307280778844   Change is   -0.000300828602449
 Root     10 :     6.646315867317204   Change is   -0.000011228465140
 Root     11 :     7.053745827037544   Change is   -0.000004418251230
 Root     12 :     7.165083752604000   Change is   -0.000001246415323
 Root     13 :     7.295343623801057   Change is   -0.000004051794636
 Root     14 :     7.522677026821128   Change is   -0.000006111843812
 Root     15 :     7.687731416651478   Change is   -0.000005907766259
 Iteration     4 Dimension   143 NMult   135 NNew      8
 CISAX will form     8 AO SS matrices at one time.
 NMat=     8 NSing=     8 JSym2X= 0.
 Root      1 not converged, maximum delta is    0.000031126997976
 Root      2 not converged, maximum delta is    0.000001898833910
 Root      3 not converged, maximum delta is    0.000018005447564
 Root      4 not converged, maximum delta is    0.000001350366110
 Root      5 not converged, maximum delta is    0.000002341447148
 Root      6 not converged, maximum delta is    0.000058123033626
 Root      7 not converged, maximum delta is    0.000046474595176
 Root      8 not converged, maximum delta is    0.000061682024604
 Root      9 not converged, maximum delta is    0.000079185670674
 Root     10 not converged, maximum delta is    0.000006642418452
 Root     11 not converged, maximum delta is    0.000005208927420
 Root     12 not converged, maximum delta is    0.000002592807509
 Root     13 not converged, maximum delta is    0.000008299519362
 Root     14 not converged, maximum delta is    0.000004877972320
 Root     15 not converged, maximum delta is    0.000007910924471
 Excitation Energies [eV] at current iteration:
 Root      1 :     4.305480627432869   Change is   -0.000000259623294
 Root      2 :     4.712503974833042   Change is   -0.000000001649444
 Root      3 :     5.017409531277695   Change is   -0.000000078893310
 Root      4 :     5.395667268448805   Change is   -0.000000000576892
 Root      5 :     5.884060212804180   Change is   -0.000000001383892
 Root      6 :     6.153383078613254   Change is   -0.000001194831022
 Root      7 :     6.174594644662681   Change is   -0.000000765253142
 Root      8 :     6.489568312352609   Change is   -0.000000682832962
 Root      9 :     6.506306186858785   Change is   -0.000001093920059
 Root     10 :     6.646315846842467   Change is   -0.000000020474737
 Root     11 :     7.053745813730726   Change is   -0.000000013306819
 Root     12 :     7.165083751189057   Change is   -0.000000001414943
 Root     13 :     7.295343609279804   Change is   -0.000000014521253
 Root     14 :     7.522677021239042   Change is   -0.000000005582086
 Root     15 :     7.687731398790564   Change is   -0.000000017860913
 Convergence achieved on expansion vectors.
 ***********************************************************************
 Excited states from <AA,BB:AA,BB> singles matrix:
 ***********************************************************************
 
 1PDM for each excited state written to RWF  633
 Ground to excited state transition densities written to RWF  633
 Ground to excited state transition electric dipole moments (Au):
       state          X           Y           Z        Dip. S.      Osc.
         1        -0.8777      0.3125      0.0459      0.8701      0.0918
         2         0.0170      0.0311     -0.0083      0.0013      0.0002
         3         0.0744      0.4305      0.0115      0.1910      0.0235
         4        -0.0015      0.0114      0.0530      0.0029      0.0004
         5         0.0116     -0.0064      0.0891      0.0081      0.0012
         6         0.3669      1.0066     -0.0666      1.1524      0.1737
         7         0.2933      0.8101      0.0933      0.7510      0.1136
         8         0.3769     -0.4821     -0.0398      0.3761      0.0598
         9         0.5149     -0.5923      0.0585      0.6194      0.0987
        10        -0.0130      0.0791      0.0640      0.0105      0.0017
        11        -0.0120     -0.0234      0.2323      0.0546      0.0094
        12        -0.0054     -0.0344     -0.1054      0.0123      0.0022
        13         0.0120      0.0103     -0.1202      0.0147      0.0026
        14        -0.0239     -0.0381     -0.0401      0.0036      0.0007
        15         0.0156      0.0232      0.0633      0.0048      0.0009
 Ground to excited state transition velocity dipole moments (Au):
       state          X           Y           Z        Dip. S.      Osc.
         1         0.0557     -0.0499     -0.0087      0.0057      0.0239
         2        -0.0028     -0.0030      0.0110      0.0001      0.0005
         3        -0.0265     -0.0446      0.0005      0.0027      0.0097
         4        -0.0012      0.0007     -0.0204      0.0004      0.0014
         5        -0.0051      0.0012     -0.0771      0.0060      0.0184
         6        -0.0432     -0.2014      0.0860      0.0498      0.1469
         7        -0.0330     -0.1605     -0.1053      0.0379      0.1115
         8        -0.0801      0.1042      0.0667      0.0217      0.0607
         9        -0.1086      0.1263     -0.0617      0.0315      0.0880
        10         0.0042     -0.0196      0.0078      0.0005      0.0013
        11        -0.0012      0.0085      0.0247      0.0007      0.0018
        12         0.0000      0.0073      0.0939      0.0089      0.0225
        13        -0.0003      0.0005      0.0334      0.0011      0.0028
        14         0.0016      0.0098      0.0825      0.0069      0.0167
        15        -0.0003     -0.0060     -0.0404      0.0017      0.0039
 Ground to excited state transition magnetic dipole moments (Au):
       state          X           Y           Z
         1        -0.0171      0.0043     -0.6873
         2        -0.0181      0.5074     -0.0011
         3        -0.0121     -0.0471     -0.0021
         4         0.3336      0.2478     -0.0034
         5         0.1655     -0.3887      0.0145
         6         0.0299     -0.2640      0.1510
         7        -0.0813      0.3285      0.1204
         8         0.2380      0.0351     -0.0777
         9        -0.1397      0.0368     -0.0988
        10         1.2339      0.7360     -0.0030
        11         0.3021     -0.0165     -0.0054
        12         0.2184      0.7802     -0.0103
        13         0.4401     -0.0871      0.0213
        14        -0.4987      0.1445     -0.0266
        15        -0.3011      0.4542      0.0171
 Ground to excited state transition velocity quadrupole moments (Au):
       state          XX          YY          ZZ          XY          XZ          YZ
         1         0.2904     -0.2431     -0.0208     -0.3638     -0.0040     -0.0018
         2         0.0073     -0.0143      0.0074     -0.0087      0.1706      0.0524
         3         0.2027     -0.2444      0.0630     -0.1355     -0.0041     -0.0151
         4         0.0096     -0.0173      0.0139     -0.0001     -0.1237      0.1988
         5         0.0006     -0.0145      0.0072     -0.0128     -0.0253      0.1242
         6         0.2804     -0.1515     -0.0305     -0.0188      0.0772      0.0202
         7         0.2281     -0.1287     -0.0313     -0.0003     -0.1329     -0.0376
         8        -0.0508     -0.0484      0.0089     -0.3427      0.0274     -0.1458
         9        -0.0459     -0.0575     -0.0032     -0.4387      0.0186      0.0923
        10         0.0164     -0.0095     -0.0028      0.0235      0.1485     -0.0260
        11        -0.0054      0.0075     -0.0146     -0.0056     -0.0729     -0.0049
        12        -0.0032     -0.0063     -0.0001     -0.0108     -0.2422      0.1571
        13        -0.0074      0.0139     -0.0061      0.0103      0.0215      0.4049
        14        -0.0067     -0.0002      0.0053     -0.0055      0.0125      0.0528
        15         0.0026      0.0089     -0.0006      0.0153      0.1619      0.2230
 <0|del|b> * <b|rxdel|0> + <0|del|b> * <b|delr+rdel|0>
 Rotatory Strengths (R) in cgs (10**-40 erg-esu-cm/Gauss)
       state          XX          YY          ZZ    R(velocity)    E-M Angle
         1        19.4889      3.9323     -1.9354      7.1620       84.67
         2        -2.2667     -0.0270     -3.7142     -2.0026      104.30
         3         3.5269      1.5199      4.2260      3.0909       16.63
         4         0.6033     -1.0614     -0.1393     -0.1991       91.13
         5        -0.9296     -5.8677     -1.1642     -2.6538       94.27
         6       125.2108     19.4438     58.1689     67.6078       18.04
         7      -135.1178    -13.6894    -46.6530    -65.1534      153.69
         8       -40.3590     15.2439    -35.9186    -20.3446      123.55
         9        52.4277    -23.4103     47.6135     25.5436       33.52
        10       -16.4137      6.9636    -17.4852     -8.9784      107.54
        11         0.2856     -0.4884     -1.5526     -0.5851       94.66
        12         7.3046      0.0713      5.2486      4.2082       86.47
        13         1.3236      0.1941     -0.0550      0.4876       87.88
        14        -1.7248     -3.1258      0.8584     -1.3307       92.07
        15        -3.8420     -0.0635     -4.4477     -2.7844       98.61
 1/2[<0|r|b>*<b|rxdel|0> + (<0|rxdel|b>*<b|r|0>)*]
 Rotatory Strengths (R) in cgs (10**-40 erg-esu-cm/Gauss)
       state          XX          YY          ZZ     R(length)
         1       -10.5874     -0.9601     22.2940      3.5822
         2         0.2168    -11.1551     -0.0062     -3.6482
         3         0.6347     14.3361      0.0172      4.9960
         4         0.3593     -1.9894      0.1265     -0.5012
         5        -1.3621     -1.7565     -0.9141     -1.3442
         6        -7.7687    187.9225      7.1156     62.4231
         7        16.8739   -188.1704     -7.9467    -59.7477
         8       -63.4420     11.9536     -2.1876    -17.8920
         9        50.8531     15.4063      4.0853     23.4482
        10        11.3142    -41.1575      0.1352     -9.9027
        11         2.5549     -0.2731      0.8929      1.0582
        12         0.8270     18.9991     -0.7690      6.3524
        13        -3.7192      0.6317      1.8099     -0.4259
        14        -8.4417      3.8925     -0.7538     -1.7677
        15         3.3293     -7.4376     -0.7670     -1.6251
  1/2[<0|del|b>*<b|r|0> + (<0|r|b>*<b|del|0>)*] (Au)
       state          X           Y           Z        Dip. S.   Osc.(frdel)
         1        -0.0489     -0.0156     -0.0004      0.0649      0.0433
         2         0.0000     -0.0001     -0.0001      0.0002      0.0002
         3        -0.0020     -0.0192      0.0000      0.0212      0.0141
         4         0.0000      0.0000     -0.0011      0.0011      0.0007
         5        -0.0001      0.0000     -0.0069      0.0069      0.0046
         6        -0.0159     -0.2027     -0.0057      0.2243      0.1495
         7        -0.0097     -0.1300     -0.0098      0.1495      0.0997
         8        -0.0302     -0.0502     -0.0027      0.0830      0.0554
         9        -0.0559     -0.0748     -0.0036      0.1343      0.0896
        10        -0.0001     -0.0015      0.0005      0.0011      0.0007
        11         0.0000     -0.0002      0.0057     -0.0056     -0.0037
        12         0.0000     -0.0003     -0.0099      0.0101      0.0068
        13         0.0000      0.0000     -0.0040      0.0040      0.0027
        14         0.0000     -0.0004     -0.0033      0.0037      0.0025
        15         0.0000     -0.0001     -0.0026      0.0027      0.0018

 Excitation energies and oscillator strengths:
 
 Excited State   1:      Singlet-A      4.3055 eV  287.97 nm  f=0.0918  <S**2>=0.000
      12 -> 15         0.17861
      13 -> 14         0.67117
 This state for optimization and/or second-order correction.
 Total Energy, E(CIS) =  0.184150695328    
 Copying the excited state density for this state as the 1-particle RhoCI density.
 
 Excited State   2:      Singlet-A      4.7125 eV  263.10 nm  f=0.0002  <S**2>=0.000
      13 -> 16         0.68549
 
 Excited State   3:      Singlet-A      5.0174 eV  247.11 nm  f=0.0235  <S**2>=0.000
      12 -> 14        -0.34127
      13 -> 15         0.60778
 
 Excited State   4:      Singlet-A      5.3957 eV  229.78 nm  f=0.0004  <S**2>=0.000
      13 -> 17         0.47975
      13 -> 18         0.26984
      13 -> 20        -0.25111
      13 -> 21         0.16547
      13 -> 22         0.23586
      13 -> 23        -0.11772
 
 Excited State   5:      Singlet-A      5.8841 eV  210.71 nm  f=0.0012  <S**2>=0.000
       7 -> 16        -0.15668
      12 -> 16         0.65884
      12 -> 22         0.13848
 
 Excited State   6:      Singlet-A      6.1534 eV  201.49 nm  f=0.1737  <S**2>=0.000
      12 -> 14         0.46157
      13 -> 15         0.24039
      13 -> 17         0.18609
      13 -> 18        -0.33000
      13 -> 23        -0.11591
 
 Excited State   7:      Singlet-A      6.1746 eV  200.80 nm  f=0.1136  <S**2>=0.000
      12 -> 14         0.35792
      13 -> 15         0.19832
      13 -> 17        -0.23648
      13 -> 18         0.41807
      13 -> 23         0.15158
 
 Excited State   8:      Singlet-A      6.4896 eV  191.05 nm  f=0.0598  <S**2>=0.000
      11 -> 14         0.11502
      12 -> 15         0.39919
      12 -> 19        -0.13439
      12 -> 21        -0.11592
      12 -> 23        -0.15738
      13 -> 19         0.37404
      13 -> 21         0.17624
      13 -> 22         0.12532
      13 -> 23         0.10273
 
 Excited State   9:      Singlet-A      6.5063 eV  190.56 nm  f=0.0987  <S**2>=0.000
      12 -> 15         0.52110
      12 -> 19         0.10749
      12 -> 23         0.12591
      13 -> 14        -0.12746
      13 -> 19        -0.29735
      13 -> 21        -0.12979
 
 Excited State  10:      Singlet-A      6.6463 eV  186.55 nm  f=0.0017  <S**2>=0.000
      10 -> 14        -0.29409
      11 -> 14         0.55204
      11 -> 15         0.23655
      13 -> 19        -0.11024
 
 Excited State  11:      Singlet-A      7.0537 eV  175.77 nm  f=0.0094  <S**2>=0.000
      12 -> 17        -0.15711
      12 -> 18         0.24727
      12 -> 19         0.22392
      12 -> 23         0.14166
      13 -> 19         0.41858
      13 -> 21        -0.33249
      13 -> 24        -0.15187
 
 Excited State  12:      Singlet-A      7.1651 eV  173.04 nm  f=0.0022  <S**2>=0.000
       7 -> 16        -0.10221
      12 -> 18         0.46461
      13 -> 17        -0.18366
      13 -> 18        -0.22946
      13 -> 19        -0.11776
      13 -> 21         0.10552
      13 -> 22         0.34021
 
 Excited State  13:      Singlet-A      7.2953 eV  169.95 nm  f=0.0026  <S**2>=0.000
      12 -> 17        -0.10200
      12 -> 18        -0.26059
      12 -> 19         0.25525
      12 -> 21         0.16747
      12 -> 22         0.12247
      13 -> 17        -0.20493
      13 -> 20         0.16229
      13 -> 21         0.11613
      13 -> 22         0.33919
      13 -> 23        -0.25731
      13 -> 24        -0.12334
 
 Excited State  14:      Singlet-A      7.5227 eV  164.81 nm  f=0.0007  <S**2>=0.000
       9 -> 14         0.12822
       9 -> 15        -0.16157
      10 -> 14         0.56721
      11 -> 14         0.29851
 
 Excited State  15:      Singlet-A      7.6877 eV  161.28 nm  f=0.0009  <S**2>=0.000
       9 -> 15        -0.11522
      10 -> 15         0.34290
      11 -> 14        -0.12028
      11 -> 15         0.41152
      12 -> 17         0.22033
      13 -> 21        -0.14761
      13 -> 23        -0.16649
      13 -> 24         0.10842
 SavETr:  write IOETrn=   770 NScale= 10 NData=  16 NLR=1 NState=   15 LETran=     280.
 The selected state is a singlet
 CISAX will form     1 AO SS matrices at one time.
 NMat=     1 NSing=     1 JSym2X= 0.
 Leave Link  914 at Tue Dec 15 16:13:46 2015, MaxMem=    33554432 cpu:         0.1
 (Enter /home/Applications/g09/g09/l1002.exe)
 Minotr:  Closed shell wavefunction.
          Computing CIS/TD-HF/TD-KS derivatives.
          Using Z-Vector for PSCF gradient.
          Skipping F1 and S1 gradient terms here.
          IDoAtm=111111111
          Direct CPHF calculation.
          Differentiating once with respect to electric field.
                with respect to dipole field.
          Differentiating once with respect to nuclear coordinates.
          Electric field/nuclear overlap derivatives assumed to be zero.
          Requested convergence is 1.0D-10 RMS, and 1.0D-09 maximum.
          NewPWx=T KeepS1=F KeepF1=F KeepIn=T MapXYZ=F SortEE=F KeepMc=T.
          MDV=      33495423 using IRadAn=       0.
 Keep J ints in memory in canonical form, NReq=871704.
 FoFCou: FMM=F IPFlag=           0 FMFlag=           0 FMFlg1=           0
         NFxFlg=           0 DoJE=F BraDBF=F KetDBF=F FulRan=T
         wScrn=  0.000000 ICntrl=     600 IOpCl=  2 I1Cent=           0 NGrid=           0
         NMat0=    1 NMatS0=     54 NMatT0=    0 NMatD0=    1 NMtDS0=    0 NMtDT0=    0
 Symmetry not used in FoFCou.
          Solving linear equations separately, MaxMat=       0.
          There are     1 degrees of freedom in the 1st order CPHF.  IDoFFX=0 NUNeed=     1.
 LinEq1:  Iter=  0 NonCon=     1 RMS=1.55D-02 Max=1.14D-01 NDo=     1
 AX will form     1 AO Fock derivatives at one time.
 LinEq1:  Iter=  1 NonCon=     1 RMS=3.65D-03 Max=2.21D-02 NDo=     1
 LinEq1:  Iter=  2 NonCon=     1 RMS=4.39D-04 Max=1.84D-03 NDo=     1
 LinEq1:  Iter=  3 NonCon=     1 RMS=5.55D-05 Max=1.94D-04 NDo=     1
 LinEq1:  Iter=  4 NonCon=     1 RMS=5.78D-06 Max=3.18D-05 NDo=     1
 LinEq1:  Iter=  5 NonCon=     1 RMS=1.05D-06 Max=7.20D-06 NDo=     1
 LinEq1:  Iter=  6 NonCon=     1 RMS=1.75D-07 Max=8.01D-07 NDo=     1
 LinEq1:  Iter=  7 NonCon=     1 RMS=1.81D-08 Max=5.54D-08 NDo=     1
 LinEq1:  Iter=  8 NonCon=     1 RMS=2.08D-09 Max=7.56D-09 NDo=     1
 LinEq1:  Iter=  9 NonCon=     1 RMS=2.20D-10 Max=8.03D-10 NDo=     1
 LinEq1:  Iter= 10 NonCon=     0 RMS=2.48D-11 Max=1.29D-10 NDo=     1
 Linear equations converged to 1.000D-10 1.000D-09 after    10 iterations.
 End of Minotr F.D. properties file   721 does not exist.
 End of Minotr F.D. properties file   722 does not exist.
 End of Minotr F.D. properties file   788 does not exist.
 Leave Link 1002 at Tue Dec 15 16:13:46 2015, MaxMem=    33554432 cpu:         0.0
 (Enter /home/Applications/g09/g09/l601.exe)
 Copying SCF densities to generalized density rwf, IOpCl= 0 IROHF=0.

 **********************************************************************

            Population analysis using the SCF density.

 **********************************************************************

 Orbital symmetries:
       Occupied  (A) (A) (A) (A) (A) (A) (A) (A) (A) (A) (A) (A)
                 (A)
       Virtual   (A) (A) (A) (A) (A) (A) (A) (A) (A) (A) (A)
 The electronic state is 1-A.
 Alpha  occ. eigenvalues --   -1.54272  -1.23008  -1.09100  -0.82184  -0.80253
 Alpha  occ. eigenvalues --   -0.67975  -0.59297  -0.56849  -0.51771  -0.49600
 Alpha  occ. eigenvalues --   -0.48421  -0.39848  -0.33925
 Alpha virt. eigenvalues --    0.02982   0.06377   0.08953   0.13631   0.14148
 Alpha virt. eigenvalues --    0.16257   0.17337   0.17997   0.18919   0.20951
 Alpha virt. eigenvalues --    0.22198
     Molecular Orbital Coefficients:
                           1         2         3         4         5
                           O         O         O         O         O
     Eigenvalues --    -1.54272  -1.23008  -1.09100  -0.82184  -0.80253
   1 1   C  1S          0.29229  -0.52459  -0.16478  -0.12804   0.41004
   2        1PX         0.08358  -0.05762   0.14779   0.22368  -0.02102
   3        1PY        -0.09959   0.06045   0.17776   0.18551   0.25294
   4        1PZ         0.00209  -0.00370  -0.00108  -0.00101  -0.00025
   5 2   C  1S          0.36274  -0.27208  -0.47428  -0.10143  -0.37466
   6        1PX         0.16285   0.08879   0.00665   0.21431   0.00755
   7        1PY         0.04334  -0.21997   0.01711  -0.23944   0.25148
   8        1PZ        -0.00255   0.00086   0.00255  -0.00052  -0.00242
   9 3   O  1S          0.65078   0.56946  -0.13512   0.19172   0.21781
  10        1PX        -0.02460   0.08596   0.28780  -0.40229   0.29614
  11        1PY         0.19603  -0.00520   0.09244  -0.18356  -0.08549
  12        1PZ         0.00208   0.00032  -0.00044   0.00035  -0.00628
  13 4   C  1S          0.36989   0.00164   0.51646  -0.34393  -0.27211
  14        1PX        -0.17817  -0.00971   0.00348  -0.09739  -0.10774
  15        1PY        -0.07424  -0.22946   0.08734   0.27922  -0.22435
  16        1PZ         0.00023  -0.00120   0.00157   0.00004  -0.00519
  17 5   C  1S          0.25697  -0.38098   0.41985   0.43282   0.00425
  18        1PX        -0.03693   0.10202   0.13078  -0.00615  -0.30599
  19        1PY        -0.11721   0.04433  -0.08048   0.16122   0.12700
  20        1PZ        -0.00225   0.00331  -0.00343  -0.00460  -0.00233
  21 6   H  1S          0.05550  -0.11689   0.16444   0.27081  -0.00693
  22 7   H  1S          0.07801   0.00876   0.19907  -0.23095  -0.16243
  23 8   H  1S          0.08422  -0.07715  -0.19998  -0.04330  -0.27279
  24 9   H  1S          0.06039  -0.16076  -0.05984  -0.07515   0.27320
                           6         7         8         9        10
                           O         O         O         O         O
     Eigenvalues --    -0.67975  -0.59297  -0.56849  -0.51771  -0.49600
   1 1   C  1S         -0.06678   0.00136  -0.17287   0.02859  -0.00563
   2        1PX         0.24641   0.00377   0.02424  -0.03471  -0.37741
   3        1PY        -0.16301   0.01235  -0.09325   0.53327   0.08451
   4        1PZ         0.00117   0.23252   0.00577  -0.00793  -0.01046
   5 2   C  1S         -0.08482  -0.00060   0.13008  -0.03136   0.01785
   6        1PX         0.34716   0.00598  -0.34812  -0.08290   0.27486
   7        1PY         0.16776  -0.00508  -0.04815  -0.50041   0.01633
   8        1PZ        -0.00399   0.36397   0.01138   0.00094  -0.00574
   9 3   O  1S         -0.19431  -0.00157  -0.06056  -0.11587  -0.11187
  10        1PX        -0.13053   0.00257   0.41000  -0.09436  -0.22491
  11        1PY         0.46437  -0.00565   0.23344   0.24136   0.47745
  12        1PZ         0.00061   0.78118   0.00445  -0.01139   0.01727
  13 4   C  1S         -0.06326  -0.00233  -0.13857   0.11052   0.02206
  14        1PX        -0.36975  -0.00004  -0.39808  -0.16827   0.03654
  15        1PY         0.01436  -0.00506  -0.21411  -0.01672  -0.15739
  16        1PZ        -0.00121   0.39916  -0.00325  -0.00838   0.00311
  17 5   C  1S         -0.10707   0.00242   0.17284  -0.04180  -0.07904
  18        1PX        -0.12886  -0.01172   0.06838  -0.20150   0.25446
  19        1PY        -0.27131  -0.00636   0.22422  -0.20179   0.40471
  20        1PZ         0.00145   0.20803  -0.00174  -0.00426  -0.00499
  21 6   H  1S         -0.23918  -0.00988   0.26579  -0.23525   0.33268
  22 7   H  1S         -0.25309   0.00233  -0.33363  -0.05247   0.07529
  23 8   H  1S         -0.27189   0.00186   0.28344   0.30443  -0.16648
  24 9   H  1S         -0.21012   0.00426  -0.15273   0.31593   0.27799
                          11        12        13        14        15
                           O         O         O         V         V
     Eigenvalues --    -0.48421  -0.39848  -0.33925   0.02982   0.06377
   1 1   C  1S          0.00095  -0.00833  -0.00086   0.00492  -0.00561
   2        1PX        -0.44617  -0.01327  -0.00045   0.00783  -0.00571
   3        1PY        -0.05069   0.00627  -0.00149   0.00322   0.00300
   4        1PZ        -0.00370   0.66893  -0.12803  -0.22599   0.65587
   5 2   C  1S         -0.09523   0.00261  -0.00241  -0.00018  -0.00847
   6        1PX        -0.11984   0.00739  -0.00723   0.00175  -0.01970
   7        1PY         0.12132   0.00766  -0.00587   0.00618   0.00271
   8        1PZ        -0.00181   0.42487  -0.48267   0.44933  -0.50147
   9 3   O  1S          0.12013   0.00129  -0.00083   0.00236   0.00463
  10        1PX         0.01698  -0.00863  -0.00007  -0.00075  -0.00963
  11        1PY        -0.13987   0.00980   0.00664   0.00447   0.00833
  12        1PZ         0.00547  -0.46754  -0.19721  -0.36087   0.03739
  13 4   C  1S          0.03046  -0.00023  -0.00614  -0.00829  -0.00101
  14        1PX        -0.30657   0.00351  -0.00150  -0.00329  -0.00428
  15        1PY         0.41177   0.00095  -0.01120  -0.00055   0.00670
  16        1PZ         0.00867  -0.06287   0.58268   0.65435   0.26163
  17 5   C  1S         -0.01405   0.00557   0.01424  -0.01158  -0.00924
  18        1PX         0.45159   0.00193  -0.00340   0.00719  -0.01126
  19        1PY        -0.29743   0.00547   0.00422  -0.00765  -0.00555
  20        1PZ         0.00640   0.38566   0.60963  -0.43356  -0.49731
  21 6   H  1S         -0.07712  -0.00011  -0.00399   0.00973   0.01008
  22 7   H  1S         -0.30943   0.00297   0.00396   0.00775   0.00737
  23 8   H  1S         -0.07195  -0.00452   0.00300   0.00321   0.00204
  24 9   H  1S          0.24866   0.00786  -0.00156  -0.00136  -0.00166
                          16        17        18        19        20
                           V         V         V         V         V
     Eigenvalues --     0.08953   0.13631   0.14148   0.16257   0.17337
   1 1   C  1S          0.04790  -0.31664   0.17768   0.19769  -0.34812
   2        1PX        -0.11086   0.03414   0.40098  -0.13665   0.19092
   3        1PY         0.01432  -0.11622  -0.00927  -0.24955  -0.35845
   4        1PZ        -0.01528  -0.00072   0.01277   0.00089  -0.00902
   5 2   C  1S         -0.27490   0.19504  -0.23048  -0.25148  -0.15198
   6        1PX        -0.42753   0.04455   0.28638   0.04599  -0.08308
   7        1PY         0.24381  -0.02908   0.09866  -0.24084   0.18545
   8        1PZ         0.01274  -0.00365  -0.01050   0.00563   0.00521
   9 3   O  1S          0.22051  -0.01006   0.03353  -0.08518   0.03012
  10        1PX        -0.21472   0.18526   0.16151  -0.13231  -0.14115
  11        1PY         0.43843   0.03995   0.11966  -0.19458  -0.02334
  12        1PZ         0.00953   0.00089   0.00299  -0.00015   0.00044
  13 4   C  1S         -0.24156  -0.44229  -0.20372  -0.06508   0.21011
  14        1PX         0.03383  -0.08683   0.19806  -0.42965  -0.01837
  15        1PY         0.31041  -0.13356   0.01655  -0.16815   0.14516
  16        1PZ        -0.01120  -0.00669  -0.00503  -0.00989   0.00303
  17 5   C  1S          0.05794   0.34316  -0.16125  -0.17076  -0.11524
  18        1PX        -0.10388   0.08729   0.44996  -0.10315  -0.39119
  19        1PY         0.04283  -0.20420  -0.15264  -0.28500   0.10087
  20        1PZ         0.00922  -0.01206   0.00760   0.01330   0.00566
  21 6   H  1S         -0.08648  -0.19395   0.10296   0.44835   0.16453
  22 7   H  1S          0.35110   0.44548  -0.00772   0.37432  -0.11065
  23 8   H  1S          0.18404  -0.16552   0.50206   0.07717   0.17269
  24 9   H  1S         -0.20814   0.39551   0.15909  -0.09196   0.56284
                          21        22        23        24
                           V         V         V         V
     Eigenvalues --     0.17997   0.18919   0.20951   0.22198
   1 1   C  1S          0.03450   0.08812   0.28333   0.09352
   2        1PX        -0.37358   0.10624   0.30696  -0.19656
   3        1PY        -0.35027  -0.17361  -0.32339  -0.25475
   4        1PZ         0.00187  -0.00007   0.01090   0.00219
   5 2   C  1S         -0.32750  -0.04153  -0.14828   0.01363
   6        1PX         0.19396  -0.39820  -0.20659   0.25667
   7        1PY        -0.06518  -0.24771  -0.37413  -0.40601
   8        1PZ         0.00448   0.00805   0.00594   0.00047
   9 3   O  1S         -0.03713   0.07865  -0.00662   0.04797
  10        1PX        -0.12658  -0.14458  -0.07104   0.47816
  11        1PY        -0.02650   0.22259  -0.00798   0.19740
  12        1PZ        -0.00244   0.00277  -0.00079  -0.00286
  13 4   C  1S          0.02391  -0.06839   0.08151  -0.10685
  14        1PX         0.17029   0.42450  -0.20373   0.21131
  15        1PY        -0.32961  -0.22292   0.05483   0.48981
  16        1PZ         0.00403  -0.00320   0.00326   0.00560
  17 5   C  1S          0.42349   0.03890  -0.04883  -0.04908
  18        1PX        -0.06363   0.07327   0.27791  -0.27453
  19        1PY         0.01609  -0.40358   0.44280   0.03506
  20        1PZ        -0.01962   0.00426  -0.00378  -0.00024
  21 6   H  1S         -0.32978   0.24458  -0.35074   0.08561
  22 7   H  1S         -0.18569  -0.27906   0.08902  -0.01958
  23 8   H  1S          0.31654  -0.32035  -0.18970  -0.05362
  24 9   H  1S         -0.06001   0.08821   0.13106  -0.03594
     Density Matrix:
                           1         2         3         4         5
   1 1   C  1S          1.21515
   2        1PX        -0.05356   0.97366
   3        1PY         0.06309  -0.03923   0.94623
   4        1PZ        -0.00728  -0.00328   0.00145   1.03631
   5 2   C  1S          0.33667  -0.03971  -0.51829   0.01090   1.23140
   6        1PX         0.01699   0.17380  -0.01381   0.00733  -0.09716
   7        1PY         0.48357  -0.08578  -0.57974   0.01804  -0.03701
   8        1PZ        -0.01363  -0.00354   0.01525   0.86148   0.00501
   9 3   O  1S         -0.00125  -0.03362  -0.00754   0.00164   0.08594
  10        1PX         0.01947  -0.00441  -0.05616  -0.00053  -0.35450
  11        1PY        -0.06829  -0.03031   0.03917   0.00086   0.16919
  12        1PZ         0.00359   0.00247  -0.00038  -0.21188   0.00531
  13 4   C  1S         -0.02828  -0.01754   0.00982  -0.00275   0.01400
  14        1PX         0.01781  -0.01063  -0.00246   0.00336   0.00264
  15        1PY        -0.01322  -0.07664  -0.04281   0.00062  -0.04145
  16        1PZ        -0.00147  -0.00523  -0.00320  -0.04771  -0.00206
  17 5   C  1S          0.25713   0.43498   0.16099   0.01120  -0.02994
  18        1PX        -0.44110  -0.61055  -0.27956  -0.00800  -0.00042
  19        1PY        -0.08371  -0.13080   0.05403   0.00114   0.02744
  20        1PZ        -0.01106  -0.01397  -0.00128   0.45669  -0.00051
  21 6   H  1S         -0.05144  -0.07821  -0.02844  -0.00367   0.04922
  22 7   H  1S          0.04141   0.05634   0.02139   0.00153   0.05260
  23 8   H  1S         -0.05900   0.00456   0.08834  -0.00255   0.61445
  24 9   H  1S          0.56315  -0.59896   0.51351  -0.00043  -0.06272
                           6         7         8         9        10
   6        1PX         0.83814
   7        1PY         0.08946   0.93422
   8        1PZ         0.00313   0.00299   1.09232
   9 3   O  1S          0.23293  -0.09886  -0.00272   1.86410
  10        1PX        -0.64513   0.31927   0.00804   0.04017   1.17071
  11        1PY         0.40003  -0.05910  -0.00504  -0.28844  -0.05534
  12        1PZ         0.01347  -0.00302   0.36161  -0.00343   0.00586
  13 4   C  1S          0.01523  -0.03344   0.00365   0.11146   0.26805
  14        1PX         0.03889  -0.00905   0.00021  -0.17908  -0.20141
  15        1PY         0.02924  -0.01191   0.00448  -0.21382  -0.43447
  16        1PZ        -0.00232  -0.00340  -0.32546  -0.00193  -0.00124
  17 5   C  1S         -0.02072  -0.01771  -0.00189  -0.00045   0.03037
  18        1PX        -0.07151   0.07535  -0.00344   0.03722  -0.05313
  19        1PY         0.02233  -0.01526  -0.00126  -0.00012   0.01306
  20        1PZ        -0.00419   0.00220  -0.10936   0.00161  -0.00319
  21 6   H  1S          0.00467   0.05059   0.00065   0.01784   0.02230
  22 7   H  1S          0.10900  -0.03430  -0.00336  -0.04186  -0.04015
  23 8   H  1S         -0.52256  -0.52830   0.00577  -0.03892   0.05923
  24 9   H  1S         -0.03629  -0.05515   0.00386   0.02637  -0.08949
                          11        12        13        14        15
  11        1PY         1.32818
  12        1PZ        -0.00682   1.73651
  13 4   C  1S          0.35568   0.00051   1.26553
  14        1PX        -0.50471  -0.00447   0.10025   0.94354
  15        1PY        -0.43497  -0.00434   0.03670  -0.07299   0.86978
  16        1PZ        -0.00288   0.45303  -0.00453   0.00005  -0.00627
  17 5   C  1S         -0.08749  -0.00687   0.27437  -0.20799   0.38711
  18        1PX        -0.00501   0.00363   0.27050  -0.07038   0.38113
  19        1PY         0.08300  -0.00161  -0.42242   0.28358  -0.45337
  20        1PZ         0.00576  -0.27605  -0.00986   0.00043  -0.01056
  21 6   H  1S          0.08284   0.00461  -0.05730   0.04843  -0.05240
  22 7   H  1S         -0.07776  -0.00153   0.60792   0.71908  -0.17821
  23 8   H  1S         -0.05275  -0.00147   0.04510  -0.05784  -0.06011
  24 9   H  1S          0.07719   0.00014   0.05151  -0.02448   0.05590
                          16        17        18        19        20
  16        1PZ         1.00600
  17 5   C  1S          0.01928   1.24916
  18        1PX         0.00242   0.02021   0.90652
  19        1PY        -0.00263   0.07605   0.03634   0.96249
  20        1PZ         0.82819   0.01216  -0.00176  -0.00168   1.12759
  21 6   H  1S         -0.00809   0.60222   0.30868   0.69488  -0.01760
  22 7   H  1S          0.00718  -0.06051  -0.05015   0.08866   0.00548
  23 8   H  1S         -0.00059   0.05348  -0.07042  -0.01788  -0.00052
  24 9   H  1S          0.00024  -0.04453   0.05277   0.02151   0.00208
                          21        22        23        24
  21 6   H  1S          0.83421
  22 7   H  1S          0.01540   0.81016
  23 8   H  1S         -0.02029  -0.02321   0.81838
  24 9   H  1S         -0.00267  -0.00812   0.00799   0.83968
    Full Mulliken population analysis:
                           1         2         3         4         5
   1 1   C  1S          1.21515
   2        1PX         0.00000   0.97366
   3        1PY         0.00000   0.00000   0.94623
   4        1PZ         0.00000   0.00000   0.00000   1.03631
   5 2   C  1S          0.00000   0.00000   0.00000   0.00000   1.23140
   6        1PX         0.00000   0.00000   0.00000   0.00000   0.00000
   7        1PY         0.00000   0.00000   0.00000   0.00000   0.00000
   8        1PZ         0.00000   0.00000   0.00000   0.00000   0.00000
   9 3   O  1S          0.00000   0.00000   0.00000   0.00000   0.00000
  10        1PX         0.00000   0.00000   0.00000   0.00000   0.00000
  11        1PY         0.00000   0.00000   0.00000   0.00000   0.00000
  12        1PZ         0.00000   0.00000   0.00000   0.00000   0.00000
  13 4   C  1S          0.00000   0.00000   0.00000   0.00000   0.00000
  14        1PX         0.00000   0.00000   0.00000   0.00000   0.00000
  15        1PY         0.00000   0.00000   0.00000   0.00000   0.00000
  16        1PZ         0.00000   0.00000   0.00000   0.00000   0.00000
  17 5   C  1S          0.00000   0.00000   0.00000   0.00000   0.00000
  18        1PX         0.00000   0.00000   0.00000   0.00000   0.00000
  19        1PY         0.00000   0.00000   0.00000   0.00000   0.00000
  20        1PZ         0.00000   0.00000   0.00000   0.00000   0.00000
  21 6   H  1S          0.00000   0.00000   0.00000   0.00000   0.00000
  22 7   H  1S          0.00000   0.00000   0.00000   0.00000   0.00000
  23 8   H  1S          0.00000   0.00000   0.00000   0.00000   0.00000
  24 9   H  1S          0.00000   0.00000   0.00000   0.00000   0.00000
                           6         7         8         9        10
   6        1PX         0.83814
   7        1PY         0.00000   0.93422
   8        1PZ         0.00000   0.00000   1.09232
   9 3   O  1S          0.00000   0.00000   0.00000   1.86410
  10        1PX         0.00000   0.00000   0.00000   0.00000   1.17071
  11        1PY         0.00000   0.00000   0.00000   0.00000   0.00000
  12        1PZ         0.00000   0.00000   0.00000   0.00000   0.00000
  13 4   C  1S          0.00000   0.00000   0.00000   0.00000   0.00000
  14        1PX         0.00000   0.00000   0.00000   0.00000   0.00000
  15        1PY         0.00000   0.00000   0.00000   0.00000   0.00000
  16        1PZ         0.00000   0.00000   0.00000   0.00000   0.00000
  17 5   C  1S          0.00000   0.00000   0.00000   0.00000   0.00000
  18        1PX         0.00000   0.00000   0.00000   0.00000   0.00000
  19        1PY         0.00000   0.00000   0.00000   0.00000   0.00000
  20        1PZ         0.00000   0.00000   0.00000   0.00000   0.00000
  21 6   H  1S          0.00000   0.00000   0.00000   0.00000   0.00000
  22 7   H  1S          0.00000   0.00000   0.00000   0.00000   0.00000
  23 8   H  1S          0.00000   0.00000   0.00000   0.00000   0.00000
  24 9   H  1S          0.00000   0.00000   0.00000   0.00000   0.00000
                          11        12        13        14        15
  11        1PY         1.32818
  12        1PZ         0.00000   1.73651
  13 4   C  1S          0.00000   0.00000   1.26553
  14        1PX         0.00000   0.00000   0.00000   0.94354
  15        1PY         0.00000   0.00000   0.00000   0.00000   0.86978
  16        1PZ         0.00000   0.00000   0.00000   0.00000   0.00000
  17 5   C  1S          0.00000   0.00000   0.00000   0.00000   0.00000
  18        1PX         0.00000   0.00000   0.00000   0.00000   0.00000
  19        1PY         0.00000   0.00000   0.00000   0.00000   0.00000
  20        1PZ         0.00000   0.00000   0.00000   0.00000   0.00000
  21 6   H  1S          0.00000   0.00000   0.00000   0.00000   0.00000
  22 7   H  1S          0.00000   0.00000   0.00000   0.00000   0.00000
  23 8   H  1S          0.00000   0.00000   0.00000   0.00000   0.00000
  24 9   H  1S          0.00000   0.00000   0.00000   0.00000   0.00000
                          16        17        18        19        20
  16        1PZ         1.00600
  17 5   C  1S          0.00000   1.24916
  18        1PX         0.00000   0.00000   0.90652
  19        1PY         0.00000   0.00000   0.00000   0.96249
  20        1PZ         0.00000   0.00000   0.00000   0.00000   1.12759
  21 6   H  1S          0.00000   0.00000   0.00000   0.00000   0.00000
  22 7   H  1S          0.00000   0.00000   0.00000   0.00000   0.00000
  23 8   H  1S          0.00000   0.00000   0.00000   0.00000   0.00000
  24 9   H  1S          0.00000   0.00000   0.00000   0.00000   0.00000
                          21        22        23        24
  21 6   H  1S          0.83421
  22 7   H  1S          0.00000   0.81016
  23 8   H  1S          0.00000   0.00000   0.81838
  24 9   H  1S          0.00000   0.00000   0.00000   0.83968
     Gross orbital populations:
                           1
   1 1   C  1S          1.21515
   2        1PX         0.97366
   3        1PY         0.94623
   4        1PZ         1.03631
   5 2   C  1S          1.23140
   6        1PX         0.83814
   7        1PY         0.93422
   8        1PZ         1.09232
   9 3   O  1S          1.86410
  10        1PX         1.17071
  11        1PY         1.32818
  12        1PZ         1.73651
  13 4   C  1S          1.26553
  14        1PX         0.94354
  15        1PY         0.86978
  16        1PZ         1.00600
  17 5   C  1S          1.24916
  18        1PX         0.90652
  19        1PY         0.96249
  20        1PZ         1.12759
  21 6   H  1S          0.83421
  22 7   H  1S          0.81016
  23 8   H  1S          0.81838
  24 9   H  1S          0.83968
          Condensed to atoms (all electrons):
               1          2          3          4          5          6
     1  C    4.171350   0.000000   0.000000   0.000000   0.000000   0.000000
     2  C    0.000000   4.096085   0.000000   0.000000   0.000000   0.000000
     3  O    0.000000   0.000000   6.099504   0.000000   0.000000   0.000000
     4  C    0.000000   0.000000   0.000000   4.084860   0.000000   0.000000
     5  C    0.000000   0.000000   0.000000   0.000000   4.245770   0.000000
     6  H    0.000000   0.000000   0.000000   0.000000   0.000000   0.834208
     7  H    0.000000   0.000000   0.000000   0.000000   0.000000   0.000000
     8  H    0.000000   0.000000   0.000000   0.000000   0.000000   0.000000
     9  H    0.000000   0.000000   0.000000   0.000000   0.000000   0.000000
               7          8          9
     1  C    0.000000   0.000000   0.000000
     2  C    0.000000   0.000000   0.000000
     3  O    0.000000   0.000000   0.000000
     4  C    0.000000   0.000000   0.000000
     5  C    0.000000   0.000000   0.000000
     6  H    0.000000   0.000000   0.000000
     7  H    0.810159   0.000000   0.000000
     8  H    0.000000   0.818385   0.000000
     9  H    0.000000   0.000000   0.839678
 Mulliken charges:
               1
     1  C   -0.171350
     2  C   -0.096085
     3  O   -0.099504
     4  C   -0.084860
     5  C   -0.245770
     6  H    0.165792
     7  H    0.189841
     8  H    0.181615
     9  H    0.160322
 Sum of Mulliken charges =   0.00000
 Mulliken charges with hydrogens summed into heavy atoms:
               1
     1  C   -0.011028
     2  C    0.085530
     3  O   -0.099504
     4  C    0.104981
     5  C   -0.079979
 Charge=              0.0000 electrons
 Dipole moment (field-independent basis, Debye):
    X=             -0.0481    Y=              0.4549    Z=             -0.0164  Tot=              0.4578
 N-N= 1.028393122451D+02 E-N=-1.700170614479D+02  KE=-1.647961527816D+01
 Orbital energies and kinetic energies (alpha):
                                 1                 2
   1         O                -1.542717         -1.294455
   2         O                -1.230082         -1.045427
   3         O                -1.091002         -0.957620
   4         O                -0.821843         -0.712384
   5         O                -0.802532         -0.714675
   6         O                -0.679755         -0.599822
   7         O                -0.592968         -0.481258
   8         O                -0.568488         -0.506126
   9         O                -0.517714         -0.437959
  10         O                -0.496000         -0.426177
  11         O                -0.484208         -0.408581
  12         O                -0.398483         -0.345226
  13         O                -0.339255         -0.310097
  14         V                 0.029824         -0.197177
  15         V                 0.063769         -0.191070
  16         V                 0.089527         -0.195609
  17         V                 0.136307         -0.246959
  18         V                 0.141483         -0.189591
  19         V                 0.162567         -0.179749
  20         V                 0.173373         -0.196908
  21         V                 0.179972         -0.168300
  22         V                 0.189193         -0.136372
  23         V                 0.209515         -0.126505
  24         V                 0.221981         -0.047974
 Total kinetic energy from orbitals=-1.647961527816D+01
 Leave Link  601 at Tue Dec 15 16:13:46 2015, MaxMem=    33554432 cpu:         0.0
 (Enter /home/Applications/g09/g09/l701.exe)
 Compute integral first derivatives.
 ... and contract with generalized density number  6.
 Leave Link  701 at Tue Dec 15 16:13:46 2015, MaxMem=    33554432 cpu:         0.0
 (Enter /home/Applications/g09/g09/l702.exe)
 L702 exits ... SP integral derivatives will be done elsewhere.
 Leave Link  702 at Tue Dec 15 16:13:46 2015, MaxMem=    33554432 cpu:         0.0
 (Enter /home/Applications/g09/g09/l703.exe)
 Compute integral first derivatives, UseDBF=F ICtDFT=           0.
 Integral derivatives from FoFJK, PRISM(SPDF).
 Calling FoFJK, ICntrl=  10005127 FMM=F ISym2X=0 I1Cent= 0 IOpClX= 0 NMat=1 NMatS=1 NMatT=0.
 FoFJK:  IHMeth= 8 ICntrl=10005127 DoSepK=F KAlg= 0 I1Cent=   0 FoldK=F
 IRaf=         0 NMat=   1 IRICut=       1 DoRegI=T DoRafI=F ISym2E= 0.
 FoFCou: FMM=F IPFlag=           0 FMFlag=      100000 FMFlg1=         800
         NFxFlg=           0 DoJE=F BraDBF=F KetDBF=F FulRan=T
         wScrn=  0.000000 ICntrl=10005127 IOpCl=  0 I1Cent=           0 NGrid=           0
         NMat0=    1 NMatS0=      1 NMatT0=    0 NMatD0=    1 NMtDS0=    0 NMtDT0=    0
 Symmetry not used in FoFCou.
 Leave Link  703 at Tue Dec 15 16:13:46 2015, MaxMem=    33554432 cpu:         0.0
 (Enter /home/Applications/g09/g09/l716.exe)
 Dipole        = 9.74565338D-02 3.28998191D-01 4.27069481D-03
 ***** Axes restored to original set *****
 -------------------------------------------------------------------
 Center     Atomic                   Forces (Hartrees/Bohr)
 Number     Number              X              Y              Z
 -------------------------------------------------------------------
      1        6           0.186311506    0.069568701   -0.001793843
      2        6          -0.107743820   -0.035356499    0.000049437
      3        8          -0.063932812   -0.014146210   -0.000263942
      4        6           0.015734524    0.049974835   -0.003735584
      5        6          -0.005028460   -0.054128012    0.006898443
      6        1           0.012170527    0.000706361   -0.001354380
      7        1          -0.003037837   -0.005810602    0.000711737
      8        1          -0.017845836   -0.022901781   -0.000923333
      9        1          -0.016627793    0.012093206    0.000411464
 -------------------------------------------------------------------
 Cartesian Forces:  Max     0.186311506 RMS     0.048657458
 Z-matrix is all fixed cartesians, so copy forces.
 Force constants in Cartesian coordinates: 
                1             2             3             4             5 
      1  0.103716D+01
      2  0.538405D-01  0.738059D+00
      3  0.160286D-01 -0.109680D-02  0.216147D+00
      4 -0.660863D+00 -0.152170D+00 -0.136781D-01  0.105433D+01
      5 -0.129474D+00 -0.250273D+00 -0.406293D-02  0.135706D+00  0.858141D+00
      6 -0.143692D-01 -0.417623D-02 -0.131588D+00  0.149964D-01  0.120558D-01
      7 -0.887206D-02  0.287969D-01  0.468373D-03 -0.239689D+00  0.115258D+00
      8 -0.673249D-02  0.218609D-01  0.275533D-03  0.158752D+00 -0.288350D+00
      9 -0.575785D-03  0.104185D-02  0.666659D-02  0.180407D-02 -0.344077D-02
     10  0.845939D-02 -0.426653D-03 -0.993602D-04  0.236020D-01  0.179244D-01
     11  0.318458D-01 -0.160868D-02 -0.390342D-03 -0.171342D-01 -0.130138D-01
     12 -0.645726D-03  0.150908D-03  0.224801D-02 -0.207743D-03 -0.231330D-03
     13 -0.159215D+00  0.191960D-02 -0.188265D-02  0.107872D-01 -0.351566D-01
     14 -0.213482D-01 -0.351803D+00  0.621263D-02 -0.538472D-03  0.175395D-02
     15 -0.189748D-02  0.535990D-02 -0.702485D-01  0.281953D-03 -0.104245D-02
     16  0.183819D-01 -0.917463D-03  0.536580D-03  0.668491D-05 -0.353804D-05
     17 -0.215882D-01  0.106443D-02 -0.155613D-02 -0.170238D-05  0.000000D+00
     18  0.132534D-02  0.140589D-03  0.146933D-01 -0.968274D-04  0.512466D-04
     19  0.000000D+00  0.000000D+00  0.356884D-04  0.000000D+00  0.000000D+00
     20  0.000000D+00  0.100973D-05  0.737076D-04  0.000000D+00  0.000000D+00
     21  0.292134D-04  0.493404D-04  0.360171D-02  0.288784D-04 -0.385172D-04
     22  0.856553D-02 -0.277724D-01 -0.831764D-03 -0.182992D+00 -0.121113D+00
     23 -0.464759D-02  0.151326D-01 -0.341097D-03 -0.117147D+00 -0.332541D+00
     24 -0.542056D-03 -0.151439D-02  0.408776D-01 -0.206271D-02 -0.393719D-02
     25 -0.243617D+00  0.967295D-01 -0.577394D-03 -0.517903D-02  0.168578D-01
     26  0.981039D-01 -0.172433D+00  0.885431D-03 -0.746638D-02  0.242820D-01
     27  0.647014D-03  0.448319D-04 -0.823984D-01 -0.106593D-02  0.646100D-03
                6             7             8             9            10 
      6  0.234475D+00
      7  0.100506D-02  0.523462D+00
      8 -0.303572D-02  0.813940D-01  0.684783D+00
      9 -0.463235D-01 -0.673059D-03  0.404602D-02  0.501676D-01
     10  0.145204D-03 -0.310803D+00 -0.238238D+00 -0.155159D-02  0.814604D+00
     11 -0.142339D-03 -0.195836D+00 -0.423007D+00 -0.175195D-02  0.578196D-01
     12 -0.139644D-02 -0.600637D-03 -0.932092D-03 -0.405547D-01  0.113830D-02
     13  0.119434D-02 -0.759347D-02  0.550682D-02  0.351223D-03 -0.380886D+00
     14 -0.242902D-04 -0.285626D-01  0.207391D-01  0.437299D-03  0.692820D-01
     15 -0.285140D-02 -0.409592D-04  0.185465D-03  0.711611D-02  0.196463D-02
     16 -0.226948D-03  0.000000D+00  0.000000D+00 -0.378369D-04 -0.487399D-02
     17  0.577946D-04  0.000000D+00  0.112714D-05 -0.210132D-03  0.568339D-02
     18  0.328722D-02  0.122616D-04 -0.215963D-04  0.402618D-02  0.293427D-03
     19 -0.904710D-04  0.226953D-01 -0.164794D-01  0.539770D-03 -0.150102D+00
     20  0.481354D-04  0.102540D-01 -0.744583D-02  0.317768D-03  0.879553D-01
     21  0.556652D-02  0.146797D-03 -0.121163D-03  0.462507D-02 -0.192391D-02
     22 -0.233923D-02  0.207978D-01  0.157935D-01  0.299534D-03  0.000000D+00
     23 -0.459249D-02 -0.113069D-01 -0.858500D-02 -0.277600D-03  0.000000D+00
     24 -0.963346D-01 -0.173257D-03 -0.195774D-03  0.590974D-02  0.145930D-04
     25 -0.315227D-03  0.270124D-05  0.374937D-05 -0.156326D-03  0.000000D+00
     26 -0.190699D-03  0.280772D-05  0.389716D-05 -0.162488D-03  0.000000D+00
     27  0.351649D-01 -0.144576D-03 -0.200675D-03  0.836690D-02  0.187139D-04
               11            12            13            14            15 
     11  0.900745D+00
     12 -0.222326D-02  0.147834D+00
     13  0.490121D-01  0.340923D-02  0.778774D+00
     14 -0.181518D+00 -0.116048D-02  0.845025D-01  0.727281D+00
     15 -0.116388D-02 -0.728170D-01  0.108875D-01  0.443494D-02  0.158873D+00
     16 -0.183192D-01 -0.137244D-02 -0.263939D+00 -0.127638D+00 -0.103857D-01
     17  0.213786D-01  0.575315D-03 -0.130969D+00 -0.226652D+00 -0.775291D-02
     18  0.829918D-03  0.163053D-01 -0.125999D-01 -0.947267D-02 -0.615798D-01
     19  0.926114D-01 -0.171278D-02  0.666273D-02  0.250825D-01 -0.515535D-03
     20 -0.302977D+00  0.383347D-02  0.300739D-02  0.113168D-01  0.534963D-04
     21  0.482971D-02 -0.567389D-01 -0.138292D-03 -0.821780D-03  0.179105D-01
     22  0.000000D+00 -0.184525D-04  0.647889D-05 -0.342900D-05 -0.219954D-03
     23  0.000000D+00 -0.445631D-04  0.208014D-05 -0.110093D-05 -0.706192D-04
     24 -0.194637D-04  0.281290D-02 -0.288693D-03  0.152793D-03  0.980094D-02
     25  0.000000D+00  0.102491D-04  0.154027D-01 -0.776160D-03 -0.744522D-04
     26  0.000000D+00  0.320330D-04  0.221747D-01 -0.111595D-02 -0.393831D-05
     27  0.316071D-04  0.230723D-02 -0.932846D-03  0.241563D-03  0.137956D-01
               16            17            18            19            20 
     16  0.250422D+00
     17  0.146873D+00  0.204202D+00
     18  0.111427D-01  0.865130D-02  0.333464D-01
     19  0.000000D+00  0.305344D-05 -0.585046D-04  0.120744D+00
     20  0.113553D-05  0.630631D-05 -0.120830D-03 -0.101219D+00  0.299099D+00
     21  0.554874D-04  0.308156D-03 -0.590434D-02  0.180183D-02 -0.420575D-02
     22  0.000000D+00  0.000000D+00  0.000000D+00  0.000000D+00  0.000000D+00
     23  0.000000D+00  0.000000D+00  0.000000D+00  0.000000D+00  0.000000D+00
     24  0.000000D+00  0.000000D+00  0.000000D+00  0.000000D+00  0.000000D+00
     25  0.128020D-05  0.000000D+00 -0.185430D-04  0.000000D+00  0.000000D+00
     26  0.400120D-05 -0.101894D-05 -0.579552D-04  0.000000D+00  0.000000D+00
     27  0.288192D-03 -0.733910D-04 -0.417431D-02  0.000000D+00  0.000000D+00
               21            22            23            24            25 
     21  0.309395D-01
     22  0.000000D+00  0.153629D+00
     23  0.000000D+00  0.133101D+00  0.325996D+00
     24  0.000000D+00  0.276509D-02  0.521567D-02  0.522960D-01
     25  0.000000D+00 -0.644160D-05 -0.206817D-05  0.287032D-03  0.233395D+00
     26  0.000000D+00 -0.669552D-05 -0.214969D-05  0.298346D-03 -0.112813D+00
     27  0.000000D+00  0.344769D-03  0.110693D-03 -0.153626D-01  0.844661D-03
               26            27 
     26  0.149266D+00
     27 -0.800729D-03  0.423006D-01
 Leave Link  716 at Tue Dec 15 16:13:46 2015, MaxMem=    33554432 cpu:         0.0
 (Enter /home/Applications/g09/g09/l103.exe)

 GradGradGradGradGradGradGradGradGradGradGradGradGradGradGradGradGradGrad
 Berny optimization.
 Search for a local minimum.
 Step number   1 out of a maximum of    2
 All quantities printed in internal units (Hartrees-Bohrs-Radians)
 Second derivative matrix not updated -- first step.
 ITU=  0
     Eigenvalues ---    0.01507   0.02870   0.06837   0.07192   0.07771
     Eigenvalues ---    0.08015   0.12545   0.12959   0.15652   0.23754
     Eigenvalues ---    0.25436   0.26401   0.41372   0.43066   0.62025
     Eigenvalues ---    0.76864   1.04430   1.23342   1.26273   1.52174
     Eigenvalues ---    1.86692
 Quadratic step=3.781D-01 exceeds max=3.000D-01 adjusted using Lamda=-3.442D-02.
 Angle between NR and scaled steps=  12.61 degrees.
 Angle between quadratic step and forces=  45.31 degrees.
 Linear search not attempted -- first point.
 TrRot= -0.007120  0.001952  0.000715 -2.953824  0.000856  2.954241
 Variable       Old X    -DE/DX   Delta X   Delta X   Delta X     New X
                                 (Linear)    (Quad)   (Total)
    X1        1.75666   0.18631   0.00000   0.15468   0.14813   1.90479
    Y1       -1.41297   0.06957   0.00000   0.05115   0.05390  -1.35907
    Z1        0.00475  -0.00179   0.00000  -0.01261  -0.01050  -0.00576
    X2       -0.56995  -0.10774   0.00000  -0.04799  -0.05418  -0.62413
    Y2       -2.12883  -0.03536   0.00000  -0.01258  -0.01087  -2.13970
    Z2       -0.05263   0.00005   0.00000   0.00989   0.00974  -0.04288
    X3       -2.21028  -0.06393   0.00000  -0.13290  -0.14001  -2.35029
    Y3        0.03082  -0.01415   0.00000   0.01046   0.01144   0.04226
    Z3       -0.02917  -0.00026   0.00000  -0.00283  -0.00408  -0.03325
    X4       -0.73157   0.01573   0.00000  -0.01030  -0.01826  -0.74983
    Y4        2.06749   0.04997   0.00000   0.01812   0.01977   2.08726
    Z4       -0.02275  -0.00374   0.00000  -0.01231  -0.01189  -0.03464
    X5        1.89667  -0.00503   0.00000   0.03233   0.02467   1.92133
    Y5        1.36911  -0.05413   0.00000  -0.05257  -0.04982   1.31929
    Z5       -0.03450   0.00690   0.00000   0.02897   0.03151  -0.00299
    X6        3.42756   0.01217   0.00000   0.07386   0.06561   3.49317
    Y6        2.67771   0.00071   0.00000  -0.06177  -0.05836   2.61935
    Z6        0.04818  -0.00135   0.00000  -0.00021   0.00387   0.05206
    X7       -1.58161  -0.00304   0.00000  -0.00798  -0.01670  -1.59831
    Y7        3.94933  -0.00581   0.00000   0.00510   0.00640   3.95572
    Z7       -0.05284   0.00071   0.00000  -0.00916  -0.00915  -0.06199
    X8       -1.51795  -0.01785   0.00000  -0.09158  -0.09699  -1.61494
    Y8       -3.87204  -0.02290   0.00000  -0.06104  -0.05975  -3.93179
    Z8       -0.08646  -0.00092   0.00000   0.00667   0.00540  -0.08106
    X9        3.50114  -0.01663   0.00000   0.09379   0.08774   3.58887
    Y9       -2.62432   0.01209   0.00000   0.08384   0.08729  -2.53703
    Z9        0.01382   0.00041   0.00000  -0.01824  -0.01490  -0.00109
         Item               Value     Threshold  Converged?
 Maximum Force            0.186312     0.000450     NO 
 RMS     Force            0.048657     0.000300     NO 
 Maximum Displacement     0.148132     0.001800     NO 
 RMS     Displacement     0.057568     0.001200     NO 
 Predicted change in Energy=-2.822592D-02
 GradGradGradGradGradGradGradGradGradGradGradGradGradGradGradGradGradGrad

 Leave Link  103 at Tue Dec 15 16:13:46 2015, MaxMem=    33554432 cpu:         0.0
 (Enter /home/Applications/g09/g09/l9999.exe)
 1\1\GINC-DUSTIN-DESKTOP\Force\RAM1-FC\STO-3G\C4H4O1\DUSTIN\15-Dec-2015
 \0\\#P AM1(Input,print) CIS(Singlets,NStates=15) pop(full) force\\AM1-
 Reparam Input\\0,1\C,0.929586,-0.747713,0.002512\C,-0.301604,-1.126526
 ,-0.027848\O,-1.169632,0.016308,-0.015437\C,-0.387132,1.09407,-0.01203
 9\C,1.003672,0.7245,-0.018257\H,1.813788,1.416984,0.025498\H,-0.836953
 ,2.089893,-0.027961\H,-0.803262,-2.048997,-0.045753\H,1.852723,-1.3887
 29,0.007311\\Version=ES64L-G09RevD.01\State=1-A\HF=0.0259272\RMSD=4.69
 5e-09\RMSF=4.866e-02\Dipole=0.2953511,0.1747032,-0.0015238\PG=C01 [X(C
 4H4O1)]\\@


 CHARLIE BROWN.."I CAN'T GET THAT STUPID KITE IN THE
 AIR... I CAN'T... I C A N N O T..."
 LUCY.."OH COME NOW CHARLIE BROWN...THAT'S NO WAY TO TALK...
 THE TROUBLE WITH YOU IS YOU DON'T BELIEVE IN YOURSELF... YOU
 DON'T BELIEVE IN YOUR OWN ABILITIES...  YOU'VE GOT TO SAY TO
 YOURSELF...'I BELIEVE I CAN FLY THIS KITE.'... GO AHEAD SAY
 IT...."
 CHARLIE BROWN.."I BELIEVE THAT I CAN FLY THIS STUPID
 KITE.....I BELIEVE THAT I CAN FLY THIS KITE........
 I  A C T U A L L Y  B E L I E V E  T H A T  I  C A N ******"
 LUCY.."I'LL BET YOU TEN-TO-ONE YOU'RE WRONG......."    SCHULZ
 Job cpu time:       0 days  0 hours  0 minutes  0.4 seconds.
 File lengths (MBytes):  RWF=      7 Int=      0 D2E=      0 Chk=      2 Scr=      1
 Normal termination of Gaussian 09 at Tue Dec 15 16:13:46 2015.
