 Entering Gaussian System, Link 0=g09
 Input=FuranAM1_32P6.com
 Output=FuranAM1_32P6.log
 Initial command:
 /home/Applications/g09/g09/l1.exe "/home/Applications/g09/scratch/Gau-8160.inp" -scrdir="/home/Applications/g09/scratch/"
 Entering Link 1 = /home/Applications/g09/g09/l1.exe PID=      8162.
  
 Copyright (c) 1988,1990,1992,1993,1995,1998,2003,2009,2013,
            Gaussian, Inc.  All Rights Reserved.
  
 This is part of the Gaussian(R) 09 program.  It is based on
 the Gaussian(R) 03 system (copyright 2003, Gaussian, Inc.),
 the Gaussian(R) 98 system (copyright 1998, Gaussian, Inc.),
 the Gaussian(R) 94 system (copyright 1995, Gaussian, Inc.),
 the Gaussian 92(TM) system (copyright 1992, Gaussian, Inc.),
 the Gaussian 90(TM) system (copyright 1990, Gaussian, Inc.),
 the Gaussian 88(TM) system (copyright 1988, Gaussian, Inc.),
 the Gaussian 86(TM) system (copyright 1986, Carnegie Mellon
 University), and the Gaussian 82(TM) system (copyright 1983,
 Carnegie Mellon University). Gaussian is a federally registered
 trademark of Gaussian, Inc.
  
 This software contains proprietary and confidential information,
 including trade secrets, belonging to Gaussian, Inc.
  
 This software is provided under written license and may be
 used, copied, transmitted, or stored only in accord with that
 written license.
  
 The following legend is applicable only to US Government
 contracts under FAR:
  
                    RESTRICTED RIGHTS LEGEND
  
 Use, reproduction and disclosure by the US Government is
 subject to restrictions as set forth in subparagraphs (a)
 and (c) of the Commercial Computer Software - Restricted
 Rights clause in FAR 52.227-19.
  
 Gaussian, Inc.
 340 Quinnipiac St., Bldg. 40, Wallingford CT 06492
  
  
 ---------------------------------------------------------------
 Warning -- This program may not be used in any manner that
 competes with the business of Gaussian, Inc. or will provide
 assistance to any competitor of Gaussian, Inc.  The licensee
 of this program is prohibited from giving any competitor of
 Gaussian, Inc. access to this program.  By using this program,
 the user acknowledges that Gaussian, Inc. is engaged in the
 business of creating and licensing software in the field of
 computational chemistry and represents and warrants to the
 licensee that it is not a competitor of Gaussian, Inc. and that
 it will not use this program in any manner prohibited above.
 ---------------------------------------------------------------
  

 Cite this work as:
 Gaussian 09, Revision D.01,
 M. J. Frisch, G. W. Trucks, H. B. Schlegel, G. E. Scuseria, 
 M. A. Robb, J. R. Cheeseman, G. Scalmani, V. Barone, B. Mennucci, 
 G. A. Petersson, H. Nakatsuji, M. Caricato, X. Li, H. P. Hratchian, 
 A. F. Izmaylov, J. Bloino, G. Zheng, J. L. Sonnenberg, M. Hada, 
 M. Ehara, K. Toyota, R. Fukuda, J. Hasegawa, M. Ishida, T. Nakajima, 
 Y. Honda, O. Kitao, H. Nakai, T. Vreven, J. A. Montgomery, Jr., 
 J. E. Peralta, F. Ogliaro, M. Bearpark, J. J. Heyd, E. Brothers, 
 K. N. Kudin, V. N. Staroverov, T. Keith, R. Kobayashi, J. Normand, 
 K. Raghavachari, A. Rendell, J. C. Burant, S. S. Iyengar, J. Tomasi, 
 M. Cossi, N. Rega, J. M. Millam, M. Klene, J. E. Knox, J. B. Cross, 
 V. Bakken, C. Adamo, J. Jaramillo, R. Gomperts, R. E. Stratmann, 
 O. Yazyev, A. J. Austin, R. Cammi, C. Pomelli, J. W. Ochterski, 
 R. L. Martin, K. Morokuma, V. G. Zakrzewski, G. A. Voth, 
 P. Salvador, J. J. Dannenberg, S. Dapprich, A. D. Daniels, 
 O. Farkas, J. B. Foresman, J. V. Ortiz, J. Cioslowski, 
 and D. J. Fox, Gaussian, Inc., Wallingford CT, 2013.
 
 ******************************************
 Gaussian 09:  ES64L-G09RevD.01 24-Apr-2013
                15-Dec-2015 
 ******************************************
 ------------------------------------------------------------
 #P AM1(Input,print) CIS(Singlets,NStates=15) pop(full) force
 ------------------------------------------------------------
 1/10=7,30=1,38=1/1,3;
 2/12=2,17=6,18=5,40=1/2;
 3/5=2,16=1,25=1,41=700000,71=1,135=100,136=1/1,2,8,3;
 4/35=1/1;
 5/5=2,35=1,38=5/2;
 8/6=1,10=1,108=15/1;
 9/15=2,41=15,42=1,48=1,49=10/14;
 10/5=4/2;
 6/7=3,18=1/1;
 7/12=6,13=5,29=1/1,2,3,16;
 1/10=7,30=1/3;
 99//99;
 Leave Link    1 at Tue Dec 15 17:06:15 2015, MaxMem=           0 cpu:         0.0
 (Enter /home/Applications/g09/g09/l101.exe)
 -----------------
 AM1-Reparam Input
 -----------------
 Symbolic Z-matrix:
 Charge =  0 Multiplicity = 1
 6                     0.92657  -0.72557   0.03778 
 6                    -0.31083  -1.05086  -0.02446 
 8                    -1.1181    0.03851  -0.03296 
 6                    -0.38889   1.12792  -0.02673 
 6                     0.9055    0.67112  -0.01147 
 1                     1.77394   1.37038   0.03757 
 1                    -0.88875   2.07877  -0.0466 
 1                    -0.86223  -2.09339  -0.01119 
 1                     1.76244  -1.32539  -0.02262 
 
 NAtoms=      9 NQM=        9 NQMF=       0 NMMI=      0 NMMIF=      0
                NMic=       0 NMicF=      0.
                    Isotopes and Nuclear Properties:
 (Nuclear quadrupole moments (NQMom) in fm**2, nuclear magnetic moments (NMagM)
  in nuclear magnetons)

  Atom         1           2           3           4           5           6           7           8           9
 IAtWgt=          12          12          16          12          12           1           1           1           1
 AtmWgt=  12.0000000  12.0000000  15.9949146  12.0000000  12.0000000   1.0078250   1.0078250   1.0078250   1.0078250
 NucSpn=           0           0           0           0           0           1           1           1           1
 AtZEff=   0.0000000   0.0000000   0.0000000   0.0000000   0.0000000   0.0000000   0.0000000   0.0000000   0.0000000
 NQMom=    0.0000000   0.0000000   0.0000000   0.0000000   0.0000000   0.0000000   0.0000000   0.0000000   0.0000000
 NMagM=    0.0000000   0.0000000   0.0000000   0.0000000   0.0000000   2.7928460   2.7928460   2.7928460   2.7928460
 AtZNuc=   6.0000000   6.0000000   8.0000000   6.0000000   6.0000000   1.0000000   1.0000000   1.0000000   1.0000000
 Leave Link  101 at Tue Dec 15 17:06:15 2015, MaxMem=    33554432 cpu:         0.0
 (Enter /home/Applications/g09/g09/l103.exe)

 GradGradGradGradGradGradGradGradGradGradGradGradGradGradGradGradGradGrad
 Berny optimization.
 Initialization pass.
 Trust Radius=3.00D-01 FncErr=1.00D-07 GrdErr=1.00D-07
 Number of steps in this run=      2 maximum allowed number of steps=      2.
 GradGradGradGradGradGradGradGradGradGradGradGradGradGradGradGradGradGrad

 Leave Link  103 at Tue Dec 15 17:06:15 2015, MaxMem=    33554432 cpu:         0.0
 (Enter /home/Applications/g09/g09/l202.exe)
                          Input orientation:                          
 ---------------------------------------------------------------------
 Center     Atomic      Atomic             Coordinates (Angstroms)
 Number     Number       Type             X           Y           Z
 ---------------------------------------------------------------------
      1          6           0        0.926574   -0.725570    0.037783
      2          6           0       -0.310833   -1.050858   -0.024459
      3          8           0       -1.118099    0.038513   -0.032963
      4          6           0       -0.388894    1.127917   -0.026730
      5          6           0        0.905500    0.671122   -0.011471
      6          1           0        1.773941    1.370376    0.037567
      7          1           0       -0.888754    2.078772   -0.046597
      8          1           0       -0.862229   -2.093394   -0.011194
      9          1           0        1.762440   -1.325387   -0.022616
 ---------------------------------------------------------------------
                    Distance matrix (angstroms):
                    1          2          3          4          5
     1  C    0.000000
     2  C    1.280962   0.000000
     3  O    2.183922   1.355906   0.000000
     4  C    2.273770   2.180174   1.310946   0.000000
     5  C    1.397719   2.108281   2.120285   1.372716   0.000000
     6  H    2.260757   3.195701   3.184765   2.177332   1.116042
     7  H    3.341687   3.182619   2.053154   1.074421   2.280802
     8  H    2.252367   1.179447   2.147317   3.255938   3.281374
     9  H    1.030583   2.091370   3.187136   3.262967   2.172675
                    6          7          8          9
     6  H    0.000000
     7  H    2.756602   0.000000
     8  H    4.353099   4.172401   0.000000
     9  H    2.696459   4.314824   2.734749   0.000000
 Stoichiometry    C4H4O
 Framework group  C1[X(C4H4O)]
 Deg. of freedom    21
 Full point group                 C1      NOp   1
 Largest Abelian subgroup         C1      NOp   1
 Largest concise Abelian subgroup C1      NOp   1
                         Standard orientation:                         
 ---------------------------------------------------------------------
 Center     Atomic      Atomic             Coordinates (Angstroms)
 Number     Number       Type             X           Y           Z
 ---------------------------------------------------------------------
      1          6           0       -1.020417    0.619512   -0.026118
      2          6           0       -0.891285   -0.654347    0.012216
      3          8           0        0.411707   -1.029125   -0.003098
      4          6           0        1.176884    0.035336   -0.000925
      5          6           0        0.295869    1.087925    0.013852
      6          1           0        0.646310    2.146935   -0.021383
      7          1           0        2.242712   -0.100238    0.002443
      8          1           0       -1.675040   -1.535533   -0.006018
      9          1           0       -1.873945    1.191277    0.055588
 ---------------------------------------------------------------------
 Rotational constants (GHZ):     10.3281232      9.2420745      4.8789736
 Leave Link  202 at Tue Dec 15 17:06:15 2015, MaxMem=    33554432 cpu:         0.0
 (Enter /home/Applications/g09/g09/l301.exe)

 Semi-emprical parameters in input format:
 Method=8 CoreType=1 PeptideFC=0.0106250000 RIJScale=0.5404210000
 ****
 H       
 PQN=1 NValence=1 F0ss=0.4721550000 ZetaOverlap=1.0856700000 U=-0.4219420000
 Beta=-0.2344680000 CoreKO=1.1349760000 KON=0,0,0,1.0458670000 KON=1,0,1,1.0589200000
 KON=0,1,1,1.0589200000 KON=2,1,1,1.0697690000 EISol=-0.4188110042 EHeat=0.0830298228
 Alpha=1.4609850000
 GCore=0.0079790000,1.5127750000,2.2676710000
 GCore=0.0003530000,1.4368830000,3.4779940000
 GCore=-0.0011950000,0.5600570000,3.5861320000
 ****
 C       
 PQN=2,2 NValence=4 F0ss=0.4494440000 F0sp=0.4215150000 F0pp=0.3497590000 F2pp=0.1878900000
 G1sp=0.2701540000
 ZetaOverlap=1.8086650000,1.3781170000
 U=-1.7687090000,-1.4557970000
 Beta=-0.5453250000,-0.3063130000 DDN=0,1,0.7474020000 DDN=1,1,0.7268010000
 CoreKO=1.1356210000 KON=0,0,0,1.1124280000 KON=1,0,1,0.8998210000 KON=0,1,1,1.1124280000
 KON=2,1,1,0.8516400000 EISol=-4.4398989268 EHeat=0.2723305520 Alpha=1.2789610000
 DipHyp=1.4947180026
 GCore=0.0007260000,1.3361580000,2.6678360000
 GCore=0.0028980000,1.4001430000,3.2840710000
 GCore=-0.0015090000,1.3017660000,3.8739390000
 GCore=-0.0001030000,1.4822700000,4.6744780000
 ****
 O       
 PQN=2,2 NValence=6 F0ss=0.5666750000 F0sp=0.5321300000 F0pp=0.4826590000 F2pp=0.2358080000
 G1sp=0.4216980000
 ZetaOverlap=2.6354490000,2.4967270000
 U=-3.3169990000,-1.9779290000
 Beta=-1.1573400000,-1.2994290000 DDN=0,1,0.4953610000 DDN=1,1,0.4852320000
 CoreKO=0.8515990000 KON=0,0,0,0.8822960000 KON=1,0,1,0.5019540000 KON=0,1,1,0.8682050000
 KON=2,1,1,0.5068780000 EISol=-11.6164441184 EHeat=0.0949133088 Alpha=2.4031680000
 DipHyp=0.9906650029
 GCore=0.0204720000,1.4001430000,1.6023330000
 GCore=0.0051530000,1.9602000000,2.7307880000
 ****
 
 Standard basis: VSTO-6G (5D, 7F)
 Ernie: Thresh=  0.10000D-02 Tol=  0.10000D-05 Strict=F.
  NNHCO=     0 NNPyr=     0 NCTC=     0               EPep=         0.000000000
    EC=        69.206126095  ECS=         2.551668981   EG=         0.363103974
   EHC=         0.000000000  EAt=       -31.051283842  AtH=         1.516354808
 EPDDG=         0.000000000  ECC=        72.120899050 EAtT=        32.567638650
 There are    24 symmetry adapted cartesian basis functions of A   symmetry.
 There are    24 symmetry adapted basis functions of A   symmetry.
    24 basis functions,   144 primitive gaussians,    24 cartesian basis functions
    13 alpha electrons       13 beta electrons
       nuclear repulsion energy       104.6885377003 Hartrees.
 IExCor=    0 DFT=F Ex=HF Corr=None ExCW=0 ScaHFX=  1.000000
 ScaDFX=  1.000000  1.000000  1.000000  1.000000 ScalE2=  1.000000  1.000000
 IRadAn=      0 IRanWt=     -1 IRanGd=            0 ICorTp=0 IEmpDi=  4
 Integral buffers will be    131072 words long.
 Regular integral format.
 Two-electron integral symmetry is turned off.
 Leave Link  301 at Tue Dec 15 17:06:15 2015, MaxMem=    33554432 cpu:         0.0
 (Enter /home/Applications/g09/g09/l302.exe)
 Do NDO integrals.
 NPDir=0 NMtPBC=     1 NCelOv=     1 NCel=       1 NClECP=     1 NCelD=      1
         NCelK=      1 NCelE2=     1 NClLst=     1 CellRange=     0.0.
 One-electron integrals computed using PRISM.
 NBasis=    24 RedAO= F EigKep=  0.00D+00  NBF=    24
 NBsUse=    24 1.00D-04 EigRej=  0.00D+00 NBFU=    24
 Leave Link  302 at Tue Dec 15 17:06:15 2015, MaxMem=    33554432 cpu:         0.0
 (Enter /home/Applications/g09/g09/l308.exe)
 Leave Link  308 at Tue Dec 15 17:06:15 2015, MaxMem=    33554432 cpu:         0.0
 (Enter /home/Applications/g09/g09/l303.exe)
 DipDrv:  MaxL=1.
 Leave Link  303 at Tue Dec 15 17:06:15 2015, MaxMem=    33554432 cpu:         0.0
 (Enter /home/Applications/g09/g09/l401.exe)
 Simple Huckel Guess.
 JPrj=0 DoOrth=F DoCkMO=F.
 Leave Link  401 at Tue Dec 15 17:06:15 2015, MaxMem=    33554432 cpu:         0.0
 (Enter /home/Applications/g09/g09/l502.exe)
 Closed shell SCF:
 Using DIIS extrapolation, IDIIS=  1040.
 Overlap will be assumed to be unity.
 Two-electron integral symmetry not used.
 Keep J ints in memory in canonical form, NReq=888082.
 IVT=       79475 IEndB=       79475 NGot=    33554432 MDV=    33473473
 LenX=    33473473 LenY=    33472456
 Requested convergence on RMS density matrix=1.00D-08 within 128 cycles.
 Requested convergence on MAX density matrix=1.00D-06.
 Requested convergence on             energy=1.00D-06.
 No special actions if energy rises.
 FoFCou: FMM=F IPFlag=           0 FMFlag=           0 FMFlg1=           0
         NFxFlg=           0 DoJE=F BraDBF=F KetDBF=F FulRan=T
         wScrn=  0.000000 ICntrl=     600 IOpCl=  2 I1Cent=           0 NGrid=           0
         NMat0=    1 NMatS0=     54 NMatT0=    0 NMatD0=    1 NMtDS0=    0 NMtDT0=    0
 Symmetry not used in FoFCou.

 Cycle   1  Pass 1  IDiag  1:
 E=  4.85955340903705    
 DIIS: error= 1.52D-01 at cycle   1 NSaved=   1.
 NSaved= 1 IEnMin= 1 EnMin=  4.85955340903705     IErMin= 1 ErrMin= 1.52D-01
 ErrMax= 1.52D-01  0.00D+00 EMaxC= 1.00D-01 BMatC= 4.66D-01 BMatP= 4.66D-01
 IDIUse=3 WtCom= 0.00D+00 WtEn= 1.00D+00
 Coeff-Com:  0.100D+01
 Coeff-En:   0.100D+01
 Coeff:      0.100D+01
 GapD=    2.000 DampG=2.000 DampE=0.250 DampFc=0.5000 IDamp=-1.
 Damping current iteration by 5.00D-01
 RMSDP=6.33D-02 MaxDP=6.92D-01              OVMax= 0.00D+00

 Cycle   2  Pass 1  IDiag  1:
 E=  3.90867964695877     Delta-E=       -0.950873762078 Rises=F Damp=T
 DIIS: error= 8.83D-02 at cycle   2 NSaved=   2.
 NSaved= 2 IEnMin= 2 EnMin=  3.90867964695877     IErMin= 2 ErrMin= 8.83D-02
 ErrMax= 8.83D-02  0.00D+00 EMaxC= 1.00D-01 BMatC= 1.70D-01 BMatP= 4.66D-01
 IDIUse=3 WtCom= 1.17D-01 WtEn= 8.83D-01
 Coeff-Com: -0.121D+01 0.221D+01
 Coeff-En:   0.000D+00 0.100D+01
 Coeff:     -0.141D+00 0.114D+01
 RMSDP=3.69D-02 MaxDP=3.64D-01 DE=-9.51D-01 OVMax= 0.00D+00

 Cycle   3  Pass 1  IDiag  1:
 E=  2.64364555818247     Delta-E=       -1.265034088776 Rises=F Damp=F
 DIIS: error= 2.22D-02 at cycle   3 NSaved=   3.
 NSaved= 3 IEnMin= 3 EnMin=  2.64364555818247     IErMin= 3 ErrMin= 2.22D-02
 ErrMax= 2.22D-02  0.00D+00 EMaxC= 1.00D-01 BMatC= 1.65D-02 BMatP= 1.70D-01
 IDIUse=3 WtCom= 7.78D-01 WtEn= 2.22D-01
 Coeff-Com:  0.460D+00-0.106D+01 0.160D+01
 Coeff-En:   0.000D+00 0.000D+00 0.100D+01
 Coeff:      0.358D+00-0.828D+00 0.147D+01
 RMSDP=1.26D-02 MaxDP=6.30D-02 DE=-1.27D+00 OVMax= 0.00D+00

 Cycle   4  Pass 1  IDiag  1:
 E=  2.57776162577171     Delta-E=       -0.065883932411 Rises=F Damp=F
 DIIS: error= 5.02D-03 at cycle   4 NSaved=   4.
 NSaved= 4 IEnMin= 4 EnMin=  2.57776162577171     IErMin= 4 ErrMin= 5.02D-03
 ErrMax= 5.02D-03  0.00D+00 EMaxC= 1.00D-01 BMatC= 1.08D-03 BMatP= 1.65D-02
 IDIUse=3 WtCom= 9.50D-01 WtEn= 5.02D-02
 Coeff-Com: -0.756D-01 0.154D+00-0.407D+00 0.133D+01
 Coeff-En:   0.000D+00 0.000D+00 0.000D+00 0.100D+01
 Coeff:     -0.718D-01 0.146D+00-0.386D+00 0.131D+01
 RMSDP=3.85D-03 MaxDP=2.30D-02 DE=-6.59D-02 OVMax= 0.00D+00

 Cycle   5  Pass 1  IDiag  3:
 E=  2.57295864586050     Delta-E=       -0.004802979911 Rises=F Damp=F
 DIIS: error= 1.08D-03 at cycle   5 NSaved=   5.
 NSaved= 5 IEnMin= 5 EnMin=  2.57295864586050     IErMin= 5 ErrMin= 1.08D-03
 ErrMax= 1.08D-03  0.00D+00 EMaxC= 1.00D-01 BMatC= 4.55D-05 BMatP= 1.08D-03
 IDIUse=3 WtCom= 9.89D-01 WtEn= 1.08D-02
 Coeff-Com:  0.188D-01-0.341D-01 0.970D-01-0.481D+00 0.140D+01
 Coeff-En:   0.000D+00 0.000D+00 0.000D+00 0.000D+00 0.100D+01
 Coeff:      0.186D-01-0.337D-01 0.960D-01-0.475D+00 0.139D+01
 Gap=     0.407 Goal=   None    Shift=    0.000
 RMSDP=9.01D-04 MaxDP=5.96D-03 DE=-4.80D-03 OVMax= 7.05D-03

 Cycle   6  Pass 1  IDiag  3:
 E=  2.57272444415733     Delta-E=       -0.000234201703 Rises=F Damp=F
 DIIS: error= 2.25D-04 at cycle   6 NSaved=   6.
 NSaved= 6 IEnMin= 6 EnMin=  2.57272444415733     IErMin= 6 ErrMin= 2.25D-04
 ErrMax= 2.25D-04  0.00D+00 EMaxC= 1.00D-01 BMatC= 2.14D-06 BMatP= 4.55D-05
 IDIUse=3 WtCom= 9.98D-01 WtEn= 2.25D-03
 Coeff-Com: -0.219D-02 0.397D-02-0.207D-01 0.132D+00-0.565D+00 0.145D+01
 Coeff-En:   0.000D+00 0.000D+00 0.000D+00 0.000D+00 0.000D+00 0.100D+01
 Coeff:     -0.219D-02 0.396D-02-0.207D-01 0.132D+00-0.564D+00 0.145D+01
 Gap=     0.408 Goal=   None    Shift=    0.000
 RMSDP=2.06D-04 MaxDP=1.31D-03 DE=-2.34D-04 OVMax= 1.30D-03

 Cycle   7  Pass 1  IDiag  3:
 E=  2.57271387361868     Delta-E=       -0.000010570539 Rises=F Damp=F
 DIIS: error= 3.08D-05 at cycle   7 NSaved=   7.
 NSaved= 7 IEnMin= 7 EnMin=  2.57271387361868     IErMin= 7 ErrMin= 3.08D-05
 ErrMax= 3.08D-05  0.00D+00 EMaxC= 1.00D-01 BMatC= 5.18D-08 BMatP= 2.14D-06
 IDIUse=1 WtCom= 1.00D+00 WtEn= 0.00D+00
 Coeff-Com:  0.214D-03-0.400D-03 0.711D-02-0.498D-01 0.223D+00-0.644D+00
 Coeff-Com:  0.146D+01
 Coeff:      0.214D-03-0.400D-03 0.711D-02-0.498D-01 0.223D+00-0.644D+00
 Coeff:      0.146D+01
 Gap=     0.408 Goal=   None    Shift=    0.000
 RMSDP=3.02D-05 MaxDP=1.80D-04 DE=-1.06D-05 OVMax= 2.51D-04

 Cycle   8  Pass 1  IDiag  3:
 E=  2.57271363296447     Delta-E=       -0.000000240654 Rises=F Damp=F
 DIIS: error= 4.42D-06 at cycle   8 NSaved=   8.
 NSaved= 8 IEnMin= 8 EnMin=  2.57271363296447     IErMin= 8 ErrMin= 4.42D-06
 ErrMax= 4.42D-06  0.00D+00 EMaxC= 1.00D-01 BMatC= 9.71D-10 BMatP= 5.18D-08
 IDIUse=1 WtCom= 1.00D+00 WtEn= 0.00D+00
 Coeff-Com:  0.125D-04-0.570D-04-0.177D-02 0.137D-01-0.636D-01 0.186D+00
 Coeff-Com: -0.473D+00 0.134D+01
 Coeff:      0.125D-04-0.570D-04-0.177D-02 0.137D-01-0.636D-01 0.186D+00
 Coeff:     -0.473D+00 0.134D+01
 Gap=     0.408 Goal=   None    Shift=    0.000
 RMSDP=3.70D-06 MaxDP=2.22D-05 DE=-2.41D-07 OVMax= 2.30D-05

 Cycle   9  Pass 1  IDiag  3:
 E=  2.57271362884733     Delta-E=       -0.000000004117 Rises=F Damp=F
 DIIS: error= 1.19D-06 at cycle   9 NSaved=   9.
 NSaved= 9 IEnMin= 9 EnMin=  2.57271362884733     IErMin= 9 ErrMin= 1.19D-06
 ErrMax= 1.19D-06  0.00D+00 EMaxC= 1.00D-01 BMatC= 3.42D-11 BMatP= 9.71D-10
 IDIUse=1 WtCom= 1.00D+00 WtEn= 0.00D+00
 Coeff-Com:  0.364D-05 0.323D-05 0.614D-04-0.517D-03 0.261D-02-0.669D-02
 Coeff-Com:  0.170D-01-0.181D+00 0.117D+01
 Coeff:      0.364D-05 0.323D-05 0.614D-04-0.517D-03 0.261D-02-0.669D-02
 Coeff:      0.170D-01-0.181D+00 0.117D+01
 Gap=     0.408 Goal=   None    Shift=    0.000
 RMSDP=7.00D-07 MaxDP=4.04D-06 DE=-4.12D-09 OVMax= 4.00D-06

 Cycle  10  Pass 1  IDiag  3:
 E=  2.57271362869349     Delta-E=       -0.000000000154 Rises=F Damp=F
 DIIS: error= 1.81D-07 at cycle  10 NSaved=  10.
 NSaved=10 IEnMin=10 EnMin=  2.57271362869349     IErMin=10 ErrMin= 1.81D-07
 ErrMax= 1.81D-07  0.00D+00 EMaxC= 1.00D-01 BMatC= 2.05D-12 BMatP= 3.42D-11
 IDIUse=1 WtCom= 1.00D+00 WtEn= 0.00D+00
 Coeff-Com:  0.241D-06-0.186D-05-0.779D-06-0.182D-04 0.946D-04-0.795D-03
 Coeff-Com:  0.226D-02 0.342D-01-0.433D+00 0.140D+01
 Coeff:      0.241D-06-0.186D-05-0.779D-06-0.182D-04 0.946D-04-0.795D-03
 Coeff:      0.226D-02 0.342D-01-0.433D+00 0.140D+01
 Gap=     0.408 Goal=   None    Shift=    0.000
 RMSDP=1.99D-07 MaxDP=1.05D-06 DE=-1.54D-10 OVMax= 1.20D-06

 Cycle  11  Pass 1  IDiag  3:
 E=  2.57271362868342     Delta-E=       -0.000000000010 Rises=F Damp=F
 DIIS: error= 3.87D-08 at cycle  11 NSaved=  11.
 NSaved=11 IEnMin=11 EnMin=  2.57271362868342     IErMin=11 ErrMin= 3.87D-08
 ErrMax= 3.87D-08  0.00D+00 EMaxC= 1.00D-01 BMatC= 7.54D-14 BMatP= 2.05D-12
 IDIUse=1 WtCom= 1.00D+00 WtEn= 0.00D+00
 Coeff-Com: -0.385D-06 0.732D-06-0.265D-05 0.392D-04-0.210D-03 0.843D-03
 Coeff-Com: -0.219D-02-0.814D-02 0.149D+00-0.605D+00 0.147D+01
 Coeff:     -0.385D-06 0.732D-06-0.265D-05 0.392D-04-0.210D-03 0.843D-03
 Coeff:     -0.219D-02-0.814D-02 0.149D+00-0.605D+00 0.147D+01
 Gap=     0.408 Goal=   None    Shift=    0.000
 RMSDP=4.31D-08 MaxDP=2.25D-07 DE=-1.01D-11 OVMax= 3.49D-07

 Cycle  12  Pass 1  IDiag  3:
 E=  2.57271362868306     Delta-E=        0.000000000000 Rises=F Damp=F
 DIIS: error= 6.66D-09 at cycle  12 NSaved=  12.
 NSaved=12 IEnMin=12 EnMin=  2.57271362868306     IErMin=12 ErrMin= 6.66D-09
 ErrMax= 6.66D-09  0.00D+00 EMaxC= 1.00D-01 BMatC= 2.14D-15 BMatP= 7.54D-14
 IDIUse=1 WtCom= 1.00D+00 WtEn= 0.00D+00
 Coeff-Com:  0.170D-07-0.123D-07 0.715D-06-0.150D-04 0.834D-04-0.342D-03
 Coeff-Com:  0.922D-03 0.286D-02-0.570D-01 0.239D+00-0.663D+00 0.148D+01
 Coeff:      0.170D-07-0.123D-07 0.715D-06-0.150D-04 0.834D-04-0.342D-03
 Coeff:      0.922D-03 0.286D-02-0.570D-01 0.239D+00-0.663D+00 0.148D+01
 Gap=     0.408 Goal=   None    Shift=    0.000
 RMSDP=7.47D-09 MaxDP=4.17D-08 DE=-3.55D-13 OVMax= 7.26D-08

 Cycle  13  Pass 2  IDiag  1:
 SCF Done:  E(RAM1) =   2.57271362868     A.U. after   13 cycles
            NFock= 12  Conv=0.75D-08     -V/T= 1.1704
 KE=-1.510238285466D+01 PE=-1.701720915852D+02 EE= 8.315865036827D+01
 Leave Link  502 at Tue Dec 15 17:06:15 2015, MaxMem=    33554432 cpu:         0.0
 (Enter /home/Applications/g09/g09/l801.exe)
 Range of M.O.s used for correlation:     1    24
 NBasis=    24 NAE=    13 NBE=    13 NFC=     0 NFV=     0
 NROrb=     24 NOA=    13 NOB=    13 NVA=    11 NVB=    11
 Leave Link  801 at Tue Dec 15 17:06:15 2015, MaxMem=    33554432 cpu:         0.0
 (Enter /home/Applications/g09/g09/l914.exe)
 RHF ground state
 MDV=    33554432 DFT=F DoStab=F Mixed=F DoRPA=F DoScal=F NonHer=F
 Making orbital integer symmetry assigments:
 Orbital symmetries:
       Occupied  (A) (A) (A) (A) (A) (A) (A) (A) (A) (A) (A) (A)
                 (A)
       Virtual   (A) (A) (A) (A) (A) (A) (A) (A) (A) (A) (A)
    60 initial guesses have been made.
 Convergence on wavefunction:    0.000001000000000
 Davidson Disk Diagonalization:  ConvIn= 1.00D-06 SkipCon=T Conv= 1.00D-06.
 Max sub-space:   240 roots to seek:    60 dimension of matrix:          286
 Iteration     1 Dimension    60 NMult     0 NNew     60
 CISAX will form    60 AO SS matrices at one time.
 NMat=    60 NSing=    60 JSym2X= 0.
 FoFJK:  IHMeth= 8 ICntrl=       0 DoSepK=F KAlg= 0 I1Cent=   0 FoldK=F
 IRaf=         1 NMat= 120 IRICut=       1 DoRegI=T DoRafI=F ISym2E= 0.
 FoFCou: FMM=F IPFlag=           0 FMFlag=      100000 FMFlg1=           0
         NFxFlg=           0 DoJE=F BraDBF=F KetDBF=F FulRan=T
         wScrn=  0.000000 ICntrl=       0 IOpCl=  0 I1Cent=           0 NGrid=           0
         NMat0=  120 NMatS0=     60 NMatT0=    0 NMatD0=  120 NMtDS0=    0 NMtDT0=    0
 Symmetry not used in FoFCou.
 New state      7 was old state      9
 New state      9 was old state     11
 New state     10 was old state      7
 New state     11 was old state     10
 New state     12 was old state     13
 New state     13 was old state     12
 New state     14 was old state     15
 New state     15 was old state     14
 Excitation Energies [eV] at current iteration:
 Root      1 :     5.434174137927000
 Root      2 :     6.082679732103676
 Root      3 :     6.549003366799510
 Root      4 :     6.768996449939674
 Root      5 :     7.759582138288897
 Root      6 :     7.883747600117247
 Root      7 :     8.296131560914580
 Root      8 :     8.856419004372597
 Root      9 :     8.884319803927610
 Root     10 :     9.169911535052819
 Root     11 :     9.413394388581731
 Root     12 :     9.551029247585236
 Root     13 :     9.701311814008637
 Root     14 :     9.874128915555453
 Root     15 :     9.988551076383860
 Root     16 :    10.091148064777030
 Root     17 :    10.128878554856470
 Root     18 :    10.225925167725820
 Root     19 :    10.839165227531520
 Root     20 :    11.106870101596700
 Root     21 :    11.303041196141760
 Root     22 :    11.493322917600090
 Root     23 :    11.538773627976360
 Root     24 :    11.652015312923370
 Root     25 :    12.043335660287610
 Root     26 :    12.135622442390310
 Root     27 :    12.407952216295830
 Root     28 :    12.445910943075220
 Root     29 :    12.630432000420270
 Root     30 :    12.898687937304340
 Root     31 :    13.016161185892070
 Root     32 :    13.134577386645140
 Root     33 :    13.233401571084520
 Root     34 :    13.339689792944120
 Root     35 :    13.395558380829660
 Root     36 :    13.601124069026780
 Root     37 :    13.679377673423750
 Root     38 :    13.899908401725440
 Root     39 :    14.339743034433580
 Root     40 :    14.476237219605790
 Root     41 :    14.599428976702660
 Root     42 :    14.713088290277160
 Root     43 :    14.717656313479410
 Root     44 :    14.826011521751040
 Root     45 :    15.040049098498270
 Root     46 :    15.351073643598230
 Root     47 :    15.466742964823510
 Root     48 :    15.723493450203940
 Root     49 :    16.102370331860800
 Root     50 :    16.236420954746220
 Root     51 :    16.446661858429490
 Root     52 :    16.468131273195540
 Root     53 :    16.506463682680340
 Root     54 :    16.870740859512910
 Root     55 :    16.986318736604340
 Root     56 :    17.146240566584390
 Root     57 :    17.428544027238130
 Root     58 :    17.462305354039580
 Root     59 :    17.514271209424460
 Root     60 :    17.862039706388250
 Iteration     2 Dimension   120 NMult    60 NNew     60
 CISAX will form    60 AO SS matrices at one time.
 NMat=    60 NSing=    60 JSym2X= 0.
 Root      1 not converged, maximum delta is    0.020899240656493
 Root      2 not converged, maximum delta is    0.015699746356724
 Root      3 not converged, maximum delta is    0.023801283191099
 Root      4 not converged, maximum delta is    0.016044202366642
 Root      5 not converged, maximum delta is    0.037338057881412
 Root      6 not converged, maximum delta is    0.030046728349407
 Root      7 not converged, maximum delta is    0.017182423035576
 Root      8 not converged, maximum delta is    0.050245315919529
 Root      9 not converged, maximum delta is    0.036174706855189
 Root     10 not converged, maximum delta is    0.045903702663883
 Root     11 not converged, maximum delta is    0.116712365699688
 New state     12 was old state     13
 Root     12 not converged, maximum delta is    0.202439146871390
 New state     13 was old state     12
 Root     13 not converged, maximum delta is    0.160068633229202
 Root     14 not converged, maximum delta is    0.051741613445613
 Root     15 not converged, maximum delta is    0.234318977824243
 Excitation Energies [eV] at current iteration:
 Root      1 :     5.361100135552803   Change is   -0.073074002374197
 Root      2 :     6.067286403728739   Change is   -0.015393328374937
 Root      3 :     6.517687690783711   Change is   -0.031315676015799
 Root      4 :     6.753939228450078   Change is   -0.015057221489595
 Root      5 :     7.715201165136374   Change is   -0.044380973152523
 Root      6 :     7.867160032096260   Change is   -0.016587568020988
 Root      7 :     8.276678475208730   Change is   -0.019453085705849
 Root      8 :     8.792507620140713   Change is   -0.063911384231886
 Root      9 :     8.858335373550970   Change is   -0.025984430376640
 Root     10 :     9.129739627520046   Change is   -0.040171907532772
 Root     11 :     9.334598291763701   Change is   -0.078796096818029
 Root     12 :     9.450325685193500   Change is   -0.250986128815137
 Root     13 :     9.508089750407917   Change is   -0.042939497177318
 Root     14 :     9.860260703924476   Change is   -0.013868211630977
 Root     15 :     9.896561882166537   Change is   -0.091989194217323
 Root     16 :    10.010773321834420   Change is   -0.080374742942607
 Root     17 :    10.064009016048890   Change is   -0.064869538807577
 Root     18 :    10.211961172433560   Change is   -0.013963995292264
 Root     19 :    10.672329936938530   Change is   -0.166835290592994
 Root     20 :    10.892485192344070   Change is   -0.214384909252628
 Root     21 :    11.101531113126470   Change is   -0.201510083015288
 Root     22 :    11.231590016533210   Change is   -0.261732901066881
 Root     23 :    11.370207439705860   Change is   -0.281807873217510
 Root     24 :    11.469170862628200   Change is   -0.069602765348160
 Root     25 :    11.941632280003910   Change is   -0.193990162386402
 Root     26 :    11.999416591936330   Change is   -0.043919068351272
 Root     27 :    12.251594168852390   Change is   -0.156358047443445
 Root     28 :    12.282037124254350   Change is   -0.163873818820868
 Root     29 :    12.428996469245050   Change is   -0.201435531175218
 Root     30 :    12.672909398320090   Change is   -0.225778538984252
 Root     31 :    12.939080065605100   Change is   -0.077081120286967
 Root     32 :    12.973808568588070   Change is   -0.259593002496449
 Root     33 :    12.995890558138690   Change is   -0.138686828506451
 Root     34 :    13.115300181096010   Change is   -0.224389611848115
 Root     35 :    13.157462570903030   Change is   -0.238095809926627
 Root     36 :    13.419149935369960   Change is   -0.181974133656815
 Root     37 :    13.501217852458720   Change is   -0.178159820965026
 Root     38 :    13.776505041487050   Change is   -0.123403360238386
 Root     39 :    14.192048375493900   Change is   -0.147694658939673
 Root     40 :    14.312063568470500   Change is   -0.164173651135281
 Root     41 :    14.462031368184440   Change is   -0.137397608518224
 Root     42 :    14.610558909779170   Change is   -0.102529380497985
 Root     43 :    14.685999881161790   Change is   -0.031656432317626
 Root     44 :    14.795048686177750   Change is   -0.556024957420485
 Root     45 :    14.801313859734200   Change is   -0.024697662016846
 Root     46 :    14.905867059208290   Change is   -0.134182039289977
 Root     47 :    15.185855040009040   Change is   -0.280887924814466
 Root     48 :    15.513395715228740   Change is   -0.210097734975202
 Root     49 :    15.881207159753430   Change is   -0.221163172107366
 Root     50 :    16.158182296358700   Change is   -0.078238658387520
 Root     51 :    16.258705006230340   Change is   -0.209426266965201
 Root     52 :    16.294148033758090   Change is   -0.152513824671400
 Root     53 :    16.308325148301010   Change is   -0.562415711211897
 Root     54 :    16.403178442565260   Change is   -0.103285240115081
 Root     55 :    16.787775581438190   Change is   -0.198543155166145
 Root     56 :    16.870028461640730   Change is   -0.276212104943661
 Root     57 :    17.149851565939700   Change is   -0.312453788099879
 Root     58 :    17.229287400797960   Change is   -0.199256626440169
 Root     59 :    17.466871862947720   Change is   -0.047399346476736
 Root     60 :    17.689421263952550   Change is   -0.172618442435698
 Iteration     3 Dimension   135 NMult   120 NNew     15
 CISAX will form    15 AO SS matrices at one time.
 NMat=    15 NSing=    15 JSym2X= 0.
 Root      1 not converged, maximum delta is    0.000559804048320
 Root      2 not converged, maximum delta is    0.000040329581862
 Root      3 not converged, maximum delta is    0.000039966331756
 Root      4 not converged, maximum delta is    0.000030242764917
 Root      5 not converged, maximum delta is    0.000034680479520
 Root      6 not converged, maximum delta is    0.000041667111201
 Root      7 not converged, maximum delta is    0.000054072008461
 Root      8 not converged, maximum delta is    0.001393171314108
 Root      9 not converged, maximum delta is    0.000092908697927
 Root     10 not converged, maximum delta is    0.001210802287365
 Root     11 not converged, maximum delta is    0.001793940057785
 Root     12 not converged, maximum delta is    0.001491984761215
 Root     13 not converged, maximum delta is    0.001120869714315
 Root     14 not converged, maximum delta is    0.000793129626203
 Root     15 not converged, maximum delta is    0.001591515526662
 Excitation Energies [eV] at current iteration:
 Root      1 :     5.360922577502384   Change is   -0.000177558050419
 Root      2 :     6.067285690972906   Change is   -0.000000712755832
 Root      3 :     6.517687117208609   Change is   -0.000000573575102
 Root      4 :     6.753938980471220   Change is   -0.000000247978859
 Root      5 :     7.715200748357462   Change is   -0.000000416778912
 Root      6 :     7.867159170931860   Change is   -0.000000861164400
 Root      7 :     8.276678109350300   Change is   -0.000000365858429
 Root      8 :     8.792132853500535   Change is   -0.000374766640177
 Root      9 :     8.858334441183846   Change is   -0.000000932367125
 Root     10 :     9.129495702233259   Change is   -0.000243925286787
 Root     11 :     9.334138690850738   Change is   -0.000459600912964
 Root     12 :     9.449809168527157   Change is   -0.000516516666344
 Root     13 :     9.508033304153178   Change is   -0.000056446254739
 Root     14 :     9.860248817927991   Change is   -0.000011885996485
 Root     15 :     9.896048755714920   Change is   -0.000513126451617
 Iteration     4 Dimension   143 NMult   135 NNew      8
 CISAX will form     8 AO SS matrices at one time.
 NMat=     8 NSing=     8 JSym2X= 0.
 Root      1 not converged, maximum delta is    0.000040016510116
 Root      2 not converged, maximum delta is    0.000002667467246
 Root      3 not converged, maximum delta is    0.000002004222978
 Root      4 not converged, maximum delta is    0.000001295489701
 Root      5 not converged, maximum delta is    0.000001339381249
 Root      6 not converged, maximum delta is    0.000002487261359
 Root      7 not converged, maximum delta is    0.000001440226785
 Root      8 not converged, maximum delta is    0.000127834303270
 Root      9 not converged, maximum delta is    0.000005581054832
 Root     10 not converged, maximum delta is    0.000065221722292
 Root     11 not converged, maximum delta is    0.000070763434111
 Root     12 not converged, maximum delta is    0.000040569933177
 Root     13 not converged, maximum delta is    0.000012159880537
 Root     14 not converged, maximum delta is    0.000008274202752
 Root     15 not converged, maximum delta is    0.000064633638292
 Excitation Energies [eV] at current iteration:
 Root      1 :     5.360922048841079   Change is   -0.000000528661305
 Root      2 :     6.067285688419904   Change is   -0.000000002553002
 Root      3 :     6.517687115580092   Change is   -0.000000001628517
 Root      4 :     6.753938979855790   Change is   -0.000000000615430
 Root      5 :     7.715200747673659   Change is   -0.000000000683803
 Root      6 :     7.867159169491332   Change is   -0.000000001440528
 Root      7 :     8.276678108765276   Change is   -0.000000000585024
 Root      8 :     8.792130892449856   Change is   -0.000001961050679
 Root      9 :     8.858334438258526   Change is   -0.000000002925321
 Root     10 :     9.129494429430638   Change is   -0.000001272802622
 Root     11 :     9.334137627089687   Change is   -0.000001063761050
 Root     12 :     9.449808857679232   Change is   -0.000000310847924
 Root     13 :     9.508033272213181   Change is   -0.000000031939997
 Root     14 :     9.860248798705960   Change is   -0.000000019222031
 Root     15 :     9.896047289788996   Change is   -0.000001465925924
 Convergence achieved on expansion vectors.
 ***********************************************************************
 Excited states from <AA,BB:AA,BB> singles matrix:
 ***********************************************************************
 
 1PDM for each excited state written to RWF  633
 Ground to excited state transition densities written to RWF  633
 Ground to excited state transition electric dipole moments (Au):
       state          X           Y           Z        Dip. S.      Osc.
         1         1.4354      0.6309      0.0765      2.4643      0.3237
         2         0.0677      0.0375      0.0654      0.0103      0.0015
         3         0.0470      0.0123      0.1448      0.0233      0.0037
         4         0.0301     -0.0033      0.0029      0.0009      0.0002
         5        -0.0030     -0.0100      0.1894      0.0360      0.0068
         6         0.0122      0.0162     -0.1315      0.0177      0.0034
         7         0.0043      0.0017      0.1726      0.0298      0.0060
         8        -0.5817      0.0103     -0.0346      0.3397      0.0732
         9         0.0375      0.0165      0.0870      0.0092      0.0020
        10         0.2693      0.6973     -0.0037      0.5588      0.1250
        11         0.6325     -0.0698      0.0099      0.4050      0.0926
        12        -0.2023     -0.4572     -0.0822      0.2567      0.0594
        13         0.0720      0.1182     -0.3086      0.1144      0.0266
        14        -0.0297     -0.0243      0.2089      0.0451      0.0109
        15         0.1411      0.4740      0.0361      0.2459      0.0596
 Ground to excited state transition velocity dipole moments (Au):
       state          X           Y           Z        Dip. S.      Osc.
         1        -0.1684     -0.0841     -0.0007      0.0354      0.1199
         2        -0.0071     -0.0106     -0.1440      0.0209      0.0625
         3        -0.0080      0.0011     -0.1375      0.0190      0.0528
         4        -0.0077      0.0032      0.0193      0.0004      0.0012
         5         0.0024      0.0014     -0.0333      0.0011      0.0026
         6        -0.0050     -0.0040     -0.0042      0.0001      0.0001
         7        -0.0060     -0.0046     -0.0382      0.0015      0.0033
         8         0.1417     -0.0870      0.0033      0.0277      0.0571
         9        -0.0113     -0.0027     -0.0406      0.0018      0.0037
        10         0.0023     -0.1964      0.0024      0.0386      0.0767
        11        -0.0868      0.0015      0.0000      0.0075      0.0147
        12         0.0421      0.0004     -0.0258      0.0024      0.0047
        13        -0.0133      0.0036     -0.0177      0.0005      0.0010
        14         0.0081     -0.0027      0.0383      0.0015      0.0028
        15        -0.0047     -0.1317     -0.0277      0.0181      0.0332
 Ground to excited state transition magnetic dipole moments (Au):
       state          X           Y           Z
         1        -0.0111     -0.0166      0.5730
         2         0.0483     -0.2847      0.0363
         3        -0.3415      0.1834      0.0250
         4        -0.4161      0.6309      0.0274
         5        -0.6627      0.2134     -0.0035
         6         0.5479      0.6170      0.0041
         7        -0.2803     -0.4754      0.0149
         8        -0.0118     -0.0037     -0.0175
         9        -0.1137      0.1326      0.0211
        10        -0.0189      0.0004      0.0524
        11        -0.0115      0.0011      0.0881
        12        -0.0063      0.0379      0.0562
        13        -0.0985      0.1834     -0.0440
        14        -0.1719      0.5686     -0.0032
        15         0.1306     -0.1663      0.1885
 Ground to excited state transition velocity quadrupole moments (Au):
       state          XX          YY          ZZ          XY          XZ          YZ
         1         0.2328     -0.2119      0.0031     -0.1951     -0.0065     -0.0154
         2         0.0117     -0.0090     -0.0027      0.0039      0.2230     -0.0032
         3         0.0083      0.0100      0.0017     -0.0115     -0.1224     -0.1725
         4         0.0261      0.0191      0.0093     -0.0090      0.1774      0.1301
         5         0.0048     -0.0077     -0.0120      0.0113     -0.3025     -0.1905
         6         0.0330      0.0036      0.0032     -0.0099     -0.0109     -0.1713
         7         0.0132     -0.0018      0.0032     -0.0090      0.3325     -0.0785
         8        -0.1715     -0.2082     -0.0344      0.1009     -0.0221      0.0127
         9         0.0450     -0.0098     -0.0007     -0.0013      0.1027     -0.0019
        10         0.2888     -0.1289      0.0391      0.0933     -0.0282     -0.0103
        11        -0.2285     -0.2961     -0.0731     -0.3138      0.0149      0.0071
        12        -0.2916      0.0717     -0.0158      0.0793      0.0061     -0.0032
        13         0.0834     -0.0323      0.0161     -0.0408     -0.1022     -0.0770
        14        -0.0013     -0.0077      0.0054      0.0049      0.0761      0.0593
        15         0.0789      0.1024      0.0135      0.1851      0.1150      0.1309
 <0|del|b> * <b|rxdel|0> + <0|del|b> * <b|delr+rdel|0>
 Rotatory Strengths (R) in cgs (10**-40 erg-esu-cm/Gauss)
       state          XX          YY          ZZ    R(velocity)    E-M Angle
         1         1.0507      7.0423      2.2027      3.4319       88.48
         2        -0.6429     -7.9030      0.4511     -2.6983       93.48
         3        -2.2566     -1.3398      2.0916     -0.5016       90.55
         4         2.5684      4.1476      9.6828      5.4663       68.79
         5         0.5981     -1.8960     -1.5487     -0.9488       92.81
         6        -3.0783     -2.3724     -7.3946     -4.2818      146.03
         7         4.0268      1.4308      2.1577      2.5384       81.24
         8        -1.4456     -0.2992     -1.3430     -1.0293      113.30
         9        -0.9612      0.4313      0.6938      0.0546       90.00
        10        -5.5416     -0.1740      5.7218      0.0021       90.00
        11        -0.0114      0.3767      1.6963      0.6872       82.56
        12        -3.5480      0.1980     -0.1154     -1.1551      120.41
        13         2.5456      2.4269      0.5820      1.8515       54.89
        14        -1.2381     -1.1968     -3.5353     -1.9901       97.54
        15        25.9581     -1.2845      6.5635     10.4124       65.09
 1/2[<0|r|b>*<b|rxdel|0> + (<0|rxdel|b>*<b|r|0>)*]
 Rotatory Strengths (R) in cgs (10**-40 erg-esu-cm/Gauss)
       state          XX          YY          ZZ     R(length)
         1        11.2777      7.4128    -30.9861     -4.0986
         2        -2.3102      7.5545     -1.6763      1.1893
         3        11.3564     -1.5897     -2.5609      2.4019
         4         8.8579      1.4845     -0.0556      3.4290
         5        -1.3880      1.5089      0.4684      0.1964
         6        -4.7234     -7.0556      0.3770     -3.8007
         7         0.8584      0.5582     -1.8129     -0.1321
         8        -4.8671      0.0271     -0.4288     -1.7562
         9         3.0132     -1.5490     -1.2981      0.0554
        10         3.5931     -0.2055      0.1363      1.1746
        11         5.1622      0.0545     -0.6191      1.5325
        12        -0.9038     12.2572      3.2672      4.8735
        13         5.0126    -15.3295     -9.6121     -6.6430
        14        -3.6104      9.7691      0.4768      2.2118
        15       -13.0398     55.7223     -4.8169     12.6219
  1/2[<0|del|b>*<b|r|0> + (<0|r|b>*<b|del|0>)*] (Au)
       state          X           Y           Z        Dip. S.   Osc.(frdel)
         1        -0.2417     -0.0531     -0.0001      0.2949      0.1966
         2        -0.0005     -0.0004     -0.0094      0.0103      0.0069
         3        -0.0004      0.0000     -0.0199      0.0203      0.0135
         4        -0.0002      0.0000      0.0001      0.0002      0.0001
         5         0.0000      0.0000     -0.0063      0.0063      0.0042
         6        -0.0001     -0.0001      0.0006     -0.0004     -0.0003
         7         0.0000      0.0000     -0.0066      0.0066      0.0044
         8        -0.0824     -0.0009     -0.0001      0.0834      0.0556
         9        -0.0004      0.0000     -0.0035      0.0040      0.0027
        10         0.0006     -0.1370      0.0000      0.1364      0.0909
        11        -0.0549     -0.0001      0.0000      0.0550      0.0367
        12        -0.0085     -0.0002      0.0021      0.0066      0.0044
        13        -0.0010      0.0004      0.0055     -0.0049     -0.0033
        14        -0.0002      0.0001      0.0080     -0.0078     -0.0052
        15        -0.0007     -0.0624     -0.0010      0.0641      0.0427

 Excitation energies and oscillator strengths:
 
 Excited State   1:      Singlet-A      5.3609 eV  231.27 nm  f=0.3237  <S**2>=0.000
      13 -> 14         0.69315
 This state for optimization and/or second-order correction.
 Total Energy, E(CIS) =   2.76972389749    
 Copying the excited state density for this state as the 1-particle RhoCI density.
 
 Excited State   2:      Singlet-A      6.0673 eV  204.35 nm  f=0.0015  <S**2>=0.000
      10 -> 15         0.12088
      13 -> 15         0.67537
      13 -> 17         0.10608
 
 Excited State   3:      Singlet-A      6.5177 eV  190.23 nm  f=0.0037  <S**2>=0.000
      10 -> 16        -0.10040
      13 -> 16         0.64835
      13 -> 17         0.19113
      13 -> 18        -0.10802
      13 -> 19        -0.10056
 
 Excited State   4:      Singlet-A      6.7539 eV  183.57 nm  f=0.0002  <S**2>=0.000
       9 -> 14         0.12503
      12 -> 14         0.69025
 
 Excited State   5:      Singlet-A      7.7152 eV  160.70 nm  f=0.0068  <S**2>=0.000
      11 -> 14        -0.17086
      13 -> 17         0.44029
      13 -> 18         0.44254
      13 -> 20        -0.12762
      13 -> 21         0.20917
 
 Excited State   6:      Singlet-A      7.8672 eV  157.60 nm  f=0.0034  <S**2>=0.000
      11 -> 14         0.66543
      13 -> 18         0.17621
 
 Excited State   7:      Singlet-A      8.2767 eV  149.80 nm  f=0.0060  <S**2>=0.000
      10 -> 16         0.13165
      11 -> 14         0.11366
      13 -> 16        -0.18075
      13 -> 17         0.49099
      13 -> 18        -0.38562
      13 -> 20         0.11680
      13 -> 21        -0.14049
 
 Excited State   8:      Singlet-A      8.7921 eV  141.02 nm  f=0.0732  <S**2>=0.000
       8 -> 15         0.14165
      10 -> 14         0.43371
      11 -> 18         0.10157
      12 -> 15         0.47711
 
 Excited State   9:      Singlet-A      8.8583 eV  139.96 nm  f=0.0020  <S**2>=0.000
      13 -> 19         0.67338
 
 Excited State  10:      Singlet-A      9.1295 eV  135.81 nm  f=0.1250  <S**2>=0.000
      10 -> 14         0.46291
      12 -> 15        -0.35746
      12 -> 16         0.33039
 
 Excited State  11:      Singlet-A      9.3341 eV  132.83 nm  f=0.0926  <S**2>=0.000
       9 -> 16        -0.14586
      10 -> 14        -0.23595
      11 -> 16        -0.20343
      11 -> 17        -0.11760
      12 -> 15         0.14693
      12 -> 16         0.47997
      12 -> 17         0.27204
 
 Excited State  12:      Singlet-A      9.4498 eV  131.20 nm  f=0.0594  <S**2>=0.000
       9 -> 15        -0.15800
      11 -> 15         0.35672
      11 -> 16         0.12641
      11 -> 17         0.21065
      12 -> 15         0.15234
      12 -> 16         0.22936
      12 -> 17        -0.12981
      12 -> 18        -0.29628
      13 -> 20         0.17925
 
 Excited State  13:      Singlet-A      9.5080 eV  130.40 nm  f=0.0266  <S**2>=0.000
      11 -> 15        -0.11420
      13 -> 18         0.29282
      13 -> 20         0.48040
      13 -> 21        -0.33579
 
 Excited State  14:      Singlet-A      9.8602 eV  125.74 nm  f=0.0109  <S**2>=0.000
       9 -> 14         0.63095
      12 -> 14        -0.11679
      13 -> 20        -0.20406
      13 -> 21        -0.13513
 
 Excited State  15:      Singlet-A      9.8960 eV  125.29 nm  f=0.0596  <S**2>=0.000
       8 -> 15        -0.12472
       9 -> 15        -0.23813
      10 -> 14         0.10291
      10 -> 15         0.25803
      10 -> 16         0.11533
      11 -> 15         0.37135
      11 -> 19         0.12613
      12 -> 15        -0.11194
      12 -> 16        -0.14247
      12 -> 17         0.21145
      12 -> 18         0.20331
 SavETr:  write IOETrn=   770 NScale= 10 NData=  16 NLR=1 NState=   15 LETran=     280.
 The selected state is a singlet
 CISAX will form     1 AO SS matrices at one time.
 NMat=     1 NSing=     1 JSym2X= 0.
 Leave Link  914 at Tue Dec 15 17:06:16 2015, MaxMem=    33554432 cpu:         0.1
 (Enter /home/Applications/g09/g09/l1002.exe)
 Minotr:  Closed shell wavefunction.
          Computing CIS/TD-HF/TD-KS derivatives.
          Using Z-Vector for PSCF gradient.
          Skipping F1 and S1 gradient terms here.
          IDoAtm=111111111
          Direct CPHF calculation.
          Differentiating once with respect to electric field.
                with respect to dipole field.
          Differentiating once with respect to nuclear coordinates.
          Electric field/nuclear overlap derivatives assumed to be zero.
          Requested convergence is 1.0D-10 RMS, and 1.0D-09 maximum.
          NewPWx=T KeepS1=F KeepF1=F KeepIn=T MapXYZ=F SortEE=F KeepMc=T.
          MDV=      33495423 using IRadAn=       0.
 Keep J ints in memory in canonical form, NReq=871704.
 FoFCou: FMM=F IPFlag=           0 FMFlag=           0 FMFlg1=           0
         NFxFlg=           0 DoJE=F BraDBF=F KetDBF=F FulRan=T
         wScrn=  0.000000 ICntrl=     600 IOpCl=  2 I1Cent=           0 NGrid=           0
         NMat0=    1 NMatS0=     54 NMatT0=    0 NMatD0=    1 NMtDS0=    0 NMtDT0=    0
 Symmetry not used in FoFCou.
          Solving linear equations separately, MaxMat=       0.
          There are     1 degrees of freedom in the 1st order CPHF.  IDoFFX=0 NUNeed=     1.
 LinEq1:  Iter=  0 NonCon=     1 RMS=7.96D-03 Max=4.81D-02 NDo=     1
 AX will form     1 AO Fock derivatives at one time.
 LinEq1:  Iter=  1 NonCon=     1 RMS=7.69D-04 Max=2.14D-03 NDo=     1
 LinEq1:  Iter=  2 NonCon=     1 RMS=1.24D-04 Max=1.02D-03 NDo=     1
 LinEq1:  Iter=  3 NonCon=     1 RMS=1.45D-05 Max=5.21D-05 NDo=     1
 LinEq1:  Iter=  4 NonCon=     1 RMS=1.89D-06 Max=9.55D-06 NDo=     1
 LinEq1:  Iter=  5 NonCon=     1 RMS=2.06D-07 Max=7.44D-07 NDo=     1
 LinEq1:  Iter=  6 NonCon=     1 RMS=3.18D-08 Max=1.11D-07 NDo=     1
 LinEq1:  Iter=  7 NonCon=     1 RMS=3.98D-09 Max=1.12D-08 NDo=     1
 LinEq1:  Iter=  8 NonCon=     1 RMS=5.12D-10 Max=1.91D-09 NDo=     1
 LinEq1:  Iter=  9 NonCon=     0 RMS=5.12D-11 Max=1.36D-10 NDo=     1
 Linear equations converged to 1.000D-10 1.000D-09 after     9 iterations.
 End of Minotr F.D. properties file   721 does not exist.
 End of Minotr F.D. properties file   722 does not exist.
 End of Minotr F.D. properties file   788 does not exist.
 Leave Link 1002 at Tue Dec 15 17:06:16 2015, MaxMem=    33554432 cpu:         0.0
 (Enter /home/Applications/g09/g09/l601.exe)
 Copying SCF densities to generalized density rwf, IOpCl= 0 IROHF=0.

 **********************************************************************

            Population analysis using the SCF density.

 **********************************************************************

 Orbital symmetries:
       Occupied  (A) (A) (A) (A) (A) (A) (A) (A) (A) (A) (A) (A)
                 (A)
       Virtual   (A) (A) (A) (A) (A) (A) (A) (A) (A) (A) (A)
 The electronic state is 1-A.
 Alpha  occ. eigenvalues --   -1.77030  -1.18031  -0.96431  -0.82134  -0.75882
 Alpha  occ. eigenvalues --   -0.67073  -0.66595  -0.56321  -0.49616  -0.44929
 Alpha  occ. eigenvalues --   -0.44143  -0.40247  -0.29427
 Alpha virt. eigenvalues --    0.11384   0.15333   0.17686   0.24418   0.26905
 Alpha virt. eigenvalues --    0.28588   0.30543   0.32697   0.41379   0.50119
 Alpha virt. eigenvalues --    0.55551
     Molecular Orbital Coefficients:
                           1         2         3         4         5
                           O         O         O         O         O
     Eigenvalues --    -1.77030  -1.18031  -0.96431  -0.82134  -0.75882
   1 1   C  1S          0.13236   0.50627  -0.20168  -0.27702  -0.12509
   2        1PX         0.11886   0.15616   0.14767   0.25248  -0.08152
   3        1PY        -0.09672  -0.03552   0.19668   0.02842  -0.39375
   4        1PZ         0.00272   0.01142  -0.00452  -0.01153  -0.00848
   5 2   C  1S          0.28756   0.23113  -0.49062   0.11044   0.40071
   6        1PX         0.28496  -0.04238   0.01268   0.36686  -0.15601
   7        1PY        -0.00560   0.34686   0.09143  -0.36089  -0.12927
   8        1PZ        -0.00453  -0.00375   0.00980  -0.00389  -0.01497
   9 3   O  1S          0.74065  -0.35489  -0.06715  -0.02430  -0.26076
  10        1PX        -0.02425  -0.06448   0.22348  -0.27506  -0.04058
  11        1PY         0.08938   0.12460   0.11049  -0.06052   0.09343
  12        1PZ         0.00053  -0.00008   0.00058   0.00104  -0.00147
  13 4   C  1S          0.30501   0.10693   0.54138  -0.14502   0.37664
  14        1PX        -0.22844  -0.17450   0.00959  -0.08043   0.19800
  15        1PY        -0.20024   0.26554   0.00054   0.51569   0.04229
  16        1PZ        -0.00011   0.00042   0.00129   0.00023   0.00050
  17 5   C  1S          0.14232   0.44405   0.28382   0.25793  -0.13145
  18        1PX        -0.01777  -0.14747   0.23287   0.19025   0.30493
  19        1PY        -0.15931  -0.11539  -0.05408   0.06676  -0.21976
  20        1PZ        -0.00207  -0.00586  -0.00407  -0.00662   0.00154
  21 6   H  1S          0.01449   0.13638   0.14022   0.18040  -0.11529
  22 7   H  1S          0.06029  -0.01324   0.25465  -0.10696   0.29118
  23 8   H  1S          0.05056   0.02326  -0.23642   0.03397   0.28904
  24 9   H  1S          0.01537   0.18097  -0.10729  -0.23630  -0.13917
                           6         7         8         9        10
                           O         O         O         O         O
     Eigenvalues --    -0.67073  -0.66595  -0.56321  -0.49616  -0.44929
   1 1   C  1S          0.17575  -0.02807   0.10975  -0.01015  -0.00223
   2        1PX        -0.19110   0.00683   0.08020  -0.27348   0.07046
   3        1PY         0.23325  -0.01589  -0.03151  -0.29707  -0.04462
   4        1PZ         0.04161   0.39253  -0.00016  -0.00527  -0.25126
   5 2   C  1S          0.07264   0.00628   0.05880  -0.12088   0.00335
   6        1PX        -0.23623   0.03208   0.52664  -0.18521  -0.03309
   7        1PY        -0.23771   0.01470   0.24917   0.43407   0.02521
   8        1PZ         0.05114   0.56702  -0.00825  -0.02917  -0.62675
   9 3   O  1S          0.23886  -0.02582  -0.02290   0.34521   0.00075
  10        1PX         0.02691  -0.00737  -0.13796   0.02361   0.01734
  11        1PY        -0.21768   0.02016  -0.04369  -0.13173  -0.00420
  12        1PZ         0.01958   0.24120   0.00078  -0.00323   0.03258
  13 4   C  1S          0.05336  -0.00112  -0.05805  -0.11757  -0.02228
  14        1PX         0.40582  -0.03512   0.58468  -0.01395   0.02216
  15        1PY         0.13477  -0.00547   0.05648   0.49299  -0.06131
  16        1PZ         0.04568   0.55605  -0.00014   0.02688   0.69798
  17 5   C  1S          0.21770  -0.01593  -0.13849  -0.06205   0.02853
  18        1PX         0.03816   0.00136  -0.13746   0.39118  -0.03224
  19        1PY         0.33379  -0.03944  -0.01498  -0.07749   0.06738
  20        1PZ         0.02988   0.38508   0.00006   0.01562   0.16280
  21 6   H  1S          0.31135  -0.03564  -0.10801  -0.00193   0.05445
  22 7   H  1S          0.26764  -0.02060   0.33465  -0.07971   0.00316
  23 8   H  1S          0.23361  -0.01922  -0.32514  -0.18190   0.01174
  24 9   H  1S          0.28038  -0.01037   0.00523   0.03464  -0.07775
                          11        12        13        14        15
                           O         O         O         V         V
     Eigenvalues --    -0.44143  -0.40247  -0.29427   0.11384   0.15333
   1 1   C  1S          0.07580  -0.06499  -0.02198  -0.02847  -0.09633
   2        1PX        -0.38689  -0.36844   0.01485   0.01879   0.03036
   3        1PY         0.36380  -0.10089  -0.00399  -0.00758   0.21999
   4        1PZ        -0.04402   0.00614   0.53889   0.69668  -0.00039
   5 2   C  1S         -0.06427   0.18356  -0.00723  -0.00173  -0.18851
   6        1PX         0.23742   0.32963  -0.00316  -0.00430   0.28518
   7        1PY        -0.26923   0.11949  -0.00469   0.00050   0.44315
   8        1PZ        -0.12394  -0.00604  -0.41100  -0.23003  -0.00108
   9 3   O  1S         -0.08238  -0.19724  -0.00075  -0.00010   0.01239
  10        1PX        -0.10015  -0.05644  -0.00026  -0.00034   0.00549
  11        1PY         0.05122   0.17864  -0.00029   0.00142   0.08822
  12        1PZ        -0.00043  -0.00042  -0.19327  -0.01389   0.00011
  13 4   C  1S          0.14998   0.07828   0.00048  -0.00259  -0.02134
  14        1PX        -0.14821  -0.17847   0.00209   0.00634   0.03441
  15        1PY         0.21131  -0.26665  -0.00132  -0.00388   0.03976
  16        1PZ         0.09999  -0.01061  -0.31679   0.19637   0.00014
  17 5   C  1S         -0.11809  -0.06919   0.01621  -0.01077  -0.09485
  18        1PX         0.10270   0.30683  -0.01317   0.00522   0.08640
  19        1PY        -0.34742   0.44963   0.00221  -0.00866   0.06362
  20        1PZ         0.02323   0.00618   0.63377  -0.64870  -0.00006
  21 6   H  1S         -0.29938   0.38200  -0.00542   0.00819  -0.04797
  22 7   H  1S         -0.01351  -0.09839   0.00216  -0.00733  -0.02436
  23 8   H  1S         -0.03479  -0.15800   0.00283  -0.00185   0.77008
  24 9   H  1S          0.45457   0.16808   0.00115   0.02270  -0.02329
                          16        17        18        19        20
                           V         V         V         V         V
     Eigenvalues --     0.17686   0.24418   0.26905   0.28588   0.30543
   1 1   C  1S         -0.08035   0.03377   0.01941  -0.01171   0.08922
   2        1PX        -0.11235  -0.01303   0.53932  -0.04981  -0.38425
   3        1PY         0.01431   0.27369  -0.03909   0.58725  -0.18570
   4        1PZ         0.00785   0.01214  -0.01613   0.00947   0.01466
   5 2   C  1S         -0.00458   0.26049   0.02794   0.39248  -0.13182
   6        1PX        -0.05187  -0.09379  -0.06075  -0.14337   0.15489
   7        1PY         0.03824   0.10354  -0.01728   0.18795  -0.06428
   8        1PZ        -0.00238  -0.00538   0.00470  -0.00859  -0.00063
   9 3   O  1S          0.01701   0.03581  -0.01244   0.00386  -0.04440
  10        1PX        -0.06696   0.01175   0.02298   0.02373   0.03618
  11        1PY         0.08238  -0.01298  -0.01040   0.00019  -0.11527
  12        1PZ        -0.00040  -0.00042  -0.00371  -0.00394   0.00439
  13 4   C  1S         -0.13045   0.39451  -0.19539  -0.28832  -0.20261
  14        1PX        -0.49122   0.02705  -0.07869  -0.00684   0.01627
  15        1PY         0.19712   0.21131  -0.12814  -0.18014  -0.22671
  16        1PZ         0.00453   0.00484  -0.00074  -0.00239  -0.00166
  17 5   C  1S         -0.13798  -0.06090   0.01618   0.04735   0.62132
  18        1PX        -0.25041  -0.06353   0.47321   0.33809   0.10261
  19        1PY         0.23907   0.50736   0.23508  -0.26732   0.07519
  20        1PZ        -0.00934  -0.00866   0.00744   0.00162  -0.02107
  21 6   H  1S         -0.06937  -0.47473  -0.35810   0.08299  -0.43721
  22 7   H  1S          0.71736  -0.26342   0.15007   0.13724   0.08016
  23 8   H  1S         -0.00790  -0.12242  -0.03670  -0.13469   0.07314
  24 9   H  1S         -0.09621  -0.24212   0.45713  -0.30714  -0.22204
                          21        22        23        24
                           V         V         V         V
     Eigenvalues --     0.32697   0.41379   0.50119   0.55551
   1 1   C  1S          0.71240  -0.00543   0.06799   0.02242
   2        1PX         0.06192   0.00492  -0.04229  -0.01344
   3        1PY        -0.01305   0.00115   0.01515  -0.03966
   4        1PZ         0.03717   0.02762   0.00235   0.00105
   5 2   C  1S         -0.25582   0.00178  -0.14569   0.16387
   6        1PX         0.10640  -0.00336  -0.19674   0.17941
   7        1PY        -0.23258   0.00283  -0.08459  -0.14187
   8        1PZ        -0.00046  -0.21071   0.00089  -0.00186
   9 3   O  1S         -0.02783   0.00044   0.15659   0.01110
  10        1PX         0.01211   0.00963  -0.32655   0.84864
  11        1PY        -0.06503  -0.00701   0.84345   0.32629
  12        1PZ         0.00430   0.95006   0.01026  -0.00590
  13 4   C  1S          0.02427  -0.00065  -0.13938  -0.18683
  14        1PX        -0.09391  -0.00201   0.21694   0.06066
  15        1PY         0.01052   0.00260   0.03307   0.22617
  16        1PZ        -0.00119  -0.22746  -0.00159   0.00164
  17 5   C  1S         -0.32068  -0.00120   0.06534  -0.01452
  18        1PX         0.29960  -0.00022   0.03609  -0.03451
  19        1PY         0.06394  -0.00039   0.05900   0.01950
  20        1PZ         0.00329   0.01567  -0.00027  -0.00007
  21 6   H  1S          0.07474   0.00037  -0.05311  -0.00599
  22 7   H  1S          0.03433   0.00082  -0.03326  -0.01155
  23 8   H  1S          0.05058  -0.00078  -0.02705   0.00669
  24 9   H  1S         -0.36815   0.00420  -0.04795   0.00487
     Density Matrix:
                           1         2         3         4         5
   1 1   C  1S          0.92234
   2        1PX        -0.04561   1.07822
   3        1PY         0.09249  -0.04295   0.98716
   4        1PZ        -0.01476   0.00088  -0.00215   1.02344
   5 2   C  1S          0.35386  -0.05132  -0.55656   0.01261   1.22172
   6        1PX        -0.10886   0.11407   0.17143  -0.00165   0.25098
   7        1PY         0.45037  -0.00986  -0.51348   0.01213  -0.14719
   8        1PZ        -0.01527   0.00378   0.01052   0.33268   0.00927
   9 3   O  1S          0.02906   0.00067  -0.05212   0.00113  -0.00012
  10        1PX        -0.02811  -0.01609   0.05793  -0.00122  -0.38217
  11        1PY         0.01542   0.02365  -0.07926   0.00073   0.11641
  12        1PZ         0.00153  -0.00177   0.00310  -0.03363   0.00840
  13 4   C  1S         -0.02214  -0.01112   0.03528   0.00045   0.00208
  14        1PX         0.02777   0.01633  -0.01208   0.00131   0.00376
  15        1PY         0.03645   0.00112  -0.00429   0.00158  -0.06363
  16        1PZ         0.01125  -0.00466   0.00294  -0.26108  -0.00107
  17 5   C  1S          0.30132   0.48318   0.24377   0.02362  -0.01987
  18        1PX        -0.47800  -0.49623  -0.31399  -0.01824  -0.02626
  19        1PY        -0.11288  -0.16141   0.04901   0.00143   0.02185
  20        1PZ        -0.03884  -0.00258  -0.01389   0.90394  -0.00351
  21 6   H  1S          0.00700   0.01927  -0.00169  -0.00445   0.09296
  22 7   H  1S          0.06718   0.06209   0.01557   0.00280   0.05126
  23 8   H  1S          0.07178   0.02236  -0.08646   0.00190   0.49689
  24 9   H  1S          0.54327  -0.68006   0.45211   0.03017   0.06964
                           6         7         8         9        10
   6        1PX         1.55340
   7        1PY        -0.09053   1.34059
   8        1PZ        -0.00462   0.00639   1.80511
   9 3   O  1S          0.07832  -0.01059   0.00049   1.94143
  10        1PX        -0.44500   0.18548   0.00771   0.08900   0.33176
  11        1PY         0.21891   0.10801  -0.00225  -0.28957   0.01795
  12        1PZ         0.00837  -0.00137   0.39390  -0.00332  -0.00171
  13 4   C  1S          0.03599  -0.04253  -0.00169   0.00524   0.23631
  14        1PX         0.00155   0.01365   0.00049  -0.06105  -0.02299
  15        1PY        -0.02997   0.01472   0.00122  -0.05955  -0.31074
  16        1PZ         0.00024  -0.00008  -0.00547  -0.00001   0.00147
  17 5   C  1S         -0.04951   0.02766  -0.00599   0.02862   0.01114
  18        1PX        -0.00165  -0.00614   0.00219   0.03534  -0.00332
  19        1PY         0.01484  -0.01620  -0.00410  -0.04681   0.01972
  20        1PZ        -0.00092   0.00154  -0.29204  -0.00064  -0.00082
  21 6   H  1S          0.01226   0.07042   0.00276   0.01011   0.02022
  22 7   H  1S          0.05535  -0.00775  -0.00140   0.01744   0.08034
  23 8   H  1S         -0.55257  -0.57695  -0.00263   0.00772  -0.03408
  24 9   H  1S          0.05209   0.00283  -0.00098   0.00963  -0.02804
                          11        12        13        14        15
  11        1PY         0.29944
  12        1PZ         0.00143   0.19399
  13 4   C  1S          0.34503  -0.00009   1.21921
  14        1PX        -0.34011  -0.00009  -0.08842   1.38135
  15        1PY        -0.29083  -0.00320  -0.26622   0.12449   1.52453
  16        1PZ        -0.00332   0.43771  -0.00402   0.00095  -0.00355
  17 5   C  1S          0.03900  -0.00189   0.32170  -0.22945   0.39952
  18        1PX         0.05831   0.00184   0.39259  -0.12803   0.41527
  19        1PY        -0.11903  -0.00145  -0.34646   0.21809  -0.32984
  20        1PZ        -0.00040  -0.04759  -0.00390   0.00221  -0.00485
  21 6   H  1S          0.00250   0.00129   0.06454  -0.04245  -0.02362
  22 7   H  1S         -0.03104   0.00033   0.54894   0.76596  -0.03866
  23 8   H  1S         -0.07377  -0.00063   0.05752  -0.04368  -0.03346
  24 9   H  1S          0.00194  -0.00050   0.08294  -0.05406   0.05679
                          16        17        18        19        20
  16        1PZ         1.81928
  17 5   C  1S          0.00735   0.94457
  18        1PX         0.00431  -0.04874   0.96950
  19        1PY        -0.00428   0.09780   0.07491   1.08196
  20        1PZ         0.26203   0.01035  -0.00477   0.00219   1.15654
  21 6   H  1S          0.00064   0.51584   0.24430   0.79655  -0.01279
  22 7   H  1S          0.00047   0.06968   0.05983  -0.08198  -0.00025
  23 8   H  1S          0.00097   0.08818  -0.06966  -0.03932  -0.00084
  24 9   H  1S         -0.00636   0.00053  -0.03015   0.00186   0.01056
                          21        22        23        24
  21 6   H  1S          0.86547
  22 7   H  1S         -0.00680   0.73032
  23 8   H  1S          0.00626   0.01547   0.72751
  24 9   H  1S         -0.01162   0.01457  -0.00696   0.88116
    Full Mulliken population analysis:
                           1         2         3         4         5
   1 1   C  1S          0.92234
   2        1PX         0.00000   1.07822
   3        1PY         0.00000   0.00000   0.98716
   4        1PZ         0.00000   0.00000   0.00000   1.02344
   5 2   C  1S          0.00000   0.00000   0.00000   0.00000   1.22172
   6        1PX         0.00000   0.00000   0.00000   0.00000   0.00000
   7        1PY         0.00000   0.00000   0.00000   0.00000   0.00000
   8        1PZ         0.00000   0.00000   0.00000   0.00000   0.00000
   9 3   O  1S          0.00000   0.00000   0.00000   0.00000   0.00000
  10        1PX         0.00000   0.00000   0.00000   0.00000   0.00000
  11        1PY         0.00000   0.00000   0.00000   0.00000   0.00000
  12        1PZ         0.00000   0.00000   0.00000   0.00000   0.00000
  13 4   C  1S          0.00000   0.00000   0.00000   0.00000   0.00000
  14        1PX         0.00000   0.00000   0.00000   0.00000   0.00000
  15        1PY         0.00000   0.00000   0.00000   0.00000   0.00000
  16        1PZ         0.00000   0.00000   0.00000   0.00000   0.00000
  17 5   C  1S          0.00000   0.00000   0.00000   0.00000   0.00000
  18        1PX         0.00000   0.00000   0.00000   0.00000   0.00000
  19        1PY         0.00000   0.00000   0.00000   0.00000   0.00000
  20        1PZ         0.00000   0.00000   0.00000   0.00000   0.00000
  21 6   H  1S          0.00000   0.00000   0.00000   0.00000   0.00000
  22 7   H  1S          0.00000   0.00000   0.00000   0.00000   0.00000
  23 8   H  1S          0.00000   0.00000   0.00000   0.00000   0.00000
  24 9   H  1S          0.00000   0.00000   0.00000   0.00000   0.00000
                           6         7         8         9        10
   6        1PX         1.55340
   7        1PY         0.00000   1.34059
   8        1PZ         0.00000   0.00000   1.80511
   9 3   O  1S          0.00000   0.00000   0.00000   1.94143
  10        1PX         0.00000   0.00000   0.00000   0.00000   0.33176
  11        1PY         0.00000   0.00000   0.00000   0.00000   0.00000
  12        1PZ         0.00000   0.00000   0.00000   0.00000   0.00000
  13 4   C  1S          0.00000   0.00000   0.00000   0.00000   0.00000
  14        1PX         0.00000   0.00000   0.00000   0.00000   0.00000
  15        1PY         0.00000   0.00000   0.00000   0.00000   0.00000
  16        1PZ         0.00000   0.00000   0.00000   0.00000   0.00000
  17 5   C  1S          0.00000   0.00000   0.00000   0.00000   0.00000
  18        1PX         0.00000   0.00000   0.00000   0.00000   0.00000
  19        1PY         0.00000   0.00000   0.00000   0.00000   0.00000
  20        1PZ         0.00000   0.00000   0.00000   0.00000   0.00000
  21 6   H  1S          0.00000   0.00000   0.00000   0.00000   0.00000
  22 7   H  1S          0.00000   0.00000   0.00000   0.00000   0.00000
  23 8   H  1S          0.00000   0.00000   0.00000   0.00000   0.00000
  24 9   H  1S          0.00000   0.00000   0.00000   0.00000   0.00000
                          11        12        13        14        15
  11        1PY         0.29944
  12        1PZ         0.00000   0.19399
  13 4   C  1S          0.00000   0.00000   1.21921
  14        1PX         0.00000   0.00000   0.00000   1.38135
  15        1PY         0.00000   0.00000   0.00000   0.00000   1.52453
  16        1PZ         0.00000   0.00000   0.00000   0.00000   0.00000
  17 5   C  1S          0.00000   0.00000   0.00000   0.00000   0.00000
  18        1PX         0.00000   0.00000   0.00000   0.00000   0.00000
  19        1PY         0.00000   0.00000   0.00000   0.00000   0.00000
  20        1PZ         0.00000   0.00000   0.00000   0.00000   0.00000
  21 6   H  1S          0.00000   0.00000   0.00000   0.00000   0.00000
  22 7   H  1S          0.00000   0.00000   0.00000   0.00000   0.00000
  23 8   H  1S          0.00000   0.00000   0.00000   0.00000   0.00000
  24 9   H  1S          0.00000   0.00000   0.00000   0.00000   0.00000
                          16        17        18        19        20
  16        1PZ         1.81928
  17 5   C  1S          0.00000   0.94457
  18        1PX         0.00000   0.00000   0.96950
  19        1PY         0.00000   0.00000   0.00000   1.08196
  20        1PZ         0.00000   0.00000   0.00000   0.00000   1.15654
  21 6   H  1S          0.00000   0.00000   0.00000   0.00000   0.00000
  22 7   H  1S          0.00000   0.00000   0.00000   0.00000   0.00000
  23 8   H  1S          0.00000   0.00000   0.00000   0.00000   0.00000
  24 9   H  1S          0.00000   0.00000   0.00000   0.00000   0.00000
                          21        22        23        24
  21 6   H  1S          0.86547
  22 7   H  1S          0.00000   0.73032
  23 8   H  1S          0.00000   0.00000   0.72751
  24 9   H  1S          0.00000   0.00000   0.00000   0.88116
     Gross orbital populations:
                           1
   1 1   C  1S          0.92234
   2        1PX         1.07822
   3        1PY         0.98716
   4        1PZ         1.02344
   5 2   C  1S          1.22172
   6        1PX         1.55340
   7        1PY         1.34059
   8        1PZ         1.80511
   9 3   O  1S          1.94143
  10        1PX         0.33176
  11        1PY         0.29944
  12        1PZ         0.19399
  13 4   C  1S          1.21921
  14        1PX         1.38135
  15        1PY         1.52453
  16        1PZ         1.81928
  17 5   C  1S          0.94457
  18        1PX         0.96950
  19        1PY         1.08196
  20        1PZ         1.15654
  21 6   H  1S          0.86547
  22 7   H  1S          0.73032
  23 8   H  1S          0.72751
  24 9   H  1S          0.88116
          Condensed to atoms (all electrons):
               1          2          3          4          5          6
     1  C    4.011155   0.000000   0.000000   0.000000   0.000000   0.000000
     2  C    0.000000   5.920823   0.000000   0.000000   0.000000   0.000000
     3  O    0.000000   0.000000   2.766616   0.000000   0.000000   0.000000
     4  C    0.000000   0.000000   0.000000   5.944382   0.000000   0.000000
     5  C    0.000000   0.000000   0.000000   0.000000   4.152570   0.000000
     6  H    0.000000   0.000000   0.000000   0.000000   0.000000   0.865466
     7  H    0.000000   0.000000   0.000000   0.000000   0.000000   0.000000
     8  H    0.000000   0.000000   0.000000   0.000000   0.000000   0.000000
     9  H    0.000000   0.000000   0.000000   0.000000   0.000000   0.000000
               7          8          9
     1  C    0.000000   0.000000   0.000000
     2  C    0.000000   0.000000   0.000000
     3  O    0.000000   0.000000   0.000000
     4  C    0.000000   0.000000   0.000000
     5  C    0.000000   0.000000   0.000000
     6  H    0.000000   0.000000   0.000000
     7  H    0.730316   0.000000   0.000000
     8  H    0.000000   0.727510   0.000000
     9  H    0.000000   0.000000   0.881162
 Mulliken charges:
               1
     1  C   -0.011155
     2  C   -1.920823
     3  O    3.233384
     4  C   -1.944382
     5  C   -0.152570
     6  H    0.134534
     7  H    0.269684
     8  H    0.272490
     9  H    0.118838
 Sum of Mulliken charges =   0.00000
 Mulliken charges with hydrogens summed into heavy atoms:
               1
     1  C    0.107683
     2  C   -1.648333
     3  O    3.233384
     4  C   -1.674698
     5  C   -0.018037
 Charge=              0.0000 electrons
 Dipole moment (field-independent basis, Debye):
    X=              3.0412    Y=             -9.6018    Z=             -0.1426  Tot=             10.0729
 N-N= 1.046885377003D+02 E-N=-1.701720916546D+02  KE=-1.510238285466D+01
 Orbital energies and kinetic energies (alpha):
                                 1                 2
   1         O                -1.770296         -1.285921
   2         O                -1.180311         -1.020694
   3         O                -0.964311         -0.864359
   4         O                -0.821339         -0.615904
   5         O                -0.758816         -0.680732
   6         O                -0.670735         -0.571746
   7         O                -0.665949         -0.537364
   8         O                -0.563207         -0.409108
   9         O                -0.496159         -0.266353
  10         O                -0.449291         -0.328376
  11         O                -0.441433         -0.411187
  12         O                -0.402469         -0.293500
  13         O                -0.294272         -0.265948
  14         V                 0.113840         -0.168632
  15         V                 0.153335         -0.214527
  16         V                 0.176856         -0.185176
  17         V                 0.244175         -0.158436
  18         V                 0.269049         -0.142953
  19         V                 0.285878         -0.086633
  20         V                 0.305431         -0.124642
  21         V                 0.326971         -0.106679
  22         V                 0.413792          0.517170
  23         V                 0.501186          0.552482
  24         V                 0.555508          0.621422
 Total kinetic energy from orbitals=-1.510238285466D+01
 Leave Link  601 at Tue Dec 15 17:06:16 2015, MaxMem=    33554432 cpu:         0.0
 (Enter /home/Applications/g09/g09/l701.exe)
 Compute integral first derivatives.
 ... and contract with generalized density number  6.
 Leave Link  701 at Tue Dec 15 17:06:16 2015, MaxMem=    33554432 cpu:         0.1
 (Enter /home/Applications/g09/g09/l702.exe)
 L702 exits ... SP integral derivatives will be done elsewhere.
 Leave Link  702 at Tue Dec 15 17:06:16 2015, MaxMem=    33554432 cpu:         0.0
 (Enter /home/Applications/g09/g09/l703.exe)
 Compute integral first derivatives, UseDBF=F ICtDFT=           0.
 Integral derivatives from FoFJK, PRISM(SPDF).
 Calling FoFJK, ICntrl=  10005127 FMM=F ISym2X=0 I1Cent= 0 IOpClX= 0 NMat=1 NMatS=1 NMatT=0.
 FoFJK:  IHMeth= 8 ICntrl=10005127 DoSepK=F KAlg= 0 I1Cent=   0 FoldK=F
 IRaf=         0 NMat=   1 IRICut=       1 DoRegI=T DoRafI=F ISym2E= 0.
 FoFCou: FMM=F IPFlag=           0 FMFlag=      100000 FMFlg1=         800
         NFxFlg=           0 DoJE=F BraDBF=F KetDBF=F FulRan=T
         wScrn=  0.000000 ICntrl=10005127 IOpCl=  0 I1Cent=           0 NGrid=           0
         NMat0=    1 NMatS0=      1 NMatT0=    0 NMatD0=    1 NMtDS0=    0 NMtDT0=    0
 Symmetry not used in FoFCou.
 Leave Link  703 at Tue Dec 15 17:06:16 2015, MaxMem=    33554432 cpu:         0.0
 (Enter /home/Applications/g09/g09/l716.exe)
 Dipole        = 1.33493084D+00-4.13579802D+00-2.94193802D-02
 ***** Axes restored to original set *****
 -------------------------------------------------------------------
 Center     Atomic                   Forces (Hartrees/Bohr)
 Number     Number              X              Y              Z
 -------------------------------------------------------------------
      1        6           0.263322045   -0.039618684    0.011560437
      2        6          -0.416004312   -0.192049469   -0.006074605
      3        8           0.041771789   -0.028090668   -0.000752664
      4        6          -0.228349663    0.104612488   -0.007975108
      5        6           0.210924178    0.137485314    0.008052012
      6        1           0.025851872    0.016615637   -0.001288311
      7        1          -0.001761300    0.059961377   -0.000028471
      8        1           0.020306893    0.000319960   -0.002263891
      9        1           0.083938497   -0.059235955   -0.001229398
 -------------------------------------------------------------------
 Cartesian Forces:  Max     0.416004312 RMS     0.125562587
 Z-matrix is all fixed cartesians, so copy forces.
 Force constants in Cartesian coordinates: 
                1             2             3             4             5 
      1  0.116000D+01
      2 -0.227313D-01  0.889017D+00
      3  0.145346D-01  0.303560D-02  0.269069D+00
      4 -0.691286D+00 -0.143536D+00 -0.298999D-01  0.108797D+01
      5 -0.115993D+00 -0.239449D+00 -0.858903D-02  0.174074D-01  0.836578D+00
      6 -0.339721D-01 -0.804587D-02 -0.135611D+00  0.308603D-01  0.494627D-02
      7 -0.820891D-02  0.311812D-01  0.294440D-03 -0.293472D+00  0.169004D+00
      8 -0.609563D-02  0.231348D-01  0.269413D-03  0.218163D+00 -0.385120D+00
      9 -0.160168D-02  0.366921D-02  0.773536D-02 -0.100658D-02 -0.813217D-03
     10  0.121467D-01  0.179692D-03 -0.317468D-04  0.262950D-01  0.194880D-01
     11  0.343420D-01  0.513412D-03 -0.139999D-03 -0.175928D-01 -0.130489D-01
     12 -0.228300D-02  0.144269D-03 -0.221499D-02  0.173963D-03 -0.144547D-03
     13 -0.174780D+00  0.172345D-01 -0.736301D-03  0.976850D-02 -0.376603D-01
     14 -0.736780D-02 -0.459174D+00  0.153482D-01  0.172023D-03 -0.678593D-03
     15 -0.136476D-02  0.188153D-01 -0.922344D-01  0.741361D-03 -0.313244D-02
     16  0.177530D-01  0.268786D-03  0.260918D-04  0.267265D-04 -0.154811D-04
     17 -0.222521D-01 -0.387605D-03 -0.147040D-02 -0.108381D-04  0.627784D-05
     18  0.290503D-02  0.766938D-03  0.205050D-01 -0.318769D-03  0.184644D-03
     19  0.000000D+00 -0.136894D-05 -0.388079D-04  0.142285D-05  0.000000D+00
     20  0.000000D+00  0.455688D-05  0.129183D-03  0.000000D+00  0.000000D+00
     21  0.472516D-05  0.252540D-03  0.715923D-02 -0.638876D-04  0.465386D-05
     22  0.662138D-02 -0.251181D-01 -0.365075D-03 -0.134186D+00 -0.712692D-01
     23 -0.351012D-02  0.132272D-01  0.655458D-03 -0.677253D-01 -0.224531D+00
     24 -0.635110D-03 -0.453728D-02  0.363390D-01  0.203261D-02  0.468867D-02
     25 -0.322244D+00  0.142522D+00  0.162167D-01 -0.511734D-02  0.190387D-01
     26  0.143608D+00 -0.226887D+00 -0.923838D-02 -0.687753D-02  0.262437D-01
     27  0.224123D-01 -0.141007D-01 -0.110747D+00 -0.251904D-02  0.285499D-02
                6             7             8             9            10 
      6  0.228422D+00
      7 -0.294050D-02  0.581102D+00
      8  0.196533D-02  0.399295D-01  0.833619D+00
      9 -0.556605D-01  0.560703D-02 -0.143249D-03  0.668105D-01
     10  0.324712D-03 -0.311945D+00 -0.258281D+00 -0.315731D-02  0.918526D+00
     11 -0.360881D-03 -0.211464D+00 -0.476043D+00 -0.190415D-02  0.115045D-01
     12 -0.166149D-02 -0.268684D-02 -0.185782D-02 -0.497079D-01  0.973584D-02
     13  0.265934D-02 -0.107727D-01  0.719221D-02  0.259240D-03 -0.466400D+00
     14  0.119789D-03 -0.304810D-01  0.204128D-01 -0.769533D-05  0.117500D+00
     15 -0.221515D-02  0.182992D-04  0.230354D-03  0.805124D-02 -0.375458D-02
     16 -0.450431D-03  0.161252D-05  0.000000D+00 -0.144371D-03 -0.608459D-02
     17  0.182658D-03  0.244889D-05  0.000000D+00 -0.219253D-03  0.756480D-02
     18  0.537233D-02 -0.634768D-04  0.997279D-05  0.568317D-02 -0.114382D-03
     19 -0.148345D-03  0.233858D-01 -0.156573D-01  0.647134D-03 -0.172538D+00
     20  0.611867D-04  0.122996D-01 -0.823524D-02  0.413067D-03  0.102045D+00
     21  0.666088D-02  0.276910D-03 -0.205308D-03  0.348769D-02 -0.295965D-02
     22  0.143135D-02  0.199022D-01  0.147450D-01 -0.426980D-03  0.000000D+00
     23  0.155637D-02 -0.105270D-01 -0.779884D-02  0.270129D-03  0.000000D+00
     24 -0.804672D-01 -0.624877D-04 -0.191266D-04  0.348168D-02 -0.465252D-04
     25  0.223571D-02  0.773266D-05  0.435256D-05 -0.176477D-03  0.000000D+00
     26 -0.424848D-03  0.554214D-04  0.311956D-04 -0.126484D-02  0.000000D+00
     27  0.351593D-01 -0.443372D-03 -0.249565D-03  0.101188D-01  0.363936D-05
               11            12            13            14            15 
     11  0.996156D+00
     12 -0.490172D-02  0.203221D+00
     13  0.911374D-01 -0.952974D-03  0.848960D+00
     14 -0.219861D+00  0.166441D-02 -0.160886D-02  0.835884D+00
     15  0.132647D-02 -0.102233D+00  0.146893D-01 -0.962232D-02  0.209711D+00
     16 -0.172960D-01 -0.162982D-02 -0.233585D+00 -0.103812D+00 -0.892037D-02
     17  0.214494D-01  0.402758D-03 -0.106101D+00 -0.190208D+00 -0.587876D-02
     18  0.448203D-03  0.231203D-01 -0.118662D-01 -0.781120D-02 -0.778820D-01
     19  0.109350D+00 -0.291983D-02  0.895563D-02  0.253555D-01 -0.645749D-03
     20 -0.309173D+00  0.443820D-02  0.469621D-02  0.133154D-01  0.239504D-03
     21  0.533418D-02 -0.808885D-01 -0.561130D-03 -0.664398D-03  0.277102D-01
     22  0.000000D+00  0.187828D-04  0.319504D-04 -0.185070D-04 -0.538471D-03
     23  0.000000D+00  0.517848D-04 -0.234230D-04  0.135676D-04  0.394756D-03
     24  0.338910D-05  0.485068D-02 -0.512779D-03  0.297023D-03  0.864205D-02
     25  0.191850D-04  0.543873D-03  0.178206D-01  0.260951D-03 -0.225023D-03
     26  0.714877D-05  0.202660D-03  0.251336D-01  0.295550D-03 -0.237286D-02
     27  0.194508D-03  0.551410D-02 -0.297849D-02  0.676242D-03  0.204505D-01
               16            17            18            19            20 
     16  0.221823D+00
     17  0.120826D+00  0.169143D+00
     18  0.101954D-01  0.687453D-02  0.411029D-01
     19 -0.136058D-05 -0.206629D-05  0.535594D-04  0.140197D+00
     20  0.452907D-05  0.687819D-05 -0.178287D-03 -0.119044D+00  0.304082D+00
     21  0.250999D-03  0.381186D-03 -0.988056D-02  0.305204D-02 -0.510286D-02
     22  0.000000D+00  0.000000D+00  0.000000D+00  0.000000D+00  0.000000D+00
     23  0.000000D+00  0.000000D+00  0.000000D+00  0.000000D+00  0.000000D+00
     24  0.000000D+00  0.000000D+00  0.000000D+00  0.000000D+00  0.000000D+00
     25  0.663324D-04 -0.268990D-04 -0.791153D-03  0.000000D+00  0.000000D+00
     26  0.247170D-04 -0.100232D-04 -0.294802D-03  0.000000D+00  0.000000D+00
     27  0.672517D-03 -0.272717D-03 -0.802117D-02  0.000000D+00  0.000000D+00
               21            22            23            24            25 
     21  0.457511D-01
     22  0.000000D+00  0.107647D+00
     23  0.000000D+00  0.817747D-01  0.219006D+00
     24  0.000000D+00 -0.103074D-02 -0.226054D-02  0.417767D-01
     25  0.000000D+00 -0.158907D-04  0.116495D-04  0.255033D-03  0.309483D+00
     26  0.000000D+00 -0.113891D-03  0.834944D-04  0.182787D-02 -0.161830D+00
     27  0.000000D+00  0.911133D-03 -0.667957D-03 -0.146230D-01 -0.180587D-01
               26            27 
     26  0.200236D+00
     27  0.115652D-01  0.621487D-01
 Leave Link  716 at Tue Dec 15 17:06:16 2015, MaxMem=    33554432 cpu:         0.0
 (Enter /home/Applications/g09/g09/l103.exe)

 GradGradGradGradGradGradGradGradGradGradGradGradGradGradGradGradGradGrad
 Berny optimization.
 Search for a local minimum.
 Step number   1 out of a maximum of    2
 All quantities printed in internal units (Hartrees-Bohrs-Radians)
 Second derivative matrix not updated -- first step.
 ITU=  0
     Eigenvalues ---    0.02194   0.03510   0.06830   0.07132   0.07955
     Eigenvalues ---    0.09926   0.13198   0.16073   0.16186   0.24235
     Eigenvalues ---    0.27860   0.33646   0.40829   0.46303   0.62743
     Eigenvalues ---    0.84414   1.11891   1.38480   1.55150   1.64031
     Eigenvalues ---    1.94483
 Quadratic step=1.255D+00 exceeds max=3.000D-01 adjusted using Lamda=-1.092D+00.
 Angle between NR and scaled steps=  33.44 degrees.
 Angle between quadratic step and forces=  18.49 degrees.
 Linear search not attempted -- first point.
 TrRot= -0.005801 -0.001354  0.000161  0.000073 -0.000073  0.000073
 MatCor failed.
 Variable       Old X    -DE/DX   Delta X   Delta X   Delta X     New X
                                 (Linear)    (Quad)   (Total)
    X1        1.75097   0.26332   0.00000   0.08871   0.08311   1.83408
    Y1       -1.37113  -0.03962   0.00000  -0.03518  -0.03627  -1.40740
    Z1        0.07140   0.01156   0.00000   0.00127   0.00156   0.07296
    X2       -0.58739  -0.41600   0.00000  -0.15836  -0.16385  -0.75124
    Y2       -1.98583  -0.19205   0.00000  -0.09893  -0.10039  -2.08622
    Z2       -0.04622  -0.00607   0.00000   0.00098   0.00108  -0.04514
    X3       -2.11290   0.04177   0.00000   0.00628   0.00048  -2.11243
    Y3        0.07278  -0.02809   0.00000  -0.01336  -0.01502   0.05776
    Z3       -0.06229  -0.00075   0.00000  -0.00101  -0.00100  -0.06329
    X4       -0.73490  -0.22835   0.00000  -0.09341  -0.09952  -0.83442
    Y4        2.13145   0.10461   0.00000   0.05973   0.05826   2.18971
    Z4       -0.05051  -0.00798   0.00000  -0.00477  -0.00467  -0.05518
    X5        1.71115   0.21092   0.00000   0.10173   0.09574   1.80688
    Y5        1.26824   0.13749   0.00000   0.08206   0.08097   1.34920
    Z5       -0.02168   0.00805   0.00000   0.00568   0.00598  -0.01570
    X6        3.35226   0.02585   0.00000   0.04375   0.03757   3.38983
    Y6        2.58964   0.01662   0.00000   0.03148   0.03062   2.62025
    Z6        0.07099  -0.00129   0.00000   0.00002   0.00043   0.07142
    X7       -1.67950  -0.00176   0.00000  -0.01307  -0.01945  -1.69895
    Y7        3.92831   0.05996   0.00000   0.06141   0.05981   3.98812
    Z7       -0.08806  -0.00003   0.00000  -0.00040  -0.00036  -0.08842
    X8       -1.62938   0.02031   0.00000  -0.00330  -0.00852  -1.63789
    Y8       -3.95594   0.00032   0.00000  -0.02330  -0.02489  -3.98083
    Z8       -0.02115  -0.00226   0.00000  -0.00165  -0.00161  -0.02276
    X9        3.33053   0.08394   0.00000   0.07988   0.07445   3.40498
    Y9       -2.50462  -0.05924   0.00000  -0.05223  -0.05308  -2.55770
    Z9       -0.04274  -0.00123   0.00000  -0.00183  -0.00142  -0.04415
         Item               Value     Threshold  Converged?
 Maximum Force            0.416004     0.000450     NO 
 RMS     Force            0.125563     0.000300     NO 
 Maximum Displacement     0.163854     0.001800     NO 
 RMS     Displacement     0.057677     0.001200     NO 
 Predicted change in Energy=-1.421072D-01
 GradGradGradGradGradGradGradGradGradGradGradGradGradGradGradGradGradGrad

 Leave Link  103 at Tue Dec 15 17:06:16 2015, MaxMem=    33554432 cpu:         0.0
 (Enter /home/Applications/g09/g09/l9999.exe)
 1\1\GINC-DUSTIN-DESKTOP\Force\RAM1-FC\STO-3G\C4H4O1\DUSTIN\15-Dec-2015
 \0\\#P AM1(Input,print) CIS(Singlets,NStates=15) pop(full) force\\AM1-
 Reparam Input\\0,1\C,0.926574,-0.72557,0.037783\C,-0.310833,-1.050858,
 -0.024459\O,-1.118099,0.038513,-0.032963\C,-0.388894,1.127917,-0.02673
 \C,0.9055,0.671122,-0.011471\H,1.773941,1.370376,0.037567\H,-0.888754,
 2.078772,-0.046597\H,-0.862229,-2.093394,-0.011194\H,1.76244,-1.325387
 ,-0.022616\\Version=ES64L-G09RevD.01\State=1-A\HF=2.5727136\RMSD=7.469
 e-09\RMSF=1.256e-01\Dipole=-4.3410952,-0.197427,-0.0603843\PG=C01 [X(C
 4H4O1)]\\@


 FROM WHENCE IT HAPPENS, THAT THEY WHICH TRUST TO BOOKS, DO AS THEY THAT CAST UP MANY LITTLE SUMMS INTO GREATER,
 WITHOUT CONSIDERING WETHER THOSE LITTLE SUMMES WERE RIGHTLY CAST UP OR NOT...
 AND AT LAST FINDING THE ERROUR VISIBLE, AND NOT MISTRUSTING THEIR FIRST GROUNDS,
 KNOW NOT WHICH WAY TO CLEERE THEMSELVES...
 BUT SPEND TIME IN FLUTTERING OVER THEIR BOOKES....
 AS BIRDS THAT ENTERING BY THE CHIMNEY, AND FINDING THEMSELVES INCLOSED IN A CHAMBER,
 FLUTTER AT THE FALSE LIGHT OF A GLASSE WINDOW,
 FOR WANT OF WIT TO CONSIDER WHICH WAY THEY CAME IN....
           LEVIATHAN
 Job cpu time:       0 days  0 hours  0 minutes  0.7 seconds.
 File lengths (MBytes):  RWF=      7 Int=      0 D2E=      0 Chk=      2 Scr=      1
 Normal termination of Gaussian 09 at Tue Dec 15 17:06:16 2015.
