 Entering Gaussian System, Link 0=g09
 Input=FuranDFT_59.com
 Output=FuranDFT_59.log
 Initial command:
 /home/Applications/g09/g09/l1.exe "/home/Applications/g09/scratch/Gau-6055.inp" -scrdir="/home/Applications/g09/scratch/"
 Entering Link 1 = /home/Applications/g09/g09/l1.exe PID=      6057.
  
 Copyright (c) 1988,1990,1992,1993,1995,1998,2003,2009,2013,
            Gaussian, Inc.  All Rights Reserved.
  
 This is part of the Gaussian(R) 09 program.  It is based on
 the Gaussian(R) 03 system (copyright 2003, Gaussian, Inc.),
 the Gaussian(R) 98 system (copyright 1998, Gaussian, Inc.),
 the Gaussian(R) 94 system (copyright 1995, Gaussian, Inc.),
 the Gaussian 92(TM) system (copyright 1992, Gaussian, Inc.),
 the Gaussian 90(TM) system (copyright 1990, Gaussian, Inc.),
 the Gaussian 88(TM) system (copyright 1988, Gaussian, Inc.),
 the Gaussian 86(TM) system (copyright 1986, Carnegie Mellon
 University), and the Gaussian 82(TM) system (copyright 1983,
 Carnegie Mellon University). Gaussian is a federally registered
 trademark of Gaussian, Inc.
  
 This software contains proprietary and confidential information,
 including trade secrets, belonging to Gaussian, Inc.
  
 This software is provided under written license and may be
 used, copied, transmitted, or stored only in accord with that
 written license.
  
 The following legend is applicable only to US Government
 contracts under FAR:
  
                    RESTRICTED RIGHTS LEGEND
  
 Use, reproduction and disclosure by the US Government is
 subject to restrictions as set forth in subparagraphs (a)
 and (c) of the Commercial Computer Software - Restricted
 Rights clause in FAR 52.227-19.
  
 Gaussian, Inc.
 340 Quinnipiac St., Bldg. 40, Wallingford CT 06492
  
  
 ---------------------------------------------------------------
 Warning -- This program may not be used in any manner that
 competes with the business of Gaussian, Inc. or will provide
 assistance to any competitor of Gaussian, Inc.  The licensee
 of this program is prohibited from giving any competitor of
 Gaussian, Inc. access to this program.  By using this program,
 the user acknowledges that Gaussian, Inc. is engaged in the
 business of creating and licensing software in the field of
 computational chemistry and represents and warrants to the
 licensee that it is not a competitor of Gaussian, Inc. and that
 it will not use this program in any manner prohibited above.
 ---------------------------------------------------------------
  

 Cite this work as:
 Gaussian 09, Revision D.01,
 M. J. Frisch, G. W. Trucks, H. B. Schlegel, G. E. Scuseria, 
 M. A. Robb, J. R. Cheeseman, G. Scalmani, V. Barone, B. Mennucci, 
 G. A. Petersson, H. Nakatsuji, M. Caricato, X. Li, H. P. Hratchian, 
 A. F. Izmaylov, J. Bloino, G. Zheng, J. L. Sonnenberg, M. Hada, 
 M. Ehara, K. Toyota, R. Fukuda, J. Hasegawa, M. Ishida, T. Nakajima, 
 Y. Honda, O. Kitao, H. Nakai, T. Vreven, J. A. Montgomery, Jr., 
 J. E. Peralta, F. Ogliaro, M. Bearpark, J. J. Heyd, E. Brothers, 
 K. N. Kudin, V. N. Staroverov, T. Keith, R. Kobayashi, J. Normand, 
 K. Raghavachari, A. Rendell, J. C. Burant, S. S. Iyengar, J. Tomasi, 
 M. Cossi, N. Rega, J. M. Millam, M. Klene, J. E. Knox, J. B. Cross, 
 V. Bakken, C. Adamo, J. Jaramillo, R. Gomperts, R. E. Stratmann, 
 O. Yazyev, A. J. Austin, R. Cammi, C. Pomelli, J. W. Ochterski, 
 R. L. Martin, K. Morokuma, V. G. Zakrzewski, G. A. Voth, 
 P. Salvador, J. J. Dannenberg, S. Dapprich, A. D. Daniels, 
 O. Farkas, J. B. Foresman, J. V. Ortiz, J. Cioslowski, 
 and D. J. Fox, Gaussian, Inc., Wallingford CT, 2013.
 
 ******************************************
 Gaussian 09:  ES64L-G09RevD.01 24-Apr-2013
                15-Dec-2015 
 ******************************************
 -------------------------------------------------------
 #P B3LYP/3-21G CIS(Singlets,NStates=15) pop(full) force
 -------------------------------------------------------
 1/10=7,30=1,38=1/1,3;
 2/12=2,17=6,18=5,40=1/2;
 3/5=5,11=9,16=1,25=1,30=1,71=1,74=-5/1,2,8,3;
 4//1;
 5/5=2,38=5/2;
 8/6=1,10=1,108=15/1;
 9/15=2,41=15,42=1,48=1/14;
 10/5=4/2;
 6/7=3,18=1/1;
 7/12=6,13=5,29=1/1,2,3,16;
 1/10=7,30=1/3;
 99//99;
 Leave Link    1 at Tue Dec 15 16:22:16 2015, MaxMem=           0 cpu:         0.0
 (Enter /home/Applications/g09/g09/l101.exe)
 --------
 FuranDFT
 --------
 Symbolic Z-matrix:
 Charge =  0 Multiplicity = 1
 6                     0.98863  -0.76453   0.03184 
 6                    -0.30198  -1.14053  -0.04831 
 8                    -1.1901    0.00245   0.0446 
 6                    -0.33612   1.12944  -0.00585 
 6                     0.91653   0.72411   0.03626 
 1                     1.85762   1.36982  -0.01401 
 1                    -0.81331   2.08546   0.00787 
 1                    -0.79135  -2.00523  -0.03815 
 1                     1.85767  -1.39035   0.01275 
 
 NAtoms=      9 NQM=        9 NQMF=       0 NMMI=      0 NMMIF=      0
                NMic=       0 NMicF=      0.
                    Isotopes and Nuclear Properties:
 (Nuclear quadrupole moments (NQMom) in fm**2, nuclear magnetic moments (NMagM)
  in nuclear magnetons)

  Atom         1           2           3           4           5           6           7           8           9
 IAtWgt=          12          12          16          12          12           1           1           1           1
 AtmWgt=  12.0000000  12.0000000  15.9949146  12.0000000  12.0000000   1.0078250   1.0078250   1.0078250   1.0078250
 NucSpn=           0           0           0           0           0           1           1           1           1
 AtZEff=   0.0000000   0.0000000   0.0000000   0.0000000   0.0000000   0.0000000   0.0000000   0.0000000   0.0000000
 NQMom=    0.0000000   0.0000000   0.0000000   0.0000000   0.0000000   0.0000000   0.0000000   0.0000000   0.0000000
 NMagM=    0.0000000   0.0000000   0.0000000   0.0000000   0.0000000   2.7928460   2.7928460   2.7928460   2.7928460
 AtZNuc=   6.0000000   6.0000000   8.0000000   6.0000000   6.0000000   1.0000000   1.0000000   1.0000000   1.0000000
 Leave Link  101 at Tue Dec 15 16:22:16 2015, MaxMem=    33554432 cpu:         0.0
 (Enter /home/Applications/g09/g09/l103.exe)

 GradGradGradGradGradGradGradGradGradGradGradGradGradGradGradGradGradGrad
 Berny optimization.
 Initialization pass.
 Trust Radius=3.00D-01 FncErr=1.00D-07 GrdErr=1.00D-07
 Number of steps in this run=      2 maximum allowed number of steps=      2.
 GradGradGradGradGradGradGradGradGradGradGradGradGradGradGradGradGradGrad

 Leave Link  103 at Tue Dec 15 16:22:16 2015, MaxMem=    33554432 cpu:         0.0
 (Enter /home/Applications/g09/g09/l202.exe)
                          Input orientation:                          
 ---------------------------------------------------------------------
 Center     Atomic      Atomic             Coordinates (Angstroms)
 Number     Number       Type             X           Y           Z
 ---------------------------------------------------------------------
      1          6           0        0.988626   -0.764534    0.031843
      2          6           0       -0.301978   -1.140530   -0.048312
      3          8           0       -1.190098    0.002450    0.044603
      4          6           0       -0.336119    1.129439   -0.005846
      5          6           0        0.916533    0.724113    0.036257
      6          1           0        1.857624    1.369815   -0.014008
      7          1           0       -0.813310    2.085461    0.007870
      8          1           0       -0.791352   -2.005232   -0.038153
      9          1           0        1.857672   -1.390348    0.012749
 ---------------------------------------------------------------------
                    Distance matrix (angstroms):
                    1          2          3          4          5
     1  C    0.000000
     2  C    1.346646   0.000000
     3  O    2.309819   1.450446   0.000000
     4  C    2.311602   2.270623   1.414896   0.000000
     5  C    1.490398   2.229084   2.226828   1.317269   0.000000
     6  H    2.304931   3.311629   3.340918   2.206888   1.142414
     7  H    3.371946   3.266747   2.117133   1.068587   2.201461
     8  H    2.170841   0.993630   2.048569   3.167719   3.220517
     9  H    1.071097   2.174908   3.351090   3.341016   2.314571
                    6          7          8          9
     6  H    0.000000
     7  H    2.765233   0.000000
     8  H    4.290524   4.091011   0.000000
     9  H    2.760293   4.383539   2.719927   0.000000
 Stoichiometry    C4H4O
 Framework group  C1[X(C4H4O)]
 Deg. of freedom    21
 Full point group                 C1      NOp   1
 Largest Abelian subgroup         C1      NOp   1
 Largest concise Abelian subgroup C1      NOp   1
                         Standard orientation:                         
 ---------------------------------------------------------------------
 Center     Atomic      Atomic             Coordinates (Angstroms)
 Number     Number       Type             X           Y           Z
 ---------------------------------------------------------------------
      1          6           0       -1.019760    0.708164   -0.025687
      2          6           0       -0.988633   -0.636175    0.046698
      3          8           0        0.370198   -1.136602   -0.036632
      4          6           0        1.185691    0.017817    0.028300
      5          6           0        0.420975    1.089536   -0.014464
      6          1           0        0.751393    2.181483    0.045415
      7          1           0        2.241335   -0.147917    0.023371
      8          1           0       -1.664749   -1.364004    0.025908
      9          1           0       -1.879206    1.347208   -0.010723
 ---------------------------------------------------------------------
 Rotational constants (GHZ):      9.3557582      8.7510213      4.5273878
 Leave Link  202 at Tue Dec 15 16:22:16 2015, MaxMem=    33554432 cpu:         0.0
 (Enter /home/Applications/g09/g09/l301.exe)
 Standard basis: 3-21G (6D, 7F)
 Ernie: Thresh=  0.10000D-02 Tol=  0.10000D-05 Strict=F.
 There are    53 symmetry adapted cartesian basis functions of A   symmetry.
 There are    53 symmetry adapted basis functions of A   symmetry.
    53 basis functions,    87 primitive gaussians,    53 cartesian basis functions
    18 alpha electrons       18 beta electrons
       nuclear repulsion energy       158.2572043859 Hartrees.
 IExCor=  402 DFT=T Ex+Corr=B3LYP ExCW=0 ScaHFX=  0.200000
 ScaDFX=  0.800000  0.720000  1.000000  0.810000 ScalE2=  1.000000  1.000000
 IRadAn=      0 IRanWt=     -1 IRanGd=            0 ICorTp=0 IEmpDi=  4
 NAtoms=    9 NActive=    9 NUniq=    9 SFac= 1.00D+00 NAtFMM=   60 NAOKFM=F Big=F
 Integral buffers will be    131072 words long.
 Regular integral format.
 Two-electron integral symmetry is turned on.
 Leave Link  301 at Tue Dec 15 16:22:16 2015, MaxMem=    33554432 cpu:         0.0
 (Enter /home/Applications/g09/g09/l302.exe)
 NPDir=0 NMtPBC=     1 NCelOv=     1 NCel=       1 NClECP=     1 NCelD=      1
         NCelK=      1 NCelE2=     1 NClLst=     1 CellRange=     0.0.
 One-electron integrals computed using PRISM.
 NBasis=    53 RedAO= T EigKep=  3.50D-03  NBF=    53
 NBsUse=    53 1.00D-06 EigRej= -1.00D+00 NBFU=    53
 Precomputing XC quadrature grid using
 IXCGrd= 4 IRadAn=           0 IRanWt=          -1 IRanGd=           0 AccXCQ= 0.00D+00.
 Generated NRdTot=       0 NPtTot=           0 NUsed=           0 NTot=          32
 NSgBfM=    53    53    53    53    53 MxSgAt=     9 MxSgA2=     9.
 Leave Link  302 at Tue Dec 15 16:22:16 2015, MaxMem=    33554432 cpu:         0.1
 (Enter /home/Applications/g09/g09/l308.exe)
 Leave Link  308 at Tue Dec 15 16:22:16 2015, MaxMem=    33554432 cpu:         0.0
 (Enter /home/Applications/g09/g09/l303.exe)
 DipDrv:  MaxL=1.
 Leave Link  303 at Tue Dec 15 16:22:16 2015, MaxMem=    33554432 cpu:         0.0
 (Enter /home/Applications/g09/g09/l401.exe)
 ExpMin= 1.83D-01 ExpMax= 3.22D+02 ExpMxC= 3.22D+02 IAcc=1 IRadAn=         1 AccDes= 0.00D+00
 Harris functional with IExCor=  402 and IRadAn=       1 diagonalized for initial guess.
 HarFok:  IExCor=  402 AccDes= 0.00D+00 IRadAn=         1 IDoV= 1 UseB2=F ITyADJ=14
 ICtDFT=  3500011 ScaDFX=  1.000000  1.000000  1.000000  1.000000
 FoFCou: FMM=F IPFlag=           0 FMFlag=      100000 FMFlg1=           0
         NFxFlg=           0 DoJE=T BraDBF=F KetDBF=T FulRan=T
         wScrn=  0.000000 ICntrl=     500 IOpCl=  0 I1Cent=   200000004 NGrid=           0
         NMat0=    1 NMatS0=      1 NMatT0=    0 NMatD0=    1 NMtDS0=    0 NMtDT0=    0
 Petite list used in FoFCou.
 Harris En= -228.728115019138    
 JPrj=0 DoOrth=F DoCkMO=F.
 Leave Link  401 at Tue Dec 15 16:22:17 2015, MaxMem=    33554432 cpu:         0.2
 (Enter /home/Applications/g09/g09/l502.exe)
 Closed shell SCF:
 Using DIIS extrapolation, IDIIS=  1040.
 Integral symmetry usage will be decided dynamically.
 Keep R1 ints in memory in canonical form, NReq=1925595.
 IVT=       27707 IEndB=       27707 NGot=    33554432 MDV=    32502130
 LenX=    32502130 LenY=    32498880
 Requested convergence on RMS density matrix=1.00D-08 within 128 cycles.
 Requested convergence on MAX density matrix=1.00D-06.
 Requested convergence on             energy=1.00D-06.
 No special actions if energy rises.
 FoFCou: FMM=F IPFlag=           0 FMFlag=           0 FMFlg1=           0
         NFxFlg=           0 DoJE=F BraDBF=F KetDBF=F FulRan=T
         wScrn=  0.000000 ICntrl=     600 IOpCl=  0 I1Cent=           0 NGrid=           0
         NMat0=    1 NMatS0=   1431 NMatT0=    0 NMatD0=    1 NMtDS0=    0 NMtDT0=    0
 Symmetry not used in FoFCou.
 Integral accuracy reduced to 1.0D-05 until final iterations.

 Cycle   1  Pass 0  IDiag  1:
 E= -228.668586903333    
 DIIS: error= 3.42D-02 at cycle   1 NSaved=   1.
 NSaved= 1 IEnMin= 1 EnMin= -228.668586903333     IErMin= 1 ErrMin= 3.42D-02
 ErrMax= 3.42D-02  0.00D+00 EMaxC= 1.00D-01 BMatC= 6.57D-02 BMatP= 6.57D-02
 IDIUse=3 WtCom= 6.58D-01 WtEn= 3.42D-01
 Coeff-Com:  0.100D+01
 Coeff-En:   0.100D+01
 Coeff:      0.100D+01
 Gap=     0.240 Goal=   None    Shift=    0.000
 GapD=    0.240 DampG=1.000 DampE=0.500 DampFc=0.5000 IDamp=-1.
 Damping current iteration by 5.00D-01
 RMSDP=1.04D-02 MaxDP=9.06D-02              OVMax= 1.60D-01

 Cycle   2  Pass 0  IDiag  1:
 E= -228.696900076694     Delta-E=       -0.028313173361 Rises=F Damp=T
 DIIS: error= 1.12D-02 at cycle   2 NSaved=   2.
 NSaved= 2 IEnMin= 2 EnMin= -228.696900076694     IErMin= 2 ErrMin= 1.12D-02
 ErrMax= 1.12D-02  0.00D+00 EMaxC= 1.00D-01 BMatC= 7.66D-03 BMatP= 6.57D-02
 IDIUse=3 WtCom= 8.88D-01 WtEn= 1.12D-01
 Coeff-Com:  0.833D-01 0.917D+00
 Coeff-En:   0.144D+00 0.856D+00
 Coeff:      0.902D-01 0.910D+00
 Gap=     0.252 Goal=   None    Shift=    0.000
 RMSDP=4.29D-03 MaxDP=3.70D-02 DE=-2.83D-02 OVMax= 1.48D-01

 Cycle   3  Pass 0  IDiag  1:
 E= -228.725845197738     Delta-E=       -0.028945121043 Rises=F Damp=F
 DIIS: error= 1.99D-02 at cycle   3 NSaved=   3.
 NSaved= 3 IEnMin= 3 EnMin= -228.725845197738     IErMin= 2 ErrMin= 1.12D-02
 ErrMax= 1.99D-02  0.00D+00 EMaxC= 1.00D-01 BMatC= 1.32D-02 BMatP= 7.66D-03
 IDIUse=2 WtCom= 0.00D+00 WtEn= 1.00D+00
 Coeff-En:   0.000D+00 0.000D+00 0.100D+01
 Coeff:      0.000D+00 0.000D+00 0.100D+01
 Gap=     0.240 Goal=   None    Shift=    0.000
 RMSDP=6.35D-03 MaxDP=5.14D-02 DE=-2.89D-02 OVMax= 1.44D-01

 Cycle   4  Pass 0  IDiag  1:
 E= -228.685109270538     Delta-E=        0.040735927200 Rises=F Damp=F
 DIIS: error= 4.09D-02 at cycle   4 NSaved=   4.
 NSaved= 4 IEnMin= 3 EnMin= -228.725845197738     IErMin= 2 ErrMin= 1.12D-02
 ErrMax= 4.09D-02  0.00D+00 EMaxC= 1.00D-01 BMatC= 5.88D-02 BMatP= 7.66D-03
 IDIUse=2 WtCom= 0.00D+00 WtEn= 1.00D+00
 Coeff-En:   0.000D+00 0.000D+00 0.762D+00 0.238D+00
 Coeff:      0.000D+00 0.000D+00 0.762D+00 0.238D+00
 Gap=     0.252 Goal=   None    Shift=    0.000
 RMSDP=3.15D-03 MaxDP=2.54D-02 DE= 4.07D-02 OVMax= 7.64D-02

 Cycle   5  Pass 0  IDiag  1:
 E= -228.734343427605     Delta-E=       -0.049234157067 Rises=F Damp=F
 DIIS: error= 1.07D-02 at cycle   5 NSaved=   5.
 NSaved= 5 IEnMin= 5 EnMin= -228.734343427605     IErMin= 5 ErrMin= 1.07D-02
 ErrMax= 1.07D-02  0.00D+00 EMaxC= 1.00D-01 BMatC= 3.85D-03 BMatP= 7.66D-03
 IDIUse=3 WtCom= 8.93D-01 WtEn= 1.07D-01
 Coeff-Com: -0.698D-02 0.270D-01 0.237D+00-0.119D+00 0.862D+00
 Coeff-En:   0.000D+00 0.000D+00 0.277D+00 0.000D+00 0.723D+00
 Coeff:     -0.623D-02 0.241D-01 0.241D+00-0.106D+00 0.847D+00
 Gap=     0.256 Goal=   None    Shift=    0.000
 RMSDP=1.18D-03 MaxDP=9.46D-03 DE=-4.92D-02 OVMax= 2.76D-02

 Cycle   6  Pass 0  IDiag  1:
 E= -228.737808260605     Delta-E=       -0.003464833000 Rises=F Damp=F
 DIIS: error= 5.99D-04 at cycle   6 NSaved=   6.
 NSaved= 6 IEnMin= 6 EnMin= -228.737808260605     IErMin= 6 ErrMin= 5.99D-04
 ErrMax= 5.99D-04  0.00D+00 EMaxC= 1.00D-01 BMatC= 1.12D-05 BMatP= 3.85D-03
 IDIUse=3 WtCom= 9.94D-01 WtEn= 5.99D-03
 Coeff-Com: -0.216D-02 0.401D-02 0.351D-01-0.228D-01 0.190D+00 0.796D+00
 Coeff-En:   0.000D+00 0.000D+00 0.000D+00 0.000D+00 0.000D+00 0.100D+01
 Coeff:     -0.215D-02 0.398D-02 0.349D-01-0.227D-01 0.188D+00 0.797D+00
 Gap=     0.256 Goal=   None    Shift=    0.000
 RMSDP=6.54D-05 MaxDP=5.01D-04 DE=-3.46D-03 OVMax= 1.40D-03

 Cycle   7  Pass 0  IDiag  1:
 E= -228.737818637991     Delta-E=       -0.000010377386 Rises=F Damp=F
 DIIS: error= 4.21D-05 at cycle   7 NSaved=   7.
 NSaved= 7 IEnMin= 7 EnMin= -228.737818637991     IErMin= 7 ErrMin= 4.21D-05
 ErrMax= 4.21D-05  0.00D+00 EMaxC= 1.00D-01 BMatC= 1.66D-07 BMatP= 1.12D-05
 IDIUse=1 WtCom= 1.00D+00 WtEn= 0.00D+00
 Coeff-Com: -0.119D-02 0.198D-02 0.142D-01-0.115D-01 0.920D-01 0.470D+00
 Coeff-Com:  0.435D+00
 Coeff:     -0.119D-02 0.198D-02 0.142D-01-0.115D-01 0.920D-01 0.470D+00
 Coeff:      0.435D+00
 Gap=     0.256 Goal=   None    Shift=    0.000
 RMSDP=6.86D-06 MaxDP=8.65D-05 DE=-1.04D-05 OVMax= 1.22D-04

 Initial convergence to 1.0D-05 achieved.  Increase integral accuracy.
 Cycle   8  Pass 1  IDiag  1:
 E= -228.737843647036     Delta-E=       -0.000025009044 Rises=F Damp=F
 DIIS: error= 1.37D-05 at cycle   1 NSaved=   1.
 NSaved= 1 IEnMin= 1 EnMin= -228.737843647036     IErMin= 1 ErrMin= 1.37D-05
 ErrMax= 1.37D-05  0.00D+00 EMaxC= 1.00D-01 BMatC= 1.42D-08 BMatP= 1.42D-08
 IDIUse=1 WtCom= 1.00D+00 WtEn= 0.00D+00
 Coeff-Com:  0.100D+01
 Coeff:      0.100D+01
 Gap=     0.256 Goal=   None    Shift=    0.000
 RMSDP=6.86D-06 MaxDP=8.65D-05 DE=-2.50D-05 OVMax= 6.53D-05

 Cycle   9  Pass 1  IDiag  1:
 E= -228.737843656569     Delta-E=       -0.000000009533 Rises=F Damp=F
 DIIS: error= 1.32D-05 at cycle   2 NSaved=   2.
 NSaved= 2 IEnMin= 2 EnMin= -228.737843656569     IErMin= 2 ErrMin= 1.32D-05
 ErrMax= 1.32D-05  0.00D+00 EMaxC= 1.00D-01 BMatC= 9.06D-09 BMatP= 1.42D-08
 IDIUse=1 WtCom= 1.00D+00 WtEn= 0.00D+00
 Coeff-Com:  0.419D+00 0.581D+00
 Coeff:      0.419D+00 0.581D+00
 Gap=     0.256 Goal=   None    Shift=    0.000
 RMSDP=3.22D-06 MaxDP=2.99D-05 DE=-9.53D-09 OVMax= 6.76D-05

 Cycle  10  Pass 1  IDiag  1:
 E= -228.737843661068     Delta-E=       -0.000000004500 Rises=F Damp=F
 DIIS: error= 1.00D-05 at cycle   3 NSaved=   3.
 NSaved= 3 IEnMin= 3 EnMin= -228.737843661068     IErMin= 3 ErrMin= 1.00D-05
 ErrMax= 1.00D-05  0.00D+00 EMaxC= 1.00D-01 BMatC= 5.15D-09 BMatP= 9.06D-09
 IDIUse=1 WtCom= 1.00D+00 WtEn= 0.00D+00
 Coeff-Com: -0.186D-02 0.429D+00 0.573D+00
 Coeff:     -0.186D-02 0.429D+00 0.573D+00
 Gap=     0.256 Goal=   None    Shift=    0.000
 RMSDP=1.39D-06 MaxDP=1.10D-05 DE=-4.50D-09 OVMax= 3.29D-05

 Cycle  11  Pass 1  IDiag  1:
 E= -228.737843666000     Delta-E=       -0.000000004932 Rises=F Damp=F
 DIIS: error= 2.67D-06 at cycle   4 NSaved=   4.
 NSaved= 4 IEnMin= 4 EnMin= -228.737843666000     IErMin= 4 ErrMin= 2.67D-06
 ErrMax= 2.67D-06  0.00D+00 EMaxC= 1.00D-01 BMatC= 3.03D-10 BMatP= 5.15D-09
 IDIUse=1 WtCom= 1.00D+00 WtEn= 0.00D+00
 Coeff-Com: -0.191D-01 0.261D+00 0.371D+00 0.387D+00
 Coeff:     -0.191D-01 0.261D+00 0.371D+00 0.387D+00
 Gap=     0.256 Goal=   None    Shift=    0.000
 RMSDP=2.96D-07 MaxDP=2.84D-06 DE=-4.93D-09 OVMax= 6.14D-06

 Cycle  12  Pass 1  IDiag  1:
 E= -228.737843666251     Delta-E=       -0.000000000251 Rises=F Damp=F
 DIIS: error= 2.03D-07 at cycle   5 NSaved=   5.
 NSaved= 5 IEnMin= 5 EnMin= -228.737843666251     IErMin= 5 ErrMin= 2.03D-07
 ErrMax= 2.03D-07  0.00D+00 EMaxC= 1.00D-01 BMatC= 2.60D-12 BMatP= 3.03D-10
 IDIUse=1 WtCom= 1.00D+00 WtEn= 0.00D+00
 Coeff-Com: -0.597D-02 0.619D-01 0.888D-01 0.140D+00 0.716D+00
 Coeff:     -0.597D-02 0.619D-01 0.888D-01 0.140D+00 0.716D+00
 Gap=     0.256 Goal=   None    Shift=    0.000
 RMSDP=3.30D-08 MaxDP=3.12D-07 DE=-2.51D-10 OVMax= 5.32D-07

 Cycle  13  Pass 1  IDiag  1:
 E= -228.737843666253     Delta-E=       -0.000000000002 Rises=F Damp=F
 DIIS: error= 7.45D-08 at cycle   6 NSaved=   6.
 NSaved= 6 IEnMin= 6 EnMin= -228.737843666253     IErMin= 6 ErrMin= 7.45D-08
 ErrMax= 7.45D-08  0.00D+00 EMaxC= 1.00D-01 BMatC= 3.32D-13 BMatP= 2.60D-12
 IDIUse=1 WtCom= 1.00D+00 WtEn= 0.00D+00
 Coeff-Com: -0.921D-03 0.692D-02 0.995D-02 0.372D-01 0.338D+00 0.609D+00
 Coeff:     -0.921D-03 0.692D-02 0.995D-02 0.372D-01 0.338D+00 0.609D+00
 Gap=     0.256 Goal=   None    Shift=    0.000
 RMSDP=1.35D-08 MaxDP=1.83D-07 DE=-2.22D-12 OVMax= 2.24D-07

 Cycle  14  Pass 1  IDiag  1:
 E= -228.737843666253     Delta-E=        0.000000000000 Rises=F Damp=F
 DIIS: error= 1.96D-08 at cycle   7 NSaved=   7.
 NSaved= 7 IEnMin= 7 EnMin= -228.737843666253     IErMin= 7 ErrMin= 1.96D-08
 ErrMax= 1.96D-08  0.00D+00 EMaxC= 1.00D-01 BMatC= 2.72D-14 BMatP= 3.32D-13
 IDIUse=1 WtCom= 1.00D+00 WtEn= 0.00D+00
 Coeff-Com: -0.163D-03-0.484D-03-0.565D-03 0.106D-01 0.123D+00 0.311D+00
 Coeff-Com:  0.556D+00
 Coeff:     -0.163D-03-0.484D-03-0.565D-03 0.106D-01 0.123D+00 0.311D+00
 Coeff:      0.556D+00
 Gap=     0.256 Goal=   None    Shift=    0.000
 RMSDP=3.39D-09 MaxDP=5.46D-08 DE=-3.41D-13 OVMax= 5.66D-08

 SCF Done:  E(RB3LYP) =  -228.737843666     A.U. after   14 cycles
            NFock= 14  Conv=0.34D-08     -V/T= 2.0088
 KE= 2.267328319404D+02 PE=-8.491407507308D+02 EE= 2.354128707382D+02
 Leave Link  502 at Tue Dec 15 16:22:21 2015, MaxMem=    33554432 cpu:         3.9
 (Enter /home/Applications/g09/g09/l801.exe)
 DoSCS=F DFT=T ScalE2(SS,OS)=  1.000000  1.000000
 ExpMin= 1.83D-01 ExpMax= 3.22D+02 ExpMxC= 3.22D+02 IAcc=3 IRadAn=         5 AccDes= 0.00D+00
 HarFok:  IExCor=  205 AccDes= 0.00D+00 IRadAn=         5 IDoV=-2 UseB2=F ITyADJ=14
 ICtDFT= 12500011 ScaDFX=  1.000000  1.000000  1.000000  1.000000
 Largest valence mixing into a core orbital is  1.93D-04
 Largest core mixing into a valence orbital is  4.92D-05
 Range of M.O.s used for correlation:     6    53
 NBasis=    53 NAE=    18 NBE=    18 NFC=     5 NFV=     0
 NROrb=     48 NOA=    13 NOB=    13 NVA=    35 NVB=    35
 Leave Link  801 at Tue Dec 15 16:22:21 2015, MaxMem=    33554432 cpu:         0.2
 (Enter /home/Applications/g09/g09/l914.exe)
 RHF ground state
 MDV=    33554432 DFT=T DoStab=F Mixed=T DoRPA=F DoScal=F NonHer=F
 Keep R1, R2, and R3 ints in memory in canonical form, NReq=5596273.
 FoFCou: FMM=F IPFlag=           0 FMFlag=           0 FMFlg1=           0
         NFxFlg=           0 DoJE=F BraDBF=F KetDBF=F FulRan=T
         wScrn=  0.000000 ICntrl=     600 IOpCl=  0 I1Cent=           0 NGrid=           0
         NMat0=    1 NMatS0=   1431 NMatT0=    0 NMatD0=    1 NMtDS0=    0 NMtDT0=    0
 Symmetry not used in FoFCou.
 Making orbital integer symmetry assigments:
 Orbital symmetries:
       Occupied  (A) (A) (A) (A) (A) (A) (A) (A) (A) (A) (A) (A)
                 (A) (A) (A) (A) (A) (A)
       Virtual   (A) (A) (A) (A) (A) (A) (A) (A) (A) (A) (A) (A)
                 (A) (A) (A) (A) (A) (A) (A) (A) (A) (A) (A) (A)
                 (A) (A) (A) (A) (A) (A) (A) (A) (A) (A) (A)
    60 initial guesses have been made.
 Convergence on wavefunction:    0.000001000000000
 Davidson Disk Diagonalization:  ConvIn= 1.00D-06 SkipCon=T Conv= 1.00D-06.
 Max sub-space:   240 roots to seek:    60 dimension of matrix:          910
 Iteration     1 Dimension    60 NMult     0 NNew     60
 CISAX will form    60 AO SS matrices at one time.
 NMat=    60 NSing=    60 JSym2X= 0.
 New state      1 was old state      2
 New state      2 was old state      1
 New state      3 was old state      5
 New state      4 was old state      6
 New state      5 was old state      8
 New state      6 was old state      7
 New state      7 was old state      4
 New state      8 was old state      9
 New state      9 was old state     10
 New state     10 was old state     11
 New state     11 was old state     13
 New state     13 was old state      3
 New state     14 was old state     16
 New state     15 was old state     17
 Excitation Energies [eV] at current iteration:
 Root      1 :     7.236534174821838
 Root      2 :     7.919426525404416
 Root      3 :     8.358562514024655
 Root      4 :     8.493017111105040
 Root      5 :     9.143446800832994
 Root      6 :     9.230666124871215
 Root      7 :     9.469884833626164
 Root      8 :     9.627491868422329
 Root      9 :     9.951877017453674
 Root     10 :     9.989326263740832
 Root     11 :    10.239755330093860
 Root     12 :    10.274486789194560
 Root     13 :    10.383825981659390
 Root     14 :    10.595194999465390
 Root     15 :    10.688885987835150
 Root     16 :    10.912533578710430
 Root     17 :    10.952603003481300
 Root     18 :    11.012782491250840
 Root     19 :    11.201333290135250
 Root     20 :    11.298221575305940
 Root     21 :    11.502245627346860
 Root     22 :    11.592300210868370
 Root     23 :    12.102246669697910
 Root     24 :    12.327097252363830
 Root     25 :    12.367669704770520
 Root     26 :    12.737961012608450
 Root     27 :    12.795521964875810
 Root     28 :    12.913968967831160
 Root     29 :    13.112948373065540
 Root     30 :    13.306412151400730
 Root     31 :    13.446719389190760
 Root     32 :    13.533127420336870
 Root     33 :    13.645666678492870
 Root     34 :    13.726931695735010
 Root     35 :    13.920508611501780
 Root     36 :    14.028595872601690
 Root     37 :    14.065100081332710
 Root     38 :    14.338146271133150
 Root     39 :    14.471969091776490
 Root     40 :    14.574422571330300
 Root     41 :    14.656306122602970
 Root     42 :    14.704040885433220
 Root     43 :    14.841695630533160
 Root     44 :    14.921684370686830
 Root     45 :    14.985643379120590
 Root     46 :    15.206156441811600
 Root     47 :    15.250533645633350
 Root     48 :    15.422473275993220
 Root     49 :    15.534549572809110
 Root     50 :    15.681784137439910
 Root     51 :    15.707655221800710
 Root     52 :    15.800528519120070
 Root     53 :    15.908446368723220
 Root     54 :    15.937284033460620
 Root     55 :    15.982647106792310
 Root     56 :    16.245279380422590
 Root     57 :    16.507097600873990
 Root     58 :    16.697383815772900
 Root     59 :    17.628831767953180
 Root     60 :    19.627284977289140
 Iteration     2 Dimension   120 NMult    60 NNew     60
 CISAX will form    60 AO SS matrices at one time.
 NMat=    60 NSing=    60 JSym2X= 0.
 Root      1 not converged, maximum delta is    0.224036663301950
 Root      2 not converged, maximum delta is    0.196256450550915
 Root      3 not converged, maximum delta is    0.029126991515200
 Root      4 not converged, maximum delta is    0.012655461057751
 Root      5 not converged, maximum delta is    0.443028625525242
 Root      6 not converged, maximum delta is    0.654337934518154
 Root      7 not converged, maximum delta is    0.378743890188063
 Root      8 not converged, maximum delta is    0.273899055453622
 New state      9 was old state     11
 Root      9 not converged, maximum delta is    0.343700602616819
 New state     10 was old state      9
 Root     10 not converged, maximum delta is    0.181213663345054
 New state     11 was old state     10
 Root     11 not converged, maximum delta is    0.184765361811514
 Root     12 not converged, maximum delta is    0.132369182770152
 Root     13 not converged, maximum delta is    0.168917439235245
 Root     14 not converged, maximum delta is    0.029146672637771
 Root     15 not converged, maximum delta is    0.018872456754035
 Excitation Energies [eV] at current iteration:
 Root      1 :     7.031937354487331   Change is   -0.204596820334507
 Root      2 :     7.325433940757332   Change is   -0.593992584647084
 Root      3 :     8.345429133971892   Change is   -0.013133380052764
 Root      4 :     8.473489040528801   Change is   -0.019528070576239
 Root      5 :     9.014043585211263   Change is   -0.129403215621729
 Root      6 :     9.150873937242439   Change is   -0.079792187628775
 Root      7 :     9.263286729093217   Change is   -0.206598104532946
 Root      8 :     9.511828157619652   Change is   -0.115663710802677
 Root      9 :     9.638147638998429   Change is   -0.601607691095435
 Root     10 :     9.940842700023802   Change is   -0.011034317429872
 Root     11 :     9.977908355363049   Change is   -0.011417908377783
 Root     12 :    10.255043109731830   Change is   -0.019443679462728
 Root     13 :    10.317800447757900   Change is   -0.066025533901487
 Root     14 :    10.569518517898810   Change is   -0.025676481566584
 Root     15 :    10.678999563065340   Change is   -0.009886424769808
 Root     16 :    10.886042885558240   Change is   -0.026490693152192
 Root     17 :    10.912028278060800   Change is   -0.040574725420496
 Root     18 :    10.986110846471060   Change is   -0.026671644779771
 Root     19 :    11.144354609326180   Change is   -0.056978680809078
 Root     20 :    11.183879492335630   Change is   -0.318366135011236
 Root     21 :    11.275683911112030   Change is   -0.022537664193905
 Root     22 :    11.574927818715070   Change is   -0.017372392153302
 Root     23 :    12.081495819358800   Change is   -0.020750850339108
 Root     24 :    12.184452526437180   Change is   -0.553508486171274
 Root     25 :    12.280454006418550   Change is   -0.046643245945276
 Root     26 :    12.299966737684110   Change is   -0.067702967086405
 Root     27 :    12.641512058153260   Change is   -0.154009906722551
 Root     28 :    12.815214616647230   Change is   -0.297733756418308
 Root     29 :    12.861438047356280   Change is   -0.052530920474879
 Root     30 :    13.106839994994520   Change is   -0.199572156406216
 Root     31 :    13.333569929315290   Change is   -0.113149459875469
 Root     32 :    13.479813422767040   Change is   -0.053313997569834
 Root     33 :    13.567150419917180   Change is   -0.159781275817834
 Root     34 :    13.600426510790810   Change is   -0.045240167702065
 Root     35 :    13.850983015193750   Change is   -0.069525596308034
 Root     36 :    13.908457137076590   Change is   -0.120138735525098
 Root     37 :    14.029624864207770   Change is   -0.035475217124939
 Root     38 :    14.042798616066250   Change is   -0.661242269366972
 Root     39 :    14.251574392573690   Change is   -0.086571878559460
 Root     40 :    14.431004750322920   Change is   -0.040964341453569
 Root     41 :    14.536645886313970   Change is   -0.037776685016333
 Root     42 :    14.612818371501400   Change is   -0.043487751101568
 Root     43 :    14.666909059651570   Change is   -0.174786570881596
 Root     44 :    14.890961244099840   Change is   -0.030723126586989
 Root     45 :    14.937572438942240   Change is   -0.048070940178348
 Root     46 :    15.021658314719020   Change is   -0.228875330914330
 Root     47 :    15.174303678137980   Change is   -0.031852763673619
 Root     48 :    15.298798657940120   Change is   -0.235750914868994
 Root     49 :    15.370820618128070   Change is   -0.051652657865157
 Root     50 :    15.436675508899560   Change is   -0.471770859823656
 Root     51 :    15.511151474730180   Change is   -0.170632662709739
 Root     52 :    15.614563190839940   Change is   -0.185965328280132
 Root     53 :    15.663389114871480   Change is   -0.044266106929225
 Root     54 :    15.730543561706870   Change is   -0.966840254066031
 Root     55 :    15.745505140337310   Change is   -0.237141966455001
 Root     56 :    15.957955308298480   Change is   -0.549142292575508
 Root     57 :    15.976553710122250   Change is    0.039269676661629
 Root     58 :    16.057597924295860   Change is   -0.187681456126743
 Root     59 :    16.416505093731470   Change is   -3.210779883557667
 Root     60 :    16.423028106598110   Change is   -1.205803661355072
 Iteration     3 Dimension   135 NMult   120 NNew     15
 CISAX will form    15 AO SS matrices at one time.
 NMat=    15 NSing=    15 JSym2X= 0.
 Root      1 not converged, maximum delta is    0.001354804519928
 Root      2 not converged, maximum delta is    0.001986259514353
 Root      3 not converged, maximum delta is    0.000196994562588
 Root      4 not converged, maximum delta is    0.000111535734906
 Root      5 not converged, maximum delta is    0.002541901592708
 Root      6 not converged, maximum delta is    0.001842707195324
 Root      7 not converged, maximum delta is    0.001755484709509
 Root      8 not converged, maximum delta is    0.004413276814195
 Root      9 not converged, maximum delta is    0.005531905508952
 Root     10 not converged, maximum delta is    0.000967987562925
 Root     11 not converged, maximum delta is    0.000818801896680
 Root     12 not converged, maximum delta is    0.000321906571505
 Root     13 not converged, maximum delta is    0.000616068412369
 Root     14 not converged, maximum delta is    0.000235864858593
 Root     15 not converged, maximum delta is    0.000349389649650
 Excitation Energies [eV] at current iteration:
 Root      1 :     7.030880992978800   Change is   -0.001056361508531
 Root      2 :     7.323833611791770   Change is   -0.001600328965562
 Root      3 :     8.345400160773906   Change is   -0.000028973197985
 Root      4 :     8.473472967229364   Change is   -0.000016073299435
 Root      5 :     9.012774800634100   Change is   -0.001268784577164
 Root      6 :     9.150655408734938   Change is   -0.000218528507502
 Root      7 :     9.263000063035669   Change is   -0.000286666057549
 Root      8 :     9.510809987291799   Change is   -0.001018170327852
 Root      9 :     9.636086101842025   Change is   -0.002061537156404
 Root     10 :     9.940753915344571   Change is   -0.000088784679231
 Root     11 :     9.977831013092489   Change is   -0.000077342270560
 Root     12 :    10.255008719856740   Change is   -0.000034389875088
 Root     13 :    10.317706922370550   Change is   -0.000093525387347
 Root     14 :    10.569492682980240   Change is   -0.000025834918569
 Root     15 :    10.678983805623790   Change is   -0.000015757441558
 Iteration     4 Dimension   150 NMult   135 NNew     15
 CISAX will form    15 AO SS matrices at one time.
 NMat=    15 NSing=    15 JSym2X= 0.
 Root      1 not converged, maximum delta is    0.000049361146043
 Root      2 not converged, maximum delta is    0.000050855000256
 Root      3 not converged, maximum delta is    0.000006364834517
 Root      4 not converged, maximum delta is    0.000004290418676
 Root      5 not converged, maximum delta is    0.000057373314683
 Root      6 not converged, maximum delta is    0.000024088222283
 Root      7 not converged, maximum delta is    0.000026850020755
 Root      8 not converged, maximum delta is    0.000047494007982
 Root      9 not converged, maximum delta is    0.000074984000018
 Root     10 not converged, maximum delta is    0.000012480286250
 Root     11 not converged, maximum delta is    0.000016791498584
 Root     12 not converged, maximum delta is    0.000010301258607
 Root     13 not converged, maximum delta is    0.000012730302519
 Root     14 not converged, maximum delta is    0.000006858085116
 Root     15 not converged, maximum delta is    0.000006082769618
 Excitation Energies [eV] at current iteration:
 Root      1 :     7.030880027088193   Change is   -0.000000965890607
 Root      2 :     7.323831820140171   Change is   -0.000001791651598
 Root      3 :     8.345400127248272   Change is   -0.000000033525635
 Root      4 :     8.473472953556673   Change is   -0.000000013672693
 Root      5 :     9.012772720817026   Change is   -0.000002079817075
 Root      6 :     9.150655058055932   Change is   -0.000000350679006
 Root      7 :     9.262999627060982   Change is   -0.000000435974687
 Root      8 :     9.510808516184746   Change is   -0.000001471107054
 Root      9 :     9.636083175262204   Change is   -0.000002926579821
 Root     10 :     9.940753805332530   Change is   -0.000000110012040
 Root     11 :     9.977830900761496   Change is   -0.000000112330991
 Root     12 :    10.255008665035750   Change is   -0.000000054820987
 Root     13 :    10.317706828563810   Change is   -0.000000093806745
 Root     14 :    10.569492651974210   Change is   -0.000000031006027
 Root     15 :    10.678983787855220   Change is   -0.000000017768562
 Iteration     5 Dimension   165 NMult   150 NNew     15
 CISAX will form    15 AO SS matrices at one time.
 NMat=    15 NSing=    15 JSym2X= 0.
 Root      1 not converged, maximum delta is    0.000001021694680
 Root      2 not converged, maximum delta is    0.000001932280289
 Root      3 has converged.
 Root      4 has converged.
 Root      5 not converged, maximum delta is    0.000002055527268
 Root      6 has converged.
 Root      7 has converged.
 Root      8 not converged, maximum delta is    0.000001502437053
 Root      9 not converged, maximum delta is    0.000002070337446
 Root     10 has converged.
 Root     11 has converged.
 Root     12 has converged.
 Root     13 has converged.
 Root     14 has converged.
 Root     15 has converged.
 Excitation Energies [eV] at current iteration:
 Root      1 :     7.030880026368052   Change is   -0.000000000720142
 Root      2 :     7.323831818269024   Change is   -0.000000001871147
 Root      3 :     8.345400127225876   Change is   -0.000000000022395
 Root      4 :     8.473472953544698   Change is   -0.000000000011974
 Root      5 :     9.012772718765882   Change is   -0.000000002051142
 Root      6 :     9.150655057711900   Change is   -0.000000000344032
 Root      7 :     9.262999626676358   Change is   -0.000000000384625
 Root      8 :     9.510808515055357   Change is   -0.000000001129386
 Root      9 :     9.636083173082083   Change is   -0.000000002180121
 Root     10 :     9.940753805236572   Change is   -0.000000000095960
 Root     11 :     9.977830900654240   Change is   -0.000000000107257
 Root     12 :    10.255008664973130   Change is   -0.000000000062628
 Root     13 :    10.317706828462840   Change is   -0.000000000100969
 Root     14 :    10.569492651945800   Change is   -0.000000000028413
 Root     15 :    10.678983787839080   Change is   -0.000000000016148
 Iteration     6 Dimension   169 NMult   165 NNew      4
 CISAX will form     4 AO SS matrices at one time.
 NMat=     4 NSing=     4 JSym2X= 0.
 Root      1 has converged.
 Root      2 has converged.
 Root      3 has converged.
 Root      4 has converged.
 Root      5 has converged.
 Root      6 has converged.
 Root      7 has converged.
 Root      8 has converged.
 Root      9 has converged.
 Root     10 has converged.
 Root     11 has converged.
 Root     12 has converged.
 Root     13 has converged.
 Root     14 has converged.
 Root     15 has converged.
 Excitation Energies [eV] at current iteration:
 Root      1 :     7.030880026367991   Change is   -0.000000000000060
 Root      2 :     7.323831818268109   Change is   -0.000000000000915
 Root      3 :     8.345400127225874   Change is   -0.000000000000003
 Root      4 :     8.473472953544690   Change is   -0.000000000000009
 Root      5 :     9.012772718764383   Change is   -0.000000000001500
 Root      6 :     9.150655057711699   Change is   -0.000000000000201
 Root      7 :     9.262999626676137   Change is   -0.000000000000219
 Root      8 :     9.510808515054833   Change is   -0.000000000000526
 Root      9 :     9.636083173081021   Change is   -0.000000000001063
 Root     10 :     9.940753805236549   Change is   -0.000000000000023
 Root     11 :     9.977830900654183   Change is   -0.000000000000056
 Root     12 :    10.255008664973080   Change is   -0.000000000000042
 Root     13 :    10.317706828462780   Change is   -0.000000000000057
 Root     14 :    10.569492651945780   Change is   -0.000000000000021
 Root     15 :    10.678983787839080   Change is    0.000000000000002
 Convergence achieved on expansion vectors.
 ***********************************************************************
 Excited states from <AA,BB:AA,BB> singles matrix:
 ***********************************************************************
 
 1PDM for each excited state written to RWF  633
 Ground to excited state transition densities written to RWF  633
 Ground to excited state transition electric dipole moments (Au):
       state          X           Y           Z        Dip. S.      Osc.
         1         0.6453      0.0624     -0.0387      0.4219      0.0727
         2         0.7019      0.3807     -0.0103      0.6377      0.1144
         3        -0.0124      0.1016     -0.0324      0.0115      0.0024
         4        -0.0192      0.0634     -0.1212      0.0191      0.0040
         5         0.5737      0.1002      0.0121      0.3393      0.0749
         6        -0.1732     -0.1542      0.0881      0.0615      0.0138
         7        -0.2997      0.0627     -0.0937      0.1025      0.0233
         8         0.1084     -0.7017      0.0867      0.5116      0.1192
         9        -0.3467      0.9661     -0.0468      1.0557      0.2492
        10         0.0369     -0.1730     -0.1463      0.0527      0.0128
        11         0.1431     -0.1247     -0.0180      0.0363      0.0089
        12         0.0615     -0.0511      0.0060      0.0064      0.0016
        13        -0.0709      0.1012      0.0069      0.0153      0.0039
        14        -0.0381     -0.0704     -0.0447      0.0084      0.0022
        15         0.0172     -0.0728     -0.0394      0.0072      0.0019
 Ground to excited state transition velocity dipole moments (Au):
       state          X           Y           Z        Dip. S.      Osc.
         1         0.0167     -0.0512     -0.0036      0.0029      0.0075
         2        -0.0140      0.0378      0.0024      0.0016      0.0040
         3        -0.0001      0.0055      0.0059      0.0001      0.0001
         4        -0.0007     -0.0028      0.0677      0.0046      0.0098
         5        -0.0478     -0.0239      0.0088      0.0029      0.0059
         6         0.0249      0.0030     -0.0213      0.0011      0.0021
         7         0.0262      0.0072      0.0352      0.0020      0.0039
         8         0.0138     -0.0045     -0.0120      0.0004      0.0007
         9         0.0016      0.0043     -0.0282      0.0008      0.0015
        10         0.0065      0.0076      0.0068      0.0001      0.0003
        11        -0.0199     -0.0049     -0.0417      0.0022      0.0039
        12        -0.0119      0.0052      0.0072      0.0002      0.0004
        13         0.0062      0.0004      0.0287      0.0009      0.0015
        14         0.0106      0.0073     -0.0522      0.0029      0.0050
        15        -0.0071      0.0209      0.0323      0.0015      0.0026
 Ground to excited state transition magnetic dipole moments (Au):
       state          X           Y           Z
         1         0.0730      0.0437      0.3522
         2        -0.0579     -0.0562      0.5509
         3        -0.3141      0.4898     -0.0172
         4        -1.3092     -0.5171     -0.0428
         5        -0.0178     -0.0696     -0.3206
         6        -0.0575      0.0218      0.1855
         7        -0.3419     -0.0684      0.1188
         8         0.4076      0.1451      0.0957
         9         0.4887      0.0610     -0.0641
        10         0.0426      0.1518      0.0197
        11        -0.1084      0.0139     -0.0312
        12         0.4047     -0.2390     -0.1135
        13        -0.1396      0.2907      0.0792
        14        -0.0984      0.1835      0.0232
        15         0.2495     -0.0213     -0.0946
 Ground to excited state transition velocity quadrupole moments (Au):
       state          XX          YY          ZZ          XY          XZ          YZ
         1        -0.1118      0.0421      0.0287      0.0423     -0.0040      0.0060
         2        -0.0626      0.1120     -0.0230      0.1351     -0.0028     -0.0077
         3         0.0107     -0.0050     -0.0082      0.0056      0.0294     -0.0260
         4         0.0265      0.0024     -0.0098      0.0015      0.0456     -0.1759
         5         0.1262     -0.1471      0.0031     -0.1971      0.0095     -0.0433
         6        -0.0573      0.0562      0.0108      0.0750     -0.1204     -0.0139
         7        -0.0552      0.0567     -0.0043      0.1161      0.1100     -0.1086
         8        -0.1609      0.1553      0.0322     -0.0189      0.0163      0.0262
         9         0.2077     -0.1542     -0.0655      0.1410     -0.0203      0.0198
        10        -0.0392      0.0244      0.0017     -0.0559     -0.1307     -0.1193
        11        -0.0491      0.0067      0.0134     -0.0492      0.0940      0.0261
        12         0.0124     -0.0053      0.0007     -0.0053      0.0426      0.1040
        13         0.0263      0.0007     -0.0028      0.0174     -0.0491      0.0562
        14        -0.0619      0.0312      0.0082      0.0329     -0.0608     -0.0059
        15        -0.0278      0.0316     -0.0051      0.0256     -0.0853      0.0387
 <0|del|b> * <b|rxdel|0> + <0|del|b> * <b|delr+rdel|0>
 Rotatory Strengths (R) in cgs (10**-40 erg-esu-cm/Gauss)
       state          XX          YY          ZZ    R(velocity)    E-M Angle
         1        -5.3062      0.2616     -1.2548     -2.0998       96.76
         2        -0.4520      2.5385     -2.0086      0.0259       90.00
         3         2.8493     -0.1328      3.3199      2.0121       56.09
         4        -1.3611     -2.2461      2.4038     -0.4011       90.32
         5        -2.8366      1.9573      0.2329     -0.2155       90.97
         6        -5.3986     -4.3468     -1.4515     -3.7323      145.86
         7         7.2719    -12.1534     -6.0340     -3.6385      108.71
         8        -1.5222      4.6720      4.5944      2.5814       62.74
         9        -1.8122      6.5638      0.9061      1.8859       78.48
        10         1.8506      0.0135      1.1771      1.0138       35.36
        11         3.6092      0.8554      2.0736      2.1794       50.10
        12        -2.1866     -6.4299     -4.3285     -4.3150      163.20
        13         2.7257      1.1705     -1.0428      0.9511       80.99
        14        -1.0284     -0.5426     -0.0681     -0.5464       94.59
        15        -0.8017     -5.3547     -3.3676     -3.1747      120.27
 1/2[<0|r|b>*<b|rxdel|0> + (<0|rxdel|b>*<b|r|0>)*]
 Rotatory Strengths (R) in cgs (10**-40 erg-esu-cm/Gauss)
       state          XX          YY          ZZ     R(length)
         1       -33.3113     -1.9279      9.6354     -8.5346
         2        28.7433     15.1427      3.9970     15.9610
         3        -2.7470    -35.1910     -0.3939    -12.7773
         4       -17.7865     23.1718     -3.6653      0.5733
         5         7.2091      4.9346      2.7398      4.9611
         6        -7.0464      2.3807    -11.5594     -5.4084
         7       -72.4522      3.0322      7.8657    -20.5181
         8       -31.2379     72.0079     -5.8659     11.6347
         9       119.7939    -41.6632     -2.1207     25.3367
        10        -1.1113     18.5776      2.0371      6.5012
        11        10.9714      1.2250     -0.3976      3.9330
        12       -17.6042     -8.6422      0.4844     -8.5873
        13        -7.0052    -20.8154     -0.3891     -9.4032
        14        -2.6540      9.1338      0.7339      2.4045
        15        -3.0425     -1.0960     -2.6384     -2.2590
  1/2[<0|del|b>*<b|r|0> + (<0|r|b>*<b|del|0>)*] (Au)
       state          X           Y           Z        Dip. S.   Osc.(frdel)
         1         0.0108     -0.0032      0.0001     -0.0077     -0.0052
         2        -0.0098      0.0144      0.0000     -0.0046     -0.0030
         3         0.0000      0.0006     -0.0002     -0.0004     -0.0002
         4         0.0000     -0.0002     -0.0082      0.0084      0.0056
         5        -0.0274     -0.0024      0.0001      0.0297      0.0198
         6        -0.0043     -0.0005     -0.0019      0.0067      0.0044
         7        -0.0078      0.0004     -0.0033      0.0107      0.0071
         8         0.0015      0.0032     -0.0010     -0.0036     -0.0024
         9        -0.0005      0.0042      0.0013     -0.0050     -0.0033
        10         0.0002     -0.0013     -0.0010      0.0021      0.0014
        11        -0.0028      0.0006      0.0008      0.0015      0.0010
        12        -0.0007     -0.0003      0.0000      0.0010      0.0006
        13        -0.0004      0.0000      0.0002      0.0002      0.0001
        14        -0.0004     -0.0005      0.0023     -0.0014     -0.0009
        15        -0.0001     -0.0015     -0.0013      0.0029      0.0019

 Excitation energies and oscillator strengths:
 
 Excited State   1:      Singlet-A      7.0309 eV  176.34 nm  f=0.0727  <S**2>=0.000
      17 -> 19         0.40967
      18 -> 19         0.46195
      18 -> 20         0.30893
 This state for optimization and/or second-order correction.
 Total Energy, E(CIS) =  -228.479463568    
 Copying the excited state density for this state as the 1-particle RhoCI density.
 
 Excited State   2:      Singlet-A      7.3238 eV  169.29 nm  f=0.1144  <S**2>=0.000
      17 -> 19        -0.37018
      18 -> 19         0.50146
      18 -> 20        -0.28972
 
 Excited State   3:      Singlet-A      8.3454 eV  148.57 nm  f=0.0024  <S**2>=0.000
      18 -> 21         0.69382
 
 Excited State   4:      Singlet-A      8.4735 eV  146.32 nm  f=0.0040  <S**2>=0.000
      16 -> 19         0.69402
 
 Excited State   5:      Singlet-A      9.0128 eV  137.56 nm  f=0.0749  <S**2>=0.000
      17 -> 20         0.61000
      17 -> 21         0.29934
 
 Excited State   6:      Singlet-A      9.1507 eV  135.49 nm  f=0.0138  <S**2>=0.000
      17 -> 20        -0.19365
      17 -> 21         0.31660
      18 -> 22         0.56280
      18 -> 23        -0.14921
 
 Excited State   7:      Singlet-A      9.2630 eV  133.85 nm  f=0.0233  <S**2>=0.000
      15 -> 19        -0.24151
      17 -> 20        -0.20578
      17 -> 21         0.52172
      18 -> 22        -0.32247
 
 Excited State   8:      Singlet-A      9.5108 eV  130.36 nm  f=0.1192  <S**2>=0.000
      15 -> 19         0.50365
      17 -> 19         0.19918
      17 -> 20        -0.10170
      17 -> 21         0.12758
      18 -> 20        -0.28727
      18 -> 22        -0.21385
 
 Excited State   9:      Singlet-A      9.6361 eV  128.67 nm  f=0.2492  <S**2>=0.000
      14 -> 19        -0.13399
      15 -> 19         0.41236
      16 -> 21         0.12548
      17 -> 19        -0.28828
      18 -> 20         0.38747
 
 Excited State  10:      Singlet-A      9.9408 eV  124.72 nm  f=0.0128  <S**2>=0.000
      18 -> 22         0.11639
      18 -> 23         0.63667
      18 -> 24        -0.21315
 
 Excited State  11:      Singlet-A      9.9778 eV  124.26 nm  f=0.0089  <S**2>=0.000
      17 -> 22         0.65155
      17 -> 23        -0.18443
 
 Excited State  12:      Singlet-A     10.2550 eV  120.90 nm  f=0.0016  <S**2>=0.000
      13 -> 19        -0.25872
      16 -> 20         0.51694
      18 -> 23         0.13043
      18 -> 24         0.36970
 
 Excited State  13:      Singlet-A     10.3177 eV  120.17 nm  f=0.0039  <S**2>=0.000
      13 -> 19         0.13503
      16 -> 20        -0.36823
      18 -> 23         0.18022
      18 -> 24         0.54287
 
 Excited State  14:      Singlet-A     10.5695 eV  117.30 nm  f=0.0022  <S**2>=0.000
      17 -> 22         0.18914
      17 -> 23         0.62141
      17 -> 24        -0.11730
      18 -> 25        -0.19498
 
 Excited State  15:      Singlet-A     10.6790 eV  116.10 nm  f=0.0019  <S**2>=0.000
      13 -> 19         0.56862
      14 -> 19        -0.10676
      15 -> 20         0.19959
      16 -> 20         0.27003
      17 -> 24        -0.12373
      18 -> 25         0.13551
 SavETr:  write IOETrn=   770 NScale= 10 NData=  16 NLR=1 NState=   15 LETran=     280.
 The selected state is a singlet
 CISAX will form     1 AO SS matrices at one time.
 NMat=     1 NSing=     1 JSym2X= 0.
 CISAX will form     1 AO SS matrices at one time.
 NMat=     1 NSing=     1 JSym2X= 0.
 Leave Link  914 at Tue Dec 15 16:22:55 2015, MaxMem=    33554432 cpu:        33.4
 (Enter /home/Applications/g09/g09/l1002.exe)
 Minotr:  Closed shell wavefunction.
          Computing CIS/TD-HF/TD-KS derivatives.
          Using Z-Vector for PSCF gradient.
          Skipping F1 and S1 gradient terms here.
          IDoAtm=111111111
          Frozen-core window.
          Direct CPHF calculation.
          Differentiating once with respect to electric field.
                with respect to dipole field.
          Differentiating once with respect to nuclear coordinates.
          Requested convergence is 1.0D-10 RMS, and 1.0D-09 maximum.
          NewPWx=F KeepS1=T KeepF1=T KeepIn=T MapXYZ=F SortEE=F KeepMc=T.
          MDV=      33554290 using IRadAn=       0.
 Using stored XC quadrature information.
 Keep R1 ints in memory in canonical form, NReq=1898913.
 FoFCou: FMM=F IPFlag=           0 FMFlag=           0 FMFlg1=           0
         NFxFlg=           0 DoJE=F BraDBF=F KetDBF=F FulRan=T
         wScrn=  0.000000 ICntrl=     600 IOpCl=  0 I1Cent=           0 NGrid=           0
         NMat0=    1 NMatS0=   1431 NMatT0=    0 NMatD0=    1 NMtDS0=    0 NMtDT0=    0
 Symmetry not used in FoFCou.
          Solving linear equations separately, MaxMat=       0.
          There are     1 degrees of freedom in the 1st order CPHF.  IDoFFX=0 NUNeed=     1.
 LinEq1:  Iter=  0 NonCon=     1 RMS=4.95D-02 Max=7.79D-01 NDo=     1
 AX will form     1 AO Fock derivatives at one time.
 LinEq1:  Iter=  1 NonCon=     1 RMS=1.54D-02 Max=1.91D-01 NDo=     1
 LinEq1:  Iter=  2 NonCon=     1 RMS=1.12D-02 Max=1.64D-01 NDo=     1
 LinEq1:  Iter=  3 NonCon=     1 RMS=4.45D-03 Max=6.84D-02 NDo=     1
 LinEq1:  Iter=  4 NonCon=     1 RMS=3.69D-03 Max=4.94D-02 NDo=     1
 LinEq1:  Iter=  5 NonCon=     1 RMS=1.00D-03 Max=8.06D-03 NDo=     1
 LinEq1:  Iter=  6 NonCon=     1 RMS=3.86D-04 Max=4.04D-03 NDo=     1
 LinEq1:  Iter=  7 NonCon=     1 RMS=1.81D-04 Max=1.48D-03 NDo=     1
 LinEq1:  Iter=  8 NonCon=     1 RMS=5.14D-05 Max=3.50D-04 NDo=     1
 LinEq1:  Iter=  9 NonCon=     1 RMS=1.32D-05 Max=9.22D-05 NDo=     1
 LinEq1:  Iter= 10 NonCon=     1 RMS=1.37D-06 Max=9.96D-06 NDo=     1
 LinEq1:  Iter= 11 NonCon=     1 RMS=1.58D-07 Max=1.05D-06 NDo=     1
 LinEq1:  Iter= 12 NonCon=     1 RMS=2.01D-08 Max=9.62D-08 NDo=     1
 LinEq1:  Iter= 13 NonCon=     1 RMS=2.28D-09 Max=1.47D-08 NDo=     1
 LinEq1:  Iter= 14 NonCon=     1 RMS=2.82D-10 Max=1.32D-09 NDo=     1
 LinEq1:  Iter= 15 NonCon=     0 RMS=4.04D-11 Max=1.97D-10 NDo=     1
 Linear equations converged to 1.000D-10 1.000D-09 after    15 iterations.
 End of Minotr F.D. properties file   721 does not exist.
 End of Minotr F.D. properties file   722 does not exist.
 End of Minotr F.D. properties file   788 does not exist.
 Leave Link 1002 at Tue Dec 15 16:23:05 2015, MaxMem=    33554432 cpu:        10.4
 (Enter /home/Applications/g09/g09/l601.exe)
 Copying SCF densities to generalized density rwf, IOpCl= 0 IROHF=0.

 **********************************************************************

            Population analysis using the SCF density.

 **********************************************************************

 Orbital symmetries:
       Occupied  (A) (A) (A) (A) (A) (A) (A) (A) (A) (A) (A) (A)
                 (A) (A) (A) (A) (A) (A)
       Virtual   (A) (A) (A) (A) (A) (A) (A) (A) (A) (A) (A) (A)
                 (A) (A) (A) (A) (A) (A) (A) (A) (A) (A) (A) (A)
                 (A) (A) (A) (A) (A) (A) (A) (A) (A) (A) (A)
 The electronic state is 1-A.
 Alpha  occ. eigenvalues --  -19.09722 -10.17403 -10.17217 -10.13406 -10.13230
 Alpha  occ. eigenvalues --   -1.07849  -0.79974  -0.74777  -0.59410  -0.57819
 Alpha  occ. eigenvalues --   -0.53263  -0.44536  -0.42869  -0.42297  -0.38928
 Alpha  occ. eigenvalues --   -0.35444  -0.27135  -0.24150
 Alpha virt. eigenvalues --    0.01492   0.07698   0.11553   0.14310   0.17182
 Alpha virt. eigenvalues --    0.17602   0.19826   0.21904   0.36062   0.40297
 Alpha virt. eigenvalues --    0.46003   0.67035   0.68076   0.70018   0.75654
 Alpha virt. eigenvalues --    0.76674   0.79059   0.80937   0.81760   0.83710
 Alpha virt. eigenvalues --    0.92309   0.96604   1.03758   1.04705   1.17727
 Alpha virt. eigenvalues --    1.24408   1.33154   1.35745   1.51055   1.55783
 Alpha virt. eigenvalues --    1.64291   1.74944   1.94084   2.11733   3.09973
     Molecular Orbital Coefficients:
                           1         2         3         4         5
                           O         O         O         O         O
     Eigenvalues --   -19.09722 -10.17403 -10.17217 -10.13406 -10.13230
   1 1   C  1S          0.00012   0.00093  -0.01411   0.93818   0.30323
   2        2S          0.00053   0.00085  -0.00604   0.10557   0.03074
   3        2PX         0.00082  -0.00040   0.00008   0.00164  -0.00006
   4        2PY         0.00093   0.00006   0.00290  -0.00129  -0.00002
   5        2PZ         0.00000   0.00001  -0.00011   0.00020   0.00009
   6        3S         -0.00342  -0.02143   0.03397  -0.10470  -0.00318
   7        3PX        -0.00585  -0.00678   0.00273  -0.02859   0.01112
   8        3PY         0.00416   0.01293  -0.01834   0.02176   0.00328
   9        3PZ        -0.00002  -0.00083   0.00073  -0.00165  -0.00028
  10 2   C  1S         -0.00058  -0.13138   0.97659   0.01269   0.00538
  11        2S         -0.00134  -0.01731   0.10541  -0.00291  -0.00182
  12        2PX         0.00180  -0.00136   0.00137  -0.00042   0.00000
  13        2PY        -0.00093  -0.00081   0.00014  -0.00202  -0.00180
  14        2PZ        -0.00007  -0.00005  -0.00035   0.00007   0.00005
  15        3S          0.01472   0.02479  -0.07405   0.04001   0.00636
  16        3PX         0.01288   0.01226  -0.00277   0.00922   0.00184
  17        3PY         0.00312   0.01801  -0.01590   0.02374   0.00743
  18        3PZ        -0.00099  -0.00036   0.00158  -0.00123  -0.00016
  19 3   O  1S          0.98268   0.00013   0.00012   0.00005   0.00010
  20        2S          0.10662   0.00116   0.00144   0.00025   0.00043
  21        2PX        -0.00108   0.00063  -0.00108   0.00000   0.00003
  22        2PY         0.00393   0.00095   0.00069   0.00001  -0.00013
  23        2PZ         0.00033   0.00009   0.00015   0.00003   0.00004
  24        3S         -0.05651   0.00169   0.00173  -0.00158  -0.00469
  25        3PX         0.00319   0.00063   0.00043   0.00268  -0.00038
  26        3PY        -0.01239  -0.00209  -0.00234  -0.00056  -0.00244
  27        3PZ        -0.00096  -0.00036  -0.00052  -0.00010  -0.00022
  28 4   C  1S         -0.00057   0.97676   0.13039  -0.00248   0.01101
  29        2S         -0.00130   0.10611   0.01097   0.00093  -0.00410
  30        2PX        -0.00100  -0.00226   0.00121  -0.00019   0.00205
  31        2PY        -0.00182  -0.00048  -0.00006  -0.00025  -0.00241
  32        2PZ        -0.00005  -0.00019  -0.00011   0.00005   0.00009
  33        3S          0.01826  -0.07969   0.00396  -0.02019   0.03794
  34        3PX        -0.01508   0.01796  -0.01553   0.01159  -0.01992
  35        3PY        -0.00474  -0.01416   0.00299  -0.00418   0.01389
  36        3PZ        -0.00090   0.00093   0.00021   0.00022  -0.00078
  37 5   C  1S          0.00015  -0.01141  -0.00290  -0.30386   0.93799
  38        2S          0.00059  -0.00627  -0.00142  -0.03701   0.10332
  39        2PX        -0.00128  -0.00235  -0.00019   0.00046  -0.00047
  40        2PY         0.00040   0.00248   0.00099   0.00100  -0.00196
  41        2PZ         0.00001  -0.00005  -0.00003   0.00000   0.00016
  42        3S         -0.00732   0.04301  -0.01009   0.06335  -0.08597
  43        3PX         0.00243   0.00992  -0.00011  -0.01646   0.00075
  44        3PY         0.00919  -0.02012   0.00574  -0.02102   0.02383
  45        3PZ        -0.00005   0.00048  -0.00026   0.00023  -0.00084
  46 6   H  1S         -0.00097  -0.00088  -0.00042   0.00046  -0.00257
  47        2S         -0.00281   0.00222  -0.00008   0.00161   0.00553
  48 7   H  1S          0.00026  -0.00383   0.00075  -0.00018  -0.00032
  49        2S          0.00403   0.00763   0.00833  -0.00230   0.00550
  50 8   H  1S         -0.00007   0.00196  -0.00471  -0.00041   0.00004
  51        2S          0.00335   0.00690   0.01158   0.00604   0.00328
  52 9   H  1S         -0.00086  -0.00050  -0.00097  -0.00371  -0.00129
  53        2S         -0.00265  -0.00258   0.00232   0.00300   0.00549
                           6         7         8         9        10
                           O         O         O         O         O
     Eigenvalues --    -1.07849  -0.79974  -0.74777  -0.59410  -0.57819
   1 1   C  1S         -0.02863   0.14569   0.07590  -0.11797  -0.01353
   2        2S          0.02914  -0.15658  -0.08256   0.11939   0.01479
   3        2PX         0.01922  -0.06050   0.04066  -0.04292  -0.14042
   4        2PY        -0.02854   0.05184   0.08774   0.04204  -0.10089
   5        2PZ         0.00097  -0.00665  -0.00423   0.00408   0.00430
   6        3S          0.04247  -0.30017  -0.15323   0.40745   0.06011
   7        3PX         0.02594  -0.02795  -0.00362   0.00855  -0.05547
   8        3PY        -0.02255   0.02585  -0.00708  -0.01740  -0.04473
   9        3PZ         0.00094  -0.00389  -0.00124   0.00507   0.00313
  10 2   C  1S         -0.06943   0.06835   0.14436   0.08586  -0.07082
  11        2S          0.07923  -0.07913  -0.15461  -0.08873   0.08187
  12        2PX         0.07453   0.02617   0.00603   0.01839  -0.17300
  13        2PY        -0.00331  -0.12232  -0.01360   0.20461   0.02882
  14        2PZ        -0.00527   0.00358   0.00969   0.00283   0.00052
  15        3S          0.07921  -0.10784  -0.35774  -0.30840   0.19044
  16        3PX        -0.01956   0.00300  -0.00968   0.00171  -0.10309
  17        3PY        -0.01849  -0.03606  -0.03501   0.04790  -0.00515
  18        3PZ         0.00036   0.00170   0.00579   0.00401   0.00020
  19 3   O  1S         -0.20911  -0.09565   0.00930  -0.02911   0.03689
  20        2S          0.19180   0.09207  -0.00863   0.02907  -0.03648
  21        2PX        -0.02353   0.01333   0.14532   0.18847   0.13969
  22        2PY         0.10088  -0.01339   0.04998   0.05592   0.01866
  23        2PZ         0.00769   0.00265  -0.00085  -0.00248   0.00009
  24        3S          0.66020   0.34085  -0.03391   0.12115  -0.15740
  25        3PX        -0.03210   0.00731   0.11901   0.16438   0.12368
  26        3PY         0.12834   0.00337   0.03921   0.05240   0.01130
  27        3PZ         0.01019   0.00239  -0.00097  -0.00265   0.00048
  28 4   C  1S         -0.07674   0.05442  -0.14558   0.02897  -0.10824
  29        2S          0.08804  -0.06552   0.15760  -0.03836   0.11509
  30        2PX        -0.06906   0.04841  -0.02778  -0.00684   0.16281
  31        2PY        -0.05035  -0.11881   0.03721  -0.19314  -0.08369
  32        2PZ        -0.00443   0.00099  -0.00679  -0.00313  -0.00187
  33        3S          0.07253  -0.07545   0.35915  -0.04204   0.37467
  34        3PX         0.03991   0.01319  -0.03404  -0.03144   0.06949
  35        3PY        -0.00306  -0.02773   0.03414  -0.07473  -0.01439
  36        3PZ         0.00099   0.00052  -0.00358  -0.00176  -0.00205
  37 5   C  1S         -0.03303   0.13994  -0.08823   0.05941   0.08844
  38        2S          0.03312  -0.14996   0.09619  -0.06297  -0.08705
  39        2PX         0.00251   0.02798   0.09209  -0.15401   0.08017
  40        2PY        -0.03982   0.07214  -0.06433   0.03022  -0.03890
  41        2PZ         0.00062  -0.00444   0.00368  -0.00653  -0.00194
  42        3S          0.06740  -0.28830   0.16940  -0.20746  -0.31127
  43        3PX        -0.01286   0.00695  -0.01159  -0.05274   0.03219
  44        3PY        -0.04711   0.03585   0.00017   0.02779   0.02098
  45        3PZ         0.00039  -0.00283   0.00142  -0.00458  -0.00239
  46 6   H  1S          0.00745  -0.04891   0.03734  -0.04950  -0.07165
  47        2S          0.01350  -0.01174   0.00862  -0.02679  -0.04878
  48 7   H  1S          0.01535  -0.01547   0.08265  -0.01647   0.17853
  49        2S         -0.02290  -0.00071   0.02954   0.00531   0.09576
  50 8   H  1S          0.01871  -0.02530  -0.10156  -0.15925   0.11901
  51        2S         -0.01838  -0.00291  -0.03326  -0.08615   0.04275
  52 9   H  1S          0.00748  -0.06038  -0.04062   0.12393   0.03616
  53        2S          0.01124  -0.01318  -0.00708   0.07301   0.01937
                          11        12        13        14        15
                           O         O         O         O         O
     Eigenvalues --    -0.53263  -0.44536  -0.42869  -0.42297  -0.38928
   1 1   C  1S         -0.03610  -0.02378   0.01978   0.00169   0.01738
   2        2S          0.03042   0.02801  -0.01870  -0.00122  -0.01601
   3        2PX        -0.09899   0.04940   0.22145  -0.02658  -0.24342
   4        2PY         0.21970  -0.08562  -0.16065   0.03383  -0.22087
   5        2PZ        -0.00456   0.00572   0.01914   0.12781   0.01888
   6        3S          0.18061   0.06994  -0.06899  -0.00976  -0.07018
   7        3PX        -0.07051   0.02962   0.17241  -0.02976  -0.16778
   8        3PY         0.10060  -0.02912  -0.09758   0.02548  -0.11723
   9        3PZ         0.00018   0.00328   0.01269   0.09631   0.01215
  10 2   C  1S          0.02507  -0.00184  -0.03757  -0.00113  -0.01478
  11        2S         -0.03010   0.00128   0.04476   0.00097   0.01896
  12        2PX        -0.08284   0.24049  -0.08365   0.01895  -0.01322
  13        2PY        -0.16767   0.14320   0.09196  -0.02014   0.23254
  14        2PZ         0.00421  -0.00705   0.02042   0.18521  -0.00290
  15        3S         -0.05934   0.02500   0.10833   0.00560   0.06552
  16        3PX        -0.05374   0.16953  -0.05953   0.02101  -0.00401
  17        3PY        -0.14156   0.08323   0.04450   0.00076   0.14685
  18        3PZ         0.00171  -0.00354   0.02061   0.18375  -0.00236
  19 3   O  1S         -0.05242  -0.00468   0.00215   0.00735  -0.03193
  20        2S          0.05125   0.00376  -0.00017  -0.00740   0.02802
  21        2PX         0.01527  -0.23329   0.17621  -0.01136   0.04637
  22        2PY        -0.15492  -0.09833   0.00729   0.01139  -0.00693
  23        2PZ        -0.00310   0.01104   0.03374   0.35125  -0.00919
  24        3S          0.20677   0.01899  -0.01630  -0.02984   0.14808
  25        3PX         0.01420  -0.21678   0.17378  -0.01163   0.04727
  26        3PY        -0.14098  -0.09112   0.00470   0.01117  -0.00778
  27        3PZ        -0.00347   0.01082   0.03356   0.35573  -0.00870
  28 4   C  1S          0.01892  -0.00444   0.03759  -0.00787   0.01890
  29        2S         -0.02346   0.00241  -0.04726   0.00967  -0.02083
  30        2PX         0.14070   0.30087   0.08544  -0.02653  -0.07843
  31        2PY        -0.01525   0.03965  -0.20214   0.00269   0.08223
  32        2PZ         0.00346   0.01870   0.02178   0.20051   0.00274
  33        3S         -0.03825   0.00596  -0.11683   0.02534  -0.05433
  34        3PX         0.10559   0.20890   0.05411  -0.02321  -0.06557
  35        3PY        -0.04483   0.02175  -0.13575   0.00630   0.04303
  36        3PZ         0.00094   0.01403   0.01911   0.19303   0.00067
  37 5   C  1S         -0.05487   0.02703  -0.03195   0.00579  -0.00083
  38        2S          0.05151  -0.03219   0.02839  -0.00555   0.00006
  39        2PX        -0.00865  -0.01703  -0.15027   0.00859   0.30034
  40        2PY         0.21096   0.07616   0.21461  -0.01520   0.13704
  41        2PZ         0.00200   0.00513   0.01329   0.13910   0.02152
  42        3S          0.22970  -0.06439   0.14238  -0.01946   0.00356
  43        3PX         0.01742   0.00992  -0.04944  -0.00045   0.21638
  44        3PY         0.12468   0.02107   0.13296  -0.00456   0.13015
  45        3PZ         0.00360   0.00427   0.01361   0.10499   0.01669
  46 6   H  1S          0.14163   0.01195   0.13824  -0.00946   0.15914
  47        2S          0.08792   0.01971   0.11871  -0.01125   0.14745
  48 7   H  1S          0.05484   0.20003   0.02870  -0.00881  -0.10251
  49        2S          0.02404   0.15557   0.03184  -0.00551  -0.08985
  50 8   H  1S          0.07082  -0.18274   0.04918  -0.00039  -0.10719
  51        2S          0.02744  -0.13307   0.02732   0.00827  -0.09753
  52 9   H  1S          0.14302  -0.03076  -0.21215   0.02837   0.02294
  53        2S          0.08773  -0.03614  -0.17282   0.01961   0.01384
                          16        17        18        19        20
                           O         O         O         V         V
     Eigenvalues --    -0.35444  -0.27135  -0.24150   0.01492   0.07698
   1 1   C  1S          0.02747  -0.00496   0.00281   0.00128  -0.00513
   2        2S         -0.02597   0.00579  -0.00515  -0.00445   0.00322
   3        2PX        -0.07777  -0.00728  -0.00050  -0.00496   0.00898
   4        2PY         0.09569  -0.02660   0.00795   0.00540  -0.00338
   5        2PZ        -0.02273  -0.28411   0.18288  -0.21340  -0.31481
   6        3S         -0.19856   0.03041   0.00932  -0.00342   0.05086
   7        3PX        -0.02919  -0.01378   0.01216   0.00806   0.01255
   8        3PY         0.10555  -0.02306  -0.00230   0.00626  -0.01249
   9        3PZ        -0.02442  -0.30162   0.18977  -0.37438  -0.61280
  10 2   C  1S         -0.02312   0.00105  -0.00824  -0.00898  -0.01044
  11        2S          0.02654  -0.00006   0.01017   0.00297   0.00775
  12        2PX         0.11217  -0.00195   0.01600   0.00631   0.03995
  13        2PY        -0.09551   0.00962   0.00721   0.00291  -0.01991
  14        2PZ        -0.01865  -0.09667   0.31415   0.34024   0.18432
  15        3S          0.12375  -0.00806   0.02548   0.08594   0.07627
  16        3PX         0.04861   0.00229   0.00592   0.00068   0.06859
  17        3PY         0.07133  -0.00473  -0.00526   0.01135  -0.04570
  18        3PZ        -0.01742  -0.04647   0.33501   0.51501   0.37110
  19 3   O  1S          0.06499   0.00030   0.00010  -0.00028   0.00850
  20        2S         -0.06694   0.00003  -0.00040  -0.00118  -0.00592
  21        2PX        -0.12715   0.01439  -0.00213   0.00319   0.03161
  22        2PY         0.42076  -0.02961  -0.00141   0.00324  -0.01320
  23        2PZ         0.00319   0.34496   0.03748  -0.26861   0.02566
  24        3S         -0.24359  -0.00402   0.00050   0.00565  -0.06575
  25        3PX        -0.13646   0.01653  -0.00660   0.00304   0.05401
  26        3PY         0.45297  -0.03208  -0.00210   0.00518  -0.01994
  27        3PZ         0.00611   0.38702   0.04425  -0.36562   0.03894
  28 4   C  1S         -0.01302   0.00136   0.00534  -0.00329   0.00432
  29        2S          0.01555  -0.00088  -0.00702  -0.00220  -0.00131
  30        2PX         0.00538  -0.00382   0.01336  -0.00038  -0.00282
  31        2PY        -0.17481   0.00407   0.00642   0.00058   0.00871
  32        2PZ        -0.01545  -0.04597  -0.31871   0.29375  -0.25606
  33        3S          0.07637  -0.00875  -0.01217   0.04436  -0.07361
  34        3PX        -0.03650   0.00042   0.00041  -0.01150   0.01135
  35        3PY         0.01012  -0.00749   0.00851   0.00593  -0.00601
  36        3PZ        -0.01357   0.00662  -0.32446   0.43848  -0.49461
  37 5   C  1S          0.02707  -0.00490  -0.00236   0.00183   0.01315
  38        2S         -0.03080   0.00556   0.00406  -0.00418  -0.00993
  39        2PX        -0.00025   0.02001   0.01141   0.00675   0.00338
  40        2PY         0.18217  -0.00114   0.00168   0.01172  -0.02408
  41        2PZ        -0.01752  -0.25356  -0.22379  -0.14368   0.34885
  42        3S         -0.15983   0.02981  -0.00881  -0.01651  -0.09854
  43        3PX        -0.04421   0.02318   0.01583   0.01065   0.00338
  44        3PY         0.12338   0.00433   0.01480   0.01535  -0.07257
  45        3PZ        -0.01831  -0.26867  -0.22999  -0.25570   0.68583
  46 6   H  1S          0.10819   0.00087  -0.00227  -0.00246   0.02104
  47        2S          0.14228  -0.00184  -0.00597  -0.00399   0.11379
  48 7   H  1S          0.04083  -0.00853   0.00370  -0.00717   0.00478
  49        2S          0.04910  -0.01168   0.00832  -0.01643   0.02990
  50 8   H  1S          0.02171  -0.00697  -0.00830  -0.01280  -0.00684
  51        2S          0.02947  -0.01026  -0.01500  -0.03429  -0.02492
  52 9   H  1S          0.06451  -0.00512   0.00260  -0.00256   0.00297
  53        2S          0.08554  -0.01012   0.00810   0.00211   0.01966
                          21        22        23        24        25
                           V         V         V         V         V
     Eigenvalues --     0.11553   0.14310   0.17182   0.17602   0.19826
   1 1   C  1S          0.05015   0.02986   0.00968   0.11328   0.03902
   2        2S         -0.03372  -0.01167  -0.01134  -0.09325   0.00035
   3        2PX         0.07101  -0.03365   0.20671  -0.02937   0.04423
   4        2PY        -0.10028  -0.05656  -0.02850  -0.11657  -0.14360
   5        2PZ         0.02811  -0.01334   0.00418  -0.01584  -0.01939
   6        3S         -0.50655  -0.43345  -0.21510  -1.01200  -0.86412
   7        3PX         0.28324  -0.19986   0.84455   0.20825  -0.19819
   8        3PY        -0.28285  -0.18605  -0.03595  -0.67814  -0.44440
   9        3PZ         0.06830  -0.03235  -0.01274  -0.03312  -0.06680
  10 2   C  1S         -0.02982   0.08801   0.00205  -0.05140   0.10491
  11        2S          0.02912  -0.07146   0.01291   0.04900  -0.07661
  12        2PX         0.19530  -0.18876   0.19403  -0.01595  -0.00902
  13        2PY        -0.04282   0.09051   0.08633  -0.03376   0.18490
  14        2PZ        -0.02427   0.02676  -0.00800  -0.00391   0.02847
  15        3S          0.05151  -0.78367  -0.36495   0.37524  -1.36386
  16        3PX         0.34082  -0.32995   0.46695  -0.34271   0.20975
  17        3PY        -0.20002   0.29162   0.43453  -0.34508   0.61777
  18        3PZ        -0.04718   0.05424  -0.00791   0.01593   0.08247
  19 3   O  1S          0.08155  -0.06342  -0.03537   0.02809  -0.01925
  20        2S         -0.05840   0.04644   0.02384  -0.01696   0.00976
  21        2PX         0.06932  -0.13659   0.23326  -0.01536  -0.20849
  22        2PY        -0.18585   0.05276   0.12166  -0.04478  -0.03093
  23        2PZ        -0.01890   0.00905   0.00317  -0.00346   0.00390
  24        3S         -0.64356   0.50050   0.29751  -0.25411   0.18859
  25        3PX         0.11170  -0.23735   0.39746  -0.08630  -0.39081
  26        3PY        -0.31287   0.07237   0.20081  -0.10261  -0.05079
  27        3PZ        -0.03372   0.01662   0.00616  -0.00619   0.00806
  28 4   C  1S         -0.02500   0.08484   0.09568   0.01920  -0.08121
  29        2S          0.02727  -0.05870  -0.08270  -0.02872   0.05541
  30        2PX        -0.12800  -0.18804   0.11278  -0.05064   0.15671
  31        2PY        -0.13000   0.06669   0.17920  -0.11308  -0.08416
  32        2PZ         0.01725   0.00445   0.01877  -0.00935  -0.01739
  33        3S         -0.03862  -0.93230  -0.79439  -0.07198   1.12832
  34        3PX        -0.11357  -0.73365   0.10626  -0.39885   0.56358
  35        3PY        -0.37926   0.28067   0.36325  -0.34434  -0.06007
  36        3PZ         0.04625   0.00975   0.03306  -0.04230  -0.04953
  37 5   C  1S          0.05472  -0.01538   0.00555  -0.12819  -0.01572
  38        2S         -0.03514   0.02356   0.01509   0.09141  -0.00772
  39        2PX        -0.02115  -0.11694   0.13152  -0.04475  -0.11475
  40        2PY        -0.18091  -0.13371   0.06466   0.13823   0.05912
  41        2PZ        -0.04279   0.00045  -0.00302   0.02417   0.01592
  42        3S         -0.50149  -0.11936  -0.25802   1.27193   0.38094
  43        3PX        -0.03629  -0.35842   0.63931  -0.07437  -0.58759
  44        3PY        -0.54156  -0.19133   0.33103   0.68410   0.07532
  45        3PZ        -0.08930  -0.02006   0.00329   0.07174   0.04067
  46 6   H  1S          0.11316   0.03111  -0.05699  -0.03963   0.01462
  47        2S          1.01159   0.43511  -0.49308  -1.20968  -0.05625
  48 7   H  1S         -0.00532   0.12076  -0.00425   0.03078   0.00254
  49        2S          0.09954   1.46695   0.33309   0.40350  -1.17864
  50 8   H  1S         -0.00110   0.02209   0.07795  -0.05887   0.00271
  51        2S          0.09409   0.44332   1.01443  -0.79344   1.42470
  52 9   H  1S          0.10057  -0.01664   0.06025   0.05446  -0.01710
  53        2S          0.87598   0.12526   0.93784   1.12301   0.54679
                          26        27        28        29        30
                           V         V         V         V         V
     Eigenvalues --     0.21904   0.36062   0.40297   0.46003   0.67035
   1 1   C  1S         -0.06677   0.07775  -0.07042   0.10266   0.02372
   2        2S          0.03619  -0.01737   0.03094  -0.00988  -0.11176
   3        2PX        -0.19451  -0.03566   0.27474  -0.08243   0.11452
   4        2PY        -0.02062   0.13824   0.08938   0.23063   0.40027
   5        2PZ         0.00810  -0.00647  -0.01556   0.00097  -0.02362
   6        3S          1.08625  -1.71772   1.14854  -2.66781  -0.15535
   7        3PX        -0.76002  -0.03308   1.61513  -1.31852  -0.06515
   8        3PY        -0.12921   1.77224   0.36564   1.85978  -0.12359
   9        3PZ         0.02140  -0.09202  -0.02486  -0.10075   0.00850
  10 2   C  1S          0.05838  -0.08130   0.03420  -0.07685  -0.04234
  11        2S         -0.03348   0.00669  -0.01154   0.01388  -0.03166
  12        2PX         0.24047   0.04134  -0.22698   0.18223   0.31586
  13        2PY        -0.00682   0.29175   0.07432  -0.00647  -0.15381
  14        2PZ         0.00459  -0.01249   0.00858   0.00656  -0.00152
  15        3S         -1.11424   1.67422  -0.19170   1.84730   0.19211
  16        3PX         0.91294   0.31043  -0.91485   0.30484  -0.36859
  17        3PY        -0.07257   1.78599   0.09743   2.06512   0.49584
  18        3PZ         0.01829  -0.09143   0.03685  -0.09108  -0.02254
  19 3   O  1S          0.06517   0.03986  -0.00349  -0.01365   0.01244
  20        2S         -0.03128  -0.01904   0.00380   0.00439  -0.08417
  21        2PX        -0.00644  -0.03128  -0.27865   0.05254   0.03780
  22        2PY        -0.05164  -0.15983  -0.03447   0.03561  -0.21801
  23        2PZ        -0.01962   0.00193   0.00339   0.00258  -0.00176
  24        3S         -0.66104  -0.46773   0.02564   0.18021   0.38261
  25        3PX         0.01688  -0.06595  -0.59079  -0.02807   0.02025
  26        3PY        -0.19391  -0.44778  -0.07188   0.08888  -0.01606
  27        3PZ        -0.04002   0.00255   0.00330   0.00751   0.01388
  28 4   C  1S          0.02290  -0.07220   0.01075   0.10721  -0.03496
  29        2S         -0.00506   0.01693   0.00777  -0.01816  -0.05727
  30        2PX        -0.14235  -0.20818  -0.06117   0.22066  -0.14990
  31        2PY        -0.16473   0.07725  -0.26110   0.10468  -0.53979
  32        2PZ         0.00019  -0.01583  -0.00409  -0.00546  -0.01491
  33        3S         -0.62509   1.35095  -0.92010  -2.53624  -0.07888
  34        3PX        -0.32814  -1.14100  -0.02893   1.93754   0.01275
[...]
     3  O   -0.075027   0.302823   8.076562   0.275425  -0.073825   0.001958
     4  C   -0.117981  -0.130196   0.275425   5.055829   0.465634  -0.026399
     5  C    0.432154  -0.129555  -0.073825   0.465634   5.246548   0.365748
     6  H   -0.027774   0.005008   0.001958  -0.026399   0.365748   0.502425
     7  H    0.002486   0.003266  -0.023768   0.386750  -0.040866  -0.000548
     8  H   -0.043292   0.395938  -0.025892   0.003568   0.003803  -0.000037
     9  H    0.382108  -0.029886   0.001496   0.003721  -0.021003  -0.000590
               7          8          9
     1  C    0.002486  -0.043292   0.382108
     2  C    0.003266   0.395938  -0.029886
     3  O   -0.023768  -0.025892   0.001496
     4  C    0.386750   0.003568   0.003721
     5  C   -0.040866   0.003803  -0.021003
     6  H   -0.000548  -0.000037  -0.000590
     7  H    0.450774  -0.000051  -0.000016
     8  H   -0.000051   0.446358  -0.000492
     9  H   -0.000016  -0.000492   0.468910
 Mulliken charges:
               1
     1  C   -0.237380
     2  C    0.044089
     3  O   -0.459751
     4  C    0.083651
     5  C   -0.248638
     6  H    0.180209
     7  H    0.221972
     8  H    0.220097
     9  H    0.195751
 Sum of Mulliken charges =   0.00000
 Mulliken charges with hydrogens summed into heavy atoms:
               1
     1  C   -0.041628
     2  C    0.264186
     3  O   -0.459751
     4  C    0.305623
     5  C   -0.068429
 Electronic spatial extent (au):  <R**2>=            297.4541
 Charge=              0.0000 electrons
 Dipole moment (field-independent basis, Debye):
    X=             -0.3373    Y=              0.9151    Z=              0.1156  Tot=              0.9821
 Quadrupole moment (field-independent basis, Debye-Ang):
   XX=            -23.3790   YY=            -27.9535   ZZ=            -31.8391
   XY=              1.1044   XZ=              0.0686   YZ=              0.0424
 Traceless Quadrupole moment (field-independent basis, Debye-Ang):
   XX=              4.3449   YY=             -0.2297   ZZ=             -4.1152
   XY=              1.1044   XZ=              0.0686   YZ=              0.0424
 Octapole moment (field-independent basis, Debye-Ang**2):
  XXX=              3.6767  YYY=              0.7838  ZZZ=             -0.2143  XYY=             -3.3632
  XXY=             -2.5346  XXZ=              0.0998  XZZ=              0.9366  YZZ=             -3.4102
  YYZ=              0.2750  XYZ=              0.1218
 Hexadecapole moment (field-independent basis, Debye-Ang**3):
 XXXX=           -158.7945 YYYY=           -154.9469 ZZZZ=            -31.0163 XXXY=             -5.1222
 XXXZ=              0.0112 YYYX=              5.0984 YYYZ=              0.7164 ZZZX=             -0.0433
 ZZZY=              0.3897 XXYY=            -50.5124 XXZZ=            -40.2190 YYZZ=            -34.9826
 XXYZ=              0.2041 YYXZ=              0.2844 ZZXY=             -1.0012
 N-N= 1.582572043859D+02 E-N=-8.491407518996D+02  KE= 2.267328319404D+02
 Orbital energies and kinetic energies (alpha):
                                 1                 2
   1         O               -19.097219         28.830825
   2         O               -10.174027         15.801492
   3         O               -10.172171         15.798435
   4         O               -10.134064         15.806618
   5         O               -10.132295         15.807062
   6         O                -1.078495          2.456622
   7         O                -0.799744          1.834131
   8         O                -0.747774          1.738187
   9         O                -0.594105          1.569600
  10         O                -0.578192          1.434824
  11         O                -0.532626          1.267533
  12         O                -0.445356          1.535762
  13         O                -0.428692          1.427306
  14         O                -0.422973          1.495272
  15         O                -0.389278          1.382219
  16         O                -0.354436          2.294401
  17         O                -0.271348          1.664672
  18         O                -0.241501          1.221454
  19         V                 0.014917          1.763265
  20         V                 0.076981          1.504373
  21         V                 0.115531          1.645044
  22         V                 0.143104          1.585322
  23         V                 0.171821          1.772315
  24         V                 0.176021          1.475185
  25         V                 0.198263          1.557093
  26         V                 0.219043          1.465918
  27         V                 0.360623          1.889865
  28         V                 0.402972          2.232181
  29         V                 0.460032          2.143925
  30         V                 0.670353          2.473679
  31         V                 0.680761          2.563140
  32         V                 0.700179          2.496764
  33         V                 0.756537          2.480840
  34         V                 0.766741          2.498522
  35         V                 0.790595          2.608700
  36         V                 0.809368          2.590336
  37         V                 0.817598          2.706823
  38         V                 0.837100          2.596414
  39         V                 0.923087          2.712960
  40         V                 0.966038          3.109821
  41         V                 1.037579          3.258381
  42         V                 1.047049          3.260197
  43         V                 1.177273          2.733930
  44         V                 1.244075          2.926798
  45         V                 1.331536          2.550900
  46         V                 1.357455          2.971264
  47         V                 1.510546          4.900388
  48         V                 1.557834          3.305780
  49         V                 1.642908          4.044447
  50         V                 1.749436          4.230718
  51         V                 1.940836          4.177457
  52         V                 2.117327          4.197252
  53         V                 3.099731          6.785605
 Total kinetic energy from orbitals= 2.267328319404D+02
 No NMR shielding tensors so no spin-rotation constants.
 Leave Link  601 at Tue Dec 15 16:23:05 2015, MaxMem=    33554432 cpu:         0.1
 (Enter /home/Applications/g09/g09/l701.exe)
 Compute integral first derivatives.
 ... and contract with generalized density number  6.
 Leave Link  701 at Tue Dec 15 16:23:05 2015, MaxMem=    33554432 cpu:         0.1
 (Enter /home/Applications/g09/g09/l702.exe)
 L702 exits ... SP integral derivatives will be done elsewhere.
 Leave Link  702 at Tue Dec 15 16:23:05 2015, MaxMem=    33554432 cpu:         0.0
 (Enter /home/Applications/g09/g09/l703.exe)
 Compute integral first derivatives, UseDBF=F ICtDFT=           0.
 Integral derivatives from FoFJK, PRISM(SPDF).
 Calling FoFJK, ICntrl=  10005127 FMM=F ISym2X=0 I1Cent= 0 IOpClX= 0 NMat=1 NMatS=1 NMatT=0.
 FoFJK:  IHMeth= 1 ICntrl=10005127 DoSepK=F KAlg= 0 I1Cent=   0 FoldK=F
 IRaf=         0 NMat=   1 IRICut=       1 DoRegI=T DoRafI=F ISym2E= 0.
 FoFCou: FMM=F IPFlag=           0 FMFlag=      100000 FMFlg1=         800
         NFxFlg=           0 DoJE=F BraDBF=F KetDBF=F FulRan=T
         wScrn=  0.000000 ICntrl=10005127 IOpCl=  0 I1Cent=           0 NGrid=           0
         NMat0=    1 NMatS0=      1 NMatT0=    0 NMatD0=    1 NMtDS0=    0 NMtDT0=    0
 Symmetry not used in FoFCou.
 Leave Link  703 at Tue Dec 15 16:23:07 2015, MaxMem=    33554432 cpu:         1.3
 (Enter /home/Applications/g09/g09/l716.exe)
 Dipole        = 6.63920794D-01 6.55409169D-01 9.79217196D-03
 ***** Axes restored to original set *****
 -------------------------------------------------------------------
 Center     Atomic                   Forces (Hartrees/Bohr)
 Number     Number              X              Y              Z
 -------------------------------------------------------------------
      1        6           0.066070262    0.028961686    0.009022761
      2        6          -0.010664209    0.001654803   -0.008370912
      3        8          -0.028834346    0.055588860    0.002292758
      4        6          -0.112436285    0.009940868    0.000491766
      5        6           0.152069968   -0.022389901   -0.007838540
      6        1          -0.033010101   -0.016591118    0.003590583
      7        1          -0.001360763    0.004277936    0.000984289
      8        1          -0.035210169   -0.065237756   -0.000914463
      9        1           0.003375643    0.003794621    0.000741758
 -------------------------------------------------------------------
 Cartesian Forces:  Max     0.152069968 RMS     0.044200577
 Z-matrix is all fixed cartesians, so copy forces.
 Force constants in Cartesian coordinates: 
                1             2             3             4             5 
      1  0.938630D+00
      2 -0.338229D-01  0.718118D+00
      3  0.235185D-01  0.151145D-01  0.192424D+00
      4 -0.526718D+00 -0.107881D+00 -0.301589D-01  0.949295D+00
      5 -0.884468D-01 -0.218424D+00 -0.128073D-01  0.136797D+00  0.875731D+00
      6 -0.273625D-01 -0.102935D-01 -0.110662D+00  0.921556D-02  0.255980D-01
      7 -0.804541D-02  0.269911D-01  0.296082D-02 -0.232232D+00  0.110256D+00
      8 -0.613482D-02  0.207396D-01  0.138111D-02  0.147644D+00 -0.268863D+00
      9 -0.112636D-02  0.290742D-02  0.252898D-02  0.188069D-01 -0.193942D-01
     10  0.109391D-01  0.542068D-03  0.489710D-03  0.212426D-01  0.166382D-01
     11  0.338389D-01  0.162919D-02  0.224514D-02 -0.161994D-01 -0.126867D-01
     12  0.494035D-03  0.188242D-03  0.106430D-02 -0.213595D-02 -0.174993D-02
     13 -0.155613D+00  0.205125D-01 -0.325395D-03  0.969476D-02 -0.333099D-01
     14 -0.231687D-02 -0.333595D+00 -0.394166D-02  0.455621D-03 -0.160047D-02
     15 -0.590152D-03  0.254989D-02 -0.660755D-01  0.708642D-03 -0.343248D-02
     16  0.148319D-01  0.719395D-03 -0.374270D-03 -0.634087D-05  0.000000D+00
     17 -0.216509D-01 -0.105279D-02  0.143878D-02  0.000000D+00  0.000000D+00
     18 -0.436235D-03 -0.551516D-04  0.114753D-01 -0.118161D-03 -0.115240D-04
     19  0.133825D-04  0.177793D-05 -0.381042D-03  0.119777D-04 -0.254804D-05
     20  0.108883D-04  0.144655D-05 -0.310023D-03  0.232463D-05  0.000000D+00
     21 -0.293337D-03 -0.389711D-04  0.835220D-02  0.254683D-03 -0.541793D-04
     22  0.807942D-02 -0.277816D-01  0.229951D-03 -0.216228D+00 -0.159221D+00
     23 -0.458451D-02  0.156738D-01  0.293100D-03 -0.153881D+00 -0.398054D+00
     24 -0.102160D-02 -0.417317D-02  0.360249D-01  0.635197D-02  0.822289D-02
     25 -0.282117D+00  0.120719D+00  0.404060D-02 -0.505996D-02  0.172893D-01
     26  0.123107D+00 -0.203091D+00 -0.341359D-02 -0.693736D-02  0.238983D-01
     27  0.681764D-02 -0.619917D-02 -0.751321D-01 -0.292473D-02  0.362880D-02
                6             7             8             9            10 
      6  0.204182D+00
      7  0.149552D-01  0.456254D+00
      8 -0.185444D-01  0.221085D-01  0.552776D+00
      9 -0.391634D-01 -0.283429D-01  0.704179D-02  0.451597D-01
     10 -0.154490D-02 -0.249021D+00 -0.171165D+00  0.135898D-01  0.973205D+00
     11  0.123377D-02 -0.129444D+00 -0.308773D+00  0.112798D-01 -0.946238D-01
     12 -0.121550D-02  0.119516D-01  0.117058D-01 -0.404965D-01  0.314852D-02
     13  0.235459D-03 -0.926123D-02  0.694255D-02 -0.748269D-03 -0.584013D+00
     14 -0.130092D-03 -0.284135D-01  0.214352D-01 -0.203556D-02  0.137899D+00
     15 -0.654938D-03  0.191213D-02 -0.508097D-03  0.559920D-02 -0.182478D-01
     16  0.104997D-03  0.000000D+00 -0.236051D-05 -0.418502D-04 -0.522107D-02
     17  0.000000D+00 -0.968051D-05  0.355473D-04  0.630229D-03  0.747663D-02
     18  0.195662D-02 -0.112320D-03  0.412444D-03  0.731235D-02 -0.170748D-02
     19  0.145832D-03  0.210642D-01 -0.160003D-01 -0.866229D-03 -0.167143D+00
     20  0.283031D-04  0.105319D-01 -0.800367D-02 -0.516055D-03  0.103238D+00
     21  0.310085D-02 -0.124358D-02  0.120343D-02  0.583284D-02  0.417055D-02
     22  0.387963D-02  0.212320D-01  0.165802D-01 -0.101429D-02  0.129242D-04
     23  0.251137D-02 -0.120381D-01 -0.940669D-02  0.649828D-03 -0.512269D-05
     24 -0.876138D-01 -0.186857D-02 -0.197636D-02  0.645138D-02  0.186551D-03
     25  0.370732D-03  0.804309D-05  0.271183D-04 -0.256713D-03 -0.174648D-05
     26 -0.402630D-03  0.176459D-04  0.594956D-04 -0.563209D-03  0.000000D+00
     27  0.300699D-01 -0.212279D-03 -0.715728D-03  0.677536D-02 -0.849755D-04
               11            12            13            14            15 
     11  0.855735D+00
     12 -0.143596D-01  0.205674D+00
     13  0.115324D+00 -0.180844D-01  0.945117D+00
     14 -0.238488D+00  0.673315D-02 -0.457735D-01  0.700422D+00
     15  0.819131D-02 -0.114961D+00  0.843115D-02 -0.112510D-01  0.194058D+00
     16 -0.159853D-01  0.144669D-02 -0.231068D+00 -0.896441D-01  0.834856D-02
     17  0.231291D-01  0.218347D-03 -0.907818D-01 -0.162707D+00  0.512717D-02
     18 -0.217206D-02  0.298906D-01  0.112462D-01  0.765682D-02 -0.717864D-01
     19  0.107092D+00  0.297251D-02  0.872308D-02  0.269950D-01  0.351614D-03
     20 -0.320548D+00 -0.266897D-02  0.435628D-02  0.134305D-01 -0.312717D-03
     21 -0.636743D-02 -0.846465D-01 -0.154910D-03  0.305607D-02  0.340297D-01
     22 -0.274940D-05  0.157356D-03  0.365573D-04  0.356533D-05 -0.605346D-03
     23  0.108976D-05 -0.623703D-04 -0.261630D-04 -0.255161D-05  0.433229D-03
     24 -0.396854D-04  0.227131D-02 -0.465895D-03 -0.454375D-04  0.771468D-02
     25  0.000000D+00  0.497277D-04  0.163838D-01  0.794361D-03 -0.308817D-03
     26  0.000000D+00 -0.476588D-05  0.227558D-01  0.110439D-02 -0.797314D-03
     27 -0.112894D-04  0.241951D-02 -0.133867D-03 -0.422919D-04  0.120768D-01
               16            17            18            19            20 
     16  0.221470D+00
     17  0.104915D+00  0.140554D+00
     18 -0.939300D-02 -0.631170D-02  0.370152D-01
     19 -0.334226D-05  0.503317D-04  0.583983D-03  0.137334D+00
     20 -0.271933D-05  0.409508D-04  0.475139D-03 -0.118136D+00  0.315079D+00
     21  0.732603D-04 -0.110324D-02 -0.128005D-01 -0.280667D-02  0.330432D-02
     22  0.000000D+00  0.000000D+00  0.000000D+00  0.000000D+00  0.000000D+00
     23  0.000000D+00  0.000000D+00  0.000000D+00  0.000000D+00  0.000000D+00
     24  0.000000D+00  0.000000D+00  0.000000D+00  0.000000D+00  0.000000D+00
     25 -0.337839D-05  0.000000D+00 -0.629561D-04  0.000000D+00  0.000000D+00
     26  0.000000D+00  0.000000D+00  0.603369D-05  0.000000D+00  0.000000D+00
     27 -0.164377D-03  0.112203D-05 -0.306314D-02  0.000000D+00  0.000000D+00
               21            22            23            24            25 
     21  0.461314D-01
     22  0.000000D+00  0.186906D+00
     23  0.000000D+00  0.170507D+00  0.391727D+00
     24  0.000000D+00 -0.368216D-02 -0.308454D-02  0.483400D-01
     25  0.000000D+00 -0.392098D-04  0.280614D-04  0.499700D-03  0.270829D+00
     26  0.000000D+00 -0.860235D-04  0.615646D-04  0.109630D-02 -0.138857D+00
     27  0.000000D+00  0.103486D-02 -0.740617D-03 -0.131884D-01 -0.433227D-02
               26            27 
     26  0.177967D+00
     27  0.407917D-02  0.400421D-01
 Leave Link  716 at Tue Dec 15 16:23:07 2015, MaxMem=    33554432 cpu:         0.0
 (Enter /home/Applications/g09/g09/l103.exe)

 GradGradGradGradGradGradGradGradGradGradGradGradGradGradGradGradGradGrad
 Berny optimization.
 Search for a local minimum.
 Step number   1 out of a maximum of    2
 All quantities printed in internal units (Hartrees-Bohrs-Radians)
 Second derivative matrix not updated -- first step.
 ITU=  0
     Eigenvalues ---    0.01647   0.02467   0.06568   0.07236   0.07725
     Eigenvalues ---    0.08292   0.12101   0.12647   0.15654   0.22544
     Eigenvalues ---    0.24335   0.32263   0.38073   0.44112   0.62540
     Eigenvalues ---    0.77588   0.96246   1.22620   1.29453   1.64959
     Eigenvalues ---    1.70153
 Quadratic step=3.873D-01 exceeds max=3.000D-01 adjusted using Lamda=-4.513D-02.
 Angle between NR and scaled steps=  18.86 degrees.
 Angle between quadratic step and forces=  38.40 degrees.
 Linear search not attempted -- first point.
 TrRot=  0.001465  0.010804 -0.001867  1.018993  0.001437 -1.021885
 Variable       Old X    -DE/DX   Delta X   Delta X   Delta X     New X
                                 (Linear)    (Quad)   (Total)
    X1        1.86823   0.06607   0.00000   0.09228   0.08965   1.95789
    Y1       -1.44476   0.02896   0.00000   0.01140   0.01664  -1.42812
    Z1        0.06017   0.00902   0.00000   0.02125   0.01967   0.07985
    X2       -0.57066  -0.01066   0.00000  -0.02863  -0.03356  -0.60421
    Y2       -2.15529   0.00165   0.00000  -0.02870  -0.01627  -2.17156
    Z2       -0.09130  -0.00837   0.00000  -0.00926  -0.00800  -0.09930
    X3       -2.24896  -0.02883   0.00000  -0.09298  -0.09122  -2.34018
    Y3        0.00463   0.05559   0.00000   0.07186   0.08955   0.09418
    Z3        0.08429   0.00229   0.00000  -0.00029  -0.00050   0.08379
    X4       -0.63517  -0.11244   0.00000  -0.05838  -0.05073  -0.68590
    Y4        2.13433   0.00994   0.00000   0.00356   0.01636   2.15069
    Z4       -0.01105   0.00049   0.00000   0.00939   0.00542  -0.00562
    X5        1.73200   0.15207   0.00000   0.12101   0.12640   1.85839
    Y5        1.36838  -0.02239   0.00000  -0.01800  -0.01252   1.35586
    Z5        0.06852  -0.00784   0.00000  -0.03469  -0.03960   0.02892
    X6        3.51040  -0.03301   0.00000  -0.02378  -0.01492   3.49548
    Y6        2.58858  -0.01659   0.00000  -0.01864  -0.01798   2.57060
    Z6       -0.02647   0.00359   0.00000  -0.00379  -0.01142  -0.03789
    X7       -1.53693  -0.00136   0.00000  -0.03647  -0.02350  -1.56043
    Y7        3.94095   0.00428   0.00000   0.02204   0.03744   3.97839
    Z7        0.01487   0.00098   0.00000   0.03165   0.02610   0.04097
    X8       -1.49544  -0.03521   0.00000  -0.08190  -0.09190  -1.58734
    Y8       -3.78934  -0.06524   0.00000  -0.15497  -0.13970  -3.92904
    Z8       -0.07210  -0.00091   0.00000  -0.02401  -0.01986  -0.09196
    X9        3.51049   0.00338   0.00000   0.09582   0.08978   3.60027
    Y9       -2.62738   0.00379   0.00000   0.02605   0.02650  -2.60088
    Z9        0.02409   0.00074   0.00000   0.02956   0.02818   0.05227
         Item               Value     Threshold  Converged?
 Maximum Force            0.152070     0.000450     NO 
 RMS     Force            0.044201     0.000300     NO 
 Maximum Displacement     0.139704     0.001800     NO 
 RMS     Displacement     0.057185     0.001200     NO 
 Predicted change in Energy=-2.904571D-02
 GradGradGradGradGradGradGradGradGradGradGradGradGradGradGradGradGradGrad

 Leave Link  103 at Tue Dec 15 16:23:07 2015, MaxMem=    33554432 cpu:         0.0
 (Enter /home/Applications/g09/g09/l9999.exe)
 1\1\GINC-DUSTIN-DESKTOP\Force\RB3LYP-FC\3-21G\C4H4O1\DUSTIN\15-Dec-201
 5\0\\#P B3LYP/3-21G CIS(Singlets,NStates=15) pop(full) force\\FuranDFT
 \\0,1\C,0.988626,-0.764534,0.031843\C,-0.301978,-1.14053,-0.048312\O,-
 1.190098,0.00245,0.044603\C,-0.336119,1.129439,-0.005846\C,0.916533,0.
 724113,0.036257\H,1.857624,1.369815,-0.014008\H,-0.81331,2.085461,0.00
 787\H,-0.791352,-2.005232,-0.038153\H,1.857672,-1.390348,0.012749\\Ver
 sion=ES64L-G09RevD.01\State=1-A\HF=-228.7378437\RMSD=3.388e-09\RMSF=4.
 420e-02\Dipole=0.4240006,0.8310664,0.0002908\PG=C01 [X(C4H4O1)]\\@


 WHEN A MATHEMATICIAN ENGAGED IN INVESTIGATING
 PHYSICAL ACTIONS AND RESULTS HAS ARRIVED AT HIS
 CONCLUSIONS, MAY THEY NOT BE EXPRESSED IN COMMON
 LANGUAGE AS FULLY, CLEARLY, AND DEFINITELY AS IN
 MATHEMATICAL FORMULAE?
           - LETTER FROM M. FARADAY TO J.C. MAXWELL, 1857.
 Job cpu time:       0 days  0 hours  0 minutes 49.9 seconds.
 File lengths (MBytes):  RWF=     14 Int=      0 D2E=      0 Chk=      3 Scr=      1
 Normal termination of Gaussian 09 at Tue Dec 15 16:23:07 2015.
