 Entering Gaussian System, Link 0=g09
 Input=FuranDFT_37.com
 Output=FuranDFT_37.log
 Initial command:
 /home/Applications/g09/g09/l1.exe "/home/Applications/g09/scratch/Gau-5805.inp" -scrdir="/home/Applications/g09/scratch/"
 Entering Link 1 = /home/Applications/g09/g09/l1.exe PID=      5807.
  
 Copyright (c) 1988,1990,1992,1993,1995,1998,2003,2009,2013,
            Gaussian, Inc.  All Rights Reserved.
  
 This is part of the Gaussian(R) 09 program.  It is based on
 the Gaussian(R) 03 system (copyright 2003, Gaussian, Inc.),
 the Gaussian(R) 98 system (copyright 1998, Gaussian, Inc.),
 the Gaussian(R) 94 system (copyright 1995, Gaussian, Inc.),
 the Gaussian 92(TM) system (copyright 1992, Gaussian, Inc.),
 the Gaussian 90(TM) system (copyright 1990, Gaussian, Inc.),
 the Gaussian 88(TM) system (copyright 1988, Gaussian, Inc.),
 the Gaussian 86(TM) system (copyright 1986, Carnegie Mellon
 University), and the Gaussian 82(TM) system (copyright 1983,
 Carnegie Mellon University). Gaussian is a federally registered
 trademark of Gaussian, Inc.
  
 This software contains proprietary and confidential information,
 including trade secrets, belonging to Gaussian, Inc.
  
 This software is provided under written license and may be
 used, copied, transmitted, or stored only in accord with that
 written license.
  
 The following legend is applicable only to US Government
 contracts under FAR:
  
                    RESTRICTED RIGHTS LEGEND
  
 Use, reproduction and disclosure by the US Government is
 subject to restrictions as set forth in subparagraphs (a)
 and (c) of the Commercial Computer Software - Restricted
 Rights clause in FAR 52.227-19.
  
 Gaussian, Inc.
 340 Quinnipiac St., Bldg. 40, Wallingford CT 06492
  
  
 ---------------------------------------------------------------
 Warning -- This program may not be used in any manner that
 competes with the business of Gaussian, Inc. or will provide
 assistance to any competitor of Gaussian, Inc.  The licensee
 of this program is prohibited from giving any competitor of
 Gaussian, Inc. access to this program.  By using this program,
 the user acknowledges that Gaussian, Inc. is engaged in the
 business of creating and licensing software in the field of
 computational chemistry and represents and warrants to the
 licensee that it is not a competitor of Gaussian, Inc. and that
 it will not use this program in any manner prohibited above.
 ---------------------------------------------------------------
  

 Cite this work as:
 Gaussian 09, Revision D.01,
 M. J. Frisch, G. W. Trucks, H. B. Schlegel, G. E. Scuseria, 
 M. A. Robb, J. R. Cheeseman, G. Scalmani, V. Barone, B. Mennucci, 
 G. A. Petersson, H. Nakatsuji, M. Caricato, X. Li, H. P. Hratchian, 
 A. F. Izmaylov, J. Bloino, G. Zheng, J. L. Sonnenberg, M. Hada, 
 M. Ehara, K. Toyota, R. Fukuda, J. Hasegawa, M. Ishida, T. Nakajima, 
 Y. Honda, O. Kitao, H. Nakai, T. Vreven, J. A. Montgomery, Jr., 
 J. E. Peralta, F. Ogliaro, M. Bearpark, J. J. Heyd, E. Brothers, 
 K. N. Kudin, V. N. Staroverov, T. Keith, R. Kobayashi, J. Normand, 
 K. Raghavachari, A. Rendell, J. C. Burant, S. S. Iyengar, J. Tomasi, 
 M. Cossi, N. Rega, J. M. Millam, M. Klene, J. E. Knox, J. B. Cross, 
 V. Bakken, C. Adamo, J. Jaramillo, R. Gomperts, R. E. Stratmann, 
 O. Yazyev, A. J. Austin, R. Cammi, C. Pomelli, J. W. Ochterski, 
 R. L. Martin, K. Morokuma, V. G. Zakrzewski, G. A. Voth, 
 P. Salvador, J. J. Dannenberg, S. Dapprich, A. D. Daniels, 
 O. Farkas, J. B. Foresman, J. V. Ortiz, J. Cioslowski, 
 and D. J. Fox, Gaussian, Inc., Wallingford CT, 2013.
 
 ******************************************
 Gaussian 09:  ES64L-G09RevD.01 24-Apr-2013
                15-Dec-2015 
 ******************************************
 -------------------------------------------------------
 #P B3LYP/3-21G CIS(Singlets,NStates=15) pop(full) force
 -------------------------------------------------------
 1/10=7,30=1,38=1/1,3;
 2/12=2,17=6,18=5,40=1/2;
 3/5=5,11=9,16=1,25=1,30=1,71=1,74=-5/1,2,8,3;
 4//1;
 5/5=2,38=5/2;
 8/6=1,10=1,108=15/1;
 9/15=2,41=15,42=1,48=1/14;
 10/5=4/2;
 6/7=3,18=1/1;
 7/12=6,13=5,29=1/1,2,3,16;
 1/10=7,30=1/3;
 99//99;
 Leave Link    1 at Tue Dec 15 16:18:05 2015, MaxMem=           0 cpu:         0.0
 (Enter /home/Applications/g09/g09/l101.exe)
 --------
 FuranDFT
 --------
 Symbolic Z-matrix:
 Charge =  0 Multiplicity = 1
 6                     0.92326  -0.73067   0.00238 
 6                    -0.30982  -1.11768   0.03314 
 8                    -1.1607    0.01579  -0.01931 
 6                    -0.32679   1.13837   0.03041 
 6                     0.91084   0.73168  -0.01908 
 1                     1.7707    1.3396    0.03921 
 1                    -0.81602   1.9975   -0.01547 
 1                    -0.89006  -2.05891  -0.00682 
 1                     1.78427  -1.37189  -0.01179 
 
 NAtoms=      9 NQM=        9 NQMF=       0 NMMI=      0 NMMIF=      0
                NMic=       0 NMicF=      0.
                    Isotopes and Nuclear Properties:
 (Nuclear quadrupole moments (NQMom) in fm**2, nuclear magnetic moments (NMagM)
  in nuclear magnetons)

  Atom         1           2           3           4           5           6           7           8           9
 IAtWgt=          12          12          16          12          12           1           1           1           1
 AtmWgt=  12.0000000  12.0000000  15.9949146  12.0000000  12.0000000   1.0078250   1.0078250   1.0078250   1.0078250
 NucSpn=           0           0           0           0           0           1           1           1           1
 AtZEff=   0.0000000   0.0000000   0.0000000   0.0000000   0.0000000   0.0000000   0.0000000   0.0000000   0.0000000
 NQMom=    0.0000000   0.0000000   0.0000000   0.0000000   0.0000000   0.0000000   0.0000000   0.0000000   0.0000000
 NMagM=    0.0000000   0.0000000   0.0000000   0.0000000   0.0000000   2.7928460   2.7928460   2.7928460   2.7928460
 AtZNuc=   6.0000000   6.0000000   8.0000000   6.0000000   6.0000000   1.0000000   1.0000000   1.0000000   1.0000000
 Leave Link  101 at Tue Dec 15 16:18:05 2015, MaxMem=    33554432 cpu:         0.0
 (Enter /home/Applications/g09/g09/l103.exe)

 GradGradGradGradGradGradGradGradGradGradGradGradGradGradGradGradGradGrad
 Berny optimization.
 Initialization pass.
 Trust Radius=3.00D-01 FncErr=1.00D-07 GrdErr=1.00D-07
 Number of steps in this run=      2 maximum allowed number of steps=      2.
 GradGradGradGradGradGradGradGradGradGradGradGradGradGradGradGradGradGrad

 Leave Link  103 at Tue Dec 15 16:18:05 2015, MaxMem=    33554432 cpu:         0.0
 (Enter /home/Applications/g09/g09/l202.exe)
                          Input orientation:                          
 ---------------------------------------------------------------------
 Center     Atomic      Atomic             Coordinates (Angstroms)
 Number     Number       Type             X           Y           Z
 ---------------------------------------------------------------------
      1          6           0        0.923262   -0.730666    0.002384
      2          6           0       -0.309824   -1.117680    0.033144
      3          8           0       -1.160702    0.015787   -0.019313
      4          6           0       -0.326792    1.138374    0.030407
      5          6           0        0.910840    0.731680   -0.019081
      6          1           0        1.770703    1.339596    0.039209
      7          1           0       -0.816023    1.997503   -0.015466
      8          1           0       -0.890059   -2.058909   -0.006823
      9          1           0        1.784266   -1.371894   -0.011794
 ---------------------------------------------------------------------
                    Distance matrix (angstroms):
                    1          2          3          4          5
     1  C    0.000000
     2  C    1.292759   0.000000
     3  O    2.213723   1.418271   0.000000
     4  C    2.248718   2.256119   1.399314   0.000000
     5  C    1.462556   2.216502   2.191755   1.303680   0.000000
     6  H    2.237297   3.219757   3.216991   2.107143   1.054668
     7  H    3.235481   3.156417   2.011471   0.989724   2.141116
     8  H    2.247765   1.106428   2.092311   3.246733   3.321261
     9  H    1.073640   2.109942   3.255542   3.280212   2.277707
                    6          7          8          9
     6  H    0.000000
     7  H    2.669641   0.000000
     8  H    4.316435   4.057097   0.000000
     9  H    2.712004   4.256096   2.761164   0.000000
 Stoichiometry    C4H4O
 Framework group  C1[X(C4H4O)]
 Deg. of freedom    21
 Full point group                 C1      NOp   1
 Largest Abelian subgroup         C1      NOp   1
 Largest concise Abelian subgroup C1      NOp   1
                         Standard orientation:                         
 ---------------------------------------------------------------------
 Center     Atomic      Atomic             Coordinates (Angstroms)
 Number     Number       Type             X           Y           Z
 ---------------------------------------------------------------------
      1          6           0        0.788970    0.885096   -0.003663
      2          6           0        1.102359   -0.368707    0.027840
      3          8           0       -0.079589   -1.151040   -0.021614
      4          6           0       -1.150744   -0.252078    0.029135
      5          6           0       -0.671583    0.959252   -0.022512
      6          1           0       -1.227418    1.853659    0.035861
      7          1           0       -2.037413   -0.689635   -0.014642
      8          1           0        2.007510   -1.003691   -0.013128
      9          1           0        1.480020    1.706611   -0.019980
 ---------------------------------------------------------------------
 Rotational constants (GHZ):      9.7428206      9.1066010      4.7100700
 Leave Link  202 at Tue Dec 15 16:18:05 2015, MaxMem=    33554432 cpu:         0.0
 (Enter /home/Applications/g09/g09/l301.exe)
 Standard basis: 3-21G (6D, 7F)
 Ernie: Thresh=  0.10000D-02 Tol=  0.10000D-05 Strict=F.
 There are    53 symmetry adapted cartesian basis functions of A   symmetry.
 There are    53 symmetry adapted basis functions of A   symmetry.
    53 basis functions,    87 primitive gaussians,    53 cartesian basis functions
    18 alpha electrons       18 beta electrons
       nuclear repulsion energy       161.3570385344 Hartrees.
 IExCor=  402 DFT=T Ex+Corr=B3LYP ExCW=0 ScaHFX=  0.200000
 ScaDFX=  0.800000  0.720000  1.000000  0.810000 ScalE2=  1.000000  1.000000
 IRadAn=      0 IRanWt=     -1 IRanGd=            0 ICorTp=0 IEmpDi=  4
 NAtoms=    9 NActive=    9 NUniq=    9 SFac= 1.00D+00 NAtFMM=   60 NAOKFM=F Big=F
 Integral buffers will be    131072 words long.
 Regular integral format.
 Two-electron integral symmetry is turned on.
 Leave Link  301 at Tue Dec 15 16:18:05 2015, MaxMem=    33554432 cpu:         0.0
 (Enter /home/Applications/g09/g09/l302.exe)
 NPDir=0 NMtPBC=     1 NCelOv=     1 NCel=       1 NClECP=     1 NCelD=      1
         NCelK=      1 NCelE2=     1 NClLst=     1 CellRange=     0.0.
 One-electron integrals computed using PRISM.
 NBasis=    53 RedAO= T EigKep=  2.82D-03  NBF=    53
 NBsUse=    53 1.00D-06 EigRej= -1.00D+00 NBFU=    53
 Precomputing XC quadrature grid using
 IXCGrd= 4 IRadAn=           0 IRanWt=          -1 IRanGd=           0 AccXCQ= 0.00D+00.
 Generated NRdTot=       0 NPtTot=           0 NUsed=           0 NTot=          32
 NSgBfM=    53    53    53    53    53 MxSgAt=     9 MxSgA2=     9.
 Leave Link  302 at Tue Dec 15 16:18:05 2015, MaxMem=    33554432 cpu:         0.1
 (Enter /home/Applications/g09/g09/l308.exe)
 Leave Link  308 at Tue Dec 15 16:18:05 2015, MaxMem=    33554432 cpu:         0.0
 (Enter /home/Applications/g09/g09/l303.exe)
 DipDrv:  MaxL=1.
 Leave Link  303 at Tue Dec 15 16:18:05 2015, MaxMem=    33554432 cpu:         0.0
 (Enter /home/Applications/g09/g09/l401.exe)
 ExpMin= 1.83D-01 ExpMax= 3.22D+02 ExpMxC= 3.22D+02 IAcc=1 IRadAn=         1 AccDes= 0.00D+00
 Harris functional with IExCor=  402 and IRadAn=       1 diagonalized for initial guess.
 HarFok:  IExCor=  402 AccDes= 0.00D+00 IRadAn=         1 IDoV= 1 UseB2=F ITyADJ=14
 ICtDFT=  3500011 ScaDFX=  1.000000  1.000000  1.000000  1.000000
 FoFCou: FMM=F IPFlag=           0 FMFlag=      100000 FMFlg1=           0
         NFxFlg=           0 DoJE=T BraDBF=F KetDBF=T FulRan=T
         wScrn=  0.000000 ICntrl=     500 IOpCl=  0 I1Cent=   200000004 NGrid=           0
         NMat0=    1 NMatS0=      1 NMatT0=    0 NMatD0=    1 NMtDS0=    0 NMtDT0=    0
 Petite list used in FoFCou.
 Harris En= -228.736623998627    
 JPrj=0 DoOrth=F DoCkMO=F.
 Leave Link  401 at Tue Dec 15 16:18:05 2015, MaxMem=    33554432 cpu:         0.3
 (Enter /home/Applications/g09/g09/l502.exe)
 Closed shell SCF:
 Using DIIS extrapolation, IDIIS=  1040.
 Integral symmetry usage will be decided dynamically.
 Keep R1 ints in memory in canonical form, NReq=1925595.
 IVT=       27707 IEndB=       27707 NGot=    33554432 MDV=    32502130
 LenX=    32502130 LenY=    32498880
 Requested convergence on RMS density matrix=1.00D-08 within 128 cycles.
 Requested convergence on MAX density matrix=1.00D-06.
 Requested convergence on             energy=1.00D-06.
 No special actions if energy rises.
 FoFCou: FMM=F IPFlag=           0 FMFlag=           0 FMFlg1=           0
         NFxFlg=           0 DoJE=F BraDBF=F KetDBF=F FulRan=T
         wScrn=  0.000000 ICntrl=     600 IOpCl=  0 I1Cent=           0 NGrid=           0
         NMat0=    1 NMatS0=   1431 NMatT0=    0 NMatD0=    1 NMtDS0=    0 NMtDT0=    0
 Symmetry not used in FoFCou.
 Integral accuracy reduced to 1.0D-05 until final iterations.

 Cycle   1  Pass 0  IDiag  1:
 E= -228.650834881138    
 DIIS: error= 3.82D-02 at cycle   1 NSaved=   1.
 NSaved= 1 IEnMin= 1 EnMin= -228.650834881138     IErMin= 1 ErrMin= 3.82D-02
 ErrMax= 3.82D-02  0.00D+00 EMaxC= 1.00D-01 BMatC= 8.11D-02 BMatP= 8.11D-02
 IDIUse=3 WtCom= 6.18D-01 WtEn= 3.82D-01
 Coeff-Com:  0.100D+01
 Coeff-En:   0.100D+01
 Coeff:      0.100D+01
 Gap=     0.251 Goal=   None    Shift=    0.000
 GapD=    0.251 DampG=1.000 DampE=0.500 DampFc=0.5000 IDamp=-1.
 Damping current iteration by 5.00D-01
 RMSDP=1.17D-02 MaxDP=1.02D-01              OVMax= 1.82D-01

 Cycle   2  Pass 0  IDiag  1:
 E= -228.685932147669     Delta-E=       -0.035097266532 Rises=F Damp=T
 DIIS: error= 1.27D-02 at cycle   2 NSaved=   2.
 NSaved= 2 IEnMin= 2 EnMin= -228.685932147669     IErMin= 2 ErrMin= 1.27D-02
 ErrMax= 1.27D-02  0.00D+00 EMaxC= 1.00D-01 BMatC= 8.25D-03 BMatP= 8.11D-02
 IDIUse=3 WtCom= 8.73D-01 WtEn= 1.27D-01
 Coeff-Com:  0.781D-01 0.922D+00
 Coeff-En:   0.140D+00 0.860D+00
 Coeff:      0.859D-01 0.914D+00
 Gap=     0.268 Goal=   None    Shift=    0.000
 RMSDP=4.65D-03 MaxDP=3.98D-02 DE=-3.51D-02 OVMax= 1.58D-01

 Cycle   3  Pass 0  IDiag  1:
 E= -228.723475434305     Delta-E=       -0.037543286635 Rises=F Damp=F
 DIIS: error= 2.16D-02 at cycle   3 NSaved=   3.
 NSaved= 3 IEnMin= 3 EnMin= -228.723475434305     IErMin= 2 ErrMin= 1.27D-02
 ErrMax= 2.16D-02  0.00D+00 EMaxC= 1.00D-01 BMatC= 1.33D-02 BMatP= 8.25D-03
 IDIUse=2 WtCom= 0.00D+00 WtEn= 1.00D+00
 Coeff-En:   0.000D+00 0.000D+00 0.100D+01
 Coeff:      0.000D+00 0.000D+00 0.100D+01
 Gap=     0.255 Goal=   None    Shift=    0.000
 RMSDP=6.42D-03 MaxDP=5.07D-02 DE=-3.75D-02 OVMax= 1.38D-01

 Cycle   4  Pass 0  IDiag  1:
 E= -228.687710526984     Delta-E=        0.035764907321 Rises=F Damp=F
 DIIS: error= 4.30D-02 at cycle   4 NSaved=   4.
 NSaved= 4 IEnMin= 3 EnMin= -228.723475434305     IErMin= 2 ErrMin= 1.27D-02
 ErrMax= 4.30D-02  0.00D+00 EMaxC= 1.00D-01 BMatC= 5.42D-02 BMatP= 8.25D-03
 IDIUse=2 WtCom= 0.00D+00 WtEn= 1.00D+00
 Coeff-En:   0.000D+00 0.000D+00 0.751D+00 0.249D+00
 Coeff:      0.000D+00 0.000D+00 0.751D+00 0.249D+00
 Gap=     0.267 Goal=   None    Shift=    0.000
 RMSDP=3.17D-03 MaxDP=2.53D-02 DE= 3.58D-02 OVMax= 7.32D-02

 Cycle   5  Pass 0  IDiag  1:
 E= -228.732550723158     Delta-E=       -0.044840196174 Rises=F Damp=F
 DIIS: error= 1.05D-02 at cycle   5 NSaved=   5.
 NSaved= 5 IEnMin= 5 EnMin= -228.732550723158     IErMin= 5 ErrMin= 1.05D-02
 ErrMax= 1.05D-02  0.00D+00 EMaxC= 1.00D-01 BMatC= 3.17D-03 BMatP= 8.25D-03
 IDIUse=3 WtCom= 8.95D-01 WtEn= 1.05D-01
 Coeff-Com: -0.439D-02 0.196D-01 0.247D+00-0.847D-01 0.823D+00
 Coeff-En:   0.000D+00 0.000D+00 0.239D+00 0.000D+00 0.761D+00
 Coeff:     -0.393D-02 0.175D-01 0.246D+00-0.757D-01 0.816D+00
 Gap=     0.271 Goal=   None    Shift=    0.000
 RMSDP=1.13D-03 MaxDP=8.68D-03 DE=-4.48D-02 OVMax= 2.50D-02

 Cycle   6  Pass 0  IDiag  1:
 E= -228.735371646151     Delta-E=       -0.002820922993 Rises=F Damp=F
 DIIS: error= 6.22D-04 at cycle   6 NSaved=   6.
 NSaved= 6 IEnMin= 6 EnMin= -228.735371646151     IErMin= 6 ErrMin= 6.22D-04
 ErrMax= 6.22D-04  0.00D+00 EMaxC= 1.00D-01 BMatC= 1.37D-05 BMatP= 3.17D-03
 IDIUse=3 WtCom= 9.94D-01 WtEn= 6.22D-03
 Coeff-Com: -0.400D-02 0.966D-02 0.631D-01-0.432D-01 0.329D+00 0.645D+00
 Coeff-En:   0.000D+00 0.000D+00 0.000D+00 0.000D+00 0.000D+00 0.100D+01
 Coeff:     -0.397D-02 0.960D-02 0.627D-01-0.429D-01 0.327D+00 0.648D+00
 Gap=     0.272 Goal=   None    Shift=    0.000
 RMSDP=7.79D-05 MaxDP=6.53D-04 DE=-2.82D-03 OVMax= 1.53D-03

 Cycle   7  Pass 0  IDiag  1:
 E= -228.735384721232     Delta-E=       -0.000013075081 Rises=F Damp=F
 DIIS: error= 1.27D-04 at cycle   7 NSaved=   7.
 NSaved= 7 IEnMin= 7 EnMin= -228.735384721232     IErMin= 7 ErrMin= 1.27D-04
 ErrMax= 1.27D-04  0.00D+00 EMaxC= 1.00D-01 BMatC= 4.08D-07 BMatP= 1.37D-05
 IDIUse=3 WtCom= 9.99D-01 WtEn= 1.27D-03
 Coeff-Com: -0.181D-02 0.371D-02 0.196D-01-0.182D-01 0.132D+00 0.385D+00
 Coeff-Com:  0.480D+00
 Coeff-En:   0.000D+00 0.000D+00 0.000D+00 0.000D+00 0.000D+00 0.000D+00
 Coeff-En:   0.100D+01
 Coeff:     -0.180D-02 0.371D-02 0.196D-01-0.182D-01 0.131D+00 0.384D+00
 Coeff:      0.481D+00
 Gap=     0.272 Goal=   None    Shift=    0.000
 RMSDP=1.31D-05 MaxDP=1.56D-04 DE=-1.31D-05 OVMax= 3.73D-04

 Cycle   8  Pass 0  IDiag  1:
 E= -228.735385144327     Delta-E=       -0.000000423096 Rises=F Damp=F
 DIIS: error= 1.95D-05 at cycle   8 NSaved=   8.
 NSaved= 8 IEnMin= 8 EnMin= -228.735385144327     IErMin= 8 ErrMin= 1.95D-05
 ErrMax= 1.95D-05  0.00D+00 EMaxC= 1.00D-01 BMatC= 1.29D-08 BMatP= 4.08D-07
 IDIUse=1 WtCom= 1.00D+00 WtEn= 0.00D+00
 Coeff-Com: -0.230D-03 0.161D-03 0.339D-02-0.280D-02 0.255D-01 0.123D+00
 Coeff-Com:  0.205D+00 0.646D+00
 Coeff:     -0.230D-03 0.161D-03 0.339D-02-0.280D-02 0.255D-01 0.123D+00
 Coeff:      0.205D+00 0.646D+00
 Gap=     0.272 Goal=   None    Shift=    0.000
 RMSDP=1.85D-06 MaxDP=1.79D-05 DE=-4.23D-07 OVMax= 3.45D-05

 Initial convergence to 1.0D-05 achieved.  Increase integral accuracy.
 Cycle   9  Pass 1  IDiag  1:
 E= -228.735424231842     Delta-E=       -0.000039087515 Rises=F Damp=F
 DIIS: error= 1.16D-05 at cycle   1 NSaved=   1.
 NSaved= 1 IEnMin= 1 EnMin= -228.735424231842     IErMin= 1 ErrMin= 1.16D-05
 ErrMax= 1.16D-05  0.00D+00 EMaxC= 1.00D-01 BMatC= 6.27D-09 BMatP= 6.27D-09
 IDIUse=1 WtCom= 1.00D+00 WtEn= 0.00D+00
 Coeff-Com:  0.100D+01
 Coeff:      0.100D+01
 Gap=     0.272 Goal=   None    Shift=    0.000
 RMSDP=1.85D-06 MaxDP=1.79D-05 DE=-3.91D-05 OVMax= 3.21D-05

 Cycle  10  Pass 1  IDiag  1:
 E= -228.735424239948     Delta-E=       -0.000000008106 Rises=F Damp=F
 DIIS: error= 4.59D-06 at cycle   2 NSaved=   2.
 NSaved= 2 IEnMin= 2 EnMin= -228.735424239948     IErMin= 2 ErrMin= 4.59D-06
 ErrMax= 4.59D-06  0.00D+00 EMaxC= 1.00D-01 BMatC= 9.87D-10 BMatP= 6.27D-09
 IDIUse=1 WtCom= 1.00D+00 WtEn= 0.00D+00
 Coeff-Com:  0.133D+00 0.867D+00
 Coeff:      0.133D+00 0.867D+00
 Gap=     0.272 Goal=   None    Shift=    0.000
 RMSDP=1.24D-06 MaxDP=1.17D-05 DE=-8.11D-09 OVMax= 2.25D-05

 Cycle  11  Pass 1  IDiag  1:
 E= -228.735424239178     Delta-E=        0.000000000770 Rises=F Damp=F
 DIIS: error= 7.56D-06 at cycle   3 NSaved=   3.
 NSaved= 3 IEnMin= 2 EnMin= -228.735424239948     IErMin= 2 ErrMin= 4.59D-06
 ErrMax= 7.56D-06  0.00D+00 EMaxC= 1.00D-01 BMatC= 1.95D-09 BMatP= 9.87D-10
 IDIUse=1 WtCom= 1.00D+00 WtEn= 0.00D+00
 Coeff-Com: -0.245D-01 0.599D+00 0.426D+00
 Coeff:     -0.245D-01 0.599D+00 0.426D+00
 Gap=     0.272 Goal=   None    Shift=    0.000
 RMSDP=7.53D-07 MaxDP=7.23D-06 DE= 7.70D-10 OVMax= 1.44D-05

 Cycle  12  Pass 1  IDiag  1:
 E= -228.735424240754     Delta-E=       -0.000000001576 Rises=F Damp=F
 DIIS: error= 9.33D-07 at cycle   4 NSaved=   4.
 NSaved= 4 IEnMin= 4 EnMin= -228.735424240754     IErMin= 4 ErrMin= 9.33D-07
 ErrMax= 9.33D-07  0.00D+00 EMaxC= 1.00D-01 BMatC= 4.04D-11 BMatP= 9.87D-10
 IDIUse=1 WtCom= 1.00D+00 WtEn= 0.00D+00
 Coeff-Com: -0.164D-01 0.336D+00 0.255D+00 0.426D+00
 Coeff:     -0.164D-01 0.336D+00 0.255D+00 0.426D+00
 Gap=     0.272 Goal=   None    Shift=    0.000
 RMSDP=1.37D-07 MaxDP=2.19D-06 DE=-1.58D-09 OVMax= 2.88D-06

 Cycle  13  Pass 1  IDiag  1:
 E= -228.735424240794     Delta-E=       -0.000000000040 Rises=F Damp=F
 DIIS: error= 1.29D-07 at cycle   5 NSaved=   5.
 NSaved= 5 IEnMin= 5 EnMin= -228.735424240794     IErMin= 5 ErrMin= 1.29D-07
 ErrMax= 1.29D-07  0.00D+00 EMaxC= 1.00D-01 BMatC= 1.07D-12 BMatP= 4.04D-11
 IDIUse=1 WtCom= 1.00D+00 WtEn= 0.00D+00
 Coeff-Com: -0.568D-02 0.920D-01 0.700D-01 0.179D+00 0.665D+00
 Coeff:     -0.568D-02 0.920D-01 0.700D-01 0.179D+00 0.665D+00
 Gap=     0.272 Goal=   None    Shift=    0.000
 RMSDP=2.59D-08 MaxDP=3.18D-07 DE=-3.98D-11 OVMax= 5.24D-07

 Cycle  14  Pass 1  IDiag  1:
 E= -228.735424240793     Delta-E=        0.000000000001 Rises=F Damp=F
 DIIS: error= 6.92D-08 at cycle   6 NSaved=   6.
 NSaved= 6 IEnMin= 5 EnMin= -228.735424240794     IErMin= 6 ErrMin= 6.92D-08
 ErrMax= 6.92D-08  0.00D+00 EMaxC= 1.00D-01 BMatC= 1.93D-13 BMatP= 1.07D-12
 IDIUse=1 WtCom= 1.00D+00 WtEn= 0.00D+00
 Coeff-Com: -0.891D-03 0.117D-01 0.820D-02 0.455D-01 0.349D+00 0.587D+00
 Coeff:     -0.891D-03 0.117D-01 0.820D-02 0.455D-01 0.349D+00 0.587D+00
 Gap=     0.272 Goal=   None    Shift=    0.000
 RMSDP=1.16D-08 MaxDP=1.28D-07 DE= 1.02D-12 OVMax= 2.49D-07

 Cycle  15  Pass 1  IDiag  1:
 E= -228.735424240794     Delta-E=       -0.000000000001 Rises=F Damp=F
 DIIS: error= 1.49D-08 at cycle   7 NSaved=   7.
 NSaved= 7 IEnMin= 5 EnMin= -228.735424240794     IErMin= 7 ErrMin= 1.49D-08
 ErrMax= 1.49D-08  0.00D+00 EMaxC= 1.00D-01 BMatC= 1.13D-14 BMatP= 1.93D-13
 IDIUse=1 WtCom= 1.00D+00 WtEn= 0.00D+00
 Coeff-Com: -0.338D-04-0.147D-02-0.147D-02 0.831D-02 0.114D+00 0.280D+00
 Coeff-Com:  0.601D+00
 Coeff:     -0.338D-04-0.147D-02-0.147D-02 0.831D-02 0.114D+00 0.280D+00
 Coeff:      0.601D+00
 Gap=     0.272 Goal=   None    Shift=    0.000
 RMSDP=2.87D-09 MaxDP=4.01D-08 DE=-5.68D-13 OVMax= 4.36D-08

 SCF Done:  E(RB3LYP) =  -228.735424241     A.U. after   15 cycles
            NFock= 15  Conv=0.29D-08     -V/T= 2.0069
 KE= 2.271643644761D+02 PE=-8.556643239172D+02 EE= 2.384074966659D+02
 Leave Link  502 at Tue Dec 15 16:18:10 2015, MaxMem=    33554432 cpu:         5.0
 (Enter /home/Applications/g09/g09/l801.exe)
 DoSCS=F DFT=T ScalE2(SS,OS)=  1.000000  1.000000
 ExpMin= 1.83D-01 ExpMax= 3.22D+02 ExpMxC= 3.22D+02 IAcc=3 IRadAn=         5 AccDes= 0.00D+00
 HarFok:  IExCor=  205 AccDes= 0.00D+00 IRadAn=         5 IDoV=-2 UseB2=F ITyADJ=14
 ICtDFT= 12500011 ScaDFX=  1.000000  1.000000  1.000000  1.000000
 Largest valence mixing into a core orbital is  1.88D-04
 Largest core mixing into a valence orbital is  5.04D-05
 Range of M.O.s used for correlation:     6    53
 NBasis=    53 NAE=    18 NBE=    18 NFC=     5 NFV=     0
 NROrb=     48 NOA=    13 NOB=    13 NVA=    35 NVB=    35
 Leave Link  801 at Tue Dec 15 16:18:10 2015, MaxMem=    33554432 cpu:         0.2
 (Enter /home/Applications/g09/g09/l914.exe)
 RHF ground state
 MDV=    33554432 DFT=T DoStab=F Mixed=T DoRPA=F DoScal=F NonHer=F
 Keep R1, R2, and R3 ints in memory in canonical form, NReq=5596273.
 FoFCou: FMM=F IPFlag=           0 FMFlag=           0 FMFlg1=           0
         NFxFlg=           0 DoJE=F BraDBF=F KetDBF=F FulRan=T
         wScrn=  0.000000 ICntrl=     600 IOpCl=  0 I1Cent=           0 NGrid=           0
         NMat0=    1 NMatS0=   1431 NMatT0=    0 NMatD0=    1 NMtDS0=    0 NMtDT0=    0
 Symmetry not used in FoFCou.
 Making orbital integer symmetry assigments:
 Orbital symmetries:
       Occupied  (A) (A) (A) (A) (A) (A) (A) (A) (A) (A) (A) (A)
                 (A) (A) (A) (A) (A) (A)
       Virtual   (A) (A) (A) (A) (A) (A) (A) (A) (A) (A) (A) (A)
                 (A) (A) (A) (A) (A) (A) (A) (A) (A) (A) (A) (A)
                 (A) (A) (A) (A) (A) (A) (A) (A) (A) (A) (A)
    60 initial guesses have been made.
 Convergence on wavefunction:    0.000001000000000
 Davidson Disk Diagonalization:  ConvIn= 1.00D-06 SkipCon=T Conv= 1.00D-06.
 Max sub-space:   240 roots to seek:    60 dimension of matrix:          910
 Iteration     1 Dimension    60 NMult     0 NNew     60
 CISAX will form    60 AO SS matrices at one time.
 NMat=    60 NSing=    60 JSym2X= 0.
 New state      1 was old state      2
 New state      2 was old state      1
 New state      3 was old state      5
 New state      4 was old state      6
 New state      5 was old state      7
 New state      6 was old state      8
 New state      7 was old state      4
 New state      8 was old state      9
 New state      9 was old state     10
 New state     10 was old state     11
 New state     11 was old state     12
 New state     12 was old state     14
 New state     13 was old state      3
 New state     14 was old state     13
 Excitation Energies [eV] at current iteration:
 Root      1 :     7.667738706763659
 Root      2 :     8.246045665180992
 Root      3 :     8.655353756531657
 Root      4 :     8.905204126942905
 Root      5 :     9.469325834425490
 Root      6 :     9.675426768300365
 Root      7 :     9.865072832292125
 Root      8 :    10.046046757232910
 Root      9 :    10.159025764457790
 Root     10 :    10.244659345919320
 Root     11 :    10.476579267166460
 Root     12 :    10.619422221777770
 Root     13 :    10.728966440406950
 Root     14 :    10.914865775906780
 Root     15 :    10.977426494706040
 Root     16 :    11.256247423097390
 Root     17 :    11.284673176759930
 Root     18 :    11.504881021676800
 Root     19 :    11.586641380173400
 Root     20 :    11.702706636831220
 Root     21 :    11.842806319139180
 Root     22 :    11.920262719201750
 Root     23 :    12.224333002904170
 Root     24 :    12.288622702808180
 Root     25 :    12.656368229685650
 Root     26 :    12.879401846146090
 Root     27 :    13.143426457772530
 Root     28 :    13.297189609760490
 Root     29 :    13.589651201627590
 Root     30 :    13.747628389725560
 Root     31 :    13.922333980756420
 Root     32 :    14.043339988399300
 Root     33 :    14.152275621769230
 Root     34 :    14.179190462924100
 Root     35 :    14.210661158614100
 Root     36 :    14.441928800186700
 Root     37 :    14.484244165603760
 Root     38 :    14.547386622982160
 Root     39 :    14.674640083510230
 Root     40 :    14.911598798081490
 Root     41 :    14.971704015732990
 Root     42 :    15.042488481414310
 Root     43 :    15.226370550914830
 Root     44 :    15.403041174637290
 Root     45 :    15.437283513821220
 Root     46 :    15.591637450851230
 Root     47 :    15.650720946067700
 Root     48 :    15.776707106911640
 Root     49 :    15.915993642368940
 Root     50 :    15.963024166501530
 Root     51 :    16.034042627337680
 Root     52 :    16.074072676916320
 Root     53 :    16.218980187295060
 Root     54 :    16.335637178764750
 Root     55 :    16.364247502317530
 Root     56 :    16.570183196319120
 Root     57 :    16.825234861092280
 Root     58 :    17.586121491012140
 Root     59 :    18.152130786990730
 Root     60 :    19.814438813783790
 Iteration     2 Dimension   120 NMult    60 NNew     60
 CISAX will form    60 AO SS matrices at one time.
 NMat=    60 NSing=    60 JSym2X= 0.
 Root      1 not converged, maximum delta is    0.178485844385353
 Root      2 not converged, maximum delta is    0.146861360117115
 Root      3 not converged, maximum delta is    0.018074761504549
 Root      4 not converged, maximum delta is    0.016358157015516
 New state      5 was old state      7
 Root      5 not converged, maximum delta is    0.450355616162718
 New state      6 was old state      5
 Root      6 not converged, maximum delta is    0.386146857003250
 New state      7 was old state      6
 Root      7 not converged, maximum delta is    0.352881841606443
 New state      8 was old state     12
 Root      8 not converged, maximum delta is    0.445303305771544
 New state      9 was old state      8
 Root      9 not converged, maximum delta is    0.063642317657838
 New state     10 was old state      9
 Root     10 not converged, maximum delta is    0.082928063527661
 New state     11 was old state     10
 Root     11 not converged, maximum delta is    0.231406499313449
 New state     12 was old state     11
 Root     12 not converged, maximum delta is    0.142333848521254
 Root     13 not converged, maximum delta is    0.242457846645045
 Root     14 not converged, maximum delta is    0.047942730087022
 Root     15 not converged, maximum delta is    0.044437546238096
 Excitation Energies [eV] at current iteration:
 Root      1 :     7.494873573285340   Change is   -0.172865133478319
 Root      2 :     7.635706823778093   Change is   -0.610338841402899
 Root      3 :     8.634057962968249   Change is   -0.021295793563406
 Root      4 :     8.896596114187949   Change is   -0.008608012754958
 Root      5 :     9.389724038650630   Change is   -0.475348793641495
 Root      6 :     9.472690537249813   Change is    0.003364702824322
 Root      7 :     9.691312725324947   Change is    0.015885957024582
 Root      8 :     9.969092533338985   Change is   -0.650329688438788
 Root      9 :    10.021533914189190   Change is   -0.024512843043721
 Root     10 :    10.140867793795990   Change is   -0.018157970661800
 Root     11 :    10.258279816750730   Change is    0.013620470831407
 Root     12 :    10.468197899225790   Change is   -0.008381367940660
 Root     13 :    10.659485555437130   Change is   -0.069480884969824
 Root     14 :    10.897053514527540   Change is   -0.017812261379237
 Root     15 :    10.956858277640240   Change is   -0.020568217065798
 Root     16 :    11.224832780296790   Change is   -0.031414642800596
 Root     17 :    11.252225203352700   Change is   -0.032447973407230
 Root     18 :    11.475709097830230   Change is   -0.029171923846564
 Root     19 :    11.566924496257650   Change is   -0.019716883915754
 Root     20 :    11.645913923564310   Change is   -0.056792713266914
 Root     21 :    11.677923863920430   Change is   -0.242338855281322
 Root     22 :    11.815636230567340   Change is   -0.027170088571846
 Root     23 :    12.189558442565490   Change is   -0.034774560338680
 Root     24 :    12.275654949490830   Change is   -0.012967753317353
 Root     25 :    12.573370553405620   Change is   -0.082997676280039
 Root     26 :    12.608224609106250   Change is   -0.688965000654242
 Root     27 :    12.831839965247420   Change is   -0.047561880898664
 Root     28 :    13.133586093485340   Change is   -0.009840364287194
 Root     29 :    13.317023105281950   Change is   -0.272628096345638
 Root     30 :    13.528437265645050   Change is   -0.219191124080505
 Root     31 :    13.860919522670550   Change is   -0.061414458085868
 Root     32 :    13.993614691551370   Change is   -0.049725296847933
 Root     33 :    14.017878770214270   Change is   -0.134396851554961
 Root     34 :    14.069767157436960   Change is   -0.140894001177137
 Root     35 :    14.136562576860680   Change is   -0.042627886063423
 Root     36 :    14.385570944432990   Change is   -0.056357855753703
 Root     37 :    14.419281207666920   Change is   -0.492317590414568
 Root     38 :    14.465453139175780   Change is   -0.018791026427979
 Root     39 :    14.494110521280500   Change is   -0.053276101701664
 Root     40 :    14.611524155823430   Change is   -0.063115927686806
 Root     41 :    14.866331310670280   Change is   -0.176157170744034
 Root     42 :    14.920566777115180   Change is   -0.051137238617810
 Root     43 :    15.034492563481830   Change is   -0.191877987433004
 Root     44 :    15.304593675892180   Change is   -0.098447498745106
 Root     45 :    15.378132865753490   Change is   -0.059150648067729
 Root     46 :    15.445725350304110   Change is   -0.204995595763595
 Root     47 :    15.571553013255560   Change is   -0.020084437595677
 Root     48 :    15.672992622225740   Change is   -0.103714484685900
 Root     49 :    15.715971786481390   Change is   -0.200021855887545
 Root     50 :    15.808728163299120   Change is   -0.154296003202405
 Root     51 :    15.917502104913560   Change is   -0.116540522424119
 Root     52 :    15.990982404272830   Change is   -0.083090272643499
 Root     53 :    16.086475010059740   Change is   -0.277772492257789
 Root     54 :    16.156076767271510   Change is   -0.062903420023550
 Root     55 :    16.220689598987170   Change is   -0.114947579777581
 Root     56 :    16.251467611841360   Change is   -0.573767249250918
 Root     57 :    16.469215329745240   Change is   -0.100967866573888
 Root     58 :    16.596075921377300   Change is   -0.990045569634845
 Root     59 :    16.853118037345560   Change is   -1.299012749645173
 Root     60 :    16.998815266193350
 Iteration     3 Dimension   135 NMult   120 NNew     15
 CISAX will form    15 AO SS matrices at one time.
 NMat=    15 NSing=    15 JSym2X= 0.
 Root      1 not converged, maximum delta is    0.001088940343176
 Root      2 not converged, maximum delta is    0.002094853845772
 Root      3 not converged, maximum delta is    0.000114846684070
 Root      4 not converged, maximum delta is    0.000148894622221
 Root      5 not converged, maximum delta is    0.004013877613727
 Root      6 not converged, maximum delta is    0.004176057310586
 Root      7 not converged, maximum delta is    0.000821102010667
 Root      8 not converged, maximum delta is    0.002301191153282
 Root      9 not converged, maximum delta is    0.000815120897621
 Root     10 not converged, maximum delta is    0.000709004538027
 Root     11 not converged, maximum delta is    0.001178305576359
 Root     12 not converged, maximum delta is    0.000335018962316
 Root     13 not converged, maximum delta is    0.000280193328989
 Root     14 not converged, maximum delta is    0.000518322789446
 Root     15 not converged, maximum delta is    0.000219730655716
 Excitation Energies [eV] at current iteration:
 Root      1 :     7.493880467167877   Change is   -0.000993106117463
 Root      2 :     7.634311113627023   Change is   -0.001395710151070
 Root      3 :     8.634043410031616   Change is   -0.000014552936634
 Root      4 :     8.896582154130240   Change is   -0.000013960057708
 Root      5 :     9.388567486691706   Change is   -0.001156551958924
 Root      6 :     9.472344414582315   Change is   -0.000346122667498
 Root      7 :     9.691214840768641   Change is   -0.000097884556306
 Root      8 :     9.966614020478582   Change is   -0.002478512860404
 Root      9 :    10.021501503212790   Change is   -0.000032410976405
 Root     10 :    10.140810014495150   Change is   -0.000057779300841
 Root     11 :    10.257992941550090   Change is   -0.000286875200639
 Root     12 :    10.468131568352760   Change is   -0.000066330873036
 Root     13 :    10.659438995308840   Change is   -0.000046560128283
 Root     14 :    10.897008097076810   Change is   -0.000045417450731
 Root     15 :    10.956836036234590   Change is   -0.000022241405653
 Iteration     4 Dimension   150 NMult   135 NNew     15
 CISAX will form    15 AO SS matrices at one time.
 NMat=    15 NSing=    15 JSym2X= 0.
 Root      1 not converged, maximum delta is    0.000037224572212
 Root      2 not converged, maximum delta is    0.000049892149690
 Root      3 not converged, maximum delta is    0.000002064113850
 Root      4 not converged, maximum delta is    0.000003565450629
 Root      5 not converged, maximum delta is    0.000053934423195
 Root      6 not converged, maximum delta is    0.000032775374465
 Root      7 not converged, maximum delta is    0.000015001111235
 Root      8 not converged, maximum delta is    0.000064489292427
 Root      9 not converged, maximum delta is    0.000007065225869
 Root     10 not converged, maximum delta is    0.000012873615176
 Root     11 not converged, maximum delta is    0.000021924379256
 Root     12 not converged, maximum delta is    0.000012072937071
 Root     13 not converged, maximum delta is    0.000010825523781
 Root     14 not converged, maximum delta is    0.000013597944577
 Root     15 not converged, maximum delta is    0.000006015555094
 Excitation Energies [eV] at current iteration:
 Root      1 :     7.493879354559634   Change is   -0.000001112608243
 Root      2 :     7.634309685267140   Change is   -0.000001428359883
 Root      3 :     8.634043401607984   Change is   -0.000000008423631
 Root      4 :     8.896582138349322   Change is   -0.000000015780918
 Root      5 :     9.388565835829427   Change is   -0.000001650862279
 Root      6 :     9.472343914051219   Change is   -0.000000500531096
 Root      7 :     9.691214712742772   Change is   -0.000000128025868
 Root      8 :     9.966610663328320   Change is   -0.000003357150263
 Root      9 :    10.021501473952540   Change is   -0.000000029260249
 Root     10 :    10.140809968103080   Change is   -0.000000046392072
 Root     11 :    10.257992591960260   Change is   -0.000000349589826
 Root     12 :    10.468131474979170   Change is   -0.000000093373588
 Root     13 :    10.659438934176920   Change is   -0.000000061131922
 Root     14 :    10.897008056890190   Change is   -0.000000040186620
 Root     15 :    10.956836010340990   Change is   -0.000000025893604
 Iteration     5 Dimension   165 NMult   150 NNew     15
 CISAX will form    15 AO SS matrices at one time.
 NMat=    15 NSing=    15 JSym2X= 0.
 Root      1 not converged, maximum delta is    0.000001129273366
 Root      2 not converged, maximum delta is    0.000001782903017
 Root      3 has converged.
 Root      4 has converged.
 Root      5 not converged, maximum delta is    0.000002266376196
 Root      6 not converged, maximum delta is    0.000001161074964
 Root      7 has converged.
 Root      8 not converged, maximum delta is    0.000002720552861
 Root      9 has converged.
 Root     10 has converged.
 Root     11 has converged.
 Root     12 has converged.
 Root     13 has converged.
 Root     14 has converged.
 Root     15 has converged.
 Excitation Energies [eV] at current iteration:
 Root      1 :     7.493879353767979   Change is   -0.000000000791655
 Root      2 :     7.634309683891740   Change is   -0.000000001375400
 Root      3 :     8.634043401601918   Change is   -0.000000000006066
 Root      4 :     8.896582138339681   Change is   -0.000000000009640
 Root      5 :     9.388565834334130   Change is   -0.000000001495297
 Root      6 :     9.472343913588979   Change is   -0.000000000462239
 Root      7 :     9.691214712612258   Change is   -0.000000000130515
 Root      8 :     9.966610660360553   Change is   -0.000000002967765
 Root      9 :    10.021501473925260   Change is   -0.000000000027274
 Root     10 :    10.140809968073530   Change is   -0.000000000029552
 Root     11 :    10.257992591651960   Change is   -0.000000000308302
 Root     12 :    10.468131474885430   Change is   -0.000000000093736
 Root     13 :    10.659438934112770   Change is   -0.000000000064157
 Root     14 :    10.897008056852750   Change is   -0.000000000037445
 Root     15 :    10.956836010320680   Change is   -0.000000000020308
 Iteration     6 Dimension   170 NMult   165 NNew      5
 CISAX will form     5 AO SS matrices at one time.
 NMat=     5 NSing=     5 JSym2X= 0.
 Root      1 has converged.
 Root      2 has converged.
 Root      3 has converged.
 Root      4 has converged.
 Root      5 has converged.
 Root      6 has converged.
 Root      7 has converged.
 Root      8 has converged.
 Root      9 has converged.
 Root     10 has converged.
 Root     11 has converged.
 Root     12 has converged.
 Root     13 has converged.
 Root     14 has converged.
 Root     15 has converged.
 Excitation Energies [eV] at current iteration:
 Root      1 :     7.493879353767781   Change is   -0.000000000000198
 Root      2 :     7.634309683891133   Change is   -0.000000000000607
 Root      3 :     8.634043401601902   Change is   -0.000000000000017
 Root      4 :     8.896582138339680   Change is   -0.000000000000003
 Root      5 :     9.388565834333505   Change is   -0.000000000000625
 Root      6 :     9.472343913588773   Change is   -0.000000000000207
 Root      7 :     9.691214712612206   Change is   -0.000000000000051
 Root      8 :     9.966610660358521   Change is   -0.000000000002033
 Root      9 :    10.021501473925250   Change is   -0.000000000000015
 Root     10 :    10.140809968073520   Change is   -0.000000000000008
 Root     11 :    10.257992591651760   Change is   -0.000000000000201
 Root     12 :    10.468131474885400   Change is   -0.000000000000035
 Root     13 :    10.659438934112730   Change is   -0.000000000000035
 Root     14 :    10.897008056852730   Change is   -0.000000000000020
 Root     15 :    10.956836010320670   Change is   -0.000000000000011
 Convergence achieved on expansion vectors.
 ***********************************************************************
 Excited states from <AA,BB:AA,BB> singles matrix:
 ***********************************************************************
 
 1PDM for each excited state written to RWF  633
 Ground to excited state transition densities written to RWF  633
 Ground to excited state transition electric dipole moments (Au):
       state          X           Y           Z        Dip. S.      Osc.
         1        -0.3627     -0.1991     -0.0098      0.1713      0.0314
         2         0.9544     -0.1021     -0.0264      0.9220      0.1725
         3         0.0076      0.0432     -0.1261      0.0178      0.0038
         4         0.0209     -0.0676      0.0117      0.0051      0.0011
         5         0.6065     -0.2075      0.0234      0.4114      0.0946
         6         0.3391      0.0115      0.0723      0.1204      0.0279
         7         0.1773     -0.0150     -0.0339      0.0328      0.0078
         8         0.0959      1.2140     -0.0894      1.4911      0.3641
         9         0.0426     -0.0508     -0.1451      0.0254      0.0062
        10         0.0062      0.0402     -0.0409      0.0033      0.0008
        11        -0.0088     -0.3767     -0.0219      0.1425      0.0358
        12         0.0563      0.1349      0.0011      0.0214      0.0055
        13        -0.0482     -0.1070     -0.0391      0.0153      0.0040
        14         0.0392      0.0247     -0.0184      0.0025      0.0007
        15         0.0253      0.1015      0.0432      0.0128      0.0034
 Ground to excited state transition velocity dipole moments (Au):
       state          X           Y           Z        Dip. S.      Osc.
         1        -0.0003     -0.0649     -0.0022      0.0042      0.0102
         2        -0.0139     -0.0152     -0.0010      0.0004      0.0010
         3         0.0010     -0.0037      0.0676      0.0046      0.0096
         4         0.0026     -0.0035     -0.0099      0.0001      0.0002
         5        -0.0691      0.0073      0.0041      0.0048      0.0094
         6        -0.0338      0.0003     -0.0247      0.0018      0.0034
         7        -0.0251     -0.0022      0.0159      0.0009      0.0017
         8        -0.0023     -0.0134     -0.0076      0.0002      0.0004
         9        -0.0043      0.0023      0.0317      0.0010      0.0019
        10        -0.0009     -0.0011      0.0581      0.0034      0.0060
        11        -0.0080      0.0129     -0.0102      0.0003      0.0006
        12        -0.0095     -0.0068     -0.0031      0.0001      0.0003
        13         0.0123      0.0028     -0.0438      0.0021      0.0035
        14        -0.0077      0.0018      0.0358      0.0013      0.0022
        15        -0.0064     -0.0134      0.0015      0.0002      0.0004
 Ground to excited state transition magnetic dipole moments (Au):
       state          X           Y           Z
         1         0.0814     -0.0215     -0.2365
         2         0.0486      0.0001      0.6266
         3        -1.4109      0.0809      0.0186
         4         0.0074      0.5630      0.0213
         5         0.0259     -0.0144     -0.3301
         6        -0.0058     -0.0922     -0.1551
         7        -0.2650      0.0653     -0.0825
         8        -0.0215      0.0585      0.0200
         9        -0.1390      0.0271      0.0334
        10        -0.5699     -0.1382     -0.0240
        11        -0.3261     -0.1244      0.0275
        12        -0.0517     -0.4335     -0.1029
        13        -0.0351      0.1811      0.0127
        14         0.1789      0.1511      0.0147
        15        -0.0231      0.4482     -0.0271
 Ground to excited state transition velocity quadrupole moments (Au):
       state          XX          YY          ZZ          XY          XZ          YZ
         1        -0.0767     -0.0003      0.0416     -0.0683      0.0005      0.0087
         2        -0.0212     -0.0480      0.0167      0.2214     -0.0004      0.0048
         3         0.0169      0.0044     -0.0042      0.0110     -0.0104     -0.1822
         4        -0.0041      0.0094      0.0065      0.0037     -0.0258      0.0221
         5        -0.0846      0.0655      0.0066     -0.2507      0.0564     -0.0110
         6         0.0147     -0.0022      0.0013     -0.1470     -0.1015      0.0614
         7        -0.0247      0.0008      0.0061     -0.0678      0.0586     -0.1307
         8         0.2777     -0.2188     -0.0719     -0.0788      0.0104      0.0098
         9        -0.0334      0.0213      0.0011     -0.0252     -0.1574     -0.0893
        10        -0.0010      0.0020      0.0033     -0.0206     -0.0019     -0.0696
        11        -0.1186      0.0645      0.0359      0.0436      0.0850      0.0333
        12         0.0212     -0.0218     -0.0073     -0.0323      0.0791     -0.0108
        13        -0.0687      0.0216      0.0140      0.0213     -0.1353     -0.0126
        14         0.0067     -0.0014      0.0037     -0.0081     -0.0309      0.1092
        15         0.0252     -0.0240      0.0021      0.0017     -0.1266     -0.0022
 <0|del|b> * <b|rxdel|0> + <0|del|b> * <b|delr+rdel|0>
 Rotatory Strengths (R) in cgs (10**-40 erg-esu-cm/Gauss)
       state          XX          YY          ZZ    R(velocity)    E-M Angle
         1         2.7100      0.4482      1.7183      1.6255       83.31
         2        -1.0279     -1.4221     -0.7601     -1.0700       95.63
         3         1.8499     -1.1390     -1.6077     -0.2989       90.24
         4        -2.4757     -0.1038     -2.0560     -1.5452      110.59
         5        -2.9651     -1.3906     -2.3028     -2.2195       98.10
         6         7.5856     -1.7082      2.2389      2.7054       58.10
         7        -2.3848      9.6413      3.0861      3.4475       52.22
         8        -0.1935     -0.6994     -0.8252     -0.5727      150.45
         9         0.6525      2.7199     -0.0805      1.0973       68.44
        10        -2.3164      0.3736      0.5838     -0.4530       91.20
        11        -3.2171      2.3439      2.2114      0.4461       83.60
        12         3.5933      0.7476      2.5743      2.3051       46.10
        13        -0.5417     -0.1916     -0.1340     -0.2891       93.27
        14         0.5022     -1.2376     -0.2788     -0.3381       93.83
        15        -6.7958      0.1040     -3.6662     -3.4527      151.46
 1/2[<0|r|b>*<b|rxdel|0> + (<0|rxdel|b>*<b|r|0>)*]
 Rotatory Strengths (R) in cgs (10**-40 erg-esu-cm/Gauss)
       state          XX          YY          ZZ     R(length)
         1        20.8723     -3.0248     -1.6384      5.4030
         2       -32.8299      0.0046     11.7106     -7.0382
         3         7.5467     -2.4696      1.6548      2.2440
         4        -0.1097     26.9071     -0.1764      8.8737
         5       -11.1262     -2.1152      5.4732     -2.5894
         6         1.3868      0.7521      7.9300      3.3563
         7        33.2244      0.6929     -1.9755     10.6473
         8         1.4576    -50.2485      1.2681    -15.8409
         9         4.1829      0.9751      3.4316      2.8632
        10         2.4863      3.9264     -0.6939      1.9063
        11        -2.0297    -33.1282      0.4270    -11.5770
        12         2.0560     41.3567      0.0803     14.4977
        13        -1.1971     13.7113      0.3519      4.2887
        14        -4.9566     -2.6423      0.1915     -2.4691
        15         0.4131    -32.1629      0.8292    -10.3069
  1/2[<0|del|b>*<b|r|0> + (<0|r|b>*<b|del|0>)*] (Au)
       state          X           Y           Z        Dip. S.   Osc.(frdel)
         1         0.0001      0.0129      0.0000     -0.0131     -0.0087
         2        -0.0132      0.0016      0.0000      0.0117      0.0078
         3         0.0000     -0.0002     -0.0085      0.0087      0.0058
         4         0.0001      0.0002     -0.0001     -0.0002     -0.0001
         5        -0.0419     -0.0015      0.0001      0.0433      0.0289
         6        -0.0115      0.0000     -0.0018      0.0132      0.0088
         7        -0.0045      0.0000     -0.0005      0.0050      0.0033
         8        -0.0002     -0.0163      0.0007      0.0159      0.0106
         9        -0.0002     -0.0001     -0.0046      0.0049      0.0033
        10         0.0000      0.0000     -0.0024      0.0024      0.0016
        11         0.0001     -0.0049      0.0002      0.0046      0.0030
        12        -0.0005     -0.0009      0.0000      0.0015      0.0010
        13        -0.0006     -0.0003      0.0017     -0.0008     -0.0005
        14        -0.0003      0.0000     -0.0007      0.0009      0.0006
        15        -0.0002     -0.0014      0.0001      0.0015      0.0010

 Excitation energies and oscillator strengths:
 
 Excited State   1:      Singlet-A      7.4939 eV  165.45 nm  f=0.0314  <S**2>=0.000
      17 -> 19         0.50421
      18 -> 19        -0.27880
      18 -> 20         0.38657
 This state for optimization and/or second-order correction.
 Total Energy, E(CIS) =  -228.460029230    
 Copying the excited state density for this state as the 1-particle RhoCI density.
 
 Excited State   2:      Singlet-A      7.6343 eV  162.40 nm  f=0.1725  <S**2>=0.000
      17 -> 19         0.24701
      18 -> 19         0.62157
      18 -> 20         0.14366
 
 Excited State   3:      Singlet-A      8.6340 eV  143.60 nm  f=0.0038  <S**2>=0.000
      16 -> 19         0.70119
 
 Excited State   4:      Singlet-A      8.8966 eV  139.36 nm  f=0.0011  <S**2>=0.000
      18 -> 21         0.68913
 
 Excited State   5:      Singlet-A      9.3886 eV  132.06 nm  f=0.0946  <S**2>=0.000
      17 -> 20         0.58558
      17 -> 21        -0.19327
      18 -> 20        -0.12453
      18 -> 22        -0.25786
 
 Excited State   6:      Singlet-A      9.4723 eV  130.89 nm  f=0.0279  <S**2>=0.000
      17 -> 20         0.30651
      17 -> 21         0.13524
      18 -> 22         0.58347
      18 -> 23        -0.15252
 
 Excited State   7:      Singlet-A      9.6912 eV  127.93 nm  f=0.0078  <S**2>=0.000
      17 -> 20         0.11358
      17 -> 21         0.64461
      18 -> 22        -0.20080
 
 Excited State   8:      Singlet-A      9.9666 eV  124.40 nm  f=0.3641  <S**2>=0.000
      13 -> 19        -0.14692
      15 -> 19         0.10188
      16 -> 21         0.10992
      17 -> 19        -0.33796
      17 -> 20         0.11824
      17 -> 22         0.16763
      18 -> 20         0.48077
 
 Excited State   9:      Singlet-A     10.0215 eV  123.72 nm  f=0.0062  <S**2>=0.000
      15 -> 19         0.18569
      18 -> 22         0.15510
      18 -> 23         0.64135
 
 Excited State  10:      Singlet-A     10.1408 eV  122.26 nm  f=0.0008  <S**2>=0.000
      15 -> 19         0.52673
      17 -> 21        -0.10750
      17 -> 22        -0.42326
      18 -> 23        -0.11368
 
 Excited State  11:      Singlet-A     10.2580 eV  120.87 nm  f=0.0358  <S**2>=0.000
      15 -> 19         0.39745
      17 -> 22         0.51326
      18 -> 20        -0.12353
      18 -> 23        -0.16526
 
 Excited State  12:      Singlet-A     10.4681 eV  118.44 nm  f=0.0055  <S**2>=0.000
      14 -> 19        -0.28208
      16 -> 20         0.63515
 
 Excited State  13:      Singlet-A     10.6594 eV  116.31 nm  f=0.0040  <S**2>=0.000
      14 -> 19         0.17341
      17 -> 23         0.63994
      17 -> 25         0.14446
 
 Excited State  14:      Singlet-A     10.8970 eV  113.78 nm  f=0.0007  <S**2>=0.000
      14 -> 19         0.11375
      18 -> 24         0.67770
 
 Excited State  15:      Singlet-A     10.9568 eV  113.16 nm  f=0.0034  <S**2>=0.000
      13 -> 19        -0.13324
      14 -> 19         0.56531
      16 -> 20         0.27657
      17 -> 23        -0.17254
      17 -> 24        -0.10563
      18 -> 24        -0.12460
 SavETr:  write IOETrn=   770 NScale= 10 NData=  16 NLR=1 NState=   15 LETran=     280.
 The selected state is a singlet
 CISAX will form     1 AO SS matrices at one time.
 NMat=     1 NSing=     1 JSym2X= 0.
 CISAX will form     1 AO SS matrices at one time.
 NMat=     1 NSing=     1 JSym2X= 0.
 Leave Link  914 at Tue Dec 15 16:18:36 2015, MaxMem=    33554432 cpu:        25.2
 (Enter /home/Applications/g09/g09/l1002.exe)
 Minotr:  Closed shell wavefunction.
          Computing CIS/TD-HF/TD-KS derivatives.
          Using Z-Vector for PSCF gradient.
          Skipping F1 and S1 gradient terms here.
          IDoAtm=111111111
          Frozen-core window.
          Direct CPHF calculation.
          Differentiating once with respect to electric field.
                with respect to dipole field.
          Differentiating once with respect to nuclear coordinates.
          Requested convergence is 1.0D-10 RMS, and 1.0D-09 maximum.
          NewPWx=F KeepS1=T KeepF1=T KeepIn=T MapXYZ=F SortEE=F KeepMc=T.
          MDV=      33554290 using IRadAn=       0.
 Using stored XC quadrature information.
 Keep R1 ints in memory in canonical form, NReq=1898913.
 FoFCou: FMM=F IPFlag=           0 FMFlag=           0 FMFlg1=           0
         NFxFlg=           0 DoJE=F BraDBF=F KetDBF=F FulRan=T
         wScrn=  0.000000 ICntrl=     600 IOpCl=  0 I1Cent=           0 NGrid=           0
         NMat0=    1 NMatS0=   1431 NMatT0=    0 NMatD0=    1 NMtDS0=    0 NMtDT0=    0
 Symmetry not used in FoFCou.
          Solving linear equations separately, MaxMat=       0.
          There are     1 degrees of freedom in the 1st order CPHF.  IDoFFX=0 NUNeed=     1.
 LinEq1:  Iter=  0 NonCon=     1 RMS=3.02D-02 Max=4.11D-01 NDo=     1
 AX will form     1 AO Fock derivatives at one time.
 LinEq1:  Iter=  1 NonCon=     1 RMS=9.16D-03 Max=1.05D-01 NDo=     1
 LinEq1:  Iter=  2 NonCon=     1 RMS=5.70D-03 Max=7.62D-02 NDo=     1
 LinEq1:  Iter=  3 NonCon=     1 RMS=2.06D-03 Max=1.91D-02 NDo=     1
 LinEq1:  Iter=  4 NonCon=     1 RMS=1.19D-03 Max=1.24D-02 NDo=     1
 LinEq1:  Iter=  5 NonCon=     1 RMS=7.06D-04 Max=8.88D-03 NDo=     1
 LinEq1:  Iter=  6 NonCon=     1 RMS=3.63D-04 Max=5.01D-03 NDo=     1
 LinEq1:  Iter=  7 NonCon=     1 RMS=2.03D-04 Max=1.96D-03 NDo=     1
 LinEq1:  Iter=  8 NonCon=     1 RMS=6.62D-05 Max=6.95D-04 NDo=     1
 LinEq1:  Iter=  9 NonCon=     1 RMS=7.68D-06 Max=4.55D-05 NDo=     1
 LinEq1:  Iter= 10 NonCon=     1 RMS=7.46D-07 Max=4.30D-06 NDo=     1
 LinEq1:  Iter= 11 NonCon=     1 RMS=1.05D-07 Max=5.21D-07 NDo=     1
 LinEq1:  Iter= 12 NonCon=     1 RMS=1.25D-08 Max=6.96D-08 NDo=     1
 LinEq1:  Iter= 13 NonCon=     1 RMS=1.61D-09 Max=1.10D-08 NDo=     1
 LinEq1:  Iter= 14 NonCon=     1 RMS=1.92D-10 Max=1.32D-09 NDo=     1
 LinEq1:  Iter= 15 NonCon=     0 RMS=2.13D-11 Max=1.85D-10 NDo=     1
 Linear equations converged to 1.000D-10 1.000D-09 after    15 iterations.
 End of Minotr F.D. properties file   721 does not exist.
 End of Minotr F.D. properties file   722 does not exist.
 End of Minotr F.D. properties file   788 does not exist.
 Leave Link 1002 at Tue Dec 15 16:18:48 2015, MaxMem=    33554432 cpu:        12.0
 (Enter /home/Applications/g09/g09/l601.exe)
 Copying SCF densities to generalized density rwf, IOpCl= 0 IROHF=0.

 **********************************************************************

            Population analysis using the SCF density.

 **********************************************************************

 Orbital symmetries:
       Occupied  (A) (A) (A) (A) (A) (A) (A) (A) (A) (A) (A) (A)
                 (A) (A) (A) (A) (A) (A)
       Virtual   (A) (A) (A) (A) (A) (A) (A) (A) (A) (A) (A) (A)
                 (A) (A) (A) (A) (A) (A) (A) (A) (A) (A) (A) (A)
                 (A) (A) (A) (A) (A) (A) (A) (A) (A) (A) (A)
 The electronic state is 1-A.
 Alpha  occ. eigenvalues --  -19.09128 -10.17313 -10.16294 -10.12234 -10.11941
 Alpha  occ. eigenvalues --   -1.09220  -0.80748  -0.75673  -0.60054  -0.57703
 Alpha  occ. eigenvalues --   -0.54151  -0.44588  -0.43232  -0.42509  -0.40139
 Alpha  occ. eigenvalues --   -0.35036  -0.27244  -0.24579
 Alpha virt. eigenvalues --    0.02574   0.08858   0.13109   0.14797   0.17162
 Alpha virt. eigenvalues --    0.19438   0.21012   0.22400   0.37854   0.42415
 Alpha virt. eigenvalues --    0.48360   0.66897   0.69357   0.69818   0.76455
 Alpha virt. eigenvalues --    0.76991   0.79472   0.81588   0.82778   0.84258
 Alpha virt. eigenvalues --    0.91848   1.00099   1.02478   1.07273   1.18231
 Alpha virt. eigenvalues --    1.24865   1.32268   1.36310   1.51455   1.55247
 Alpha virt. eigenvalues --    1.65480   1.76632   1.97200   2.16034   3.12638
     Molecular Orbital Coefficients:
                           1         2         3         4         5
                           O         O         O         O         O
     Eigenvalues --   -19.09128 -10.17313 -10.16294 -10.12234 -10.11941
   1 1   C  1S          0.00011  -0.00760  -0.00093   0.96771   0.18906
   2        2S          0.00042  -0.00634  -0.00027   0.10932   0.01774
   3        2PX        -0.00093  -0.00124   0.00030  -0.00128   0.00051
   4        2PY         0.00094   0.00358   0.00067  -0.00197   0.00002
   5        2PZ         0.00003  -0.00008   0.00000   0.00004   0.00002
   6        3S         -0.00594   0.04323  -0.01834  -0.11458   0.01356
   7        3PX         0.00479   0.00240   0.00238   0.02198  -0.01641
   8        3PY         0.00619  -0.02306   0.01092   0.03125  -0.00376
   9        3PZ        -0.00024   0.00045  -0.00044  -0.00046  -0.00001
  10 2   C  1S         -0.00058   0.98517   0.02327   0.00687   0.00193
  11        2S         -0.00130   0.10668  -0.00075  -0.00476  -0.00165
  12        2PX        -0.00178  -0.00255   0.00122   0.00116   0.00025
  13        2PY        -0.00133   0.00057  -0.00050  -0.00282  -0.00160
  14        2PZ        -0.00005  -0.00019  -0.00011   0.00000   0.00007
  15        3S          0.01765  -0.08033   0.01631   0.04934   0.00059
  16        3PX        -0.01411   0.01113  -0.01432  -0.01779   0.00060
  17        3PY         0.00065  -0.01999   0.01270   0.02436   0.00311
  18        3PZ        -0.00053   0.00082   0.00029  -0.00049  -0.00017
  19 3   O  1S          0.98271   0.00014   0.00017   0.00006   0.00008
  20        2S          0.10703   0.00137   0.00150   0.00022   0.00029
  21        2PX         0.00017   0.00092  -0.00073   0.00000  -0.00001
  22        2PY         0.00410   0.00077   0.00084  -0.00006  -0.00015
  23        2PZ         0.00025   0.00009   0.00009   0.00001   0.00005
  24        3S         -0.05790   0.00138   0.00163  -0.00265  -0.00426
  25        3PX        -0.00047  -0.00036   0.00040  -0.00262   0.00157
  26        3PY        -0.01302  -0.00245  -0.00272  -0.00127  -0.00194
  27        3PZ        -0.00073  -0.00035  -0.00041  -0.00008  -0.00023
  28 4   C  1S         -0.00055  -0.02431   0.98506  -0.00101   0.00904
  29        2S         -0.00118  -0.00584   0.10713   0.00037  -0.00448
  30        2PX         0.00159  -0.00137   0.00176   0.00013  -0.00159
  31        2PY        -0.00161  -0.00037  -0.00029  -0.00050  -0.00292
  32        2PZ        -0.00007  -0.00009  -0.00032   0.00001   0.00007
  33        3S          0.01790   0.01760  -0.07994  -0.01752   0.04256
  34        3PX         0.01570   0.01786  -0.01154  -0.00865   0.01955
  35        3PY        -0.00047   0.01176  -0.01707  -0.00534   0.02092
  36        3PZ        -0.00067   0.00013   0.00135   0.00036  -0.00066
  37 5   C  1S          0.00011  -0.00043  -0.00955  -0.18966   0.96757
  38        2S          0.00039  -0.00016  -0.00628  -0.02477   0.10787
  39        2PX         0.00105  -0.00028   0.00157  -0.00079   0.00072
  40        2PY         0.00088   0.00054   0.00329   0.00078  -0.00168
  41        2PZ        -0.00002   0.00000  -0.00009   0.00000   0.00027
  42        3S         -0.00676  -0.01941   0.04123   0.05620  -0.09952
  43        3PX        -0.00401  -0.00046  -0.00488   0.02148  -0.01035
  44        3PY         0.00756   0.01128  -0.02171  -0.01706   0.02757
  45        3PZ         0.00004  -0.00068   0.00065   0.00057  -0.00165
  46 6   H  1S         -0.00088  -0.00030  -0.00103   0.00051  -0.00386
  47        2S         -0.00264  -0.00101   0.00286   0.00352   0.00582
  48 7   H  1S          0.00004   0.00154  -0.00501  -0.00006  -0.00027
  49        2S          0.00439   0.00873   0.01027  -0.00184   0.00760
  50 8   H  1S         -0.00003  -0.00337   0.00121   0.00000  -0.00009
  51        2S          0.00299   0.00709   0.00695   0.00618   0.00110
  52 9   H  1S         -0.00084  -0.00107  -0.00042  -0.00364  -0.00078
  53        2S         -0.00239   0.00275  -0.00126   0.00316   0.00552
                           6         7         8         9        10
                           O         O         O         O         O
     Eigenvalues --    -1.09220  -0.80748  -0.75673  -0.60054  -0.57703
   1 1   C  1S         -0.03375   0.14968   0.07709   0.08738   0.06543
   2        2S          0.03452  -0.16035  -0.08460  -0.08952  -0.06338
   3        2PX        -0.01379   0.04489  -0.06491  -0.13093   0.09966
   4        2PY        -0.03911   0.06977   0.08580   0.03658  -0.09973
   5        2PZ         0.00017  -0.00179  -0.00135  -0.00176   0.00185
   6        3S          0.06018  -0.30290  -0.14540  -0.31661  -0.22831
   7        3PX        -0.02440   0.02236   0.01150  -0.03860   0.04648
   8        3PY        -0.03475   0.03323  -0.00631   0.04599  -0.01006
   9        3PZ         0.00119  -0.00047   0.00021  -0.00181   0.00056
  10 2   C  1S         -0.07334   0.06754   0.13837  -0.00141  -0.11526
  11        2S          0.08424  -0.07935  -0.14906  -0.00639   0.12466
  12        2PX        -0.07942   0.00882   0.02482  -0.06212   0.11404
  13        2PY        -0.01757  -0.13729  -0.03078  -0.19978  -0.07621
  14        2PZ        -0.00332   0.00183   0.00632  -0.00218  -0.00495
  15        3S          0.06514  -0.09879  -0.34053   0.07306   0.38195
  16        3PX         0.03003   0.00412   0.02260  -0.05457   0.06135
  17        3PY        -0.01674  -0.03423  -0.03855  -0.04467  -0.01918
  18        3PZ        -0.00006   0.00060   0.00320  -0.00126  -0.00449
  19 3   O  1S         -0.20651  -0.09959   0.00977  -0.01232   0.04407
  20        2S          0.18802   0.09573  -0.00922   0.01177  -0.04372
  21        2PX         0.00192  -0.01087  -0.16041   0.23182   0.09665
  22        2PY         0.10585  -0.01564   0.00934  -0.00133  -0.02694
  23        2PZ         0.00548   0.00233  -0.00047   0.00062  -0.00196
  24        3S          0.65302   0.35328  -0.03670   0.05414  -0.18973
  25        3PX         0.00352  -0.00756  -0.13147   0.20283   0.08415
  26        3PY         0.13545   0.00245   0.00509   0.00120  -0.02932
  27        3PZ         0.00742   0.00198  -0.00028   0.00052  -0.00107
  28 4   C  1S         -0.07765   0.04870  -0.15193   0.06075  -0.08957
  29        2S          0.08819  -0.05831   0.16462  -0.06048   0.10053
  30        2PX         0.07917  -0.01662   0.01065   0.06181  -0.17723
  31        2PY        -0.03063  -0.12762   0.03471   0.21724   0.05294
  32        2PZ        -0.00406   0.00173  -0.00902   0.00579  -0.00493
  33        3S          0.06922  -0.05856   0.36534  -0.24265   0.26422
  34        3PX        -0.03900  -0.00668   0.02393   0.00084  -0.09920
  35        3PY        -0.01488  -0.03060   0.04185   0.05539   0.02340
  36        3PZ         0.00010   0.00093  -0.00515   0.00454  -0.00396
  37 5   C  1S         -0.03456   0.13940  -0.09181  -0.10963   0.02038
  38        2S          0.03512  -0.14865   0.10006   0.11072  -0.01831
  39        2PX         0.00891  -0.04485  -0.07596  -0.06045  -0.16122
  40        2PY        -0.04121   0.05838  -0.07884   0.01388  -0.07131
  41        2PZ         0.00118  -0.00652   0.00483   0.00876   0.00061
  42        3S          0.06558  -0.28031   0.17578   0.38384  -0.06255
  43        3PX         0.02142  -0.01408   0.01151  -0.00971  -0.07078
  44        3PY        -0.04292   0.03446   0.00716  -0.03954  -0.01765
  45        3PZ         0.00070  -0.00427   0.00208   0.00688   0.00067
  46 6   H  1S          0.00906  -0.05786   0.04760   0.10724  -0.00581
  47        2S          0.01368  -0.01184   0.00721   0.06069  -0.00842
  48 7   H  1S          0.01980  -0.01293   0.10026  -0.12859   0.15814
  49        2S         -0.02547   0.00014   0.03151  -0.07458   0.06694
  50 8   H  1S          0.01386  -0.01544  -0.07069   0.02717   0.16045
  51        2S         -0.01719  -0.00024  -0.02650   0.03104   0.08613
  52 9   H  1S          0.00830  -0.05923  -0.03844  -0.09323  -0.05971
  53        2S          0.01177  -0.01250  -0.00735  -0.05054  -0.04001
                          11        12        13        14        15
                           O         O         O         O         O
     Eigenvalues --    -0.54151  -0.44588  -0.43232  -0.42509  -0.40139
   1 1   C  1S         -0.04529   0.02143   0.01003  -0.03050  -0.00791
   2        2S          0.04139  -0.02720  -0.00958   0.02798   0.00696
   3        2PX         0.05447   0.10042  -0.00129   0.05534  -0.32256
   4        2PY         0.21744   0.11825  -0.05841   0.23630   0.08237
   5        2PZ        -0.00461  -0.00461   0.13761   0.03026  -0.00548
   6        3S          0.20687  -0.03825  -0.03374   0.12390   0.05141
   7        3PX         0.05560   0.07417  -0.01135   0.06954  -0.22109
   8        3PY         0.10968   0.04266  -0.03408   0.13962   0.01023
   9        3PZ        -0.00234  -0.00179   0.10070   0.02426  -0.00130
  10 2   C  1S          0.01881  -0.00374  -0.01628   0.04368  -0.00413
  11        2S         -0.02353   0.00057   0.01950  -0.05234   0.00067
  12        2PX         0.10613   0.27351   0.01641  -0.07570   0.09935
  13        2PY        -0.10685  -0.08691   0.04221  -0.15863  -0.18966
  14        2PZ        -0.00084  -0.00139   0.18818   0.05233   0.00637
  15        3S         -0.03709   0.00774   0.04865  -0.13809   0.00388
  16        3PX         0.07137   0.19377   0.01020  -0.05858   0.08738
  17        3PY        -0.10372  -0.06409   0.02694  -0.09151  -0.12833
  18        3PZ        -0.00113  -0.00244   0.17737   0.05083   0.00722
  19 3   O  1S         -0.05367  -0.00092   0.00333   0.00131   0.03146
  20        2S          0.05282   0.00076  -0.00323  -0.00179  -0.02678
  21        2PX         0.01106  -0.20561  -0.06015   0.20474  -0.03269
  22        2PY        -0.15154   0.01144   0.00174  -0.00149  -0.01481
  23        2PZ        -0.00328  -0.00579   0.33144   0.09740   0.01986
  24        3S          0.20972   0.00427  -0.01454  -0.00404  -0.15040
  25        3PX         0.00922  -0.18867  -0.05827   0.20169  -0.03096
  26        3PY        -0.13810   0.00947   0.00060  -0.00081  -0.01600
  27        3PZ        -0.00327  -0.00576   0.33469   0.09889   0.01987
  28 4   C  1S          0.02398  -0.00958   0.00591  -0.04158  -0.00474
  29        2S         -0.02899   0.01327  -0.00742   0.04962   0.00366
  30        2PX        -0.14544   0.28094   0.02420  -0.04433  -0.03737
  31        2PY        -0.08873   0.09832  -0.04597   0.16226  -0.14716
  32        2PZ         0.00222  -0.00658   0.19204   0.05208   0.00677
  33        3S         -0.05274   0.05253  -0.01382   0.13247   0.00752
  34        3PX        -0.10150   0.18957   0.02924  -0.02908  -0.02731
  35        3PY        -0.09335   0.06297  -0.02224   0.10579  -0.09275
  36        3PZ        -0.00073  -0.00501   0.18079   0.05162   0.00782
  37 5   C  1S         -0.04608  -0.01727  -0.00415   0.02974  -0.01396
  38        2S          0.04204   0.02246   0.00426  -0.02764   0.01524
  39        2PX        -0.03240  -0.05467  -0.02017   0.02686   0.33352
  40        2PY         0.23779  -0.12926   0.06887  -0.22813  -0.00150
  41        2PZ         0.00121   0.00036   0.13641   0.03453  -0.00578
  42        3S          0.21258   0.02796   0.01344  -0.12210   0.05107
  43        3PX        -0.04270  -0.01640  -0.03070   0.05024   0.22065
  44        3PY         0.12146  -0.03857   0.05544  -0.13421  -0.02527
  45        3PZ         0.00459  -0.00135   0.10201   0.02422  -0.00363
  46 6   H  1S          0.15291  -0.03247   0.05597  -0.17723  -0.10951
  47        2S          0.08474  -0.03909   0.03613  -0.14410  -0.09202
  48 7   H  1S          0.06533  -0.19059  -0.01611   0.03845   0.08685
  49        2S          0.02250  -0.13982  -0.00203   0.02407   0.07369
  50 8   H  1S          0.05517   0.17872   0.00957  -0.04187   0.14806
  51        2S          0.02463   0.14201   0.00857  -0.02711   0.13466
  52 9   H  1S          0.14185   0.07501  -0.04390   0.18539  -0.09152
  53        2S          0.07953   0.07111  -0.03503   0.15329  -0.06828
                          16        17        18        19        20
                           O         O         O         V         V
     Eigenvalues --    -0.35036  -0.27244  -0.24579   0.02574   0.08858
   1 1   C  1S          0.02835  -0.00089  -0.00103   0.00416  -0.00192
   2        2S         -0.02918   0.00076   0.00282  -0.00708   0.00132
   3        2PX         0.04944   0.00952   0.00092   0.00474   0.00940
   4        2PY         0.13440  -0.01909  -0.00733   0.00412   0.00785
   5        2PZ        -0.01806  -0.29035  -0.17566  -0.17025   0.33775
   6        3S         -0.20152   0.01766  -0.01428  -0.01507   0.00464
   7        3PX        -0.01231   0.00816   0.00904  -0.00373   0.01730
   8        3PY         0.11615  -0.01608   0.00301  -0.01059   0.03947
   9        3PZ        -0.01634  -0.30426  -0.17615  -0.31509   0.69226
  10 2   C  1S         -0.01950   0.00049   0.00502  -0.00783   0.00895
  11        2S          0.02275   0.00037  -0.00626   0.00346  -0.00830
  12        2PX        -0.07160  -0.00106   0.00472   0.00488   0.01103
  13        2PY        -0.14381   0.01028   0.00413  -0.00452   0.01854
  14        2PZ        -0.01309  -0.10265  -0.31123   0.31614  -0.22493
  15        3S          0.11919  -0.00849  -0.01258   0.06463  -0.05610
  16        3PX        -0.03975  -0.00048  -0.00470   0.01726  -0.00314
  17        3PY         0.04912  -0.00269   0.00876  -0.01104   0.05238
  18        3PZ        -0.01004  -0.04585  -0.32482   0.48751  -0.46785
  19 3   O  1S          0.06604  -0.00017  -0.00014   0.00091  -0.00410
  20        2S         -0.06764   0.00044  -0.00009  -0.00236   0.00311
  21        2PX         0.02374  -0.00283   0.00080  -0.00023   0.01821
  22        2PY         0.44879  -0.02680  -0.00133   0.00213   0.01085
  23        2PZ         0.01065   0.35004  -0.04102  -0.27240   0.00377
  24        3S         -0.24284  -0.00183   0.00149  -0.00030   0.03066
  25        3PX         0.02629  -0.00295  -0.00364  -0.00027   0.02958
  26        3PY         0.48447  -0.02936  -0.00069   0.00558   0.01606
  27        3PZ         0.01327   0.39375  -0.04805  -0.37933   0.00378
  28 4   C  1S         -0.01617   0.00141  -0.00684  -0.00746  -0.00600
  29        2S          0.02028  -0.00105   0.00863   0.00166   0.00210
  30        2PX         0.04831   0.00161   0.00360  -0.00319  -0.00779
  31        2PY        -0.16319   0.00393  -0.00007  -0.00346  -0.01100
  32        2PZ        -0.00765  -0.03042   0.32292   0.32197   0.21658
  33        3S          0.08545  -0.00667   0.01345   0.08197   0.08212
  34        3PX         0.04194   0.00386  -0.01066  -0.01007  -0.02357
  35        3PY         0.03288  -0.00590  -0.00893   0.00128  -0.01334
  36        3PZ        -0.00529   0.02317   0.32671   0.50144   0.44634
  37 5   C  1S          0.02915  -0.00623   0.00478  -0.00170  -0.00862
  38        2S         -0.03067   0.00769  -0.00688  -0.00136   0.00320
  39        2PX        -0.03161  -0.01077   0.00714   0.00041  -0.00777
  40        2PY         0.15631  -0.00621   0.00313   0.01268   0.01836
  41        2PZ        -0.01372  -0.24713   0.23314  -0.18110  -0.32861
  42        3S         -0.19233   0.02726   0.00184   0.01370   0.09873
  43        3PX         0.02874  -0.02163   0.01289   0.00176  -0.02255
  44        3PY         0.11313  -0.00006  -0.01473   0.02040   0.04030
  45        3PZ        -0.01694  -0.26137   0.24063  -0.33434  -0.67363
  46 6   H  1S          0.08823  -0.00089   0.00243  -0.00738  -0.02001
  47        2S          0.12037  -0.00551   0.00784  -0.01841  -0.09021
  48 7   H  1S          0.04173  -0.00616  -0.00324  -0.01414  -0.01287
  49        2S          0.04698  -0.00642  -0.00783  -0.04098  -0.06771
  50 8   H  1S          0.03677  -0.00550   0.00435  -0.01317   0.00944
  51        2S          0.04114  -0.00902   0.00811  -0.04939   0.05349
  52 9   H  1S          0.07784  -0.00320  -0.00051  -0.00008  -0.00908
  53        2S          0.10679  -0.00639  -0.00496   0.00869  -0.05397
                          21        22        23        24        25
                           V         V         V         V         V
     Eigenvalues --     0.13109   0.14797   0.17162   0.19438   0.21012
   1 1   C  1S          0.03818  -0.05650   0.05970  -0.09528   0.02122
   2        2S         -0.01739   0.05640  -0.03400   0.07804   0.00950
   3        2PX        -0.08713  -0.05045   0.08963   0.08847   0.14937
   4        2PY        -0.17443  -0.00528  -0.04420   0.13796  -0.07820
   5        2PZ         0.01735  -0.01813  -0.00063  -0.00055  -0.01394
   6        3S         -0.51508   0.27204  -0.71056   0.95766  -0.46912
   7        3PX        -0.32102  -0.06040   0.38996   0.58078   0.85898
   8        3PY        -0.43803   0.22468  -0.25826   0.80491  -0.22933
   9        3PZ         0.04328  -0.06637   0.00927   0.00889  -0.03918
  10 2   C  1S          0.02126   0.11102   0.06421   0.03041   0.08090
  11        2S         -0.00602  -0.08266  -0.05306  -0.03826  -0.05784
  12        2PX        -0.25748  -0.09169   0.21253   0.04525  -0.03379
  13        2PY        -0.01280   0.18468   0.11922  -0.02792   0.11463
  14        2PZ        -0.00296   0.03161   0.00992   0.00503   0.01940
  15        3S         -0.48342  -1.02791  -0.55449   0.00333  -1.02137
  16        3PX        -0.53946  -0.51905   0.53158  -0.19788  -0.26878
  17        3PY        -0.04616   0.66578   0.26271  -0.06021   0.18261
  18        3PZ        -0.00648   0.07583   0.01919   0.00024   0.05833
  19 3   O  1S          0.05611  -0.08342  -0.04802   0.01395   0.02900
  20        2S         -0.03841   0.05834   0.03203  -0.00896  -0.01563
  21        2PX        -0.04300  -0.03565   0.19327   0.07910   0.27485
  22        2PY        -0.13950   0.14528   0.05234  -0.02868  -0.04522
  23        2PZ        -0.01359   0.00208   0.00182  -0.00323  -0.00212
  24        3S         -0.45761   0.67944   0.40468  -0.12158  -0.27865
  25        3PX        -0.07260  -0.08111   0.35887   0.06888   0.52891
  26        3PY        -0.25406   0.23295   0.07987  -0.05364  -0.09566
  27        3PZ        -0.02434   0.00522   0.00276  -0.00801  -0.00425
  28 4   C  1S          0.00766   0.05696   0.05524  -0.04011  -0.11138
  29        2S         -0.00243  -0.04676  -0.03802   0.04785   0.08647
  30        2PX         0.09889  -0.16129   0.19366   0.09874   0.00817
  31        2PY        -0.05761   0.13938   0.05032  -0.00647  -0.20971
  32        2PZ         0.01593   0.00664   0.01565  -0.00073  -0.02780
  33        3S         -0.29468  -0.41954  -0.76498   0.04880   1.36292
  34        3PX         0.14435  -0.29018   0.82252  -0.11174  -0.26814
  35        3PY        -0.22085   0.42970   0.41240  -0.05076  -0.64441
  36        3PZ         0.04797   0.00998   0.04481   0.02893  -0.09111
  37 5   C  1S          0.04841   0.01680  -0.04328   0.10034  -0.04802
  38        2S         -0.02890  -0.01140   0.04024  -0.08281   0.00040
  39        2PX         0.00360  -0.06273   0.17982   0.05265   0.06950
  40        2PY        -0.13211   0.04621  -0.06797  -0.16681   0.10024
  41        2PZ        -0.02905   0.00691  -0.00433  -0.02135   0.01858
  42        3S         -0.54036  -0.19743   0.13380  -0.98794   1.07522
  43        3PX         0.01291  -0.21526   0.58699   0.46286   0.62748
  44        3PY        -0.43739   0.09040   0.04320  -0.93130   0.19116
  45        3PZ        -0.07168   0.01463  -0.03953  -0.06416   0.07992
  46 6   H  1S          0.08312  -0.03999   0.02558   0.05688   0.04627
  47        2S          0.86661  -0.23749   0.31750   1.63816  -0.26878
  48 7   H  1S          0.00293   0.01027   0.10199  -0.01381   0.02453
  49        2S          0.22469   0.15212   1.56954  -0.12907  -1.30993
  50 8   H  1S          0.05833   0.11578  -0.02386   0.00992  -0.02622
  51        2S          0.78440   1.50393  -0.04477   0.11195   0.80136
  52 9   H  1S          0.10838  -0.02867  -0.02408  -0.04718  -0.01837
  53        2S          1.07150  -0.32356   0.20608  -1.51226  -0.18563
                          26        27        28        29        30
                           V         V         V         V         V
     Eigenvalues --     0.22400   0.37854   0.42415   0.48360   0.66897
   1 1   C  1S         -0.05558   0.07778   0.03447  -0.11784   0.00015
   2        2S          0.01733  -0.01365  -0.02344   0.01578  -0.11799
   3        2PX         0.17720   0.07829   0.27730  -0.07475  -0.31040
   4        2PY         0.06221   0.06213  -0.10366  -0.21383   0.37331
   5        2PZ        -0.00284  -0.00341   0.01429   0.00052   0.00551
   6        3S          1.20395  -1.89534  -0.16230   3.55208  -0.16593
   7        3PX         0.54918  -0.28028   1.75380  -1.13727   0.23339
   8        3PY         0.07411   1.62469  -0.89418  -2.35867  -0.31902
   9        3PZ        -0.01598  -0.04336   0.06581   0.04799   0.00099
  10 2   C  1S          0.00856  -0.08108   0.00111   0.09327  -0.03784
  11        2S          0.00604   0.01323   0.00989  -0.01081  -0.07325
  12        2PX        -0.17935  -0.11805  -0.13643   0.24543  -0.34989
  13        2PY        -0.10448   0.22130  -0.15189   0.10782  -0.38318
  14        2PZ         0.00080  -0.00531  -0.00646  -0.01427   0.02224
  15        3S         -0.44165   1.94273  -0.74910  -2.48760  -0.01746
  16        3PX        -0.54614  -0.84974  -0.60492   1.16192   0.21426
  17        3PY        -0.51022   1.41938  -1.22669  -2.12542   0.73620
  18        3PZ         0.00954  -0.04217  -0.01421   0.04397  -0.03150
  19 3   O  1S          0.06940   0.04268   0.00087   0.00483   0.02276
  20        2S         -0.03041  -0.01505  -0.00093  -0.00128  -0.09084
  21        2PX        -0.03164   0.00893  -0.26893   0.13139  -0.01926
  22        2PY        -0.04250  -0.13475   0.00374  -0.00486  -0.21793
[...]
          Condensed to atoms (all electrons):
               1          2          3          4          5          6
     1  C    5.272238   0.428137  -0.091391  -0.118606   0.449736  -0.028235
     2  C    0.428137   5.097573   0.302593  -0.141606  -0.130263   0.006054
     3  O   -0.091391   0.302593   8.114202   0.286809  -0.083898   0.002705
     4  C   -0.118606  -0.141606   0.286809   5.061167   0.448597  -0.034346
     5  C    0.449736  -0.130263  -0.083898   0.448597   5.254288   0.379520
     6  H   -0.028235   0.006054   0.002705  -0.034346   0.379520   0.489435
     7  H    0.003130   0.003587  -0.028654   0.400835  -0.044493  -0.000806
     8  H   -0.036225   0.382595  -0.025609   0.003389   0.002887  -0.000027
     9  H    0.378798  -0.032931   0.002261   0.004767  -0.022701  -0.000809
               7          8          9
     1  C    0.003130  -0.036225   0.378798
     2  C    0.003587   0.382595  -0.032931
     3  O   -0.028654  -0.025609   0.002261
     4  C    0.400835   0.003389   0.004767
     5  C   -0.044493   0.002887  -0.022701
     6  H   -0.000806  -0.000027  -0.000809
     7  H    0.444101  -0.000048  -0.000021
     8  H   -0.000048   0.456250  -0.000578
     9  H   -0.000021  -0.000578   0.480436
 Mulliken charges:
               1
     1  C   -0.257582
     2  C    0.084262
     3  O   -0.479020
     4  C    0.088994
     5  C   -0.253674
     6  H    0.186509
     7  H    0.222369
     8  H    0.217365
     9  H    0.190777
 Sum of Mulliken charges =   0.00000
 Mulliken charges with hydrogens summed into heavy atoms:
               1
     1  C   -0.066805
     2  C    0.301627
     3  O   -0.479020
     4  C    0.311363
     5  C   -0.067165
 Electronic spatial extent (au):  <R**2>=            288.2943
 Charge=              0.0000 electrons
 Dipole moment (field-independent basis, Debye):
    X=              0.0816    Y=              0.8444    Z=              0.0143  Tot=              0.8485
 Quadrupole moment (field-independent basis, Debye-Ang):
   XX=            -23.1856   YY=            -28.1870   ZZ=            -31.5149
   XY=             -0.2496   XZ=             -0.0906   YZ=              0.0653
 Traceless Quadrupole moment (field-independent basis, Debye-Ang):
   XX=              4.4436   YY=             -0.5579   ZZ=             -3.8857
   XY=             -0.2496   XZ=             -0.0906   YZ=              0.0653
 Octapole moment (field-independent basis, Debye-Ang**2):
  XXX=             -0.8392  YYY=              1.8314  ZZZ=             -0.1984  XYY=              0.9450
  XXY=             -4.6137  XXZ=             -0.2554  XZZ=             -0.4524  YZZ=             -3.2453
  YYZ=              0.0461  XYZ=             -0.1589
 Hexadecapole moment (field-independent basis, Debye-Ang**3):
 XXXX=           -159.8712 YYYY=           -152.0906 ZZZZ=            -30.4231 XXXY=              0.6194
 XXXZ=             -0.1736 YYYX=             -0.9525 YYYZ=              0.3650 ZZZX=             -0.0873
 ZZZY=              0.2835 XXYY=            -44.9841 XXZZ=            -39.3676 YYZZ=            -33.1107
 XXYZ=              0.4380 YYXZ=             -0.3871 ZZXY=              0.3641
 N-N= 1.613570385344D+02 E-N=-8.556643245456D+02  KE= 2.271643644761D+02
 Orbital energies and kinetic energies (alpha):
                                 1                 2
   1         O               -19.091278         28.829852
   2         O               -10.173127         15.800172
   3         O               -10.162942         15.795752
   4         O               -10.122344         15.803215
   5         O               -10.119412         15.803939
   6         O                -1.092199          2.438727
   7         O                -0.807484          1.893721
   8         O                -0.756725          1.785741
   9         O                -0.600537          1.611612
  10         O                -0.577029          1.433607
  11         O                -0.541509          1.279950
  12         O                -0.445882          1.456743
  13         O                -0.432324          1.469826
  14         O                -0.425090          1.505292
  15         O                -0.401391          1.390887
  16         O                -0.350361          2.364287
  17         O                -0.272440          1.689764
  18         O                -0.245789          1.229094
  19         V                 0.025736          1.776366
  20         V                 0.088583          1.491633
  21         V                 0.131090          1.327932
  22         V                 0.147968          1.722763
  23         V                 0.171618          1.658006
  24         V                 0.194376          1.278917
  25         V                 0.210124          1.894001
  26         V                 0.224004          1.450443
  27         V                 0.378544          1.803739
  28         V                 0.424151          2.034813
  29         V                 0.483604          2.354846
  30         V                 0.668970          2.509488
  31         V                 0.693566          2.640602
  32         V                 0.698180          2.509498
  33         V                 0.764553          2.482478
  34         V                 0.769908          2.514305
  35         V                 0.794722          2.633402
  36         V                 0.815877          2.642101
  37         V                 0.827776          2.627253
  38         V                 0.842582          2.615591
  39         V                 0.918483          2.703704
  40         V                 1.000986          3.184226
  41         V                 1.024780          3.291472
  42         V                 1.072729          3.334130
  43         V                 1.182310          2.818532
  44         V                 1.248647          2.941996
  45         V                 1.322682          2.572962
  46         V                 1.363098          2.971878
  47         V                 1.514545          4.916300
  48         V                 1.552473          3.294673
  49         V                 1.654797          4.068639
  50         V                 1.766315          4.217483
  51         V                 1.972005          4.172268
  52         V                 2.160336          4.274389
  53         V                 3.126378          6.809896
 Total kinetic energy from orbitals= 2.271643644761D+02
 No NMR shielding tensors so no spin-rotation constants.
 Leave Link  601 at Tue Dec 15 16:18:48 2015, MaxMem=    33554432 cpu:         0.1
 (Enter /home/Applications/g09/g09/l701.exe)
 Compute integral first derivatives.
 ... and contract with generalized density number  6.
 Leave Link  701 at Tue Dec 15 16:18:48 2015, MaxMem=    33554432 cpu:         0.1
 (Enter /home/Applications/g09/g09/l702.exe)
 L702 exits ... SP integral derivatives will be done elsewhere.
 Leave Link  702 at Tue Dec 15 16:18:48 2015, MaxMem=    33554432 cpu:         0.0
 (Enter /home/Applications/g09/g09/l703.exe)
 Compute integral first derivatives, UseDBF=F ICtDFT=           0.
 Integral derivatives from FoFJK, PRISM(SPDF).
 Calling FoFJK, ICntrl=  10005127 FMM=F ISym2X=0 I1Cent= 0 IOpClX= 0 NMat=1 NMatS=1 NMatT=0.
 FoFJK:  IHMeth= 1 ICntrl=10005127 DoSepK=F KAlg= 0 I1Cent=   0 FoldK=F
 IRaf=         0 NMat=   1 IRICut=       1 DoRegI=T DoRafI=F ISym2E= 0.
 FoFCou: FMM=F IPFlag=           0 FMFlag=      100000 FMFlg1=         800
         NFxFlg=           0 DoJE=F BraDBF=F KetDBF=F FulRan=T
         wScrn=  0.000000 ICntrl=10005127 IOpCl=  0 I1Cent=           0 NGrid=           0
         NMat0=    1 NMatS0=      1 NMatT0=    0 NMatD0=    1 NMtDS0=    0 NMtDT0=    0
 Symmetry not used in FoFCou.
 Leave Link  703 at Tue Dec 15 16:18:50 2015, MaxMem=    33554432 cpu:         1.7
 (Enter /home/Applications/g09/g09/l716.exe)
 Dipole        =-4.95449333D-01 4.38243199D-01-3.64698807D-02
 ***** Axes restored to original set *****
 -------------------------------------------------------------------
 Center     Atomic                   Forces (Hartrees/Bohr)
 Number     Number              X              Y              Z
 -------------------------------------------------------------------
      1        6           0.144578988    0.011878577   -0.006375610
      2        6          -0.129807691   -0.100256356    0.007600771
      3        8          -0.047204923    0.037594547   -0.001717911
      4        6          -0.092532329   -0.023474940    0.004429666
      5        6           0.121344346   -0.027903833    0.002464555
      6        1           0.015400990    0.009945344   -0.001670926
      7        1          -0.033746124    0.071487092   -0.003658614
      8        1           0.017836797    0.016439255   -0.000041222
      9        1           0.004129945    0.004290313   -0.001030709
 -------------------------------------------------------------------
 Cartesian Forces:  Max     0.144578988 RMS     0.055630084
 Z-matrix is all fixed cartesians, so copy forces.
 Force constants in Cartesian coordinates: 
                1             2             3             4             5 
      1  0.105848D+01
      2  0.158153D-01  0.783731D+00
      3 -0.171989D-01 -0.865632D-02  0.230043D+00
      4 -0.646475D+00 -0.154522D+00  0.158178D-01  0.103460D+01
      5 -0.129766D+00 -0.248829D+00  0.800507D-02  0.106668D+00  0.808707D+00
      6  0.115980D-01  0.582309D-02 -0.135184D+00  0.345325D-02 -0.109621D-01
      7 -0.918045D-02  0.290890D-01 -0.192602D-02 -0.245063D+00  0.126697D+00
      8 -0.685121D-02  0.218020D-01 -0.640056D-03  0.169892D+00 -0.306113D+00
      9  0.274108D-03 -0.951494D-03  0.406878D-02 -0.134216D-01  0.117351D-01
     10  0.113715D-01  0.874095D-04 -0.101260D-02  0.224982D-01  0.169661D-01
     11  0.347613D-01  0.242568D-03 -0.358645D-02 -0.167842D-01 -0.126588D-01
     12 -0.133534D-02 -0.135613D-03 -0.208835D-02  0.151640D-02  0.118463D-02
     13 -0.163328D+00  0.143974D-01  0.566989D-03  0.110961D-01 -0.352743D-01
     14 -0.918019D-02 -0.366310D+00  0.897234D-02  0.735029D-04 -0.264919D-03
     15  0.479422D-03  0.361076D-02 -0.757240D-01 -0.548657D-03  0.235464D-02
     16  0.166333D-01  0.148351D-03  0.480893D-03 -0.517092D-05 -0.378575D-05
     17 -0.236619D-01 -0.231428D-03 -0.207313D-02  0.000000D+00  0.000000D+00
     18  0.140817D-02  0.225198D-03  0.145271D-01  0.665491D-04  0.487222D-04
     19  0.321146D-04  0.107634D-04  0.714691D-03  0.173408D-04  0.000000D+00
     20  0.425155D-04  0.142493D-04  0.946158D-03 -0.256386D-05  0.000000D+00
     21  0.453750D-03  0.152077D-03  0.100979D-01 -0.232955D-03  0.290834D-05
     22  0.795871D-02 -0.254222D-01 -0.811517D-03 -0.170932D+00 -0.103624D+00
     23 -0.494201D-02  0.156412D-01 -0.131813D-02 -0.975861D-01 -0.265526D+00
     24  0.841728D-03  0.721766D-03  0.428237D-01 -0.842850D-02 -0.954103D-02
     25 -0.275495D+00  0.120396D+00  0.336867D-02 -0.573506D-02  0.183369D-01
     26  0.123783D+00 -0.206061D+00 -0.164948D-02 -0.774002D-02  0.246842D-01
     27  0.347904D-02 -0.789463D-03 -0.885643D-01  0.177773D-02 -0.282790D-02
                6             7             8             9            10 
      6  0.236199D+00
      7 -0.109766D-01  0.480490D+00
      8  0.116534D-01  0.129592D-01  0.608583D+00
      9 -0.438576D-01  0.234911D-01  0.421704D-03  0.518550D-01
     10  0.155872D-02 -0.258305D+00 -0.180969D+00 -0.148813D-01  0.106677D+01
     11 -0.131318D-02 -0.140424D+00 -0.327254D+00 -0.134044D-01 -0.147903D+00
     12 -0.132723D-02 -0.115921D-01 -0.118546D-01 -0.438047D-01  0.193801D-02
     13  0.803053D-03 -0.966416D-02  0.711675D-02  0.115768D-02 -0.614748D+00
     14  0.186760D-03 -0.291753D-01  0.215491D-01  0.261152D-02  0.148552D+00
     15 -0.200895D-02 -0.195198D-02  0.720445D-03  0.426992D-02  0.233094D-01
     16 -0.254920D-03  0.000000D+00 -0.284974D-05  0.479143D-04 -0.592930D-02
     17  0.459915D-04 -0.176125D-04  0.512435D-04 -0.861586D-03  0.811567D-02
     18  0.328078D-02  0.169235D-03 -0.492389D-03  0.827882D-02  0.282620D-02
     19 -0.285954D-03  0.223952D-01 -0.167201D-01  0.189461D-02 -0.221677D+00
     20  0.422786D-04  0.128347D-01 -0.959508D-02  0.137379D-02  0.155148D+00
     21  0.384149D-02  0.153201D-02 -0.138267D-02  0.552306D-02 -0.137110D-01
     22 -0.670195D-02  0.193252D-01  0.145649D-01  0.124844D-02  0.115085D-04
     23 -0.577007D-02 -0.119635D-01 -0.902678D-02 -0.992072D-03  0.000000D+00
     24 -0.966279D-01  0.118336D-02  0.113078D-02  0.523873D-02 -0.177297D-03
     25  0.806452D-03  0.159433D-05  0.994630D-05  0.189054D-03  0.413210D-05
     26  0.293843D-03  0.000000D+00  0.355137D-05  0.675027D-04  0.223482D-05
     27  0.356847D-01  0.710749D-04  0.443403D-03  0.842798D-02  0.149860D-03
               11            12            13            14            15 
     11  0.965813D+00
     12  0.477269D-02  0.246217D+00
     13  0.126648D+00  0.232791D-01  0.104869D+01
     14 -0.248547D+00 -0.739939D-02 -0.990260D-02  0.786209D+00
     15 -0.109649D-01 -0.132991D+00 -0.603587D-02  0.123700D-01  0.227020D+00
     16 -0.178003D-01 -0.200111D-02 -0.298355D+00 -0.128929D+00 -0.144853D-01
     17  0.247724D-01 -0.617571D-03 -0.131147D+00 -0.208770D+00 -0.864302D-02
     18  0.422480D-02  0.359601D-01 -0.191182D-01 -0.129088D-01 -0.885528D-01
     19  0.161501D+00 -0.117072D-01  0.929107D-02  0.284125D-01 -0.113702D-02
     20 -0.402369D+00  0.140073D-01  0.531065D-02  0.159563D-01  0.168355D-02
     21  0.202190D-01 -0.108225D+00  0.371802D-03 -0.418083D-02  0.436565D-01
     22  0.000000D+00 -0.189777D-03  0.926147D-05  0.678055D-05  0.456578D-03
     23  0.000000D+00 -0.715539D-05 -0.139966D-04 -0.102473D-04 -0.690015D-03
     24  0.221347D-05  0.292367D-02  0.195166D-03  0.142886D-03  0.962142D-02
     25  0.138489D-05  0.919574D-04  0.170086D-01  0.143209D-03 -0.866024D-04
     26  0.000000D+00  0.497346D-04  0.228651D-01  0.187749D-03 -0.441499D-03
     27  0.502265D-04  0.333506D-02 -0.121980D-02  0.205536D-03  0.147085D-01
               16            17            18            19            20 
     16  0.287652D+00
     17  0.146591D+00  0.184018D+00
     18  0.159391D-01  0.105094D-01  0.476412D-01
     19 -0.671601D-05  0.120766D-03 -0.116042D-02  0.189948D+00
     20 -0.889113D-05  0.159879D-03 -0.153625D-02 -0.173325D+00  0.395834D+00
     21 -0.948913D-04  0.170632D-02 -0.163957D-01  0.116813D-01 -0.165168D-01
     22  0.000000D+00  0.000000D+00  0.000000D+00  0.000000D+00  0.000000D+00
     23  0.000000D+00  0.000000D+00  0.000000D+00  0.000000D+00  0.000000D+00
     24  0.000000D+00  0.000000D+00  0.000000D+00  0.000000D+00  0.000000D+00
     25  0.101540D-04 -0.183193D-05 -0.130680D-03  0.000000D+00  0.000000D+00
     26  0.549171D-05  0.000000D+00 -0.706777D-04  0.000000D+00  0.000000D+00
     27  0.368258D-03 -0.664394D-04 -0.473943D-02  0.000000D+00  0.000000D+00
               21            22            23            24            25 
     21  0.615019D-01
     22  0.000000D+00  0.143644D+00
     23  0.000000D+00  0.114480D+00  0.258913D+00
     24  0.000000D+00  0.673276D-02  0.766736D-02  0.514992D-01
     25  0.000000D+00 -0.164769D-04  0.249011D-04 -0.347215D-03  0.264222D+00
     26  0.000000D+00 -0.588314D-05  0.889104D-05 -0.123975D-03 -0.138910D+00
     27  0.000000D+00 -0.734534D-03  0.111008D-02 -0.154787D-01 -0.389164D-02
               26            27 
     26  0.181177D+00
     27  0.187455D-02  0.466263D-01
 Leave Link  716 at Tue Dec 15 16:18:50 2015, MaxMem=    33554432 cpu:         0.0
 (Enter /home/Applications/g09/g09/l103.exe)

 GradGradGradGradGradGradGradGradGradGradGradGradGradGradGradGradGradGrad
 Berny optimization.
 Search for a local minimum.
 Step number   1 out of a maximum of    2
 All quantities printed in internal units (Hartrees-Bohrs-Radians)
 Second derivative matrix not updated -- first step.
 ITU=  0
     Eigenvalues ---    0.02044   0.03024   0.07192   0.07327   0.08478
     Eigenvalues ---    0.08788   0.13216   0.14365   0.16507   0.23197
     Eigenvalues ---    0.26946   0.38146   0.43358   0.47062   0.66156
     Eigenvalues ---    0.86213   0.99793   1.29000   1.38623   1.82557
     Eigenvalues ---    1.87944
 Quadratic step=4.683D-01 exceeds max=3.000D-01 adjusted using Lamda=-1.603D-01.
 Angle between NR and scaled steps=  17.10 degrees.
 Angle between quadratic step and forces=  36.04 degrees.
 Linear search not attempted -- first point.
 TrRot= -0.009241 -0.008552  0.001691  0.497379 -0.000417 -0.498606
 Variable       Old X    -DE/DX   Delta X   Delta X   Delta X     New X
                                 (Linear)    (Quad)   (Total)
    X1        1.74471   0.14458   0.00000   0.11099   0.10001   1.84472
    Y1       -1.38076   0.01188   0.00000  -0.02967  -0.04049  -1.42125
    Z1        0.00451  -0.00638   0.00000  -0.00715  -0.00506  -0.00055
    X2       -0.58548  -0.12981   0.00000  -0.06990  -0.08183  -0.66732
    Y2       -2.11211  -0.10026   0.00000  -0.06375  -0.07151  -2.18362
    Z2        0.06263   0.00760   0.00000   0.00918   0.01020   0.07283
    X3       -2.19341  -0.04720   0.00000  -0.10704  -0.11620  -2.30960
    Y3        0.02983   0.03759   0.00000   0.02996   0.02424   0.05407
    Z3       -0.03650  -0.00172   0.00000  -0.00093  -0.00007  -0.03657
    X4       -0.61755  -0.09253   0.00000  -0.06734  -0.07395  -0.69150
    Y4        2.15122  -0.02347   0.00000   0.00700  -0.00072   2.15049
    Z4        0.05746   0.00443   0.00000  -0.00225  -0.00038   0.05708
    X5        1.72124   0.12134   0.00000   0.10386   0.09631   1.81755
    Y5        1.38267  -0.02790   0.00000  -0.00758  -0.01836   1.36431
    Z5       -0.03606   0.00246   0.00000   0.01281   0.01545  -0.02061
    X6        3.34614   0.01540   0.00000   0.08474   0.07863   3.42477
    Y6        2.53147   0.00995   0.00000   0.04067   0.02790   2.55937
    Z6        0.07409  -0.00167   0.00000  -0.00339   0.00007   0.07416
    X7       -1.54206  -0.03375   0.00000  -0.06909  -0.07352  -1.61558
    Y7        3.77473   0.07149   0.00000   0.13362   0.12705   3.90178
    Z7       -0.02923  -0.00366   0.00000  -0.01211  -0.01023  -0.03946
    X8       -1.68197   0.01784   0.00000   0.00963  -0.00441  -1.68637
    Y8       -3.89077   0.01644   0.00000  -0.01875  -0.02525  -3.91602
    Z8       -0.01289  -0.00004   0.00000  -0.00101  -0.00071  -0.01360
    X9        3.37177   0.00413   0.00000   0.08737   0.07494   3.44672
    Y9       -2.59250   0.00429   0.00000  -0.01005  -0.02284  -2.61535
    Z9       -0.02229  -0.00103   0.00000  -0.01169  -0.00925  -0.03154
         Item               Value     Threshold  Converged?
 Maximum Force            0.144579     0.000450     NO 
 RMS     Force            0.055630     0.000300     NO 
 Maximum Displacement     0.127049     0.001800     NO 
 RMS     Displacement     0.057247     0.001200     NO 
 Predicted change in Energy=-4.232360D-02
 GradGradGradGradGradGradGradGradGradGradGradGradGradGradGradGradGradGrad

 Leave Link  103 at Tue Dec 15 16:18:50 2015, MaxMem=    33554432 cpu:         0.0
 (Enter /home/Applications/g09/g09/l9999.exe)
 1\1\GINC-DUSTIN-DESKTOP\Force\RB3LYP-FC\3-21G\C4H4O1\DUSTIN\15-Dec-201
 5\0\\#P B3LYP/3-21G CIS(Singlets,NStates=15) pop(full) force\\FuranDFT
 \\0,1\C,0.923262,-0.730666,0.002384\C,-0.309824,-1.11768,0.033144\O,-1
 .160702,0.015787,-0.019313\C,-0.326792,1.138374,0.030407\C,0.91084,0.7
 3168,-0.019081\H,1.770703,1.339596,0.039209\H,-0.816023,1.997503,-0.01
 5466\H,-0.890059,-2.058909,-0.006823\H,1.784266,-1.371894,-0.011794\\V
 ersion=ES64L-G09RevD.01\State=1-A\HF=-228.7354242\RMSD=2.874e-09\RMSF=
 5.563e-02\Dipole=0.4081845,0.5204607,-0.036922\PG=C01 [X(C4H4O1)]\\@


 IF IT'S NOT TRUE, IT'S WELL INVENTED -- DANTE
 Job cpu time:       0 days  0 hours  0 minutes 45.0 seconds.
 File lengths (MBytes):  RWF=     14 Int=      0 D2E=      0 Chk=      3 Scr=      1
 Normal termination of Gaussian 09 at Tue Dec 15 16:18:50 2015.
