 Entering Gaussian System, Link 0=g09
 Input=FuranDFT_79.com
 Output=FuranDFT_79.log
 Initial command:
 /home/Applications/g09/g09/l1.exe "/home/Applications/g09/scratch/Gau-6259.inp" -scrdir="/home/Applications/g09/scratch/"
 Entering Link 1 = /home/Applications/g09/g09/l1.exe PID=      6261.
  
 Copyright (c) 1988,1990,1992,1993,1995,1998,2003,2009,2013,
            Gaussian, Inc.  All Rights Reserved.
  
 This is part of the Gaussian(R) 09 program.  It is based on
 the Gaussian(R) 03 system (copyright 2003, Gaussian, Inc.),
 the Gaussian(R) 98 system (copyright 1998, Gaussian, Inc.),
 the Gaussian(R) 94 system (copyright 1995, Gaussian, Inc.),
 the Gaussian 92(TM) system (copyright 1992, Gaussian, Inc.),
 the Gaussian 90(TM) system (copyright 1990, Gaussian, Inc.),
 the Gaussian 88(TM) system (copyright 1988, Gaussian, Inc.),
 the Gaussian 86(TM) system (copyright 1986, Carnegie Mellon
 University), and the Gaussian 82(TM) system (copyright 1983,
 Carnegie Mellon University). Gaussian is a federally registered
 trademark of Gaussian, Inc.
  
 This software contains proprietary and confidential information,
 including trade secrets, belonging to Gaussian, Inc.
  
 This software is provided under written license and may be
 used, copied, transmitted, or stored only in accord with that
 written license.
  
 The following legend is applicable only to US Government
 contracts under FAR:
  
                    RESTRICTED RIGHTS LEGEND
  
 Use, reproduction and disclosure by the US Government is
 subject to restrictions as set forth in subparagraphs (a)
 and (c) of the Commercial Computer Software - Restricted
 Rights clause in FAR 52.227-19.
  
 Gaussian, Inc.
 340 Quinnipiac St., Bldg. 40, Wallingford CT 06492
  
  
 ---------------------------------------------------------------
 Warning -- This program may not be used in any manner that
 competes with the business of Gaussian, Inc. or will provide
 assistance to any competitor of Gaussian, Inc.  The licensee
 of this program is prohibited from giving any competitor of
 Gaussian, Inc. access to this program.  By using this program,
 the user acknowledges that Gaussian, Inc. is engaged in the
 business of creating and licensing software in the field of
 computational chemistry and represents and warrants to the
 licensee that it is not a competitor of Gaussian, Inc. and that
 it will not use this program in any manner prohibited above.
 ---------------------------------------------------------------
  

 Cite this work as:
 Gaussian 09, Revision D.01,
 M. J. Frisch, G. W. Trucks, H. B. Schlegel, G. E. Scuseria, 
 M. A. Robb, J. R. Cheeseman, G. Scalmani, V. Barone, B. Mennucci, 
 G. A. Petersson, H. Nakatsuji, M. Caricato, X. Li, H. P. Hratchian, 
 A. F. Izmaylov, J. Bloino, G. Zheng, J. L. Sonnenberg, M. Hada, 
 M. Ehara, K. Toyota, R. Fukuda, J. Hasegawa, M. Ishida, T. Nakajima, 
 Y. Honda, O. Kitao, H. Nakai, T. Vreven, J. A. Montgomery, Jr., 
 J. E. Peralta, F. Ogliaro, M. Bearpark, J. J. Heyd, E. Brothers, 
 K. N. Kudin, V. N. Staroverov, T. Keith, R. Kobayashi, J. Normand, 
 K. Raghavachari, A. Rendell, J. C. Burant, S. S. Iyengar, J. Tomasi, 
 M. Cossi, N. Rega, J. M. Millam, M. Klene, J. E. Knox, J. B. Cross, 
 V. Bakken, C. Adamo, J. Jaramillo, R. Gomperts, R. E. Stratmann, 
 O. Yazyev, A. J. Austin, R. Cammi, C. Pomelli, J. W. Ochterski, 
 R. L. Martin, K. Morokuma, V. G. Zakrzewski, G. A. Voth, 
 P. Salvador, J. J. Dannenberg, S. Dapprich, A. D. Daniels, 
 O. Farkas, J. B. Foresman, J. V. Ortiz, J. Cioslowski, 
 and D. J. Fox, Gaussian, Inc., Wallingford CT, 2013.
 
 ******************************************
 Gaussian 09:  ES64L-G09RevD.01 24-Apr-2013
                15-Dec-2015 
 ******************************************
 -------------------------------------------------------
 #P B3LYP/3-21G CIS(Singlets,NStates=15) pop(full) force
 -------------------------------------------------------
 1/10=7,30=1,38=1/1,3;
 2/12=2,17=6,18=5,40=1/2;
 3/5=5,11=9,16=1,25=1,30=1,71=1,74=-5/1,2,8,3;
 4//1;
 5/5=2,38=5/2;
 8/6=1,10=1,108=15/1;
 9/15=2,41=15,42=1,48=1/14;
 10/5=4/2;
 6/7=3,18=1/1;
 7/12=6,13=5,29=1/1,2,3,16;
 1/10=7,30=1/3;
 99//99;
 Leave Link    1 at Tue Dec 15 16:26:30 2015, MaxMem=           0 cpu:         0.0
 (Enter /home/Applications/g09/g09/l101.exe)
 --------
 FuranDFT
 --------
 Symbolic Z-matrix:
 Charge =  0 Multiplicity = 1
 6                     0.96174  -0.73974  -0.04764 
 6                    -0.30969  -1.13741  -0.03456 
 8                    -1.12084  -0.00306  -0.02416 
 6                    -0.30378   1.08572   0.02117 
 6                     0.99024   0.7323   -0.01492 
 1                     1.772     1.33465  -0.04995 
 1                    -0.87845   2.04182  -0.03267 
 1                    -0.85896  -2.06266   0.01858 
 1                     1.82322  -1.37677  -0.03425 
 
 NAtoms=      9 NQM=        9 NQMF=       0 NMMI=      0 NMMIF=      0
                NMic=       0 NMicF=      0.
                    Isotopes and Nuclear Properties:
 (Nuclear quadrupole moments (NQMom) in fm**2, nuclear magnetic moments (NMagM)
  in nuclear magnetons)

  Atom         1           2           3           4           5           6           7           8           9
 IAtWgt=          12          12          16          12          12           1           1           1           1
 AtmWgt=  12.0000000  12.0000000  15.9949146  12.0000000  12.0000000   1.0078250   1.0078250   1.0078250   1.0078250
 NucSpn=           0           0           0           0           0           1           1           1           1
 AtZEff=   0.0000000   0.0000000   0.0000000   0.0000000   0.0000000   0.0000000   0.0000000   0.0000000   0.0000000
 NQMom=    0.0000000   0.0000000   0.0000000   0.0000000   0.0000000   0.0000000   0.0000000   0.0000000   0.0000000
 NMagM=    0.0000000   0.0000000   0.0000000   0.0000000   0.0000000   2.7928460   2.7928460   2.7928460   2.7928460
 AtZNuc=   6.0000000   6.0000000   8.0000000   6.0000000   6.0000000   1.0000000   1.0000000   1.0000000   1.0000000
 Leave Link  101 at Tue Dec 15 16:26:30 2015, MaxMem=    33554432 cpu:         0.0
 (Enter /home/Applications/g09/g09/l103.exe)

 GradGradGradGradGradGradGradGradGradGradGradGradGradGradGradGradGradGrad
 Berny optimization.
 Initialization pass.
 Trust Radius=3.00D-01 FncErr=1.00D-07 GrdErr=1.00D-07
 Number of steps in this run=      2 maximum allowed number of steps=      2.
 GradGradGradGradGradGradGradGradGradGradGradGradGradGradGradGradGradGrad

 Leave Link  103 at Tue Dec 15 16:26:30 2015, MaxMem=    33554432 cpu:         0.0
 (Enter /home/Applications/g09/g09/l202.exe)
                          Input orientation:                          
 ---------------------------------------------------------------------
 Center     Atomic      Atomic             Coordinates (Angstroms)
 Number     Number       Type             X           Y           Z
 ---------------------------------------------------------------------
      1          6           0        0.961744   -0.739741   -0.047639
      2          6           0       -0.309693   -1.137412   -0.034563
      3          8           0       -1.120840   -0.003057   -0.024161
      4          6           0       -0.303778    1.085716    0.021170
      5          6           0        0.990237    0.732298   -0.014916
      6          1           0        1.772004    1.334650   -0.049947
      7          1           0       -0.878447    2.041822   -0.032670
      8          1           0       -0.858963   -2.062664    0.018581
      9          1           0        1.823216   -1.376771   -0.034245
 ---------------------------------------------------------------------
                    Distance matrix (angstroms):
                    1          2          3          4          5
     1  C    0.000000
     2  C    1.332241   0.000000
     3  O    2.209165   1.394571   0.000000
     4  C    2.222290   2.223834   1.362010   0.000000
     5  C    1.472678   2.277283   2.235504   1.341895   0.000000
     6  H    2.227021   3.231840   3.187267   2.091864   0.987530
     7  H    3.335209   3.229708   2.059213   1.116818   2.281918
     8  H    2.251552   1.077318   2.076629   3.196957   3.351489
     9  H    1.071504   2.146298   3.248793   3.254384   2.267686
                    6          7          8          9
     6  H    0.000000
     7  H    2.743225   0.000000
     8  H    4.297491   4.104852   0.000000
     9  H    2.711950   4.357266   2.768993   0.000000
 Stoichiometry    C4H4O
 Framework group  C1[X(C4H4O)]
 Deg. of freedom    21
 Full point group                 C1      NOp   1
 Largest Abelian subgroup         C1      NOp   1
 Largest concise Abelian subgroup C1      NOp   1
                         Standard orientation:                         
 ---------------------------------------------------------------------
 Center     Atomic      Atomic             Coordinates (Angstroms)
 Number     Number       Type             X           Y           Z
 ---------------------------------------------------------------------
      1          6           0        0.699464    0.957538   -0.011056
      2          6           0        1.134713   -0.301575   -0.003416
      3          8           0        0.025016   -1.146156   -0.012566
      4          6           0       -1.088091   -0.362235    0.026599
      5          6           0       -0.773046    0.941971    0.004832
      6          1           0       -1.398015    1.705741   -0.031000
      7          1           0       -2.025956   -0.964620   -0.042853
      8          1           0        2.075277   -0.823505    0.056105
      9          1           0        1.310319    1.837434    0.016522
 ---------------------------------------------------------------------
 Rotational constants (GHZ):      9.4966710      9.1973480      4.6738506
 Leave Link  202 at Tue Dec 15 16:26:30 2015, MaxMem=    33554432 cpu:         0.0
 (Enter /home/Applications/g09/g09/l301.exe)
 Standard basis: 3-21G (6D, 7F)
 Ernie: Thresh=  0.10000D-02 Tol=  0.10000D-05 Strict=F.
 There are    53 symmetry adapted cartesian basis functions of A   symmetry.
 There are    53 symmetry adapted basis functions of A   symmetry.
    53 basis functions,    87 primitive gaussians,    53 cartesian basis functions
    18 alpha electrons       18 beta electrons
       nuclear repulsion energy       160.7645352964 Hartrees.
 IExCor=  402 DFT=T Ex+Corr=B3LYP ExCW=0 ScaHFX=  0.200000
 ScaDFX=  0.800000  0.720000  1.000000  0.810000 ScalE2=  1.000000  1.000000
 IRadAn=      0 IRanWt=     -1 IRanGd=            0 ICorTp=0 IEmpDi=  4
 NAtoms=    9 NActive=    9 NUniq=    9 SFac= 1.00D+00 NAtFMM=   60 NAOKFM=F Big=F
 Integral buffers will be    131072 words long.
 Regular integral format.
 Two-electron integral symmetry is turned on.
 Leave Link  301 at Tue Dec 15 16:26:30 2015, MaxMem=    33554432 cpu:         0.0
 (Enter /home/Applications/g09/g09/l302.exe)
 NPDir=0 NMtPBC=     1 NCelOv=     1 NCel=       1 NClECP=     1 NCelD=      1
         NCelK=      1 NCelE2=     1 NClLst=     1 CellRange=     0.0.
 One-electron integrals computed using PRISM.
 NBasis=    53 RedAO= T EigKep=  3.14D-03  NBF=    53
 NBsUse=    53 1.00D-06 EigRej= -1.00D+00 NBFU=    53
 Precomputing XC quadrature grid using
 IXCGrd= 4 IRadAn=           0 IRanWt=          -1 IRanGd=           0 AccXCQ= 0.00D+00.
 Generated NRdTot=       0 NPtTot=           0 NUsed=           0 NTot=          32
 NSgBfM=    53    53    53    53    53 MxSgAt=     9 MxSgA2=     9.
 Leave Link  302 at Tue Dec 15 16:26:31 2015, MaxMem=    33554432 cpu:         0.1
 (Enter /home/Applications/g09/g09/l308.exe)
 Leave Link  308 at Tue Dec 15 16:26:31 2015, MaxMem=    33554432 cpu:         0.0
 (Enter /home/Applications/g09/g09/l303.exe)
 DipDrv:  MaxL=1.
 Leave Link  303 at Tue Dec 15 16:26:31 2015, MaxMem=    33554432 cpu:         0.0
 (Enter /home/Applications/g09/g09/l401.exe)
 ExpMin= 1.83D-01 ExpMax= 3.22D+02 ExpMxC= 3.22D+02 IAcc=1 IRadAn=         1 AccDes= 0.00D+00
 Harris functional with IExCor=  402 and IRadAn=       1 diagonalized for initial guess.
 HarFok:  IExCor=  402 AccDes= 0.00D+00 IRadAn=         1 IDoV= 1 UseB2=F ITyADJ=14
 ICtDFT=  3500011 ScaDFX=  1.000000  1.000000  1.000000  1.000000
 FoFCou: FMM=F IPFlag=           0 FMFlag=      100000 FMFlg1=           0
         NFxFlg=           0 DoJE=T BraDBF=F KetDBF=T FulRan=T
         wScrn=  0.000000 ICntrl=     500 IOpCl=  0 I1Cent=   200000004 NGrid=           0
         NMat0=    1 NMatS0=      1 NMatT0=    0 NMatD0=    1 NMtDS0=    0 NMtDT0=    0
 Petite list used in FoFCou.
 Harris En= -228.735810125446    
 JPrj=0 DoOrth=F DoCkMO=F.
 Leave Link  401 at Tue Dec 15 16:26:31 2015, MaxMem=    33554432 cpu:         0.2
 (Enter /home/Applications/g09/g09/l502.exe)
 Closed shell SCF:
 Using DIIS extrapolation, IDIIS=  1040.
 Integral symmetry usage will be decided dynamically.
 Keep R1 ints in memory in canonical form, NReq=1925595.
 IVT=       27707 IEndB=       27707 NGot=    33554432 MDV=    32502130
 LenX=    32502130 LenY=    32498880
 Requested convergence on RMS density matrix=1.00D-08 within 128 cycles.
 Requested convergence on MAX density matrix=1.00D-06.
 Requested convergence on             energy=1.00D-06.
 No special actions if energy rises.
 FoFCou: FMM=F IPFlag=           0 FMFlag=           0 FMFlg1=           0
         NFxFlg=           0 DoJE=F BraDBF=F KetDBF=F FulRan=T
         wScrn=  0.000000 ICntrl=     600 IOpCl=  0 I1Cent=           0 NGrid=           0
         NMat0=    1 NMatS0=   1431 NMatT0=    0 NMatD0=    1 NMtDS0=    0 NMtDT0=    0
 Symmetry not used in FoFCou.
 Integral accuracy reduced to 1.0D-05 until final iterations.

 Cycle   1  Pass 0  IDiag  1:
 E= -228.657473702819    
 DIIS: error= 3.51D-02 at cycle   1 NSaved=   1.
 NSaved= 1 IEnMin= 1 EnMin= -228.657473702819     IErMin= 1 ErrMin= 3.51D-02
 ErrMax= 3.51D-02  0.00D+00 EMaxC= 1.00D-01 BMatC= 8.02D-02 BMatP= 8.02D-02
 IDIUse=3 WtCom= 6.49D-01 WtEn= 3.51D-01
 Coeff-Com:  0.100D+01
 Coeff-En:   0.100D+01
 Coeff:      0.100D+01
 Gap=     0.237 Goal=   None    Shift=    0.000
 GapD=    0.237 DampG=1.000 DampE=0.500 DampFc=0.5000 IDamp=-1.
 Damping current iteration by 5.00D-01
 RMSDP=1.21D-02 MaxDP=1.09D-01              OVMax= 2.01D-01

 Cycle   2  Pass 0  IDiag  1:
 E= -228.688880443256     Delta-E=       -0.031406740438 Rises=F Damp=T
 DIIS: error= 1.50D-02 at cycle   2 NSaved=   2.
 NSaved= 2 IEnMin= 2 EnMin= -228.688880443256     IErMin= 2 ErrMin= 1.50D-02
 ErrMax= 1.50D-02  0.00D+00 EMaxC= 1.00D-01 BMatC= 9.56D-03 BMatP= 8.02D-02
 IDIUse=3 WtCom= 8.50D-01 WtEn= 1.50D-01
 Coeff-Com:  0.120D+00 0.880D+00
 Coeff-En:   0.217D+00 0.783D+00
 Coeff:      0.134D+00 0.866D+00
 Gap=     0.256 Goal=   None    Shift=    0.000
 RMSDP=4.60D-03 MaxDP=4.08D-02 DE=-3.14D-02 OVMax= 1.76D-01

 Cycle   3  Pass 0  IDiag  1:
 E= -228.730104996207     Delta-E=       -0.041224552951 Rises=F Damp=F
 DIIS: error= 2.10D-02 at cycle   3 NSaved=   3.
 NSaved= 3 IEnMin= 3 EnMin= -228.730104996207     IErMin= 2 ErrMin= 1.50D-02
 ErrMax= 2.10D-02  0.00D+00 EMaxC= 1.00D-01 BMatC= 1.23D-02 BMatP= 9.56D-03
 IDIUse=2 WtCom= 0.00D+00 WtEn= 1.00D+00
 Coeff-En:   0.000D+00 0.000D+00 0.100D+01
 Coeff:      0.000D+00 0.000D+00 0.100D+01
 Gap=     0.247 Goal=   None    Shift=    0.000
 RMSDP=6.07D-03 MaxDP=4.76D-02 DE=-4.12D-02 OVMax= 1.31D-01

 Cycle   4  Pass 0  IDiag  1:
 E= -228.697934459225     Delta-E=        0.032170536982 Rises=F Damp=F
 DIIS: error= 4.30D-02 at cycle   4 NSaved=   4.
 NSaved= 4 IEnMin= 3 EnMin= -228.730104996207     IErMin= 2 ErrMin= 1.50D-02
 ErrMax= 4.30D-02  0.00D+00 EMaxC= 1.00D-01 BMatC= 4.81D-02 BMatP= 9.56D-03
 IDIUse=2 WtCom= 0.00D+00 WtEn= 1.00D+00
 Coeff-En:   0.000D+00 0.000D+00 0.748D+00 0.252D+00
 Coeff:      0.000D+00 0.000D+00 0.748D+00 0.252D+00
 Gap=     0.259 Goal=   None    Shift=    0.000
 RMSDP=3.04D-03 MaxDP=2.40D-02 DE= 3.22D-02 OVMax= 7.16D-02

 Cycle   5  Pass 0  IDiag  1:
 E= -228.738908542228     Delta-E=       -0.040974083003 Rises=F Damp=F
 DIIS: error= 9.89D-03 at cycle   5 NSaved=   5.
 NSaved= 5 IEnMin= 5 EnMin= -228.738908542228     IErMin= 5 ErrMin= 9.89D-03
 ErrMax= 9.89D-03  0.00D+00 EMaxC= 1.00D-01 BMatC= 2.62D-03 BMatP= 9.56D-03
 IDIUse=3 WtCom= 9.01D-01 WtEn= 9.89D-02
 Coeff-Com: -0.684D-02 0.240D-01 0.243D+00-0.812D-01 0.822D+00
 Coeff-En:   0.000D+00 0.000D+00 0.216D+00 0.000D+00 0.784D+00
 Coeff:     -0.616D-02 0.216D-01 0.240D+00-0.732D-01 0.818D+00
 Gap=     0.263 Goal=   None    Shift=    0.000
 RMSDP=1.03D-03 MaxDP=7.90D-03 DE=-4.10D-02 OVMax= 2.23D-02

 Cycle   6  Pass 0  IDiag  1:
 E= -228.741282152973     Delta-E=       -0.002373610744 Rises=F Damp=F
 DIIS: error= 6.05D-04 at cycle   6 NSaved=   6.
 NSaved= 6 IEnMin= 6 EnMin= -228.741282152973     IErMin= 6 ErrMin= 6.05D-04
 ErrMax= 6.05D-04  0.00D+00 EMaxC= 1.00D-01 BMatC= 1.14D-05 BMatP= 2.62D-03
 IDIUse=3 WtCom= 9.94D-01 WtEn= 6.05D-03
 Coeff-Com: -0.453D-02 0.906D-02 0.305D-01-0.312D-01 0.228D+00 0.769D+00
 Coeff-En:   0.000D+00 0.000D+00 0.000D+00 0.000D+00 0.000D+00 0.100D+01
 Coeff:     -0.450D-02 0.901D-02 0.303D-01-0.310D-01 0.226D+00 0.770D+00
 Gap=     0.263 Goal=   None    Shift=    0.000
 RMSDP=7.09D-05 MaxDP=5.34D-04 DE=-2.37D-03 OVMax= 1.34D-03

 Cycle   7  Pass 0  IDiag  1:
 E= -228.741293667258     Delta-E=       -0.000011514286 Rises=F Damp=F
 DIIS: error= 2.76D-05 at cycle   7 NSaved=   7.
 NSaved= 7 IEnMin= 7 EnMin= -228.741293667258     IErMin= 7 ErrMin= 2.76D-05
 ErrMax= 2.76D-05  0.00D+00 EMaxC= 1.00D-01 BMatC= 2.63D-08 BMatP= 1.14D-05
 IDIUse=1 WtCom= 1.00D+00 WtEn= 0.00D+00
 Coeff-Com: -0.748D-03 0.100D-02 0.500D-02-0.507D-02 0.449D-01 0.243D+00
 Coeff-Com:  0.712D+00
 Coeff:     -0.748D-03 0.100D-02 0.500D-02-0.507D-02 0.449D-01 0.243D+00
 Coeff:      0.712D+00
 Gap=     0.263 Goal=   None    Shift=    0.000
 RMSDP=3.03D-06 MaxDP=3.72D-05 DE=-1.15D-05 OVMax= 5.58D-05

 Initial convergence to 1.0D-05 achieved.  Increase integral accuracy.
 Cycle   8  Pass 1  IDiag  1:
 E= -228.741338008383     Delta-E=       -0.000044341124 Rises=F Damp=F
 DIIS: error= 1.32D-05 at cycle   1 NSaved=   1.
 NSaved= 1 IEnMin= 1 EnMin= -228.741338008383     IErMin= 1 ErrMin= 1.32D-05
 ErrMax= 1.32D-05  0.00D+00 EMaxC= 1.00D-01 BMatC= 7.64D-09 BMatP= 7.64D-09
 IDIUse=1 WtCom= 1.00D+00 WtEn= 0.00D+00
 Coeff-Com:  0.100D+01
 Coeff:      0.100D+01
 Gap=     0.263 Goal=   None    Shift=    0.000
 RMSDP=3.03D-06 MaxDP=3.72D-05 DE=-4.43D-05 OVMax= 4.28D-05

 Cycle   9  Pass 1  IDiag  1:
 E= -228.741338016350     Delta-E=       -0.000000007967 Rises=F Damp=F
 DIIS: error= 6.54D-06 at cycle   2 NSaved=   2.
 NSaved= 2 IEnMin= 2 EnMin= -228.741338016350     IErMin= 2 ErrMin= 6.54D-06
 ErrMax= 6.54D-06  0.00D+00 EMaxC= 1.00D-01 BMatC= 2.68D-09 BMatP= 7.64D-09
 IDIUse=1 WtCom= 1.00D+00 WtEn= 0.00D+00
 Coeff-Com:  0.312D+00 0.688D+00
 Coeff:      0.312D+00 0.688D+00
 Gap=     0.263 Goal=   None    Shift=    0.000
 RMSDP=1.89D-06 MaxDP=2.87D-05 DE=-7.97D-09 OVMax= 3.71D-05

 Cycle  10  Pass 1  IDiag  1:
 E= -228.741338017116     Delta-E=       -0.000000000766 Rises=F Damp=F
 DIIS: error= 7.72D-06 at cycle   3 NSaved=   3.
 NSaved= 3 IEnMin= 3 EnMin= -228.741338017116     IErMin= 2 ErrMin= 6.54D-06
 ErrMax= 7.72D-06  0.00D+00 EMaxC= 1.00D-01 BMatC= 1.95D-09 BMatP= 2.68D-09
 IDIUse=1 WtCom= 1.00D+00 WtEn= 0.00D+00
 Coeff-Com: -0.259D-02 0.459D+00 0.543D+00
 Coeff:     -0.259D-02 0.459D+00 0.543D+00
 Gap=     0.263 Goal=   None    Shift=    0.000
 RMSDP=9.75D-07 MaxDP=1.17D-05 DE=-7.66D-10 OVMax= 2.20D-05

 Cycle  11  Pass 1  IDiag  1:
 E= -228.741338018815     Delta-E=       -0.000000001699 Rises=F Damp=F
 DIIS: error= 2.29D-06 at cycle   4 NSaved=   4.
 NSaved= 4 IEnMin= 4 EnMin= -228.741338018815     IErMin= 4 ErrMin= 2.29D-06
 ErrMax= 2.29D-06  0.00D+00 EMaxC= 1.00D-01 BMatC= 1.68D-10 BMatP= 1.95D-09
 IDIUse=1 WtCom= 1.00D+00 WtEn= 0.00D+00
 Coeff-Com: -0.164D-01 0.262D+00 0.355D+00 0.400D+00
 Coeff:     -0.164D-01 0.262D+00 0.355D+00 0.400D+00
 Gap=     0.263 Goal=   None    Shift=    0.000
 RMSDP=2.47D-07 MaxDP=3.76D-06 DE=-1.70D-09 OVMax= 5.24D-06

 Cycle  12  Pass 1  IDiag  1:
 E= -228.741338018970     Delta-E=       -0.000000000155 Rises=F Damp=F
 DIIS: error= 1.46D-07 at cycle   5 NSaved=   5.
 NSaved= 5 IEnMin= 5 EnMin= -228.741338018970     IErMin= 5 ErrMin= 1.46D-07
 ErrMax= 1.46D-07  0.00D+00 EMaxC= 1.00D-01 BMatC= 8.70D-13 BMatP= 1.68D-10
 IDIUse=1 WtCom= 1.00D+00 WtEn= 0.00D+00
 Coeff-Com: -0.504D-02 0.657D-01 0.970D-01 0.123D+00 0.719D+00
 Coeff:     -0.504D-02 0.657D-01 0.970D-01 0.123D+00 0.719D+00
 Gap=     0.263 Goal=   None    Shift=    0.000
 RMSDP=2.64D-08 MaxDP=3.01D-07 DE=-1.55D-10 OVMax= 4.36D-07

 Cycle  13  Pass 1  IDiag  1:
 E= -228.741338018970     Delta-E=        0.000000000000 Rises=F Damp=F
 DIIS: error= 4.29D-08 at cycle   6 NSaved=   6.
 NSaved= 6 IEnMin= 5 EnMin= -228.741338018970     IErMin= 6 ErrMin= 4.29D-08
 ErrMax= 4.29D-08  0.00D+00 EMaxC= 1.00D-01 BMatC= 1.16D-13 BMatP= 8.70D-13
 IDIUse=1 WtCom= 1.00D+00 WtEn= 0.00D+00
 Coeff-Com: -0.587D-03 0.198D-02 0.621D-02 0.135D-01 0.290D+00 0.689D+00
 Coeff:     -0.587D-03 0.198D-02 0.621D-02 0.135D-01 0.290D+00 0.689D+00
 Gap=     0.263 Goal=   None    Shift=    0.000
 RMSDP=8.83D-09 MaxDP=7.37D-08 DE= 2.27D-13 OVMax= 1.27D-07

 SCF Done:  E(RB3LYP) =  -228.741338019     A.U. after   13 cycles
            NFock= 13  Conv=0.88D-08     -V/T= 2.0078
 KE= 2.269718952861D+02 PE=-8.542237504234D+02 EE= 2.377459818219D+02
 Leave Link  502 at Tue Dec 15 16:26:36 2015, MaxMem=    33554432 cpu:         4.9
 (Enter /home/Applications/g09/g09/l801.exe)
 DoSCS=F DFT=T ScalE2(SS,OS)=  1.000000  1.000000
 ExpMin= 1.83D-01 ExpMax= 3.22D+02 ExpMxC= 3.22D+02 IAcc=3 IRadAn=         5 AccDes= 0.00D+00
 HarFok:  IExCor=  205 AccDes= 0.00D+00 IRadAn=         5 IDoV=-2 UseB2=F ITyADJ=14
 ICtDFT= 12500011 ScaDFX=  1.000000  1.000000  1.000000  1.000000
 Largest valence mixing into a core orbital is  1.76D-04
 Largest core mixing into a valence orbital is  4.95D-05
 Range of M.O.s used for correlation:     6    53
 NBasis=    53 NAE=    18 NBE=    18 NFC=     5 NFV=     0
 NROrb=     48 NOA=    13 NOB=    13 NVA=    35 NVB=    35
 Leave Link  801 at Tue Dec 15 16:26:36 2015, MaxMem=    33554432 cpu:         0.3
 (Enter /home/Applications/g09/g09/l914.exe)
 RHF ground state
 MDV=    33554432 DFT=T DoStab=F Mixed=T DoRPA=F DoScal=F NonHer=F
 Keep R1, R2, and R3 ints in memory in canonical form, NReq=5596273.
 FoFCou: FMM=F IPFlag=           0 FMFlag=           0 FMFlg1=           0
         NFxFlg=           0 DoJE=F BraDBF=F KetDBF=F FulRan=T
         wScrn=  0.000000 ICntrl=     600 IOpCl=  0 I1Cent=           0 NGrid=           0
         NMat0=    1 NMatS0=   1431 NMatT0=    0 NMatD0=    1 NMtDS0=    0 NMtDT0=    0
 Symmetry not used in FoFCou.
 Making orbital integer symmetry assigments:
 Orbital symmetries:
       Occupied  (A) (A) (A) (A) (A) (A) (A) (A) (A) (A) (A) (A)
                 (A) (A) (A) (A) (A) (A)
       Virtual   (A) (A) (A) (A) (A) (A) (A) (A) (A) (A) (A) (A)
                 (A) (A) (A) (A) (A) (A) (A) (A) (A) (A) (A) (A)
                 (A) (A) (A) (A) (A) (A) (A) (A) (A) (A) (A)
    60 initial guesses have been made.
 Convergence on wavefunction:    0.000001000000000
 Davidson Disk Diagonalization:  ConvIn= 1.00D-06 SkipCon=T Conv= 1.00D-06.
 Max sub-space:   240 roots to seek:    60 dimension of matrix:          910
 Iteration     1 Dimension    60 NMult     0 NNew     60
 CISAX will form    60 AO SS matrices at one time.
 NMat=    60 NSing=    60 JSym2X= 0.
 New state      1 was old state      2
 New state      2 was old state      1
 New state      3 was old state      6
 New state      4 was old state      5
 New state      5 was old state      7
 New state      6 was old state      8
 New state      7 was old state      4
 New state      8 was old state      9
 New state      9 was old state     10
 New state     10 was old state     11
 New state     11 was old state     13
 New state     13 was old state     14
 New state     14 was old state      3
 New state     15 was old state     16
 Excitation Energies [eV] at current iteration:
 Root      1 :     7.446951812931567
 Root      2 :     8.180709434484141
 Root      3 :     8.821837140426982
 Root      4 :     8.985213811041410
 Root      5 :     9.249062086781901
 Root      6 :     9.659957299884733
 Root      7 :     9.788083350029920
 Root      8 :     9.928424648481426
 Root      9 :    10.032040181980190
 Root     10 :    10.212072036819000
 Root     11 :    10.409477969674790
 Root     12 :    10.609886301674540
 Root     13 :    10.810108919040480
 Root     14 :    10.923301628386970
 Root     15 :    11.015315317867020
 Root     16 :    11.200600166408470
 Root     17 :    11.208264886327210
 Root     18 :    11.258056785041910
 Root     19 :    11.400900243421000
 Root     20 :    11.751446556422080
 Root     21 :    11.866352606550780
 Root     22 :    12.135747945207290
 Root     23 :    12.296215766690230
 Root     24 :    12.430441986835680
 Root     25 :    12.461168117515490
 Root     26 :    12.808571100481410
 Root     27 :    12.909784407202210
 Root     28 :    13.542578486570880
 Root     29 :    13.679006754327040
 Root     30 :    13.816702755450310
 Root     31 :    14.144225321855320
 Root     32 :    14.170210227347870
 Root     33 :    14.312517377071220
 Root     34 :    14.378011388181760
 Root     35 :    14.472751724426830
 Root     36 :    14.488778875775640
 Root     37 :    14.648764823804430
 Root     38 :    14.714349091310830
 Root     39 :    14.801133710910580
 Root     40 :    14.881301642421720
 Root     41 :    15.004586509889310
 Root     42 :    15.114240688754040
 Root     43 :    15.130034359121220
 Root     44 :    15.224182817996320
 Root     45 :    15.400002248692870
 Root     46 :    15.548631253942920
 Root     47 :    15.634886437152790
 Root     48 :    15.661168219875730
 Root     49 :    15.738393528604300
 Root     50 :    15.914161027003190
 Root     51 :    16.025487556641910
 Root     52 :    16.130093309143750
 Root     53 :    16.239456209345480
 Root     54 :    16.401554446871130
 Root     55 :    16.474619474545820
 Root     56 :    16.577510817729010
 Root     57 :    16.687097241374470
 Root     58 :    17.234974089669090
 Root     59 :    17.601441887391940
 Root     60 :    19.144855228689610
 Iteration     2 Dimension   120 NMult    60 NNew     60
 CISAX will form    60 AO SS matrices at one time.
 NMat=    60 NSing=    60 JSym2X= 0.
 Root      1 not converged, maximum delta is    0.090576123323838
 Root      2 not converged, maximum delta is    0.077768029572038
 Root      3 not converged, maximum delta is    0.036535019073942
 Root      4 not converged, maximum delta is    0.015982320212898
 Root      5 not converged, maximum delta is    0.028519274389591
 New state      6 was old state      7
 Root      6 not converged, maximum delta is    0.066990041498474
 New state      7 was old state      6
 Root      7 not converged, maximum delta is    0.125357078173480
 New state      8 was old state     14
 Root      8 not converged, maximum delta is    0.404138359299954
 New state      9 was old state      8
 Root      9 not converged, maximum delta is    0.094689293604949
 New state     10 was old state      9
 Root     10 not converged, maximum delta is    0.042351152747187
 New state     11 was old state     10
 Root     11 not converged, maximum delta is    0.153093578361719
 New state     12 was old state     11
 Root     12 not converged, maximum delta is    0.118730695557411
 New state     13 was old state     12
 Root     13 not converged, maximum delta is    0.095456882301437
 New state     14 was old state     13
 Root     14 not converged, maximum delta is    0.244699681838214
 Root     15 not converged, maximum delta is    0.047346606674005
 Excitation Energies [eV] at current iteration:
 Root      1 :     7.299470874618764   Change is   -0.147480938312802
 Root      2 :     7.465808259693003   Change is   -0.714901174791139
 Root      3 :     8.793466285223966   Change is   -0.028370855203018
 Root      4 :     8.977739402647394   Change is   -0.007474408394014
 Root      5 :     9.228517386462794   Change is   -0.020544700319108
 Root      6 :     9.293050632111060   Change is   -0.495032717918861
 Root      7 :     9.624082304943084   Change is   -0.035874994941649
 Root      8 :     9.846226389521849   Change is   -1.077075238865125
 Root      9 :     9.924214179146517   Change is   -0.004210469334909
 Root     10 :    10.002470757649740   Change is   -0.029569424330447
 Root     11 :    10.217113506828100   Change is    0.005041470009102
 Root     12 :    10.408361841472930   Change is   -0.001116128201864
 Root     13 :    10.601208371578970   Change is   -0.008677930095569
 Root     14 :    10.830139067025960   Change is    0.020030147985471
 Root     15 :    10.986026867262640   Change is   -0.029288450604383
 Root     16 :    11.154502737959100   Change is   -0.046097428449370
 Root     17 :    11.191171760079600   Change is   -0.017093126247608
 Root     18 :    11.222400284312660   Change is   -0.035656500729256
 Root     19 :    11.377862107968070   Change is   -0.023038135452939
 Root     20 :    11.716070707752380   Change is   -0.035375848669700
 Root     21 :    11.848972128643120   Change is   -0.017380477907654
 Root     22 :    11.918275085417210   Change is   -0.217472859790084
 Root     23 :    12.280857273819000   Change is   -0.015358492871234
 Root     24 :    12.389544740386940   Change is   -0.040897246448743
 Root     25 :    12.410010555174200   Change is   -0.051157562341294
 Root     26 :    12.748095206028650   Change is   -0.060475894452755
 Root     27 :    12.857315933513070   Change is   -0.052468473689138
 Root     28 :    13.007198085507890   Change is   -0.809504669942425
 Root     29 :    13.236152375618580   Change is   -0.306426110952300
 Root     30 :    13.624253978002390   Change is   -0.054752776324652
 Root     31 :    13.942161509955950   Change is   -0.228048717391919
 Root     32 :    14.123042091449090   Change is   -0.021183230406226
 Root     33 :    14.141967175382300   Change is   -0.236044212799452
 Root     34 :    14.222108782111850   Change is   -0.090408594959370
 Root     35 :    14.328231705644560   Change is   -0.160547170131086
 Root     36 :    14.441540995370680   Change is   -0.031210729056146
 Root     37 :    14.574380544081520   Change is   -0.074384279722911
 Root     38 :    14.657109960116560   Change is   -0.057239131194266
 Root     39 :    14.746385062968390   Change is   -0.054748647942190
 Root     40 :    14.815675491039680   Change is   -0.065626151382032
 Root     41 :    14.950088929372390   Change is   -0.054497580516920
 Root     42 :    14.982346037093430   Change is   -0.147688322027790
 Root     43 :    15.065667715539260   Change is   -0.048572973214778
 Root     44 :    15.074197980607150   Change is   -0.149984837389169
 Root     45 :    15.229001483201160   Change is   -0.171000765491711
 Root     46 :    15.345230221340880   Change is   -0.289656215811912
 Root     47 :    15.381506837618210   Change is   -0.167124416324718
 Root     48 :    15.557102857963920   Change is   -0.104065361911809
 Root     49 :    15.573107729784900   Change is   -0.556985579358854
 Root     50 :    15.692071943372340   Change is   -0.046321585231969
 Root     51 :    15.828346818195760   Change is   -0.085814208807433
 Root     52 :    15.870522559957800   Change is   -1.364451529711292
 Root     53 :    15.921046486351140   Change is   -0.104441070290774
 Root     54 :    16.070255885431660   Change is   -0.169200323913830
 Root     55 :    16.316143599650970   Change is   -0.085410847220159
 Root     56 :    16.405767025699280   Change is   -0.171743792029726
 Root     57 :    16.478632789332890   Change is    0.004013314787066
 Root     58 :    16.562079051122800   Change is   -1.039362836269139
 Root     59 :    16.604233289488890   Change is   -0.082863951885580
 Root     60 :    16.787742970591850   Change is   -2.357112258097758
 Iteration     3 Dimension   135 NMult   120 NNew     15
 CISAX will form    15 AO SS matrices at one time.
 NMat=    15 NSing=    15 JSym2X= 0.
 Root      1 not converged, maximum delta is    0.001064927105744
 Root      2 not converged, maximum delta is    0.002681200092309
 Root      3 not converged, maximum delta is    0.000217124019132
 Root      4 not converged, maximum delta is    0.000098909047038
 Root      5 not converged, maximum delta is    0.000265003181041
 Root      6 not converged, maximum delta is    0.002909269212210
 Root      7 not converged, maximum delta is    0.002581024449810
 Root      8 not converged, maximum delta is    0.004940739184759
 Root      9 not converged, maximum delta is    0.003918270405633
 Root     10 not converged, maximum delta is    0.000738955629381
 Root     11 not converged, maximum delta is    0.001106822356608
 Root     12 not converged, maximum delta is    0.000506707517082
 Root     13 not converged, maximum delta is    0.000287905837687
 Root     14 not converged, maximum delta is    0.000547714423240
 Root     15 not converged, maximum delta is    0.000367817853585
 Excitation Energies [eV] at current iteration:
 Root      1 :     7.298623449286125   Change is   -0.000847425332639
 Root      2 :     7.463906441015580   Change is   -0.001901818677422
 Root      3 :     8.793440158856436   Change is   -0.000026126367529
 Root      4 :     8.977732934321661   Change is   -0.000006468325733
 Root      5 :     9.228478024743577   Change is   -0.000039361719217
 Root      6 :     9.291252601181121   Change is   -0.001798030929939
 Root      7 :     9.623651942955957   Change is   -0.000430361987126
 Root      8 :     9.842511482590902   Change is   -0.003714906930947
 Root      9 :     9.924079737458134   Change is   -0.000134441688383
 Root     10 :    10.002399203546940   Change is   -0.000071554102803
 Root     11 :    10.216896285901670   Change is   -0.000217220926423
 Root     12 :    10.408261001577950   Change is   -0.000100839894979
 Root     13 :    10.601167012893860   Change is   -0.000041358685110
 Root     14 :    10.830092085469370   Change is   -0.000046981556588
 Root     15 :    10.985959154376790   Change is   -0.000067712885850
 Iteration     4 Dimension   150 NMult   135 NNew     15
 CISAX will form    15 AO SS matrices at one time.
 NMat=    15 NSing=    15 JSym2X= 0.
 Root      1 not converged, maximum delta is    0.000043518489168
 Root      2 not converged, maximum delta is    0.000074960462344
 Root      3 not converged, maximum delta is    0.000004647565367
 Root      4 not converged, maximum delta is    0.000003010974603
 Root      5 not converged, maximum delta is    0.000005756718901
 Root      6 not converged, maximum delta is    0.000063164238464
 Root      7 not converged, maximum delta is    0.000030083219849
 Root      8 not converged, maximum delta is    0.000092462373977
 Root      9 not converged, maximum delta is    0.000015914066743
 Root     10 not converged, maximum delta is    0.000010735717705
 Root     11 not converged, maximum delta is    0.000027574463039
 Root     12 not converged, maximum delta is    0.000018518696207
 Root     13 not converged, maximum delta is    0.000007628016449
 Root     14 not converged, maximum delta is    0.000006847211595
 Root     15 not converged, maximum delta is    0.000013959977372
 Excitation Energies [eV] at current iteration:
 Root      1 :     7.298622399892935   Change is   -0.000001049393190
 Root      2 :     7.463904315193971   Change is   -0.000002125821610
 Root      3 :     8.793440142274548   Change is   -0.000000016581889
 Root      4 :     8.977732928550143   Change is   -0.000000005771520
 Root      5 :     9.228477987004297   Change is   -0.000000037739281
 Root      6 :     9.291249839632133   Change is   -0.000002761548988
 Root      7 :     9.623651321993203   Change is   -0.000000620962754
 Root      8 :     9.842505953752063   Change is   -0.000005528838839
 Root      9 :     9.924079553096187   Change is   -0.000000184361947
 Root     10 :    10.002399163571630   Change is   -0.000000039975305
 Root     11 :    10.216895945661350   Change is   -0.000000340240319
 Root     12 :    10.408260846499380   Change is   -0.000000155078571
 Root     13 :    10.601166959086120   Change is   -0.000000053807735
 Root     14 :    10.830092048463130   Change is   -0.000000037006239
 Root     15 :    10.985959078767190   Change is   -0.000000075609595
 Iteration     5 Dimension   165 NMult   150 NNew     15
 CISAX will form    15 AO SS matrices at one time.
 NMat=    15 NSing=    15 JSym2X= 0.
 Root      1 not converged, maximum delta is    0.000001262607234
 Root      2 not converged, maximum delta is    0.000001902133830
 Root      3 has converged.
 Root      4 has converged.
 Root      5 has converged.
 Root      6 not converged, maximum delta is    0.000002442391896
 Root      7 not converged, maximum delta is    0.000001056771886
 Root      8 not converged, maximum delta is    0.000002977457511
 Root      9 has converged.
 Root     10 has converged.
 Root     11 has converged.
 Root     12 has converged.
 Root     13 has converged.
 Root     14 not converged, maximum delta is    0.000001049635437
 Root     15 has converged.
 Excitation Energies [eV] at current iteration:
 Root      1 :     7.298622398950561   Change is   -0.000000000942375
 Root      2 :     7.463904313241519   Change is   -0.000000001952451
 Root      3 :     8.793440142259794   Change is   -0.000000000014753
 Root      4 :     8.977732928543110   Change is   -0.000000000007032
 Root      5 :     9.228477986965792   Change is   -0.000000000038504
 Root      6 :     9.291249836901773   Change is   -0.000000002730359
 Root      7 :     9.623651321301095   Change is   -0.000000000692108
 Root      8 :     9.842505947504922   Change is   -0.000000006247142
 Root      9 :     9.924079552880334   Change is   -0.000000000215852
 Root     10 :    10.002399163543730   Change is   -0.000000000027906
 Root     11 :    10.216895945204630   Change is   -0.000000000456724
 Root     12 :    10.408260846273650   Change is   -0.000000000225725
 Root     13 :    10.601166959021910   Change is   -0.000000000064217
 Root     14 :    10.830092048421970   Change is   -0.000000000041155
 Root     15 :    10.985959078679450   Change is   -0.000000000087738
 Iteration     6 Dimension   171 NMult   165 NNew      6
 CISAX will form     6 AO SS matrices at one time.
 NMat=     6 NSing=     6 JSym2X= 0.
 Root      1 has converged.
 Root      2 has converged.
 Root      3 has converged.
 Root      4 has converged.
 Root      5 has converged.
 Root      6 has converged.
 Root      7 has converged.
 Root      8 has converged.
 Root      9 has converged.
 Root     10 has converged.
 Root     11 has converged.
 Root     12 has converged.
 Root     13 has converged.
 Root     14 has converged.
 Root     15 has converged.
 Excitation Energies [eV] at current iteration:
 Root      1 :     7.298622398950235   Change is   -0.000000000000325
 Root      2 :     7.463904313240637   Change is   -0.000000000000882
 Root      3 :     8.793440142259781   Change is   -0.000000000000012
 Root      4 :     8.977732928543089   Change is   -0.000000000000023
 Root      5 :     9.228477986965757   Change is   -0.000000000000036
 Root      6 :     9.291249836899732   Change is   -0.000000000002041
 Root      7 :     9.623651321300608   Change is   -0.000000000000488
 Root      8 :     9.842505947500182   Change is   -0.000000000004739
 Root      9 :     9.924079552880158   Change is   -0.000000000000175
 Root     10 :    10.002399163543720   Change is   -0.000000000000006
 Root     11 :    10.216895945204250   Change is   -0.000000000000381
 Root     12 :    10.408260846273470   Change is   -0.000000000000184
 Root     13 :    10.601166959021860   Change is   -0.000000000000044
 Root     14 :    10.830092048421930   Change is   -0.000000000000047
 Root     15 :    10.985959078679430   Change is   -0.000000000000024
 Convergence achieved on expansion vectors.
 ***********************************************************************
 Excited states from <AA,BB:AA,BB> singles matrix:
 ***********************************************************************
 
 1PDM for each excited state written to RWF  633
 Ground to excited state transition densities written to RWF  633
 Ground to excited state transition electric dipole moments (Au):
       state          X           Y           Z        Dip. S.      Osc.
         1        -0.2126     -0.1220      0.0018      0.0601      0.0107
         2        -1.0494     -0.0561      0.0439      1.1063      0.2023
         3        -0.0594      0.0365     -0.1425      0.0252      0.0054
         4        -0.0020      0.0217     -0.0321      0.0015      0.0003
         5        -0.0200      0.1066      0.0608      0.0155      0.0035
         6         0.7586     -0.0613     -0.0160      0.5795      0.1319
         7        -0.0035      0.4754     -0.0286      0.2268      0.0535
         8         0.0663     -1.3492      0.0322      1.8257      0.4403
         9        -0.0300     -0.2450     -0.0642      0.0650      0.0158
        10         0.0602     -0.0082      0.0339      0.0048      0.0012
        11         0.0613     -0.3015     -0.0369      0.0960      0.0240
        12         0.0559     -0.1804     -0.0092      0.0358      0.0091
        13         0.0562      0.0886     -0.0372      0.0124      0.0032
        14        -0.0525      0.0714      0.0743      0.0134      0.0036
        15        -0.0362     -0.0284     -0.0156      0.0024      0.0006
 Ground to excited state transition velocity dipole moments (Au):
       state          X           Y           Z        Dip. S.      Osc.
         1         0.0053     -0.0557     -0.0019      0.0031      0.0078
         2         0.0136      0.0077     -0.0005      0.0002      0.0006
         3         0.0054     -0.0007      0.0764      0.0059      0.0121
         4        -0.0018      0.0010      0.0088      0.0001      0.0002
         5        -0.0074     -0.0032     -0.0313      0.0010      0.0020
         6        -0.0747     -0.0089      0.0075      0.0057      0.0112
         7        -0.0013     -0.0077      0.0198      0.0005      0.0009
         8         0.0016      0.0301      0.0108      0.0010      0.0019
         9         0.0097      0.0067      0.0063      0.0002      0.0003
        10        -0.0109     -0.0029     -0.0264      0.0008      0.0015
        11        -0.0039      0.0122     -0.0303      0.0011      0.0019
        12        -0.0080      0.0124      0.0042      0.0002      0.0004
        13        -0.0116     -0.0032     -0.0328      0.0012      0.0021
        14         0.0111     -0.0040      0.0307      0.0011      0.0018
        15         0.0062      0.0111      0.0155      0.0004      0.0007
 Ground to excited state transition magnetic dipole moments (Au):
       state          X           Y           Z
         1         0.0427      0.0372     -0.1360
         2         0.0666     -0.0053     -0.5416
         3        -1.5526      0.1144     -0.0474
         4        -0.0795     -0.5490     -0.0122
         5        -0.0675      0.1220     -0.0781
         6         0.0382     -0.0318     -0.3552
         7        -0.0292      0.1438     -0.0010
         8        -0.0214      0.0217      0.0336
         9        -0.3652      0.0934     -0.0572
        10         0.2419     -0.0839      0.0584
        11         0.0859     -0.0498     -0.0534
        12         0.0813      0.2248     -0.0247
        13         0.1213      0.1218     -0.0441
        14         0.1204      0.3162     -0.0203
        15         0.0112     -1.2194     -0.0203
 Ground to excited state transition velocity quadrupole moments (Au):
       state          XX          YY          ZZ          XY          XZ          YZ
         1        -0.0509     -0.0226      0.0324     -0.0368      0.0006      0.0030
         2        -0.0007     -0.0184      0.0002     -0.2400     -0.0034      0.0002
         3         0.0035     -0.0015     -0.0034     -0.0332     -0.0166     -0.1960
         4         0.0308     -0.0012      0.0037      0.0082      0.0835     -0.0136
         5         0.0293     -0.0199     -0.0002     -0.0204      0.0939      0.0808
         6        -0.0010     -0.0323      0.0059     -0.3030      0.0012      0.0028
         7         0.0852     -0.0676     -0.0153     -0.0063      0.1420     -0.0465
         8        -0.3000      0.2186      0.0578      0.0239      0.0658     -0.0006
         9        -0.0712      0.0391      0.0141     -0.0035      0.0092     -0.1032
        10         0.0034      0.0026     -0.0030      0.0110      0.0107     -0.0334
        11        -0.0718      0.0366      0.0193     -0.0475     -0.0586      0.0505
        12        -0.0523      0.0211      0.0095     -0.0209      0.0136      0.0076
        13         0.0115     -0.0090     -0.0084     -0.0362      0.0430      0.0667
        14         0.0014     -0.0024     -0.0007      0.0151      0.0036      0.1037
        15         0.0282      0.0054     -0.0206      0.0093      0.1450      0.0332
 <0|del|b> * <b|rxdel|0> + <0|del|b> * <b|delr+rdel|0>
 Rotatory Strengths (R) in cgs (10**-40 erg-esu-cm/Gauss)
       state          XX          YY          ZZ    R(velocity)    E-M Angle
         1        -2.2430      0.5709     -2.5018     -1.3913      101.07
         2         0.5350      1.3850      1.0774      0.9991       82.18
         3        -6.8386    -11.5467     -8.1074     -8.8309       95.82
         4        -0.7345     -0.0081     -0.3837     -0.3754       96.03
         5         3.1155      1.7793      0.4095      1.7681       60.45
         6        -4.8103     -3.5790     -2.4644     -3.6179      101.14
         7        -0.1587      0.2059     -2.2374     -0.7300      110.54
         8        -0.6937      0.0672      2.5380      0.6372       47.53
         9         0.1786     -4.7351     -1.7925     -2.1163      129.85
        10        -1.5013     -3.3969     -2.6941     -2.5307      121.54
        11         2.9809     -0.3264     -1.3734      0.4270       79.43
        12         2.2485     -0.6687      2.1941      1.2580       56.38
        13         2.1608     -1.7422     -1.0520     -0.2111       93.23
        14        -1.2471      1.2538     -0.9643     -0.3192       92.77
        15       -13.4699     -0.1617    -10.6085     -8.0800      124.40
 1/2[<0|r|b>*<b|rxdel|0> + (<0|rxdel|b>*<b|r|0>)*]
 Rotatory Strengths (R) in cgs (10**-40 erg-esu-cm/Gauss)
       state          XX          YY          ZZ     R(length)
         1         6.4143      3.2100      0.1710      3.2651
         2        49.3929     -0.2089     16.7950     21.9930
         3       -65.1999     -2.9541     -4.7805    -24.3115
         4        -0.1101      8.4304     -0.2757      2.6815
         5        -0.9563     -9.1961      3.3578     -2.2649
         6       -20.5166     -1.3787     -4.0091     -8.6348
         7        -0.0715    -48.3504     -0.0200    -16.1473
         8         1.0023     20.6711     -0.7654      6.9693
         9        -7.7552     16.1866     -2.5953      1.9454
        10       -10.3077     -0.4885     -1.4003     -4.0655
        11        -3.7219    -10.6074     -1.3914     -5.2402
        12        -3.2161     28.6846     -0.1597      8.4363
        13        -4.8231     -7.6356     -1.1592     -4.5393
        14         4.4685    -15.9723      1.0662     -3.4792
        15         0.2863    -24.4885     -0.2237     -8.1420
  1/2[<0|del|b>*<b|r|0> + (<0|r|b>*<b|del|0>)*] (Au)
       state          X           Y           Z        Dip. S.   Osc.(frdel)
         1        -0.0011      0.0068      0.0000     -0.0057     -0.0038
         2        -0.0143     -0.0004      0.0000      0.0147      0.0098
         3        -0.0003      0.0000     -0.0109      0.0112      0.0075
         4         0.0000      0.0000     -0.0003      0.0003      0.0002
         5         0.0001     -0.0003     -0.0019      0.0021      0.0014
         6        -0.0567      0.0005     -0.0001      0.0563      0.0375
         7         0.0000     -0.0037     -0.0006      0.0042      0.0028
         8         0.0001     -0.0405      0.0003      0.0401      0.0267
         9        -0.0003     -0.0017     -0.0004      0.0023      0.0016
        10        -0.0007      0.0000     -0.0009      0.0015      0.0010
        11        -0.0002     -0.0037      0.0011      0.0028      0.0019
        12        -0.0004     -0.0022      0.0000      0.0027      0.0018
        13        -0.0007     -0.0003      0.0012     -0.0003     -0.0002
        14        -0.0006     -0.0003      0.0023     -0.0014     -0.0009
        15        -0.0002     -0.0003     -0.0002      0.0008      0.0005

 Excitation energies and oscillator strengths:
 
 Excited State   1:      Singlet-A      7.2986 eV  169.87 nm  f=0.0107  <S**2>=0.000
      17 -> 19         0.51585
      18 -> 19         0.14879
      18 -> 20        -0.44703
 This state for optimization and/or second-order correction.
 Total Energy, E(CIS) =  -228.473118569    
 Copying the excited state density for this state as the 1-particle RhoCI density.
 
 Excited State   2:      Singlet-A      7.4639 eV  166.11 nm  f=0.2023  <S**2>=0.000
      17 -> 19        -0.12070
      18 -> 19         0.66656
 
 Excited State   3:      Singlet-A      8.7934 eV  141.00 nm  f=0.0054  <S**2>=0.000
      16 -> 19         0.69855
 
 Excited State   4:      Singlet-A      8.9777 eV  138.10 nm  f=0.0003  <S**2>=0.000
      18 -> 21         0.64708
      18 -> 22        -0.24457
 
 Excited State   5:      Singlet-A      9.2285 eV  134.35 nm  f=0.0035  <S**2>=0.000
      18 -> 21         0.22077
      18 -> 22         0.63829
      18 -> 23        -0.13246
 
 Excited State   6:      Singlet-A      9.2912 eV  133.44 nm  f=0.1319  <S**2>=0.000
      17 -> 20         0.67729
 
 Excited State   7:      Singlet-A      9.6237 eV  128.83 nm  f=0.0535  <S**2>=0.000
      15 -> 19        -0.11584
      17 -> 19        -0.14172
      18 -> 20        -0.17546
      18 -> 21         0.10423
      18 -> 23         0.61924
 
 Excited State   8:      Singlet-A      9.8425 eV  125.97 nm  f=0.4403  <S**2>=0.000
      17 -> 19         0.37612
      17 -> 21        -0.16655
      18 -> 20         0.44356
      18 -> 23         0.19669
 
 Excited State   9:      Singlet-A      9.9241 eV  124.93 nm  f=0.0158  <S**2>=0.000
      15 -> 19        -0.32264
      17 -> 21         0.56270
      17 -> 22        -0.22499
 
 Excited State  10:      Singlet-A     10.0024 eV  123.95 nm  f=0.0012  <S**2>=0.000
      15 -> 19         0.59971
      16 -> 20        -0.11021
      17 -> 21         0.29351
      18 -> 23         0.16442
 
 Excited State  11:      Singlet-A     10.2169 eV  121.35 nm  f=0.0240  <S**2>=0.000
      17 -> 21         0.21090
      17 -> 22         0.64966
 
 Excited State  12:      Singlet-A     10.4083 eV  119.12 nm  f=0.0091  <S**2>=0.000
      13 -> 19        -0.14658
      14 -> 19        -0.15142
      15 -> 19         0.10086
      16 -> 20         0.65335
 
 Excited State  13:      Singlet-A     10.6012 eV  116.95 nm  f=0.0032  <S**2>=0.000
      17 -> 23         0.68917
 
 Excited State  14:      Singlet-A     10.8301 eV  114.48 nm  f=0.0036  <S**2>=0.000
      18 -> 24         0.67094
 
 Excited State  15:      Singlet-A     10.9860 eV  112.86 nm  f=0.0006  <S**2>=0.000
      12 -> 19         0.28465
      14 -> 19         0.57824
      15 -> 20         0.18252
      16 -> 20         0.15756
      18 -> 24         0.12269
 SavETr:  write IOETrn=   770 NScale= 10 NData=  16 NLR=1 NState=   15 LETran=     280.
 The selected state is a singlet
 CISAX will form     1 AO SS matrices at one time.
 NMat=     1 NSing=     1 JSym2X= 0.
 CISAX will form     1 AO SS matrices at one time.
 NMat=     1 NSing=     1 JSym2X= 0.
 Leave Link  914 at Tue Dec 15 16:27:10 2015, MaxMem=    33554432 cpu:        34.0
 (Enter /home/Applications/g09/g09/l1002.exe)
 Minotr:  Closed shell wavefunction.
          Computing CIS/TD-HF/TD-KS derivatives.
          Using Z-Vector for PSCF gradient.
          Skipping F1 and S1 gradient terms here.
          IDoAtm=111111111
          Frozen-core window.
          Direct CPHF calculation.
          Differentiating once with respect to electric field.
                with respect to dipole field.
          Differentiating once with respect to nuclear coordinates.
          Requested convergence is 1.0D-10 RMS, and 1.0D-09 maximum.
          NewPWx=F KeepS1=T KeepF1=T KeepIn=T MapXYZ=F SortEE=F KeepMc=T.
          MDV=      33554290 using IRadAn=       0.
 Using stored XC quadrature information.
 Keep R1 ints in memory in canonical form, NReq=1898913.
 FoFCou: FMM=F IPFlag=           0 FMFlag=           0 FMFlg1=           0
         NFxFlg=           0 DoJE=F BraDBF=F KetDBF=F FulRan=T
         wScrn=  0.000000 ICntrl=     600 IOpCl=  0 I1Cent=           0 NGrid=           0
         NMat0=    1 NMatS0=   1431 NMatT0=    0 NMatD0=    1 NMtDS0=    0 NMtDT0=    0
 Symmetry not used in FoFCou.
          Solving linear equations separately, MaxMat=       0.
          There are     1 degrees of freedom in the 1st order CPHF.  IDoFFX=0 NUNeed=     1.
 LinEq1:  Iter=  0 NonCon=     1 RMS=1.91D-02 Max=2.45D-01 NDo=     1
 AX will form     1 AO Fock derivatives at one time.
 LinEq1:  Iter=  1 NonCon=     1 RMS=7.79D-03 Max=7.94D-02 NDo=     1
 LinEq1:  Iter=  2 NonCon=     1 RMS=5.44D-03 Max=6.27D-02 NDo=     1
 LinEq1:  Iter=  3 NonCon=     1 RMS=2.60D-03 Max=2.60D-02 NDo=     1
 LinEq1:  Iter=  4 NonCon=     1 RMS=1.75D-03 Max=1.63D-02 NDo=     1
 LinEq1:  Iter=  5 NonCon=     1 RMS=6.11D-04 Max=4.64D-03 NDo=     1
 LinEq1:  Iter=  6 NonCon=     1 RMS=2.25D-04 Max=1.48D-03 NDo=     1
 LinEq1:  Iter=  7 NonCon=     1 RMS=1.54D-04 Max=1.43D-03 NDo=     1
 LinEq1:  Iter=  8 NonCon=     1 RMS=4.65D-05 Max=5.08D-04 NDo=     1
 LinEq1:  Iter=  9 NonCon=     1 RMS=6.11D-06 Max=5.73D-05 NDo=     1
 LinEq1:  Iter= 10 NonCon=     1 RMS=6.77D-07 Max=4.83D-06 NDo=     1
 LinEq1:  Iter= 11 NonCon=     1 RMS=1.06D-07 Max=5.99D-07 NDo=     1
 LinEq1:  Iter= 12 NonCon=     1 RMS=1.08D-08 Max=9.35D-08 NDo=     1
 LinEq1:  Iter= 13 NonCon=     1 RMS=1.47D-09 Max=7.58D-09 NDo=     1
 LinEq1:  Iter= 14 NonCon=     1 RMS=1.70D-10 Max=1.23D-09 NDo=     1
 LinEq1:  Iter= 15 NonCon=     0 RMS=1.74D-11 Max=1.11D-10 NDo=     1
 Linear equations converged to 1.000D-10 1.000D-09 after    15 iterations.
 End of Minotr F.D. properties file   721 does not exist.
 End of Minotr F.D. properties file   722 does not exist.
 End of Minotr F.D. properties file   788 does not exist.
 Leave Link 1002 at Tue Dec 15 16:27:19 2015, MaxMem=    33554432 cpu:         8.9
 (Enter /home/Applications/g09/g09/l601.exe)
 Copying SCF densities to generalized density rwf, IOpCl= 0 IROHF=0.

 **********************************************************************

            Population analysis using the SCF density.

 **********************************************************************

 Orbital symmetries:
       Occupied  (A) (A) (A) (A) (A) (A) (A) (A) (A) (A) (A) (A)
                 (A) (A) (A) (A) (A) (A)
       Virtual   (A) (A) (A) (A) (A) (A) (A) (A) (A) (A) (A) (A)
                 (A) (A) (A) (A) (A) (A) (A) (A) (A) (A) (A) (A)
                 (A) (A) (A) (A) (A) (A) (A) (A) (A) (A) (A)
 The electronic state is 1-A.
 Alpha  occ. eigenvalues --  -19.10294 -10.17809 -10.17384 -10.12659 -10.11831
 Alpha  occ. eigenvalues --   -1.11377  -0.80205  -0.75168  -0.60779  -0.56534
 Alpha  occ. eigenvalues --   -0.54550  -0.44448  -0.43810  -0.43296  -0.39613
 Alpha  occ. eigenvalues --   -0.35746  -0.27281  -0.23889
 Alpha virt. eigenvalues --    0.02459   0.07858   0.13670   0.14946   0.16059
 Alpha virt. eigenvalues --    0.20164   0.21354   0.22672   0.36447   0.41812
 Alpha virt. eigenvalues --    0.47242   0.68222   0.69265   0.69922   0.75314
 Alpha virt. eigenvalues --    0.76818   0.79162   0.80857   0.81937   0.83896
 Alpha virt. eigenvalues --    0.92725   0.99339   1.01161   1.06821   1.17096
 Alpha virt. eigenvalues --    1.22225   1.31204   1.36513   1.50875   1.55893
 Alpha virt. eigenvalues --    1.65095   1.75233   1.97850   2.16068   3.15807
     Molecular Orbital Coefficients:
                           1         2         3         4         5
                           O         O         O         O         O
     Eigenvalues --   -19.10294 -10.17809 -10.17384 -10.12659 -10.11831
   1 1   C  1S          0.00012  -0.00013  -0.01107   0.98390   0.06435
   2        2S          0.00046  -0.00001  -0.00609   0.11017   0.00363
   3        2PX        -0.00105   0.00025  -0.00139  -0.00106   0.00048
   4        2PY         0.00086   0.00049   0.00299  -0.00175   0.00036
   5        2PZ         0.00000  -0.00002   0.00001   0.00007   0.00002
   6        3S         -0.00595  -0.01887   0.03883  -0.10668   0.02930
   7        3PX         0.00379  -0.00003   0.00369   0.01682  -0.01876
   8        3PY         0.00729   0.01089  -0.02040   0.02919  -0.00894
   9        3PZ         0.00012   0.00005   0.00018  -0.00041   0.00016
  10 2   C  1S         -0.00053  -0.05638   0.98381   0.01056   0.00130
  11        2S         -0.00109  -0.00941   0.10614  -0.00397  -0.00064
  12        2PX        -0.00173   0.00140  -0.00238   0.00125   0.00023
  13        2PY        -0.00159  -0.00059  -0.00012  -0.00239  -0.00125
  14        2PZ         0.00004   0.00003   0.00010   0.00007   0.00003
  15        3S          0.01767   0.02045  -0.07572   0.04343  -0.00648
  16        3PX        -0.01469  -0.01675   0.01094  -0.01894   0.00410
  17        3PY         0.00026   0.01268  -0.01661   0.02119  -0.00036
  18        3PZ        -0.00036  -0.00030  -0.00018  -0.00041  -0.00004
  19 3   O  1S          0.98275   0.00024   0.00020   0.00007   0.00008
  20        2S          0.10755   0.00158   0.00159   0.00024   0.00034
  21        2PX        -0.00025  -0.00062   0.00068   0.00000   0.00001
  22        2PY         0.00419   0.00057   0.00083  -0.00011  -0.00009
  23        2PZ         0.00012   0.00002   0.00005  -0.00001   0.00003
  24        3S         -0.05974   0.00016   0.00110  -0.00344  -0.00394
  25        3PX         0.00103   0.00133  -0.00030  -0.00218   0.00214
  26        3PY        -0.01341  -0.00301  -0.00314  -0.00154  -0.00199
  27        3PZ        -0.00036  -0.00013  -0.00023   0.00006  -0.00017
  28 4   C  1S         -0.00046   0.98388   0.05527   0.00012   0.00843
  29        2S         -0.00079   0.10628   0.00261  -0.00043  -0.00402
  30        2PX         0.00202   0.00273  -0.00105   0.00000  -0.00089
  31        2PY        -0.00158   0.00001  -0.00058  -0.00093  -0.00239
  32        2PZ        -0.00009  -0.00025  -0.00011   0.00000  -0.00004
  33        3S          0.01830  -0.07460   0.01362  -0.01099   0.04309
  34        3PX         0.01477  -0.00936   0.01472  -0.00418   0.01608
  35        3PY        -0.00069  -0.01785   0.01143  -0.00250   0.02172
  36        3PZ        -0.00028   0.00081   0.00037   0.00009  -0.00017
  37 5   C  1S          0.00012  -0.00872  -0.00104  -0.06499   0.98385
  38        2S          0.00052  -0.00541  -0.00028  -0.01074   0.11028
  39        2PX         0.00100   0.00105  -0.00021  -0.00072   0.00079
  40        2PY         0.00088   0.00292   0.00078   0.00065  -0.00120
  41        2PZ         0.00001  -0.00006   0.00002  -0.00002  -0.00002
  42        3S         -0.00453   0.03656  -0.01553   0.03933  -0.10212
  43        3PX        -0.00567  -0.00277  -0.00327   0.02147  -0.01773
  44        3PY         0.00640  -0.02037   0.01051  -0.01227   0.02801
  45        3PZ        -0.00019   0.00020  -0.00042   0.00004  -0.00026
  46 6   H  1S         -0.00096  -0.00115  -0.00054   0.00026  -0.00532
  47        2S         -0.00333   0.00252  -0.00201   0.00563   0.00528
  48 7   H  1S         -0.00007  -0.00317   0.00114  -0.00002  -0.00004
  49        2S          0.00292   0.00755   0.00718  -0.00009   0.00569
  50 8   H  1S          0.00010   0.00162  -0.00372  -0.00001  -0.00023
  51        2S          0.00359   0.00702   0.00833   0.00654  -0.00021
  52 9   H  1S         -0.00087  -0.00019  -0.00104  -0.00372  -0.00042
  53        2S         -0.00257  -0.00078   0.00250   0.00447   0.00501
                           6         7         8         9        10
                           O         O         O         O         O
     Eigenvalues --    -1.11377  -0.80205  -0.75168  -0.60779  -0.56534
   1 1   C  1S         -0.02924   0.14537  -0.07431   0.10254   0.05666
   2        2S          0.02922  -0.15547   0.08114  -0.10485  -0.05472
   3        2PX        -0.00860   0.04542   0.07036  -0.09740   0.11698
   4        2PY        -0.03555   0.06173  -0.07640   0.02115  -0.12356
   5        2PZ         0.00035  -0.00233   0.00109  -0.00223   0.00021
   6        3S          0.05516  -0.29244   0.14374  -0.35331  -0.19574
   7        3PX        -0.02056   0.01901  -0.01438  -0.02100   0.05034
   8        3PY        -0.04066   0.03184   0.00373   0.04876  -0.03751
   9        3PZ        -0.00062  -0.00157   0.00059  -0.00211  -0.00081
  10 2   C  1S         -0.07181   0.06057  -0.14709  -0.02157  -0.10647
  11        2S          0.08194  -0.07129   0.15882   0.01735   0.11750
  12        2PX        -0.07863   0.01793  -0.02758  -0.01696   0.13756
  13        2PY        -0.02777  -0.12362   0.01215  -0.21802  -0.00063
  14        2PZ        -0.00019  -0.00046   0.00131   0.00104   0.00690
  15        3S          0.05676  -0.09244   0.36080   0.12692   0.33573
  16        3PX         0.03741   0.00925  -0.02583  -0.02878   0.07344
  17        3PY        -0.01633  -0.03362   0.03612  -0.06011   0.01282
  18        3PZ         0.00171  -0.00018   0.00111   0.00037   0.00525
  19 3   O  1S         -0.20962  -0.09129  -0.00250  -0.01118   0.05606
  20        2S          0.19055   0.08811   0.00208   0.01012  -0.05535
  21        2PX        -0.00900  -0.00935   0.19371   0.25428  -0.00356
  22        2PY         0.11000  -0.02206   0.00336  -0.00849   0.00225
  23        2PZ         0.00309   0.00112  -0.00122  -0.00239   0.00132
  24        3S          0.66681   0.32770   0.00815   0.04442  -0.24167
  25        3PX        -0.00932  -0.00756   0.16020   0.22172  -0.00316
  26        3PY         0.14045  -0.00414   0.00418  -0.00522  -0.00390
  27        3PZ         0.00403   0.00097  -0.00124  -0.00179   0.00145
  28 4   C  1S         -0.07818   0.05207   0.14226   0.03195  -0.11010
  29        2S          0.08803  -0.06205  -0.15431  -0.03074   0.12217
  30        2PX         0.08664  -0.00391  -0.02695  -0.04745  -0.12438
  31        2PY        -0.03030  -0.13365  -0.01423   0.19351   0.01848
  32        2PZ        -0.00314   0.00098   0.00643   0.00366  -0.00493
  33        3S          0.06230  -0.07098  -0.34246  -0.14851   0.34508
  34        3PX        -0.03772  -0.00396  -0.01804  -0.03838  -0.07033
  35        3PY        -0.01115  -0.03186  -0.03655   0.03694   0.01872
  36        3PZ        -0.00092   0.00058   0.00340   0.00201  -0.00474
  37 5   C  1S         -0.02821   0.14623   0.08331  -0.10759   0.04411
  38        2S          0.02822  -0.15559  -0.09002   0.10873  -0.04200
  39        2PX         0.01054  -0.04703   0.05814  -0.11317  -0.11745
  40        2PY        -0.03407   0.05421   0.07005   0.02229  -0.14463
  41        2PZ        -0.00015   0.00051   0.00005  -0.00151   0.00350
  42        3S          0.04585  -0.29999  -0.16797   0.37134  -0.15134
  43        3PX         0.02933  -0.02334  -0.01589  -0.02589  -0.05081
  44        3PY        -0.03570   0.03760  -0.00243  -0.03525  -0.04579
  45        3PZ         0.00124   0.00030   0.00078  -0.00041   0.00247
  46 6   H  1S          0.00916  -0.07166  -0.05190   0.13538  -0.06116
  47        2S          0.01691  -0.01661  -0.01176   0.07174  -0.03673
  48 7   H  1S          0.01392  -0.00977  -0.07449  -0.05074   0.13940
  49        2S         -0.01826   0.00005  -0.02797  -0.03833   0.07614
  50 8   H  1S          0.01348  -0.01609   0.08322   0.05560   0.15651
  51        2S         -0.02124  -0.00235   0.03106   0.04000   0.08409
  52 9   H  1S          0.00767  -0.05918   0.03797  -0.09623  -0.06451
  53        2S          0.01371  -0.01304   0.00878  -0.05474  -0.04011
                          11        12        13        14        15
                           O         O         O         O         O
     Eigenvalues --    -0.54550  -0.44448  -0.43810  -0.43296  -0.39613
   1 1   C  1S         -0.04243   0.01768  -0.03766   0.00183   0.01658
   2        2S          0.03995  -0.02089   0.03729  -0.00703  -0.01795
   3        2PX         0.08741  -0.02811  -0.00957  -0.05883   0.33286
   4        2PY         0.18165   0.04898   0.18702   0.19636   0.07253
   5        2PZ         0.00139   0.09632   0.04477  -0.05753  -0.00062
   6        3S          0.18600  -0.04166   0.14885   0.02805  -0.07505
   7        3PX         0.07076  -0.01411   0.02373  -0.01141   0.22565
   8        3PY         0.10293   0.00965   0.11553   0.08503   0.07247
   9        3PZ         0.00108   0.07058   0.03373  -0.04413   0.00028
  10 2   C  1S         -0.00361  -0.00481   0.04372   0.01956   0.00990
  11        2S          0.00150   0.00340  -0.05130  -0.02621  -0.00962
  12        2PX         0.16118   0.16659  -0.10292   0.20737  -0.04087
  13        2PY        -0.05838  -0.05245  -0.13770  -0.17464   0.06802
  14        2PZ         0.00384   0.15553   0.05956  -0.08755  -0.00836
  15        3S          0.03531   0.01218  -0.13894  -0.07286  -0.02436
  16        3PX         0.10546   0.11958  -0.07042   0.14832  -0.03458
  17        3PY        -0.07908  -0.03795  -0.09358  -0.11993   0.07462
  18        3PZ         0.00310   0.14425   0.05674  -0.08644  -0.00776
  19 3   O  1S         -0.04494   0.00477  -0.00648   0.00031  -0.01229
  20        2S          0.04445  -0.00422   0.00672   0.00080   0.00739
  21        2PX        -0.03746  -0.13461   0.23729  -0.06401   0.00474
  22        2PY        -0.16549   0.00757  -0.04995  -0.02035   0.11280
  23        2PZ        -0.00128   0.29402   0.11893  -0.19143  -0.00661
  24        3S          0.16984  -0.01864   0.01897  -0.00587   0.08094
  25        3PX        -0.03472  -0.12723   0.23113  -0.05432   0.00551
  26        3PY        -0.15186   0.00702  -0.05034  -0.02106   0.11726
  27        3PZ        -0.00147   0.29522   0.12087  -0.19480  -0.00639
  28 4   C  1S          0.00469   0.00501  -0.04204  -0.01450  -0.01305
  29        2S         -0.00804  -0.00247   0.04589   0.02014   0.01872
  30        2PX        -0.13266   0.17012  -0.16249   0.15324   0.10924
  31        2PY        -0.13231   0.02636   0.10560   0.11900   0.17869
  32        2PZ        -0.00334   0.15760   0.06737  -0.10019   0.00235
  33        3S          0.00752  -0.02085   0.14411   0.04812   0.05649
  34        3PX        -0.09368   0.12052  -0.10322   0.10725   0.08498
  35        3PY        -0.11814   0.03367   0.03892   0.07358   0.15684
  36        3PZ        -0.00329   0.14726   0.06187  -0.09589   0.00141
  37 5   C  1S         -0.03115  -0.01867   0.02773  -0.01137   0.01872
  38        2S          0.02689   0.02197  -0.02878   0.01506  -0.01672
  39        2PX        -0.08623   0.03605   0.08157   0.11777  -0.30672
  40        2PY         0.21187  -0.02982  -0.17404  -0.17345  -0.09259
  41        2PZ        -0.00597   0.09510   0.04936  -0.05488   0.00441
  42        3S          0.15794   0.04484  -0.08192   0.02751  -0.10441
  43        3PX        -0.06528   0.02407   0.06380   0.09130  -0.19083
  44        3PY         0.10375  -0.00152  -0.10913  -0.08581  -0.02061
  45        3PZ        -0.00264   0.06779   0.03602  -0.04169   0.00077
  46 6   H  1S          0.14598  -0.00899  -0.16576  -0.12920   0.06547
  47        2S          0.07381  -0.01423  -0.11935  -0.10723   0.04913
  48 7   H  1S          0.08314  -0.11242   0.10443  -0.10256  -0.12524
  49        2S          0.03885  -0.08671   0.08415  -0.09063  -0.11703
  50 8   H  1S          0.08819   0.12434  -0.07258   0.15098  -0.07270
  51        2S          0.03950   0.09442  -0.05476   0.12605  -0.06297
  52 9   H  1S          0.13598  -0.00301   0.14159   0.08200   0.16155
  53        2S          0.07099   0.00537   0.10618   0.07794   0.14528
                          16        17        18        19        20
                           O         O         O         V         V
     Eigenvalues --    -0.35746  -0.27281  -0.23889   0.02459   0.07858
   1 1   C  1S          0.02145  -0.00280  -0.00008  -0.00351   0.00431
   2        2S         -0.02271   0.00321   0.00033   0.00497  -0.00394
   3        2PX        -0.03472   0.00178   0.00333  -0.00352  -0.00511
   4        2PY         0.16229   0.00263  -0.00485   0.00095  -0.00371
   5        2PZ        -0.00281  -0.29322   0.18069  -0.17472   0.33737
   6        3S         -0.14696   0.01395   0.00251  -0.01065  -0.02602
   7        3PX        -0.07472   0.00677   0.00269   0.00270  -0.00562
   8        3PY         0.11362   0.00167  -0.00616   0.03100  -0.02668
   9        3PZ        -0.00390  -0.30654   0.18536  -0.31294   0.66851
  10 2   C  1S         -0.01692   0.00092   0.00314   0.00292  -0.00699
  11        2S          0.02068  -0.00107  -0.00297  -0.00490   0.00583
  12        2PX        -0.04996   0.00364  -0.00953  -0.01488   0.00527
  13        2PY        -0.18937  -0.00184   0.00828   0.00305  -0.01172
  14        2PZ         0.00429  -0.09541   0.32084   0.31503  -0.22234
  15        3S          0.08086  -0.00573  -0.01687   0.00042   0.04489
  16        3PX        -0.02782   0.00381  -0.00943  -0.05659   0.02912
  17        3PY         0.00255  -0.00676   0.00350   0.02460  -0.03992
  18        3PZ         0.00342  -0.04992   0.34055   0.48216  -0.44142
  19 3   O  1S          0.07050   0.00036  -0.00266   0.00037   0.00774
  20        2S         -0.07124  -0.00024   0.00310  -0.00072  -0.00660
  21        2PX         0.01356   0.00564   0.00240   0.00101   0.00652
  22        2PY         0.43051  -0.01307  -0.00846   0.00039  -0.01164
  23        2PZ         0.00653   0.32256   0.02214  -0.28288  -0.00632
  24        3S         -0.26227  -0.00309   0.01007  -0.00202  -0.05398
  25        3PX         0.01337   0.00699   0.00391  -0.00499   0.01208
  26        3PY         0.46489  -0.01418  -0.01085   0.00074  -0.01379
  27        3PZ         0.00796   0.36524   0.02705  -0.39500  -0.00946
  28 4   C  1S         -0.02199  -0.00108   0.00616  -0.00746  -0.01254
  29        2S          0.02612   0.00186  -0.00681   0.00549   0.01050
  30        2PX         0.02847   0.00307  -0.00086  -0.01314   0.00176
  31        2PY        -0.18096   0.00674   0.01235  -0.00620  -0.02060
  32        2PZ        -0.01307  -0.04784  -0.31921   0.32563   0.21840
  33        3S          0.10104   0.00142  -0.02546   0.04369   0.08908
  34        3PX        -0.00446   0.00321   0.00557  -0.04873  -0.02057
  35        3PY         0.01635  -0.00024   0.01035  -0.02669  -0.06125
  36        3PZ        -0.00916  -0.00377  -0.32935   0.49532   0.42554
  37 5   C  1S          0.02762   0.00063   0.00013   0.00585   0.00279
  38        2S         -0.02671  -0.00080   0.00094  -0.00848  -0.00394
  39        2PX         0.02580  -0.00158  -0.00511  -0.00422   0.00829
  40        2PY         0.15687  -0.01594  -0.01334   0.00261  -0.00424
  41        2PZ        -0.01327  -0.26901  -0.21891  -0.17014  -0.33459
  42        3S         -0.19313   0.00429  -0.00686  -0.01208  -0.00151
  43        3PX         0.06444  -0.00194  -0.00743   0.01206   0.02143
  44        3PY         0.11851  -0.01288  -0.00875  -0.03152  -0.03403
  45        3PZ        -0.01104  -0.28626  -0.23146  -0.30233  -0.66133
  46 6   H  1S          0.05187  -0.00365   0.00083   0.00302   0.00903
  47        2S          0.08092  -0.00661  -0.00177   0.02686   0.03444
  48 7   H  1S          0.08343  -0.00278   0.00319  -0.01560  -0.01553
  49        2S          0.08660  -0.00492   0.00530  -0.06220  -0.08761
  50 8   H  1S          0.05683  -0.00176  -0.00069   0.00963  -0.01116
  51        2S          0.06035  -0.00189  -0.00190   0.04398  -0.05870
  52 9   H  1S          0.06753   0.00123   0.00348  -0.00114   0.00833
  53        2S          0.09661   0.00058   0.00407  -0.01358   0.03541
                          21        22        23        24        25
                           V         V         V         V         V
     Eigenvalues --     0.13670   0.14946   0.16059   0.20164   0.21354
   1 1   C  1S          0.04269   0.00205  -0.08082   0.11172   0.02334
   2        2S         -0.02186  -0.00389   0.07362  -0.06976   0.01684
   3        2PX        -0.02901   0.11270  -0.04581  -0.04880   0.11930
   4        2PY        -0.14960   0.11418   0.01931  -0.16330  -0.03658
   5        2PZ         0.00106   0.01160   0.02385  -0.00753  -0.00549
   6        3S         -0.56244   0.05284   0.55679  -1.42821  -0.69185
   7        3PX        -0.11185   0.40204  -0.02659  -0.24626   0.82239
   8        3PY        -0.43437   0.27574   0.37727  -0.75871   0.10150
   9        3PZ         0.00436   0.03138   0.06726  -0.02150  -0.02140
  10 2   C  1S          0.05793   0.03657   0.10558   0.01498   0.07995
  11        2S         -0.03715  -0.03508  -0.08022   0.00146  -0.07234
  12        2PX        -0.12436   0.26028  -0.12686  -0.00322   0.09659
  13        2PY         0.04065   0.11869   0.14236   0.14349   0.12852
  14        2PZ        -0.01229   0.00233  -0.02995   0.00115   0.00140
  15        3S         -0.76341  -0.10648  -1.03080  -0.36569  -0.71628
  16        3PX        -0.31049   0.57057  -0.70446   0.18784   0.04665
  17        3PY         0.10136   0.32457   0.55471   0.43637   0.32792
  18        3PZ        -0.03181   0.00199  -0.08624   0.00596   0.00126
  19 3   O  1S          0.00490  -0.08159  -0.06843  -0.03529  -0.00143
  20        2S         -0.00084   0.05625   0.04796   0.01971  -0.00273
  21        2PX        -0.00300   0.09185  -0.02986   0.06262   0.29558
  22        2PY        -0.04883   0.14699   0.11524   0.04029  -0.01373
  23        2PZ        -0.00543  -0.00846   0.01450   0.00254   0.00046
  24        3S         -0.05825   0.67789   0.56992   0.33331   0.03515
  25        3PX         0.00333   0.17213  -0.08603   0.18919   0.54227
  26        3PY        -0.11637   0.24868   0.18906   0.09951  -0.00728
  27        3PZ        -0.00972  -0.01498   0.02819   0.00363   0.00419
  28 4   C  1S          0.08198   0.07057   0.02432  -0.01556  -0.10859
  29        2S         -0.05685  -0.05154  -0.01828  -0.00749   0.08293
  30        2PX         0.19235   0.08851  -0.20217  -0.14576   0.05638
  31        2PY         0.06808   0.14301   0.06077  -0.03360  -0.08488
  32        2PZ         0.02653   0.03533   0.00428  -0.00211  -0.02027
  33        3S         -0.95129  -0.63706  -0.14888   0.61258   1.10383
  34        3PX         0.54692   0.44931  -0.54289  -0.17060  -0.13572
  35        3PY         0.17831   0.54266   0.18792   0.02602  -0.16912
  36        3PZ         0.06234   0.08755   0.00969  -0.01199  -0.06148
  37 5   C  1S          0.00898  -0.06079   0.03061  -0.08685   0.03465
  38        2S          0.00706   0.05166  -0.02851   0.06374  -0.04751
  39        2PX         0.03124   0.06922  -0.08691   0.04225   0.22642
  40        2PY        -0.12189   0.02822   0.03936   0.16064  -0.01196
  41        2PZ        -0.00654  -0.02582  -0.01047  -0.00667   0.01398
  42        3S         -0.32731   0.47726  -0.19567   1.02619  -0.35573
  43        3PX         0.09493   0.13373  -0.24311  -0.03735   1.30084
  44        3PY        -0.28384   0.29564  -0.03687   0.89295  -0.27742
  45        3PZ        -0.01831  -0.08148  -0.02851  -0.02162   0.04693
  46 6   H  1S          0.06232  -0.03817  -0.03216  -0.04312   0.04598
  47        2S          0.62875  -0.47897  -0.15998  -1.36303   1.37498
  48 7   H  1S          0.08769   0.09418  -0.02108   0.01763   0.01944
  49        2S          1.18678   1.13199  -0.33376  -0.43764  -0.68950
  50 8   H  1S          0.05719  -0.02484   0.10467  -0.01463  -0.02934
  51        2S          0.82793  -0.35786   1.58761   0.26606   0.45049
  52 9   H  1S          0.07753  -0.07697  -0.03891   0.00757  -0.05208
  53        2S          0.87874  -0.70467  -0.62352   1.44535  -0.31389
                          26        27        28        29        30
                           V         V         V         V         V
     Eigenvalues --     0.22672   0.36447   0.41812   0.47242   0.68222
   1 1   C  1S         -0.03122   0.07575  -0.00113  -0.12307  -0.01166
   2        2S          0.01211  -0.02081   0.01569   0.02006  -0.10378
   3        2PX         0.22646   0.11363  -0.25167  -0.09863  -0.42616
   4        2PY         0.01576   0.08812   0.14303  -0.20892   0.35867
   5        2PZ        -0.00054   0.00343  -0.00321  -0.00845  -0.02743
   6        3S          0.74180  -1.48180  -0.51352   3.20798   0.01839
   7        3PX         0.91468  -0.14856  -1.54780  -1.16105   0.34751
   8        3PY        -0.12187   1.39335   1.25232  -2.12267  -0.46380
   9        3PZ         0.01786   0.01835   0.00058   0.01655   0.01995
  10 2   C  1S          0.04419  -0.08250  -0.02423   0.09729  -0.03211
  11        2S         -0.02031   0.01181  -0.00984  -0.02603  -0.07668
  12        2PX        -0.15969  -0.16658   0.07454   0.26889  -0.33453
  13        2PY        -0.07596   0.17859   0.18876   0.11113  -0.46700
  14        2PZ        -0.00276  -0.01157  -0.00298   0.00953  -0.01538
  15        3S         -0.91164   1.60715   1.13625  -2.06167  -0.19612
  16        3PX        -0.49843  -1.06942   0.14105   1.37998   0.32190
  17        3PY        -0.49860   0.96960   1.63569  -1.61792   0.59534
  18        3PZ        -0.01532  -0.03696  -0.01086   0.02443   0.01666
  19 3   O  1S          0.07995   0.04685   0.01461  -0.00002   0.02280
  20        2S         -0.03653  -0.01877  -0.00523   0.00071  -0.08808
  21        2PX         0.10131  -0.04744   0.26597   0.16592  -0.03876
  22        2PY        -0.05104  -0.14629  -0.01964  -0.00784  -0.21428
  23        2PZ        -0.00722   0.00053  -0.00306  -0.00247  -0.00291
  24        3S         -0.83833  -0.59713  -0.20268   0.00113   0.27152
  25        3PX         0.22278  -0.11264   0.67115   0.24470   0.05458
  26        3PY        -0.19114  -0.46275  -0.07681  -0.02037  -0.08426
  27        3PZ        -0.01584   0.00002  -0.00994  -0.00656   0.00010
  28 4   C  1S         -0.02208  -0.08034  -0.00421  -0.09819  -0.05117
  29        2S          0.02439   0.00594   0.00138   0.02830  -0.00320
  30        2PX         0.18254   0.11682   0.11755   0.24243   0.22723
  31        2PY        -0.15547   0.25606  -0.13646  -0.08010  -0.14375
  32        2PZ        -0.00300   0.00446  -0.00529   0.00826  -0.00383
  33        3S          0.01748   1.74042  -0.48536   2.18133   0.37822
  34        3PX         0.61023   0.82225   0.61783   1.18050   0.06438
  35        3PY        -0.65658   1.37766  -1.30563   1.70813   0.66612
  36        3PZ        -0.00161  -0.00969  -0.01616  -0.02089  -0.00957
  37 5   C  1S         -0.08934   0.07309   0.02432   0.12537   0.04074
  38        2S          0.03729  -0.01704  -0.02347  -0.01463  -0.09215
  39        2PX        -0.11352  -0.04947  -0.26661  -0.12569   0.14534
  40        2PY         0.09406   0.11036  -0.11703   0.21908   0.32997
  41        2PZ        -0.00193  -0.00574   0.00692  -0.00732  -0.00755
  42        3S          1.69637  -1.51053   0.04448  -3.02113  -0.40888
  43        3PX        -0.30711   0.26440  -1.41900  -1.36160  -0.11699
  44        3PY         0.29757   1.61783  -0.85732   2.18839   0.12367
[...]
               1          2          3          4          5          6
     1  C    5.237069   0.461337  -0.081312  -0.123597   0.438776  -0.024814
     2  C    0.461337   5.077398   0.283490  -0.147363  -0.119732   0.004936
     3  O   -0.081312   0.283490   8.121448   0.296446  -0.082917   0.002506
     4  C   -0.123597  -0.147363   0.296446   5.067070   0.438748  -0.033522
     5  C    0.438776  -0.119732  -0.082917   0.438748   5.254259   0.394563
     6  H   -0.024814   0.004936   0.002506  -0.033522   0.394563   0.470649
     7  H    0.002729   0.004052  -0.030000   0.380623  -0.035838  -0.000259
     8  H   -0.035300   0.386438  -0.026281   0.003401   0.002344  -0.000022
     9  H    0.378936  -0.031946   0.002369   0.005327  -0.026863  -0.000864
               7          8          9
     1  C    0.002729  -0.035300   0.378936
     2  C    0.004052   0.386438  -0.031946
     3  O   -0.030000  -0.026281   0.002369
     4  C    0.380623   0.003401   0.005327
     5  C   -0.035838   0.002344  -0.026863
     6  H   -0.000259  -0.000022  -0.000864
     7  H    0.465186  -0.000047  -0.000024
     8  H   -0.000047   0.449274  -0.000432
     9  H   -0.000024  -0.000432   0.485873
 Mulliken charges:
               1
     1  C   -0.253824
     2  C    0.081390
     3  O   -0.485749
     4  C    0.112868
     5  C   -0.263340
     6  H    0.186827
     7  H    0.213578
     8  H    0.220625
     9  H    0.187625
 Sum of Mulliken charges =   0.00000
 Mulliken charges with hydrogens summed into heavy atoms:
               1
     1  C   -0.066199
     2  C    0.302015
     3  O   -0.485749
     4  C    0.326445
     5  C   -0.076513
 Electronic spatial extent (au):  <R**2>=            290.4567
 Charge=              0.0000 electrons
 Dipole moment (field-independent basis, Debye):
    X=              0.0094    Y=              0.6943    Z=              0.0125  Tot=              0.6945
 Quadrupole moment (field-independent basis, Debye-Ang):
   XX=            -23.4255   YY=            -28.0649   ZZ=            -31.7192
   XY=              0.0461   XZ=              0.3537   YZ=             -0.0484
 Traceless Quadrupole moment (field-independent basis, Debye-Ang):
   XX=              4.3110   YY=             -0.3284   ZZ=             -3.9827
   XY=              0.0461   XZ=              0.3537   YZ=             -0.0484
 Octapole moment (field-independent basis, Debye-Ang**2):
  XXX=              0.5625  YYY=              1.8311  ZZZ=             -0.1128  XYY=             -0.2757
  XXY=             -4.7732  XXZ=             -0.0071  XZZ=              0.0100  YZZ=             -3.2640
  YYZ=             -0.0606  XYZ=             -0.0904
 Hexadecapole moment (field-independent basis, Debye-Ang**3):
 XXXX=           -159.9523 YYYY=           -155.1507 ZZZZ=            -30.7834 XXXY=             -1.1831
 XXXZ=              1.6509 YYYX=              0.5591 YYYZ=             -0.0561 ZZZX=              0.4034
 ZZZY=              0.0641 XXYY=            -45.1126 XXZZ=            -39.7437 YYZZ=            -33.7317
 XXYZ=              0.0008 YYXZ=              0.5858 ZZXY=             -0.2716
 N-N= 1.607645352964D+02 E-N=-8.542237541092D+02  KE= 2.269718952861D+02
 Orbital energies and kinetic energies (alpha):
                                 1                 2
   1         O               -19.102940         28.829166
   2         O               -10.178085         15.801410
   3         O               -10.173842         15.799767
   4         O               -10.126591         15.805738
   5         O               -10.118310         15.803447
   6         O                -1.113769          2.490811
   7         O                -0.802048          1.811104
   8         O                -0.751678          1.791587
   9         O                -0.607795          1.661081
  10         O                -0.565342          1.453544
  11         O                -0.545496          1.227340
  12         O                -0.444485          1.504075
  13         O                -0.438097          1.568003
  14         O                -0.432961          1.414987
  15         O                -0.396130          1.378319
  16         O                -0.357461          2.337055
  17         O                -0.272809          1.588653
  18         O                -0.238888          1.219862
  19         V                 0.024592          1.811558
  20         V                 0.078575          1.495302
  21         V                 0.136698          1.108042
  22         V                 0.149460          1.706050
  23         V                 0.160587          1.559250
  24         V                 0.201638          1.350003
  25         V                 0.213540          1.931327
  26         V                 0.226724          1.622050
  27         V                 0.364472          1.897006
  28         V                 0.418118          1.965145
  29         V                 0.472421          2.578558
  30         V                 0.682225          2.578555
  31         V                 0.692649          2.697584
  32         V                 0.699216          2.497127
  33         V                 0.753139          2.566384
  34         V                 0.768177          2.505480
  35         V                 0.791617          2.609820
  36         V                 0.808567          2.629214
  37         V                 0.819372          2.581230
  38         V                 0.838961          2.599746
  39         V                 0.927255          2.790340
  40         V                 0.993394          3.182864
  41         V                 1.011613          3.254984
  42         V                 1.068207          3.220472
  43         V                 1.170961          2.745996
  44         V                 1.222254          2.859462
  45         V                 1.312045          2.536513
  46         V                 1.365128          2.958540
  47         V                 1.508752          4.943376
  48         V                 1.558934          3.321963
  49         V                 1.650949          3.872846
  50         V                 1.752327          4.324720
  51         V                 1.978502          4.166588
  52         V                 2.160678          4.240642
  53         V                 3.158067          6.822425
 Total kinetic energy from orbitals= 2.269718952861D+02
 No NMR shielding tensors so no spin-rotation constants.
 Leave Link  601 at Tue Dec 15 16:27:19 2015, MaxMem=    33554432 cpu:         0.1
 (Enter /home/Applications/g09/g09/l701.exe)
 Compute integral first derivatives.
 ... and contract with generalized density number  6.
 Leave Link  701 at Tue Dec 15 16:27:19 2015, MaxMem=    33554432 cpu:         0.1
 (Enter /home/Applications/g09/g09/l702.exe)
 L702 exits ... SP integral derivatives will be done elsewhere.
 Leave Link  702 at Tue Dec 15 16:27:19 2015, MaxMem=    33554432 cpu:         0.0
 (Enter /home/Applications/g09/g09/l703.exe)
 Compute integral first derivatives, UseDBF=F ICtDFT=           0.
 Integral derivatives from FoFJK, PRISM(SPDF).
 Calling FoFJK, ICntrl=  10005127 FMM=F ISym2X=0 I1Cent= 0 IOpClX= 0 NMat=1 NMatS=1 NMatT=0.
 FoFJK:  IHMeth= 1 ICntrl=10005127 DoSepK=F KAlg= 0 I1Cent=   0 FoldK=F
 IRaf=         0 NMat=   1 IRICut=       1 DoRegI=T DoRafI=F ISym2E= 0.
 FoFCou: FMM=F IPFlag=           0 FMFlag=      100000 FMFlg1=         800
         NFxFlg=           0 DoJE=F BraDBF=F KetDBF=F FulRan=T
         wScrn=  0.000000 ICntrl=10005127 IOpCl=  0 I1Cent=           0 NGrid=           0
         NMat0=    1 NMatS0=      1 NMatT0=    0 NMatD0=    1 NMtDS0=    0 NMtDT0=    0
 Symmetry not used in FoFCou.
 Leave Link  703 at Tue Dec 15 16:27:21 2015, MaxMem=    33554432 cpu:         1.7
 (Enter /home/Applications/g09/g09/l716.exe)
 Dipole        =-2.70173098D-01 3.61063488D-01 4.65984733D-03
 ***** Axes restored to original set *****
 -------------------------------------------------------------------
 Center     Atomic                   Forces (Hartrees/Bohr)
 Number     Number              X              Y              Z
 -------------------------------------------------------------------
      1        6           0.113433214   -0.002948207   -0.001780620
      2        6          -0.078712830   -0.061240653   -0.000653799
      3        8          -0.050657399    0.007427483   -0.000479387
      4        6          -0.096341067    0.085890238    0.003476803
      5        6           0.013165765   -0.058276202    0.000883975
      6        1           0.067587084    0.047235543   -0.003203760
      7        1           0.020692384   -0.019031806    0.001046008
      8        1           0.007328699    0.001032979    0.000480189
      9        1           0.003504151   -0.000089374    0.000230590
 -------------------------------------------------------------------
 Cartesian Forces:  Max     0.113433214 RMS     0.044454070
 Z-matrix is all fixed cartesians, so copy forces.
 Force constants in Cartesian coordinates: 
                1             2             3             4             5 
      1  0.965392D+00
      2 -0.524709D-02  0.754230D+00
      3 -0.267431D-02  0.399478D-02  0.205016D+00
      4 -0.552648D+00 -0.127102D+00  0.291433D-02  0.959777D+00
      5 -0.103652D+00 -0.231240D+00  0.297718D-04  0.760435D-01  0.853006D+00
      6  0.633968D-02  0.148460D-02 -0.117650D+00 -0.150132D-01 -0.101899D-01
      7 -0.914758D-02  0.292517D-01  0.178414D-03 -0.255866D+00  0.141220D+00
      8 -0.653786D-02  0.209162D-01  0.308398D-03  0.184870D+00 -0.339207D+00
      9  0.185844D-03 -0.471748D-03  0.558324D-02  0.345710D-02 -0.319771D-02
     10  0.934342D-02 -0.169204D-03 -0.461284D-03  0.239643D-01  0.171249D-01
     11  0.341156D-01 -0.612138D-03 -0.209785D-02 -0.179752D-01 -0.128448D-01
     12  0.877122D-03 -0.654877D-04 -0.648494D-03 -0.235208D-03 -0.118982D-03
     13 -0.161395D+00  0.692968D-02  0.176530D-02  0.106367D-01 -0.340441D-01
     14 -0.140783D-01 -0.353972D+00 -0.678417D-02 -0.212559D-03  0.661262D-03
     15  0.141086D-02 -0.751000D-02 -0.723084D-01  0.191871D-03 -0.225799D-03
     16  0.186979D-01 -0.354403D-03 -0.338121D-03  0.352143D-05 -0.458201D-05
     17 -0.243511D-01  0.441392D-03  0.134736D-02 -0.131316D-05  0.170866D-05
     18 -0.144213D-02 -0.319357D-03  0.156220D-01  0.560062D-04 -0.728741D-04
     19  0.808175D-05 -0.843515D-05  0.372417D-03  0.713998D-05  0.806117D-05
     20  0.136493D-04 -0.142462D-04  0.628977D-03 -0.125630D-05 -0.141839D-05
     21  0.156127D-03 -0.162954D-03  0.719451D-02 -0.985193D-04 -0.111230D-03
     22  0.802028D-02 -0.255872D-01  0.168147D-02 -0.180297D+00 -0.114508D+00
     23 -0.475608D-02  0.152425D-01  0.110385D-02 -0.108082D+00 -0.294483D+00
     24  0.888441D-04  0.919318D-03  0.365973D-01  0.870112D-02  0.129482D-01
     25 -0.278271D+00  0.122287D+00 -0.343822D-02 -0.557627D-02  0.178121D-01
     26  0.124493D+00 -0.204991D+00  0.146888D-02 -0.754037D-02  0.241076D-01
     27 -0.494204D-02  0.213086D-02 -0.794069D-01  0.264795D-04  0.938487D-03
                6             7             8             9            10 
      6  0.216066D+00
      7  0.126207D-02  0.520898D+00
      8 -0.137121D-02  0.281314D-01  0.685922D+00
      9 -0.453992D-01  0.909677D-02  0.145311D-01  0.560130D-01
     10  0.134753D-02 -0.288644D+00 -0.212284D+00 -0.137594D-01  0.963996D+00
     11 -0.108020D-02 -0.168837D+00 -0.371746D+00 -0.143386D-01 -0.142328D-01
     12  0.308592D-04 -0.975735D-02 -0.126446D-01 -0.466847D-01  0.463077D-02
     13 -0.130419D-02 -0.811077D-02  0.606582D-02  0.410125D-03 -0.539454D+00
     14  0.193426D-03 -0.295177D-01  0.221232D-01  0.794388D-03  0.109820D+00
     15 -0.267466D-02 -0.176313D-02  0.846577D-03  0.621733D-02  0.157195D-01
     16  0.203055D-03  0.354583D-05 -0.134319D-04  0.258699D-03 -0.536724D-02
     17 -0.757204D-04  0.177928D-05 -0.674005D-05  0.129814D-03  0.705889D-02
     18  0.322946D-02  0.109725D-03 -0.415645D-03  0.800538D-02  0.159879D-02
     19 -0.322309D-03  0.200584D-01 -0.151244D-01  0.172409D-02 -0.163833D+00
     20  0.567112D-04  0.121176D-01 -0.914613D-02  0.126282D-02  0.926858D-01
     21  0.444731D-02  0.109140D-02 -0.986542D-03  0.402323D-02 -0.905081D-02
     22  0.798432D-02  0.208082D-01  0.148922D-01 -0.139221D-02 -0.433632D-05
     23  0.110001D-01 -0.123697D-01 -0.885541D-02  0.111097D-02 -0.231950D-05
     24 -0.891668D-01 -0.296250D-03 -0.257259D-03  0.495300D-02 -0.852012D-04
     25 -0.496985D-03  0.000000D+00  0.000000D+00  0.189940D-04 -0.189759D-05
     26 -0.178448D-04  0.192332D-05  0.000000D+00  0.178938D-03 -0.130094D-05
     27  0.311162D-01  0.783439D-04 -0.108162D-04  0.728877D-02  0.601747D-04
               11            12            13            14            15 
     11  0.837776D+00
     12  0.783544D-02  0.203598D+00
     13  0.874486D-01  0.100111D-01  0.103531D+01
     14 -0.219991D+00 -0.382438D-02  0.862724D-01  0.806656D+00
     15 -0.602136D-02 -0.114207D+00 -0.269304D-01  0.334115D-02  0.216008D+00
     16 -0.198190D-01  0.163833D-02 -0.360528D+00 -0.176639D+00  0.126485D-01
     17  0.258799D-01 -0.335822D-03 -0.179555D+00 -0.269809D+00  0.740515D-02
     18  0.271029D-02  0.307873D-01  0.139011D-01  0.750583D-02 -0.898985D-01
     19  0.993023D-01 -0.727310D-02  0.670275D-02  0.246838D-01 -0.139181D-02
     20 -0.258461D+00  0.910906D-02  0.407135D-02  0.147974D-01  0.107283D-02
     21  0.131512D-01 -0.794954D-01  0.757382D-03 -0.689039D-03  0.339074D-01
     22 -0.489579D-05  0.195748D-03 -0.135511D-05  0.176324D-05 -0.781393D-04
     23 -0.261876D-05  0.104705D-03  0.905689D-05 -0.117846D-04  0.522244D-03
     24 -0.961938D-04  0.384611D-02  0.143677D-03 -0.186950D-03  0.828480D-02
     25  0.198056D-05 -0.874431D-04  0.168419D-01 -0.330280D-03  0.192811D-03
     26  0.135783D-05 -0.599488D-04  0.228019D-01 -0.454010D-03  0.569214D-03
     27 -0.628061D-04  0.277293D-02  0.124587D-02 -0.350250D-03  0.146711D-01
               16            17            18            19            20 
     16  0.347202D+00
     17  0.196861D+00  0.243513D+00
     18 -0.136954D-01 -0.836868D-02  0.499672D-01
     19 -0.218219D-04 -0.109501D-04 -0.675273D-03  0.137079D+00
     20 -0.368552D-04 -0.184938D-04 -0.114047D-02 -0.108850D+00  0.252844D+00
     21 -0.421565D-03 -0.211540D-03 -0.130452D-01  0.756599D-02 -0.109899D-01
     22  0.000000D+00  0.000000D+00  0.000000D+00  0.000000D+00  0.000000D+00
     23  0.000000D+00  0.000000D+00  0.000000D+00  0.000000D+00  0.000000D+00
     24  0.000000D+00  0.000000D+00  0.000000D+00  0.000000D+00  0.000000D+00
     25  0.925470D-05 -0.345113D-05  0.147190D-03  0.000000D+00  0.000000D+00
     26  0.634479D-05 -0.236601D-05  0.100910D-03  0.000000D+00  0.000000D+00
     27 -0.293478D-03  0.109440D-03 -0.466758D-02  0.000000D+00  0.000000D+00
               21            22            23            24            25 
     21  0.429681D-01
     22  0.000000D+00  0.151474D+00
     23  0.000000D+00  0.125203D+00  0.288131D+00
     24  0.000000D+00 -0.851734D-02 -0.129988D-01  0.488607D-01
     25  0.000000D+00  0.000000D+00 -0.219710D-05 -0.348544D-04  0.266998D+00
     26  0.000000D+00  0.309692D-05 -0.206983D-04 -0.328354D-03 -0.139765D+00
     27  0.000000D+00  0.126149D-03 -0.843114D-03 -0.133751D-01  0.369851D-02
               26            27 
     26  0.181359D+00
     27 -0.191180D-02  0.416005D-01
 Leave Link  716 at Tue Dec 15 16:27:21 2015, MaxMem=    33554432 cpu:         0.0
 (Enter /home/Applications/g09/g09/l103.exe)

 GradGradGradGradGradGradGradGradGradGradGradGradGradGradGradGradGradGrad
 Berny optimization.
 Search for a local minimum.
 Step number   1 out of a maximum of    2
 All quantities printed in internal units (Hartrees-Bohrs-Radians)
 Second derivative matrix not updated -- first step.
 ITU=  0
     Eigenvalues ---    0.01802   0.02995   0.07042   0.07476   0.08163
     Eigenvalues ---    0.08702   0.12835   0.13001   0.16144   0.22973
     Eigenvalues ---    0.27558   0.33421   0.40716   0.42643   0.62289
     Eigenvalues ---    0.87585   1.07880   1.34142   1.36224   1.62548
     Eigenvalues ---    1.73266
 Quadratic step=3.921D-01 exceeds max=3.000D-01 adjusted using Lamda=-9.283D-02.
 Angle between NR and scaled steps=   7.84 degrees.
 Angle between quadratic step and forces=  37.34 degrees.
 Linear search not attempted -- first point.
 TrRot= -0.020062 -0.001630 -0.000063  1.239841 -0.000466 -1.239294
 Variable       Old X    -DE/DX   Delta X   Delta X   Delta X     New X
                                 (Linear)    (Quad)   (Total)
    X1        1.81743   0.11343   0.00000   0.11275   0.09350   1.91093
    Y1       -1.39791  -0.00295   0.00000  -0.04673  -0.04727  -1.44517
    Z1       -0.09002  -0.00178   0.00000  -0.00338  -0.00378  -0.09381
    X2       -0.58523  -0.07871   0.00000  -0.04626  -0.06511  -0.65034
    Y2       -2.14940  -0.06124   0.00000  -0.04958  -0.05152  -2.20092
    Z2       -0.06531  -0.00065   0.00000  -0.00421  -0.00533  -0.07065
    X3       -2.11808  -0.05066   0.00000  -0.10747  -0.12753  -2.24561
    Y3       -0.00578   0.00743   0.00000   0.01741   0.01458   0.00880
    Z3       -0.04566  -0.00048   0.00000   0.00066   0.00027  -0.04539
    X4       -0.57406  -0.09634   0.00000  -0.09202  -0.11325  -0.68731
    Y4        2.05171   0.08589   0.00000   0.07634   0.07432   2.12603
    Z4        0.04001   0.00348   0.00000   0.00571   0.00648   0.04649
    X5        1.87128   0.01317   0.00000   0.03664   0.01583   1.88711
    Y5        1.38384  -0.05828   0.00000  -0.01044  -0.01102   1.37282
    Z5       -0.02819   0.00088   0.00000   0.00101   0.00184  -0.02634
    X6        3.34860   0.06759   0.00000   0.14839   0.12692   3.47553
    Y6        2.52212   0.04724   0.00000   0.06875   0.06907   2.59120
    Z6       -0.09439  -0.00320   0.00000  -0.00696  -0.00535  -0.09974
    X7       -1.66002   0.02069   0.00000   0.02581   0.00363  -1.65639
    Y7        3.85848  -0.01903   0.00000   0.03926   0.03677   3.89525
    Z7       -0.06174   0.00105   0.00000  -0.00102   0.00038  -0.06135
    X8       -1.62320   0.00733   0.00000   0.00068  -0.01723  -1.64044
    Y8       -3.89787   0.00103   0.00000  -0.04809  -0.05062  -3.94849
    Z8        0.03511   0.00048   0.00000   0.00546   0.00341   0.03852
    X9        3.44538   0.00350   0.00000   0.10185   0.08324   3.52861
    Y9       -2.60172  -0.00009   0.00000  -0.03466  -0.03432  -2.63604
    Z9       -0.06471   0.00023   0.00000   0.00277   0.00208  -0.06263
         Item               Value     Threshold  Converged?
 Maximum Force            0.113433     0.000450     NO 
 RMS     Force            0.044454     0.000300     NO 
 Maximum Displacement     0.127531     0.001800     NO 
 RMS     Displacement     0.056572     0.001200     NO 
 Predicted change in Energy=-3.174301D-02
 GradGradGradGradGradGradGradGradGradGradGradGradGradGradGradGradGradGrad

 Leave Link  103 at Tue Dec 15 16:27:21 2015, MaxMem=    33554432 cpu:         0.0
 (Enter /home/Applications/g09/g09/l9999.exe)
 1\1\GINC-DUSTIN-DESKTOP\Force\RB3LYP-FC\3-21G\C4H4O1\DUSTIN\15-Dec-201
 5\0\\#P B3LYP/3-21G CIS(Singlets,NStates=15) pop(full) force\\FuranDFT
 \\0,1\C,0.961744,-0.739741,-0.047639\C,-0.309693,-1.137412,-0.034563\O
 ,-1.12084,-0.003057,-0.024161\C,-0.303778,1.085716,0.02117\C,0.990237,
 0.732298,-0.014916\H,1.772004,1.33465,-0.049947\H,-0.878447,2.041822,-
 0.03267\H,-0.858963,-2.062664,0.018581\H,1.823216,-1.376771,-0.034245\
 \Version=ES64L-G09RevD.01\State=1-A\HF=-228.741338\RMSD=8.829e-09\RMSF
 =4.445e-02\Dipole=0.368988,0.2592438,0.0047496\PG=C01 [X(C4H4O1)]\\@


 WHEN ALL ELSE FAILS, TRY THE BOSS'S SUGGESTION.
 Job cpu time:       0 days  0 hours  0 minutes 50.5 seconds.
 File lengths (MBytes):  RWF=     14 Int=      0 D2E=      0 Chk=      3 Scr=      1
 Normal termination of Gaussian 09 at Tue Dec 15 16:27:21 2015.
