 Entering Gaussian System, Link 0=g09
 Input=FuranDFT.com
 Output=FuranDFT.log
 Initial command:
 /home/Applications/g09/g09/l1.exe "/home/Applications/g09/scratch/Gau-12848.inp" -scrdir="/home/Applications/g09/scratch/"
 Entering Link 1 = /home/Applications/g09/g09/l1.exe PID=     12850.
  
 Copyright (c) 1988,1990,1992,1993,1995,1998,2003,2009,2013,
            Gaussian, Inc.  All Rights Reserved.
  
 This is part of the Gaussian(R) 09 program.  It is based on
 the Gaussian(R) 03 system (copyright 2003, Gaussian, Inc.),
 the Gaussian(R) 98 system (copyright 1998, Gaussian, Inc.),
 the Gaussian(R) 94 system (copyright 1995, Gaussian, Inc.),
 the Gaussian 92(TM) system (copyright 1992, Gaussian, Inc.),
 the Gaussian 90(TM) system (copyright 1990, Gaussian, Inc.),
 the Gaussian 88(TM) system (copyright 1988, Gaussian, Inc.),
 the Gaussian 86(TM) system (copyright 1986, Carnegie Mellon
 University), and the Gaussian 82(TM) system (copyright 1983,
 Carnegie Mellon University). Gaussian is a federally registered
 trademark of Gaussian, Inc.
  
 This software contains proprietary and confidential information,
 including trade secrets, belonging to Gaussian, Inc.
  
 This software is provided under written license and may be
 used, copied, transmitted, or stored only in accord with that
 written license.
  
 The following legend is applicable only to US Government
 contracts under FAR:
  
                    RESTRICTED RIGHTS LEGEND
  
 Use, reproduction and disclosure by the US Government is
 subject to restrictions as set forth in subparagraphs (a)
 and (c) of the Commercial Computer Software - Restricted
 Rights clause in FAR 52.227-19.
  
 Gaussian, Inc.
 340 Quinnipiac St., Bldg. 40, Wallingford CT 06492
  
  
 ---------------------------------------------------------------
 Warning -- This program may not be used in any manner that
 competes with the business of Gaussian, Inc. or will provide
 assistance to any competitor of Gaussian, Inc.  The licensee
 of this program is prohibited from giving any competitor of
 Gaussian, Inc. access to this program.  By using this program,
 the user acknowledges that Gaussian, Inc. is engaged in the
 business of creating and licensing software in the field of
 computational chemistry and represents and warrants to the
 licensee that it is not a competitor of Gaussian, Inc. and that
 it will not use this program in any manner prohibited above.
 ---------------------------------------------------------------
  

 Cite this work as:
 Gaussian 09, Revision D.01,
 M. J. Frisch, G. W. Trucks, H. B. Schlegel, G. E. Scuseria, 
 M. A. Robb, J. R. Cheeseman, G. Scalmani, V. Barone, B. Mennucci, 
 G. A. Petersson, H. Nakatsuji, M. Caricato, X. Li, H. P. Hratchian, 
 A. F. Izmaylov, J. Bloino, G. Zheng, J. L. Sonnenberg, M. Hada, 
 M. Ehara, K. Toyota, R. Fukuda, J. Hasegawa, M. Ishida, T. Nakajima, 
 Y. Honda, O. Kitao, H. Nakai, T. Vreven, J. A. Montgomery, Jr., 
 J. E. Peralta, F. Ogliaro, M. Bearpark, J. J. Heyd, E. Brothers, 
 K. N. Kudin, V. N. Staroverov, T. Keith, R. Kobayashi, J. Normand, 
 K. Raghavachari, A. Rendell, J. C. Burant, S. S. Iyengar, J. Tomasi, 
 M. Cossi, N. Rega, J. M. Millam, M. Klene, J. E. Knox, J. B. Cross, 
 V. Bakken, C. Adamo, J. Jaramillo, R. Gomperts, R. E. Stratmann, 
 O. Yazyev, A. J. Austin, R. Cammi, C. Pomelli, J. W. Ochterski, 
 R. L. Martin, K. Morokuma, V. G. Zakrzewski, G. A. Voth, 
 P. Salvador, J. J. Dannenberg, S. Dapprich, A. D. Daniels, 
 O. Farkas, J. B. Foresman, J. V. Ortiz, J. Cioslowski, 
 and D. J. Fox, Gaussian, Inc., Wallingford CT, 2013.
 
 ******************************************
 Gaussian 09:  ES64L-G09RevD.01 24-Apr-2013
                 6-Oct-2015 
 ******************************************
 ---------------------------------------------------------
 #P B3LYP/cc-pVTZ CIS(Singlets,NStates=15) pop(full) force
 ---------------------------------------------------------
 1/10=7,30=1,38=1/1,3;
 2/12=2,17=6,18=5,40=1/2;
 3/5=16,6=1,11=9,16=1,25=1,30=1,71=1,74=-5/1,2,8,3;
 4//1;
 5/5=2,38=5/2;
 8/6=1,10=1,108=15/1;
 9/15=2,41=15,42=1,48=1/14;
 10/5=4/2;
 6/7=3,18=1/1;
 7/12=6,13=5,29=1/1,2,3,16;
 1/10=7,30=1/3;
 99//99;
 Leave Link    1 at Tue Oct  6 11:23:30 2015, MaxMem=           0 cpu:         0.0
 (Enter /home/Applications/g09/g09/l101.exe)
 --------
 FuranDFT
 --------
 Symbolic Z-matrix:
 Charge =  0 Multiplicity = 1
 6                     0.95548  -0.71596   0. 
 6                    -0.34563  -1.09282   0. 
 8                    -1.15731   0.        0. 
 6                    -0.34563   1.09282   0. 
 6                     0.95548   0.71596   0. 
 1                     1.81044   1.36938   0. 
 1                    -0.84031   2.04688   0. 
 1                    -0.84031  -2.04688   0. 
 1                     1.81044  -1.36938   0. 
 
 NAtoms=      9 NQM=        9 NQMF=       0 NMMI=      0 NMMIF=      0
                NMic=       0 NMicF=      0.
                    Isotopes and Nuclear Properties:
 (Nuclear quadrupole moments (NQMom) in fm**2, nuclear magnetic moments (NMagM)
  in nuclear magnetons)

  Atom         1           2           3           4           5           6           7           8           9
 IAtWgt=          12          12          16          12          12           1           1           1           1
 AtmWgt=  12.0000000  12.0000000  15.9949146  12.0000000  12.0000000   1.0078250   1.0078250   1.0078250   1.0078250
 NucSpn=           0           0           0           0           0           1           1           1           1
 AtZEff=   0.0000000   0.0000000   0.0000000   0.0000000   0.0000000   0.0000000   0.0000000   0.0000000   0.0000000
 NQMom=    0.0000000   0.0000000   0.0000000   0.0000000   0.0000000   0.0000000   0.0000000   0.0000000   0.0000000
 NMagM=    0.0000000   0.0000000   0.0000000   0.0000000   0.0000000   2.7928460   2.7928460   2.7928460   2.7928460
 AtZNuc=   6.0000000   6.0000000   8.0000000   6.0000000   6.0000000   1.0000000   1.0000000   1.0000000   1.0000000
 Leave Link  101 at Tue Oct  6 11:23:30 2015, MaxMem=    33554432 cpu:         0.0
 (Enter /home/Applications/g09/g09/l103.exe)

 GradGradGradGradGradGradGradGradGradGradGradGradGradGradGradGradGradGrad
 Berny optimization.
 Initialization pass.
 Trust Radius=3.00D-01 FncErr=1.00D-07 GrdErr=1.00D-07
 Number of steps in this run=      2 maximum allowed number of steps=      2.
 GradGradGradGradGradGradGradGradGradGradGradGradGradGradGradGradGradGrad

 Leave Link  103 at Tue Oct  6 11:23:30 2015, MaxMem=    33554432 cpu:         0.0
 (Enter /home/Applications/g09/g09/l202.exe)
                          Input orientation:                          
 ---------------------------------------------------------------------
 Center     Atomic      Atomic             Coordinates (Angstroms)
 Number     Number       Type             X           Y           Z
 ---------------------------------------------------------------------
      1          6           0        0.955475   -0.715963    0.000000
      2          6           0       -0.345627   -1.092818    0.000000
      3          8           0       -1.157305    0.000000    0.000000
      4          6           0       -0.345627    1.092818    0.000000
      5          6           0        0.955475    0.715963    0.000000
      6          1           0        1.810438    1.369382    0.000000
      7          1           0       -0.840307    2.046884    0.000000
      8          1           0       -0.840307   -2.046884    0.000000
      9          1           0        1.810438   -1.369382    0.000000
 ---------------------------------------------------------------------
                    Distance matrix (angstroms):
                    1          2          3          4          5
     1  C    0.000000
     2  C    1.354580   0.000000
     3  O    2.230794   1.361276   0.000000
     4  C    2.228128   2.185636   1.361276   0.000000
     5  C    1.431926   2.228128   2.230794   1.354580   0.000000
     6  H    2.253802   3.272773   3.268441   2.173730   1.076066
     7  H    3.295172   3.178433   2.071285   1.074686   2.235214
     8  H    2.235214   1.074686   2.071285   3.178433   3.295172
     9  H    1.076066   2.173730   3.268441   3.272773   2.253802
                    6          7          8          9
     6  H    0.000000
     7  H    2.735957   0.000000
     8  H    4.324040   4.093768   0.000000
     9  H    2.738764   4.324040   2.735957   0.000000
 Stoichiometry    C4H4O
 Framework group  C2V[C2(O),SGV(C4H4)]
 Deg. of freedom     8
 Full point group                 C2V     NOp   4
 Largest Abelian subgroup         C2V     NOp   4
 Largest concise Abelian subgroup C2      NOp   2
                         Standard orientation:                         
 ---------------------------------------------------------------------
 Center     Atomic      Atomic             Coordinates (Angstroms)
 Number     Number       Type             X           Y           Z
 ---------------------------------------------------------------------
      1          6           0        0.000000    0.715963   -0.955475
      2          6           0        0.000000    1.092818    0.345627
      3          8           0        0.000000    0.000000    1.157305
      4          6           0        0.000000   -1.092818    0.345627
      5          6           0        0.000000   -0.715963   -0.955475
      6          1           0        0.000000   -1.369382   -1.810438
      7          1           0        0.000000   -2.046884    0.840307
      8          1           0        0.000000    2.046884    0.840307
      9          1           0        0.000000    1.369382   -1.810438
 ---------------------------------------------------------------------
 Rotational constants (GHZ):      9.5015164      9.3284592      4.7070963
 Leave Link  202 at Tue Oct  6 11:23:30 2015, MaxMem=    33554432 cpu:         0.0
 (Enter /home/Applications/g09/g09/l301.exe)
 Standard basis: CC-pVTZ (5D, 7F)
 Ernie: Thresh=  0.10000D-02 Tol=  0.10000D-05 Strict=F.
 Ernie:  15 primitive shells out of 162 were deleted.
 There are    86 symmetry adapted cartesian basis functions of A1  symmetry.
 There are    33 symmetry adapted cartesian basis functions of A2  symmetry.
 There are    38 symmetry adapted cartesian basis functions of B1  symmetry.
 There are    78 symmetry adapted cartesian basis functions of B2  symmetry.
 There are    73 symmetry adapted basis functions of A1  symmetry.
 There are    31 symmetry adapted basis functions of A2  symmetry.
 There are    35 symmetry adapted basis functions of B1  symmetry.
 There are    67 symmetry adapted basis functions of B2  symmetry.
   206 basis functions,   328 primitive gaussians,   235 cartesian basis functions
    18 alpha electrons       18 beta electrons
       nuclear repulsion energy       161.2261194346 Hartrees.
 IExCor=  402 DFT=T Ex+Corr=B3LYP ExCW=0 ScaHFX=  0.200000
 ScaDFX=  0.800000  0.720000  1.000000  0.810000 ScalE2=  1.000000  1.000000
 IRadAn=      0 IRanWt=     -1 IRanGd=            0 ICorTp=0 IEmpDi=  4
 NAtoms=    9 NActive=    9 NUniq=    5 SFac= 3.24D+00 NAtFMM=   60 NAOKFM=F Big=F
 Integral buffers will be    131072 words long.
 Regular integral format.
 Two-electron integral symmetry is turned on.
 Leave Link  301 at Tue Oct  6 11:23:30 2015, MaxMem=    33554432 cpu:         0.0
 (Enter /home/Applications/g09/g09/l302.exe)
 NPDir=0 NMtPBC=     1 NCelOv=     1 NCel=       1 NClECP=     1 NCelD=      1
         NCelK=      1 NCelE2=     1 NClLst=     1 CellRange=     0.0.
 One-electron integrals computed using PRISM.
 One-electron integral symmetry used in STVInt
 NBasis=   206 RedAO= T EigKep=  1.20D-04  NBF=    73    31    35    67
 NBsUse=   206 1.00D-06 EigRej= -1.00D+00 NBFU=    73    31    35    67
 Precomputing XC quadrature grid using
 IXCGrd= 4 IRadAn=           0 IRanWt=          -1 IRanGd=           0 AccXCQ= 0.00D+00.
 Generated NRdTot=       0 NPtTot=           0 NUsed=           0 NTot=          32
 NSgBfM=   235   235   235   235   235 MxSgAt=     9 MxSgA2=     9.
 Leave Link  302 at Tue Oct  6 11:23:31 2015, MaxMem=    33554432 cpu:         0.1
 (Enter /home/Applications/g09/g09/l308.exe)
 Leave Link  308 at Tue Oct  6 11:23:31 2015, MaxMem=    33554432 cpu:         0.0
 (Enter /home/Applications/g09/g09/l303.exe)
 DipDrv:  MaxL=1.
 Leave Link  303 at Tue Oct  6 11:23:31 2015, MaxMem=    33554432 cpu:         0.0
 (Enter /home/Applications/g09/g09/l401.exe)
 ExpMin= 1.03D-01 ExpMax= 1.53D+04 ExpMxC= 5.22D+02 IAcc=1 IRadAn=         1 AccDes= 0.00D+00
 Harris functional with IExCor=  402 and IRadAn=       1 diagonalized for initial guess.
 HarFok:  IExCor=  402 AccDes= 0.00D+00 IRadAn=         1 IDoV= 1 UseB2=F ITyADJ=14
 ICtDFT=  3500011 ScaDFX=  1.000000  1.000000  1.000000  1.000000
 FoFCou: FMM=F IPFlag=           0 FMFlag=      100000 FMFlg1=           0
         NFxFlg=           0 DoJE=T BraDBF=F KetDBF=T FulRan=T
         wScrn=  0.000000 ICntrl=     500 IOpCl=  0 I1Cent=   200000004 NGrid=           0
         NMat0=    1 NMatS0=      1 NMatT0=    0 NMatD0=    1 NMtDS0=    0 NMtDT0=    0
 Petite list used in FoFCou.
 Harris En= -230.130802881576    
 JPrj=0 DoOrth=F DoCkMO=F.
 Initial guess orbital symmetries:
       Occupied  (A1) (A1) (B2) (B2) (A1) (A1) (A1) (B2) (B2) (A1)
                 (A1) (B2) (B2) (B1) (A1) (A1) (B1) (A2)
       Virtual   (B1) (A2) (A1) (A1) (B2) (B2) (A1) (B2) (A1) (A1)
                 (B2) (B1) (B2) (A1) (B2) (A2) (A1) (B1) (B2) (A1)
                 (A2) (B2) (A1) (A1) (B1) (B2) (B2) (A1) (B2) (B1)
                 (A1) (B1) (A2) (B2) (A1) (A2) (B1) (B2) (A1) (B2)
                 (A1) (B1) (A1) (A2) (B2) (A1) (B2) (B1) (B2) (A1)
                 (A2) (A1) (B2) (B1) (A1) (A2) (B2) (B2) (A1) (A1)
                 (A2) (A1) (B2) (B2) (B2) (B1) (A1) (A2) (A1) (B2)
                 (B1) (A2) (A1) (B1) (B2) (A1) (A1) (A2) (B2) (A1)
                 (B2) (B1) (B2) (B1) (A2) (A1) (A1) (B1) (A1) (A1)
                 (B2) (A2) (B1) (A1) (B2) (B2) (A1) (B1) (B2) (A1)
                 (B1) (A2) (B2) (A2) (B2) (A2) (B1) (A1) (A1) (B1)
                 (B2) (A2) (B1) (A1) (A2) (B2) (A1) (B2) (B2) (A1)
                 (B2) (A2) (A1) (A2) (B1) (B2) (A1) (A1) (B2) (B1)
                 (A2) (B1) (A1) (B2) (B1) (A2) (A1) (B1) (B2) (B2)
                 (A1) (A2) (B2) (A1) (A2) (B2) (B2) (A1) (B1) (A1)
                 (A2) (A1) (B2) (B1) (B2) (A1) (A2) (B1) (A1) (B2)
                 (A1) (B2) (A1) (B2) (A2) (B1) (B2) (A1) (B2) (B1)
                 (A2) (A1) (B2) (A1) (B2) (A1) (B2) (B1) (A1) (A2)
                 (B2) (B2) (A1) (A1) (A1) (B2) (A1) (B2)
 The electronic state of the initial guess is 1-A1.
 Leave Link  401 at Tue Oct  6 11:23:31 2015, MaxMem=    33554432 cpu:         0.3
 (Enter /home/Applications/g09/g09/l502.exe)
 Closed shell SCF:
 Using DIIS extrapolation, IDIIS=  1040.
 Integral symmetry usage will be decided dynamically.
 IVT=      187783 IEndB=      187783 NGot=    33554432 MDV=    33438750
 LenX=    33438750 LenY=    33383084
 Requested convergence on RMS density matrix=1.00D-08 within 128 cycles.
 Requested convergence on MAX density matrix=1.00D-06.
 Requested convergence on             energy=1.00D-06.
 No special actions if energy rises.
 Fock matrices will be formed incrementally for  20 cycles.
 Integral accuracy reduced to 1.0D-05 until final iterations.

 Cycle   1  Pass 0  IDiag  1:
 FoFJK:  IHMeth= 1 ICntrl=       0 DoSepK=F KAlg= 0 I1Cent=   0 FoldK=F
 IRaf= 990000000 NMat=   1 IRICut=       1 DoRegI=T DoRafI=F ISym2E= 1.
 FoFCou: FMM=F IPFlag=           0 FMFlag=      100000 FMFlg1=           0
         NFxFlg=           0 DoJE=F BraDBF=F KetDBF=F FulRan=T
         wScrn=  0.000000 ICntrl=       0 IOpCl=  0 I1Cent=           0 NGrid=           0
         NMat0=    1 NMatS0=      1 NMatT0=    0 NMatD0=    1 NMtDS0=    0 NMtDT0=    0
 Petite list used in FoFCou.
 E= -229.981151006382    
 DIIS: error= 2.97D-02 at cycle   1 NSaved=   1.
 NSaved= 1 IEnMin= 1 EnMin= -229.981151006382     IErMin= 1 ErrMin= 2.97D-02
 ErrMax= 2.97D-02  0.00D+00 EMaxC= 1.00D-01 BMatC= 1.36D-01 BMatP= 1.36D-01
 IDIUse=3 WtCom= 7.03D-01 WtEn= 2.97D-01
 Coeff-Com:  0.100D+01
 Coeff-En:   0.100D+01
 Coeff:      0.100D+01
 Gap=     0.219 Goal=   None    Shift=    0.000
 GapD=    0.219 DampG=1.000 DampE=0.500 DampFc=0.5000 IDamp=-1.
 Damping current iteration by 5.00D-01
 RMSDP=2.48D-03 MaxDP=6.75D-02              OVMax= 2.20D-01

 Cycle   2  Pass 0  IDiag  1:
 RMSU=  1.23D-03    CP:  9.91D-01
 E= -230.031025507100     Delta-E=       -0.049874500719 Rises=F Damp=T
 DIIS: error= 1.18D-02 at cycle   2 NSaved=   2.
 NSaved= 2 IEnMin= 2 EnMin= -230.031025507100     IErMin= 2 ErrMin= 1.18D-02
 ErrMax= 1.18D-02  0.00D+00 EMaxC= 1.00D-01 BMatC= 1.30D-02 BMatP= 1.36D-01
 IDIUse=3 WtCom= 8.82D-01 WtEn= 1.18D-01
 Coeff-Com:  0.840D-01 0.916D+00
 Coeff-En:   0.200D+00 0.800D+00
 Coeff:      0.977D-01 0.902D+00
 Gap=     0.235 Goal=   None    Shift=    0.000
 RMSDP=7.83D-04 MaxDP=1.56D-02 DE=-4.99D-02 OVMax= 1.71D-01

 Cycle   3  Pass 0  IDiag  1:
 RMSU=  7.14D-04    CP:  9.92D-01  7.40D-01
 E= -230.095770448552     Delta-E=       -0.064744941451 Rises=F Damp=F
 DIIS: error= 1.70D-02 at cycle   3 NSaved=   3.
 NSaved= 3 IEnMin= 3 EnMin= -230.095770448552     IErMin= 2 ErrMin= 1.18D-02
 ErrMax= 1.70D-02  0.00D+00 EMaxC= 1.00D-01 BMatC= 1.42D-02 BMatP= 1.30D-02
 IDIUse=3 WtCom= 8.30D-01 WtEn= 1.70D-01
 Coeff-Com: -0.223D-01 0.521D+00 0.502D+00
 Coeff-En:   0.000D+00 0.000D+00 0.100D+01
 Coeff:     -0.185D-01 0.432D+00 0.586D+00
 Gap=     0.235 Goal=   None    Shift=    0.000
 RMSDP=5.50D-04 MaxDP=1.50D-02 DE=-6.47D-02 OVMax= 7.27D-02

 Cycle   4  Pass 0  IDiag  1:
 RMSU=  3.23D-04    CP:  9.93D-01  8.34D-01  3.99D-01
 E= -230.103539675935     Delta-E=       -0.007769227383 Rises=F Damp=F
 DIIS: error= 1.07D-02 at cycle   4 NSaved=   4.
 NSaved= 4 IEnMin= 4 EnMin= -230.103539675935     IErMin= 4 ErrMin= 1.07D-02
 ErrMax= 1.07D-02  0.00D+00 EMaxC= 1.00D-01 BMatC= 6.03D-03 BMatP= 1.30D-02
 IDIUse=3 WtCom= 8.93D-01 WtEn= 1.07D-01
 Coeff-Com: -0.189D-01 0.145D+00 0.404D+00 0.470D+00
 Coeff-En:   0.000D+00 0.000D+00 0.325D+00 0.675D+00
 Coeff:     -0.169D-01 0.130D+00 0.395D+00 0.492D+00
 Gap=     0.240 Goal=   None    Shift=    0.000
 RMSDP=2.32D-04 MaxDP=7.39D-03 DE=-7.77D-03 OVMax= 3.01D-02

 Cycle   5  Pass 0  IDiag  1:
 RMSU=  6.13D-05    CP:  9.92D-01  8.15D-01  6.26D-01  5.28D-01
 E= -230.108601159549     Delta-E=       -0.005061483614 Rises=F Damp=F
 DIIS: error= 1.08D-03 at cycle   5 NSaved=   5.
 NSaved= 5 IEnMin= 5 EnMin= -230.108601159549     IErMin= 5 ErrMin= 1.08D-03
 ErrMax= 1.08D-03  0.00D+00 EMaxC= 1.00D-01 BMatC= 1.03D-04 BMatP= 6.03D-03
 IDIUse=3 WtCom= 9.89D-01 WtEn= 1.08D-02
 Coeff-Com: -0.452D-02 0.188D-01 0.126D+00 0.215D+00 0.645D+00
 Coeff-En:   0.000D+00 0.000D+00 0.000D+00 0.000D+00 0.100D+01
 Coeff:     -0.447D-02 0.186D-01 0.125D+00 0.212D+00 0.648D+00
 Gap=     0.239 Goal=   None    Shift=    0.000
 RMSDP=2.73D-05 MaxDP=9.52D-04 DE=-5.06D-03 OVMax= 3.30D-03

 Cycle   6  Pass 0  IDiag  1:
 RMSU=  1.84D-05    CP:  9.92D-01  8.14D-01  6.27D-01  5.58D-01  7.15D-01
 E= -230.108658449378     Delta-E=       -0.000057289829 Rises=F Damp=F
 DIIS: error= 4.08D-04 at cycle   6 NSaved=   6.
 NSaved= 6 IEnMin= 6 EnMin= -230.108658449378     IErMin= 6 ErrMin= 4.08D-04
 ErrMax= 4.08D-04  0.00D+00 EMaxC= 1.00D-01 BMatC= 2.03D-05 BMatP= 1.03D-04
 IDIUse=3 WtCom= 9.96D-01 WtEn= 4.08D-03
 Coeff-Com: -0.158D-02 0.537D-03 0.460D-01 0.940D-01 0.391D+00 0.470D+00
 Coeff-En:   0.000D+00 0.000D+00 0.000D+00 0.000D+00 0.126D+00 0.874D+00
 Coeff:     -0.157D-02 0.535D-03 0.458D-01 0.936D-01 0.390D+00 0.472D+00
 Gap=     0.240 Goal=   None    Shift=    0.000
 RMSDP=1.05D-05 MaxDP=3.45D-04 DE=-5.73D-05 OVMax= 1.41D-03

 Cycle   7  Pass 0  IDiag  1:
 RMSU=  3.86D-06    CP:  9.92D-01  8.14D-01  6.24D-01  5.68D-01  7.58D-01
                    CP:  5.30D-01
 E= -230.108674515358     Delta-E=       -0.000016065980 Rises=F Damp=F
 DIIS: error= 2.45D-05 at cycle   7 NSaved=   7.
 NSaved= 7 IEnMin= 7 EnMin= -230.108674515358     IErMin= 7 ErrMin= 2.45D-05
 ErrMax= 2.45D-05  0.00D+00 EMaxC= 1.00D-01 BMatC= 8.04D-08 BMatP= 2.03D-05
 IDIUse=1 WtCom= 1.00D+00 WtEn= 0.00D+00
 Coeff-Com:  0.272D-03-0.122D-02 0.112D-02 0.363D-02 0.292D-01 0.717D-01
 Coeff-Com:  0.895D+00
 Coeff:      0.272D-03-0.122D-02 0.112D-02 0.363D-02 0.292D-01 0.717D-01
 Coeff:      0.895D+00
 Gap=     0.240 Goal=   None    Shift=    0.000
 RMSDP=1.21D-06 MaxDP=2.04D-05 DE=-1.61D-05 OVMax= 1.08D-04

 Initial convergence to 1.0D-05 achieved.  Increase integral accuracy.
 Cycle   8  Pass 1  IDiag  1:
 E= -230.108741433542     Delta-E=       -0.000066918184 Rises=F Damp=F
 DIIS: error= 3.21D-05 at cycle   1 NSaved=   1.
 NSaved= 1 IEnMin= 1 EnMin= -230.108741433542     IErMin= 1 ErrMin= 3.21D-05
 ErrMax= 3.21D-05  0.00D+00 EMaxC= 1.00D-01 BMatC= 1.37D-07 BMatP= 1.37D-07
 IDIUse=1 WtCom= 1.00D+00 WtEn= 0.00D+00
 Coeff-Com:  0.100D+01
 Coeff:      0.100D+01
 Gap=     0.240 Goal=   None    Shift=    0.000
 RMSDP=1.21D-06 MaxDP=2.04D-05 DE=-6.69D-05 OVMax= 1.02D-04

 Cycle   9  Pass 1  IDiag  1:
 RMSU=  9.36D-06    CP:  1.00D+00
 E= -230.108741513289     Delta-E=       -0.000000079747 Rises=F Damp=F
 DIIS: error= 6.94D-06 at cycle   2 NSaved=   2.
 NSaved= 2 IEnMin= 2 EnMin= -230.108741513289     IErMin= 2 ErrMin= 6.94D-06
 ErrMax= 6.94D-06  0.00D+00 EMaxC= 1.00D-01 BMatC= 2.60D-09 BMatP= 1.37D-07
 IDIUse=1 WtCom= 1.00D+00 WtEn= 0.00D+00
 Coeff-Com:  0.634D-02 0.994D+00
 Coeff:      0.634D-02 0.994D+00
 Gap=     0.240 Goal=   None    Shift=    0.000
 RMSDP=5.02D-07 MaxDP=1.04D-05 DE=-7.97D-08 OVMax= 6.05D-05

 Cycle  10  Pass 1  IDiag  1:
 RMSU=  4.63D-07    CP:  1.00D+00  1.02D+00
 E= -230.108741506832     Delta-E=        0.000000006457 Rises=F Damp=F
 DIIS: error= 1.43D-05 at cycle   3 NSaved=   3.
 NSaved= 3 IEnMin= 2 EnMin= -230.108741513289     IErMin= 2 ErrMin= 6.94D-06
 ErrMax= 1.43D-05  0.00D+00 EMaxC= 1.00D-01 BMatC= 1.01D-08 BMatP= 2.60D-09
 IDIUse=1 WtCom= 1.00D+00 WtEn= 0.00D+00
 Coeff-Com: -0.114D-01 0.679D+00 0.332D+00
 Coeff:     -0.114D-01 0.679D+00 0.332D+00
 Gap=     0.240 Goal=   None    Shift=    0.000
 RMSDP=2.89D-07 MaxDP=8.20D-06 DE= 6.46D-09 OVMax= 3.97D-05

 Cycle  11  Pass 1  IDiag  1:
 RMSU=  1.02D-07    CP:  1.00D+00  1.02D+00  4.22D-01
 E= -230.108741515987     Delta-E=       -0.000000009154 Rises=F Damp=F
 DIIS: error= 8.79D-07 at cycle   4 NSaved=   4.
 NSaved= 4 IEnMin= 4 EnMin= -230.108741515987     IErMin= 4 ErrMin= 8.79D-07
 ErrMax= 8.79D-07  0.00D+00 EMaxC= 1.00D-01 BMatC= 7.10D-11 BMatP= 2.60D-09
 IDIUse=1 WtCom= 1.00D+00 WtEn= 0.00D+00
 Coeff-Com: -0.495D-02 0.209D+00 0.122D+00 0.674D+00
 Coeff:     -0.495D-02 0.209D+00 0.122D+00 0.674D+00
 Gap=     0.240 Goal=   None    Shift=    0.000
 RMSDP=2.86D-08 MaxDP=9.28D-07 DE=-9.15D-09 OVMax= 2.03D-06

 Cycle  12  Pass 1  IDiag  1:
 RMSU=  2.62D-08    CP:  1.00D+00  1.02D+00  4.16D-01  8.91D-01
 E= -230.108741516029     Delta-E=       -0.000000000042 Rises=F Damp=F
 DIIS: error= 2.10D-07 at cycle   5 NSaved=   5.
 NSaved= 5 IEnMin= 5 EnMin= -230.108741516029     IErMin= 5 ErrMin= 2.10D-07
 ErrMax= 2.10D-07  0.00D+00 EMaxC= 1.00D-01 BMatC= 5.77D-12 BMatP= 7.10D-11
 IDIUse=1 WtCom= 1.00D+00 WtEn= 0.00D+00
 Coeff-Com: -0.147D-02 0.516D-01 0.352D-01 0.268D+00 0.646D+00
 Coeff:     -0.147D-02 0.516D-01 0.352D-01 0.268D+00 0.646D+00
 Gap=     0.240 Goal=   None    Shift=    0.000
 RMSDP=9.05D-09 MaxDP=2.02D-07 DE=-4.21D-11 OVMax= 7.31D-07

 SCF Done:  E(RB3LYP) =  -230.108741516     A.U. after   12 cycles
            NFock= 12  Conv=0.91D-08     -V/T= 2.0066
 KE= 2.286025979454D+02 PE=-8.587782370636D+02 EE= 2.388407781676D+02
 Leave Link  502 at Tue Oct  6 11:24:09 2015, MaxMem=    33554432 cpu:        37.6
 (Enter /home/Applications/g09/g09/l801.exe)
 DoSCS=F DFT=T ScalE2(SS,OS)=  1.000000  1.000000
 ExpMin= 1.03D-01 ExpMax= 1.53D+04 ExpMxC= 5.22D+02 IAcc=3 IRadAn=         5 AccDes= 0.00D+00
 HarFok:  IExCor=  205 AccDes= 0.00D+00 IRadAn=         5 IDoV=-2 UseB2=F ITyADJ=14
 ICtDFT= 12500011 ScaDFX=  1.000000  1.000000  1.000000  1.000000
 Largest valence mixing into a core orbital is  6.63D-05
 Largest core mixing into a valence orbital is  8.79D-06
 Range of M.O.s used for correlation:     6   206
 NBasis=   206 NAE=    18 NBE=    18 NFC=     5 NFV=     0
 NROrb=    201 NOA=    13 NOB=    13 NVA=   188 NVB=   188

 **** Warning!!: The largest alpha MO coefficient is  0.28420345D+02

 Leave Link  801 at Tue Oct  6 11:24:09 2015, MaxMem=    33554432 cpu:         0.3
 (Enter /home/Applications/g09/g09/l914.exe)
 RHF ground state
 MDV=    33554432 DFT=T DoStab=F Mixed=T DoRPA=F DoScal=F NonHer=F
 Would need an additional           251700000 words for in-memory AO integral storage.
 Making orbital integer symmetry assigments:
 Orbital symmetries:
       Occupied  (A1) (B2) (A1) (A1) (B2) (A1) (A1) (B2) (B2) (A1)
                 (A1) (B1) (B2) (B2) (A1) (A1) (B1) (A2)
       Virtual   (B1) (A1) (A2) (B2) (A1) (B2) (A1) (B2) (A1) (A1)
                 (B2) (B1) (B2) (A2) (B1) (A1) (A1) (B2) (A1) (B2)
                 (A2) (B2) (A1) (A1) (B2) (B1) (A1) (B2) (A1) (B2)
                 (B1) (B1) (A1) (B2) (A2) (A2) (B2) (B1) (B2) (A1)
                 (A1) (B1) (A1) (A2) (B2) (A1) (B2) (B1) (B2) (A1)
                 (A2) (A1) (B2) (B1) (A1) (A2) (B2) (B2) (A1) (A1)
                 (A2) (A1) (B2) (B2) (B2) (B1) (A1) (A2) (B2) (A1)
                 (B1) (A2) (A1) (B2) (B1) (A1) (A1) (B2) (A2) (A1)
                 (B2) (B1) (B2) (B1) (A1) (A2) (B1) (A1) (A1) (A1)
                 (B2) (B1) (A2) (A1) (B2) (B2) (B1) (A1) (B2) (A1)
                 (B1) (A2) (B2) (A2) (B2) (A2) (B1) (A1) (B1) (A1)
                 (B2) (A2) (B1) (A2) (A1) (B2) (A1) (B2) (B2) (A1)
                 (B2) (A2) (A1) (A2) (B1) (B2) (A1) (B2) (A1) (B1)
                 (A2) (B1) (A1) (B2) (B1) (A2) (A1) (B2) (B1) (B2)
                 (A1) (A2) (B2) (A1) (A2) (B2) (B2) (B1) (A1) (A1)
                 (A2) (A1) (B2) (B1) (B2) (A1) (A2) (B1) (A1) (B2)
                 (A1) (B2) (A1) (B2) (A2) (B1) (A1) (B2) (B2) (B1)
                 (A2) (A1) (B2) (A1) (B2) (A1) (B2) (B1) (A2) (A1)
                 (B2) (B2) (A1) (A1) (A1) (B2) (A1) (B2)
    60 initial guesses have been made.
 Convergence on wavefunction:    0.000001000000000
 Davidson Disk Diagonalization:  ConvIn= 1.00D-06 SkipCon=T Conv= 1.00D-06.
 Max sub-space:   240 roots to seek:    60 dimension of matrix:         4888
 Iteration     1 Dimension    60 NMult     0 NNew     60
 CISAX will form    60 AO SS matrices at one time.
 NMat=    60 NSing=    60 JSym2X=-1.
 FoFJK:  IHMeth= 1 ICntrl=       0 DoSepK=F KAlg= 0 I1Cent=   0 FoldK=F
 IRaf=         0 NMat= 120 IRICut=     150 DoRegI=T DoRafI=T ISym2E=-1.
 FoFCou: FMM=F IPFlag=           0 FMFlag=      100000 FMFlg1=           0
         NFxFlg=           0 DoJE=F BraDBF=F KetDBF=F FulRan=T
         wScrn=  0.000000 ICntrl=       0 IOpCl=  0 I1Cent=           0 NGrid=           0
         NMat0=  120 NMatS0=     60 NMatT0=    0 NMatD0=  120 NMtDS0=    0 NMtDT0=    0
 Petite list used in FoFCou.
 New state      1 was old state      3
 New state      2 was old state      4
 New state      3 was old state      5
 New state      4 was old state      1
 New state      5 was old state      6
 New state      6 was old state      7
 New state      7 was old state      8
 New state      8 was old state     11
 New state      9 was old state     13
 New state     11 was old state     12
 New state     12 was old state     14
 New state     13 was old state     16
 New state     14 was old state      9
 Excitation Energies [eV] at current iteration:
 Root      1 :     6.932869070527460
 Root      2 :     7.017463115187900
 Root      3 :     7.570214038824012
 Root      4 :     7.577697239863433
 Root      5 :     7.782174277858338
 Root      6 :     8.115116965938505
 Root      7 :     8.282857705583661
 Root      8 :     8.749866854804875
 Root      9 :     8.839635759677067
 Root     10 :     8.984844857161395
 Root     11 :     9.092807745500961
 Root     12 :     9.461504661355399
 Root     13 :     9.579226313643826
 Root     14 :     9.749156373438625
 Root     15 :     9.765735604002099
 Root     16 :     9.892648274488916
 Root     17 :    10.182080289752580
 Root     18 :    10.375893887257020
 Root     19 :    10.482837317141590
 Root     20 :    10.810737585044900
 Root     21 :    10.892280773242040
 Root     22 :    10.948832051496550
 Root     23 :    11.015232939662030
 Root     24 :    11.171991824243440
 Root     25 :    11.431615410787550
 Root     26 :    11.467492929038360
 Root     27 :    11.511813047703550
 Root     28 :    11.653953599247280
 Root     29 :    11.918961479343150
 Root     30 :    11.973687557372990
 Root     31 :    12.004639990477780
 Root     32 :    12.183150806066500
 Root     33 :    12.203632577886410
 Root     34 :    12.301407107479090
 Root     35 :    12.420608629092420
 Root     36 :    12.592519523686950
 Root     37 :    12.605401932007000
 Root     38 :    12.625734202512890
 Root     39 :    12.661137572749480
 Root     40 :    12.768411115869500
 Root     41 :    12.845017570634610
 Root     42 :    12.939202097488090
 Root     43 :    13.042566625533050
 Root     44 :    13.166794865251500
 Root     45 :    13.251292338618570
 Root     46 :    13.439603977780010
 Root     47 :    13.526598811491760
 Root     48 :    13.631622876670690
 Root     49 :    13.642803879063700
 Root     50 :    13.717014146281010
 Root     51 :    13.728402146015680
 Root     52 :    13.740987078112770
 Root     53 :    13.768978478079560
 Root     54 :    13.880556188669970
 Root     55 :    14.027566119705660
 Root     56 :    14.144455624700150
 Root     57 :    14.439175678779460
 Root     58 :    14.455813546045600
 Root     59 :    14.477169917083370
 Root     60 :    15.171014930743630
 Iteration     2 Dimension   120 NMult    60 NNew     60
 CISAX will form    60 AO SS matrices at one time.
 NMat=    60 NSing=    60 JSym2X=-1.
 New state      1 was old state      4
 Root      1 not converged, maximum delta is    0.059454837023803
 Root      2 not converged, maximum delta is    0.045727657681072
 New state      3 was old state      1
 Root      3 not converged, maximum delta is    0.012346689514035
 New state      4 was old state      3
 Root      4 not converged, maximum delta is    0.015344179654490
 Root      5 not converged, maximum delta is    0.010258030286987
 Root      6 not converged, maximum delta is    0.015950829548526
 Root      7 not converged, maximum delta is    0.015387220357166
 Root      8 not converged, maximum delta is    0.020481337939261
 Root      9 not converged, maximum delta is    0.045751070465120
 Root     10 not converged, maximum delta is    0.014279117621954
 New state     11 was old state     18
 Root     11 not converged, maximum delta is    0.109053184240918
 New state     12 was old state     14
 Root     12 not converged, maximum delta is    0.058906223973878
 New state     13 was old state     11
 Root     13 not converged, maximum delta is    0.046857207812363
 New state     14 was old state     12
 Root     14 not converged, maximum delta is    0.013072811676741
 New state     15 was old state     13
 Root     15 not converged, maximum delta is    0.014591405865065
 Excitation Energies [eV] at current iteration:
 Root      1 :     6.709783307901881   Change is   -0.867913931961552
 Root      2 :     6.863652553923697   Change is   -0.153810561264203
 Root      3 :     6.919381126492161   Change is   -0.013487944035299
 Root      4 :     7.557106374682441   Change is   -0.013107664141571
 Root      5 :     7.760372138861046   Change is   -0.021802138997292
 Root      6 :     8.098574259595559   Change is   -0.016542706342946
 Root      7 :     8.272402503404605   Change is   -0.010455202179056
 Root      8 :     8.721918809761933   Change is   -0.027948045042944
 Root      9 :     8.778540978775549   Change is   -0.061094780901518
 Root     10 :     8.976312890097706   Change is   -0.008531967063689
 Root     11 :     9.010998711335645   Change is   -1.364895175921378
 Root     12 :     9.023947724404429   Change is   -0.725208649034194
 Root     13 :     9.073704257872027   Change is   -0.019103487628933
 Root     14 :     9.445414548989048   Change is   -0.016090112366351
 Root     15 :     9.548170777783657   Change is   -0.031055535860168
 Root     16 :     9.711821154856768   Change is   -0.053914449145332
 Root     17 :     9.842880796999090   Change is   -0.049767477489826
 Root     18 :    10.149037044844050   Change is   -0.033043244908530
 Root     19 :    10.445261193649650   Change is   -0.037576123491934
 Root     20 :    10.775132931990880   Change is   -0.035604653054019
 Root     21 :    10.840828892417090   Change is   -0.051451880824946
 Root     22 :    10.915048581676280   Change is   -0.033783469820272
 Root     23 :    10.976950682369300   Change is   -0.038282257292737
 Root     24 :    11.067844748005870   Change is   -0.104147076237566
 Root     25 :    11.370868704869540   Change is   -0.060746705918000
 Root     26 :    11.433105130083800   Change is   -0.034387798954568
 Root     27 :    11.461373686982550   Change is   -0.050439360721001
 Root     28 :    11.556491321806470   Change is   -0.097462277440812
 Root     29 :    11.871109991241970   Change is   -0.047851488101173
 Root     30 :    11.873562876616770   Change is   -0.100124680756223
 Root     31 :    11.943777567590680   Change is   -0.357629539888410
 Root     32 :    11.970040438294480   Change is   -0.034599552183303
 Root     33 :    12.151831330116300   Change is   -0.031319475950204
 Root     34 :    12.169148839910820   Change is   -0.034483737975585
 Root     35 :    12.368465806945260   Change is   -1.071138170834744
 Root     36 :    12.392651337586170   Change is   -0.027957291506244
 Root     37 :    12.509238337275370   Change is   -0.096163594731632
 Root     38 :    12.568095993534160   Change is   -0.024423530152788
 Root     39 :    12.574157178515940   Change is   -0.051577023996949
 Root     40 :    12.622563726214040   Change is   -0.145847389655467
 Root     41 :    12.623514120430930   Change is   -0.037623452318557
 Root     42 :    12.745648856940560   Change is   -0.099368713694042
 Root     43 :    12.887007653744670   Change is   -0.279787211506824
 Root     44 :    12.922702628293590   Change is   -0.016499469194500
 Root     45 :    13.015668089683520   Change is   -0.026898535849535
 Root     46 :    13.039927907845180   Change is   -0.591694968825516
 Root     47 :    13.148673696633690   Change is   -0.102618641984876
 Root     48 :    13.466273391074880   Change is   -0.274713687037883
 Root     49 :    13.510976851287720   Change is   -0.015621960204033
 Root     50 :    13.543113380951180   Change is   -0.099690498112523
 Root     51 :    13.596583313100870   Change is   -0.120430833180142
 Root     52 :    13.655454776452060   Change is   -0.800358769593541
 Root     53 :    13.661866812791870   Change is   -0.815303104291495
 Root     54 :    13.690435656979580   Change is   -0.037966489036101
 Root     55 :    13.739120136189610   Change is   -0.029858341889949
 Root     56 :    13.767517988683660   Change is   -0.113038199986316
 Root     57 :    13.821719691723690   Change is   -0.617455987055775
 Root     58 :    13.942586466712980   Change is   -0.084979652992681
 Root     59 :    14.098386995763780   Change is   -1.072627934979855
 Root     60 :    14.128609960786170   Change is   -0.015845663913984
 Iteration     3 Dimension   135 NMult   120 NNew     15
 CISAX will form    15 AO SS matrices at one time.
 NMat=    15 NSing=    15 JSym2X=-1.
 Root      1 not converged, maximum delta is    0.002729938609177
 Root      2 not converged, maximum delta is    0.002934491773726
 Root      3 not converged, maximum delta is    0.000499977048654
 Root      4 not converged, maximum delta is    0.000370941476550
 Root      5 not converged, maximum delta is    0.000939697462089
 Root      6 not converged, maximum delta is    0.001186532063378
 Root      7 not converged, maximum delta is    0.000574186797654
 Root      8 not converged, maximum delta is    0.001594943907986
 Root      9 not converged, maximum delta is    0.002699692787323
 Root     10 not converged, maximum delta is    0.000490904196462
 Root     11 not converged, maximum delta is    0.006135915775075
 Root     12 not converged, maximum delta is    0.006519178006307
 Root     13 not converged, maximum delta is    0.001849682100301
 Root     14 not converged, maximum delta is    0.001391819323309
 Root     15 not converged, maximum delta is    0.001800953601706
 Excitation Energies [eV] at current iteration:
 Root      1 :     6.706392515724866   Change is   -0.003390792177015
 Root      2 :     6.861705118671639   Change is   -0.001947435252058
 Root      3 :     6.919338786065085   Change is   -0.000042340427076
 Root      4 :     7.557067593929392   Change is   -0.000038780753048
 Root      5 :     7.760230549871701   Change is   -0.000141588989345
 Root      6 :     8.098459100403165   Change is   -0.000115159192394
 Root      7 :     8.272368457848525   Change is   -0.000034045556079
 Root      8 :     8.721749147736421   Change is   -0.000169662025511
 Root      9 :     8.777821193461556   Change is   -0.000719785313993
 Root     10 :     8.976288145349113   Change is   -0.000024744748593
 Root     11 :     9.003290857567558   Change is   -0.007707853768088
 Root     12 :     9.018845364134970   Change is   -0.005102360269461
 Root     13 :     9.073476958831616   Change is   -0.000227299040411
 Root     14 :     9.445237175129344   Change is   -0.000177373859704
 Root     15 :     9.547967777419164   Change is   -0.000203000364495
 Iteration     4 Dimension   150 NMult   135 NNew     15
 CISAX will form    15 AO SS matrices at one time.
 NMat=    15 NSing=    15 JSym2X=-1.
 Root      1 not converged, maximum delta is    0.000240469338416
 Root      2 not converged, maximum delta is    0.000173808124779
 Root      3 not converged, maximum delta is    0.000017855276904
 Root      4 not converged, maximum delta is    0.000011368128181
 Root      5 not converged, maximum delta is    0.000020175551542
 Root      6 not converged, maximum delta is    0.000024481661218
 Root      7 not converged, maximum delta is    0.000009965576943
 Root      8 not converged, maximum delta is    0.000043024983366
 Root      9 not converged, maximum delta is    0.000065411570280
 Root     10 not converged, maximum delta is    0.000017096671219
 Root     11 not converged, maximum delta is    0.000626280733115
 Root     12 not converged, maximum delta is    0.000678385014534
 Root     13 not converged, maximum delta is    0.000049401131574
 Root     14 not converged, maximum delta is    0.000066293138903
 Root     15 not converged, maximum delta is    0.000036621010868
 Excitation Energies [eV] at current iteration:
 Root      1 :     6.706369064620037   Change is   -0.000023451104829
 Root      2 :     6.861693852876400   Change is   -0.000011265795239
 Root      3 :     6.919338709146285   Change is   -0.000000076918801
 Root      4 :     7.557067555927319   Change is   -0.000000038002073
 Root      5 :     7.760230383857684   Change is   -0.000000166014017
 Root      6 :     8.098458942911888   Change is   -0.000000157491278
 Root      7 :     8.272368409156377   Change is   -0.000000048692149
 Root      8 :     8.721748715763971   Change is   -0.000000431972450
 Root      9 :     8.777820070134249   Change is   -0.000001123327308
 Root     10 :     8.976288095310196   Change is   -0.000000050038916
 Root     11 :     9.003245623677792   Change is   -0.000045233889766
 Root     12 :     9.018802022232302   Change is   -0.000043341902667
 Root     13 :     9.073476525553566   Change is   -0.000000433278049
 Root     14 :     9.445236718998624   Change is   -0.000000456130721
 Root     15 :     9.547967374750513   Change is   -0.000000402668649
 Iteration     5 Dimension   165 NMult   150 NNew     15
 CISAX will form    15 AO SS matrices at one time.
 NMat=    15 NSing=    15 JSym2X=-1.
 Root      1 not converged, maximum delta is    0.000018981052105
 Root      2 not converged, maximum delta is    0.000009589606848
 Root      3 has converged.
 Root      4 has converged.
 Root      5 has converged.
 Root      6 has converged.
 Root      7 not converged, maximum delta is    0.000001057536272
 Root      8 not converged, maximum delta is    0.000001699725090
 Root      9 not converged, maximum delta is    0.000002542707847
 Root     10 not converged, maximum delta is    0.000001157894512
 Root     11 not converged, maximum delta is    0.000030651540238
 Root     12 not converged, maximum delta is    0.000031558359989
 Root     13 not converged, maximum delta is    0.000002222000515
 Root     14 not converged, maximum delta is    0.000002653461370
 Root     15 not converged, maximum delta is    0.000001943177555
 Excitation Energies [eV] at current iteration:
 Root      1 :     6.706368900438473   Change is   -0.000000164181563
 Root      2 :     6.861693815133643   Change is   -0.000000037742758
 Root      3 :     6.919338709077771   Change is   -0.000000000068513
 Root      4 :     7.557067555843511   Change is   -0.000000000083809
 Root      5 :     7.760230383614950   Change is   -0.000000000242734
 Root      6 :     8.098458942761011   Change is   -0.000000000150877
 Root      7 :     8.272368409066162   Change is   -0.000000000090215
 Root      8 :     8.721748714976419   Change is   -0.000000000787552
 Root      9 :     8.777820067809806   Change is   -0.000000002324442
 Root     10 :     8.976288095210126   Change is   -0.000000000100070
 Root     11 :     9.003245408202517   Change is   -0.000000215475276
 Root     12 :     9.018801804314707   Change is   -0.000000217917595
 Root     13 :     9.073476524561769   Change is   -0.000000000991796
 Root     14 :     9.445236717759018   Change is   -0.000000001239604
 Root     15 :     9.547967373960015   Change is   -0.000000000790499
 Iteration     6 Dimension   176 NMult   165 NNew     11
 CISAX will form    11 AO SS matrices at one time.
 NMat=    11 NSing=    11 JSym2X=-1.
 Root      1 not converged, maximum delta is    0.000001206235888
 Root      2 has converged.
 Root      3 has converged.
 Root      4 has converged.
 Root      5 has converged.
 Root      6 has converged.
 Root      7 has converged.
 Root      8 has converged.
 Root      9 has converged.
 Root     10 has converged.
 Root     11 not converged, maximum delta is    0.000003453571690
 Root     12 not converged, maximum delta is    0.000003425104319
 Root     13 has converged.
 Root     14 has converged.
 Root     15 has converged.
 Excitation Energies [eV] at current iteration:
 Root      1 :     6.706368899962623   Change is   -0.000000000475851
 Root      2 :     6.861693815014256   Change is   -0.000000000119387
 Root      3 :     6.919338709077753   Change is   -0.000000000000018
 Root      4 :     7.557067555843498   Change is   -0.000000000000012
 Root      5 :     7.760230383614877   Change is   -0.000000000000074
 Root      6 :     8.098458942760983   Change is   -0.000000000000029
 Root      7 :     8.272368409065951   Change is   -0.000000000000211
 Root      8 :     8.721748714975313   Change is   -0.000000000001106
 Root      9 :     8.777820067806498   Change is   -0.000000000003308
 Root     10 :     8.976288095209918   Change is   -0.000000000000208
 Root     11 :     9.003245407005336   Change is   -0.000000001197181
 Root     12 :     9.018801803436157   Change is   -0.000000000878550
 Root     13 :     9.073476524559913   Change is   -0.000000000001858
 Root     14 :     9.445236717757012   Change is   -0.000000000002006
 Root     15 :     9.547967373958661   Change is   -0.000000000001353
 Iteration     7 Dimension   179 NMult   176 NNew      3
 CISAX will form     3 AO SS matrices at one time.
 NMat=     3 NSing=     3 JSym2X=-1.
 Root      1 has converged.
 Root      2 has converged.
 Root      3 has converged.
 Root      4 has converged.
 Root      5 has converged.
 Root      6 has converged.
 Root      7 has converged.
 Root      8 has converged.
 Root      9 has converged.
 Root     10 has converged.
 Root     11 has converged.
 Root     12 has converged.
 Root     13 has converged.
 Root     14 has converged.
 Root     15 has converged.
 Excitation Energies [eV] at current iteration:
 Root      1 :     6.706368899961769   Change is   -0.000000000000853
 Root      2 :     6.861693815014279   Change is    0.000000000000023
 Root      3 :     6.919338709077748   Change is   -0.000000000000005
 Root      4 :     7.557067555843503   Change is    0.000000000000005
 Root      5 :     7.760230383614884   Change is    0.000000000000008
 Root      6 :     8.098458942760992   Change is    0.000000000000009
 Root      7 :     8.272368409065940   Change is   -0.000000000000011
 Root      8 :     8.721748714975330   Change is    0.000000000000018
 Root      9 :     8.777820067806489   Change is   -0.000000000000009
 Root     10 :     8.976288095209924   Change is    0.000000000000006
 Root     11 :     9.003245406999307   Change is   -0.000000000006029
 Root     12 :     9.018801803433965   Change is   -0.000000000002193
 Root     13 :     9.073476524559903   Change is   -0.000000000000009
 Root     14 :     9.445236717757020   Change is    0.000000000000006
 Root     15 :     9.547967373958643   Change is   -0.000000000000018
 Convergence achieved on expansion vectors.
 ***********************************************************************
 Excited states from <AA,BB:AA,BB> singles matrix:
 ***********************************************************************
 
 1PDM for each excited state written to RWF  633
 Ground to excited state transition densities written to RWF  633
 Ground to excited state transition electric dipole moments (Au):
       state          X           Y           Z        Dip. S.      Osc.
         1         0.0000     -1.1806      0.0000      1.3937      0.2290
         2         0.0000      0.0000     -0.0128      0.0002      0.0000
         3         0.0000      0.0000      0.0000      0.0000      0.0000
         4         0.3073      0.0000      0.0000      0.0944      0.0175
         5         0.0000      0.0000      0.0000      0.0000      0.0000
         6         0.0661      0.0000      0.0000      0.0044      0.0009
         7         0.1329      0.0000      0.0000      0.0177      0.0036
         8         0.0000      0.0000      0.0000      0.0000      0.0000
         9         0.0708      0.0000      0.0000      0.0050      0.0011
        10         0.0000      0.0000      0.0000      0.0000      0.0000
        11         0.0000      0.0000      1.6595      2.7541      0.6075
        12         0.0000      0.8825      0.0000      0.7787      0.1721
        13        -0.1218      0.0000      0.0000      0.0148      0.0033
        14         0.0000      0.0000      0.0000      0.0000      0.0000
        15         0.0830      0.0000      0.0000      0.0069      0.0016
 Ground to excited state transition velocity dipole moments (Au):
       state          X           Y           Z        Dip. S.      Osc.
         1         0.0000      0.0071      0.0000      0.0001      0.0001
         2         0.0000      0.0000      0.0452      0.0020      0.0054
         3         0.0000      0.0000      0.0000      0.0000      0.0000
         4        -0.1061      0.0000      0.0000      0.0113      0.0270
         5         0.0000      0.0000      0.0000      0.0000      0.0000
         6        -0.0271      0.0000      0.0000      0.0007      0.0016
         7        -0.0415      0.0000      0.0000      0.0017      0.0038
         8         0.0000      0.0000      0.0000      0.0000      0.0000
         9         0.0073      0.0000      0.0000      0.0001      0.0001
        10         0.0000      0.0000      0.0000      0.0000      0.0000
        11         0.0000      0.0000     -0.1070      0.0115      0.0231
        12         0.0000     -0.1184      0.0000      0.0140      0.0282
        13         0.0190      0.0000      0.0000      0.0004      0.0007
        14         0.0000      0.0000      0.0000      0.0000      0.0000
        15        -0.0213      0.0000      0.0000      0.0005      0.0009
 Ground to excited state transition magnetic dipole moments (Au):
       state          X           Y           Z
         1         0.5793      0.0000      0.0000
         2         0.0000      0.0000      0.0000
         3         0.0000      0.0000     -0.4583
         4         0.0000      0.0169      0.0000
         5         0.0000      0.0000      0.1063
         6         0.0000      0.1858      0.0000
         7         0.0000      0.3023      0.0000
         8         0.0000      0.0000      0.6486
         9         0.0000     -1.4900      0.0000
        10         0.0000      0.0000     -0.1347
        11         0.0000      0.0000      0.0000
        12         0.3902      0.0000      0.0000
        13         0.0000     -0.0089      0.0000
        14         0.0000      0.0000     -0.0037
        15         0.0000      0.0930      0.0000
 Ground to excited state transition velocity quadrupole moments (Au):
       state          XX          YY          ZZ          XY          XZ          YZ
         1         0.0000      0.0000      0.0000      0.0000      0.0000      0.2228
         2         0.0077     -0.0109     -0.0234      0.0000      0.0000      0.0000
         3         0.0000      0.0000      0.0000      0.3750      0.0000      0.0000
         4         0.0000      0.0000      0.0000      0.0000     -0.0092      0.0000
         5         0.0000      0.0000      0.0000      0.2153      0.0000      0.0000
         6         0.0000      0.0000      0.0000      0.0000      0.3677      0.0000
         7         0.0000      0.0000      0.0000      0.0000      0.2042      0.0000
         8         0.0000      0.0000      0.0000      0.1613      0.0000      0.0000
         9         0.0000      0.0000      0.0000      0.0000     -0.0790      0.0000
        10         0.0000      0.0000      0.0000      0.1970      0.0000      0.0000
        11         0.0697     -0.3149      0.2840      0.0000      0.0000      0.0000
        12         0.0000      0.0000      0.0000      0.0000      0.0000      0.4513
        13         0.0000      0.0000      0.0000      0.0000     -0.1758      0.0000
        14         0.0000      0.0000      0.0000      0.2058      0.0000      0.0000
        15         0.0000      0.0000      0.0000      0.0000      0.0157      0.0000
 <0|del|b> * <b|rxdel|0> + <0|del|b> * <b|delr+rdel|0>
 Rotatory Strengths (R) in cgs (10**-40 erg-esu-cm/Gauss)
       state          XX          YY          ZZ    R(velocity)    E-M Angle
         1         0.0000      0.0000      0.0000      0.0000       90.00
         2         0.0000      0.0000      0.0000      0.0000       90.00
         3         0.0000      0.0000      0.0000      0.0000       90.00
         4         0.0000      0.0000      0.0000      0.0000       90.00
         5         0.0000      0.0000      0.0000      0.0000       90.00
         6         0.0000      0.0000      0.0000      0.0000       90.00
         7         0.0000      0.0000      0.0000      0.0000       90.00
         8         0.0000      0.0000      0.0000      0.0000       90.00
         9         0.0000      0.0000      0.0000      0.0000       90.00
        10         0.0000      0.0000      0.0000      0.0000       90.00
        11         0.0000      0.0000      0.0000      0.0000       90.00
        12         0.0000      0.0000      0.0000      0.0000       90.00
        13         0.0000      0.0000      0.0000      0.0000       90.00
        14         0.0000      0.0000      0.0000      0.0000       90.00
        15         0.0000      0.0000      0.0000      0.0000       90.00
 1/2[<0|r|b>*<b|rxdel|0> + (<0|rxdel|b>*<b|r|0>)*]
 Rotatory Strengths (R) in cgs (10**-40 erg-esu-cm/Gauss)
       state          XX          YY          ZZ     R(length)
         1         0.0000      0.0000      0.0000      0.0000
         2         0.0000      0.0000      0.0000      0.0000
         3         0.0000      0.0000      0.0000      0.0000
         4         0.0000      0.0000      0.0000      0.0000
         5         0.0000      0.0000      0.0000      0.0000
         6         0.0000      0.0000      0.0000      0.0000
         7         0.0000      0.0000      0.0000      0.0000
         8         0.0000      0.0000      0.0000      0.0000
         9         0.0000      0.0000      0.0000      0.0000
        10         0.0000      0.0000      0.0000      0.0000
        11         0.0000      0.0000      0.0000      0.0000
        12         0.0000      0.0000      0.0000      0.0000
        13         0.0000      0.0000      0.0000      0.0000
        14         0.0000      0.0000      0.0000      0.0000
        15         0.0000      0.0000      0.0000      0.0000
  1/2[<0|del|b>*<b|r|0> + (<0|r|b>*<b|del|0>)*] (Au)
       state          X           Y           Z        Dip. S.   Osc.(frdel)
         1         0.0000     -0.0084      0.0000      0.0084      0.0056
         2         0.0000      0.0000     -0.0006      0.0006      0.0004
         3         0.0000      0.0000      0.0000      0.0000      0.0000
         4        -0.0326      0.0000      0.0000      0.0326      0.0217
         5         0.0000      0.0000      0.0000      0.0000      0.0000
         6        -0.0018      0.0000      0.0000      0.0018      0.0012
         7        -0.0055      0.0000      0.0000      0.0055      0.0037
         8         0.0000      0.0000      0.0000      0.0000      0.0000
         9         0.0005      0.0000      0.0000     -0.0005     -0.0003
        10         0.0000      0.0000      0.0000      0.0000      0.0000
        11         0.0000      0.0000     -0.1776      0.1776      0.1184
        12         0.0000     -0.1044      0.0000      0.1044      0.0696
        13        -0.0023      0.0000      0.0000      0.0023      0.0015
        14         0.0000      0.0000      0.0000      0.0000      0.0000
        15        -0.0018      0.0000      0.0000      0.0018      0.0012

 Excitation energies and oscillator strengths:
 
 Excited State   1:      Singlet-B2     6.7064 eV  184.88 nm  f=0.2290  <S**2>=0.000
      18 -> 19         0.68481
 This state for optimization and/or second-order correction.
 Total Energy, E(CIS) =  -229.862286983    
 Copying the excited state density for this state as the 1-particle RhoCI density.
 
 Excited State   2:      Singlet-A1     6.8617 eV  180.69 nm  f=0.0000  <S**2>=0.000
      17 -> 19         0.50946
      18 -> 21        -0.48432
 
 Excited State   3:      Singlet-A2     6.9193 eV  179.19 nm  f=0.0000  <S**2>=0.000
      18 -> 20         0.70418
 
 Excited State   4:      Singlet-B1     7.5571 eV  164.06 nm  f=0.0175  <S**2>=0.000
      17 -> 20         0.10449
      18 -> 22         0.69812
 
 Excited State   5:      Singlet-A2     7.7602 eV  159.77 nm  f=0.0000  <S**2>=0.000
      18 -> 23         0.70447
 
 Excited State   6:      Singlet-B1     8.0985 eV  153.10 nm  f=0.0009  <S**2>=0.000
      17 -> 20         0.16358
      18 -> 24         0.68180
 
 Excited State   7:      Singlet-B1     8.2724 eV  149.88 nm  f=0.0036  <S**2>=0.000
      17 -> 20         0.67554
      18 -> 22        -0.10416
      18 -> 24        -0.16633
 
 Excited State   8:      Singlet-A2     8.7217 eV  142.16 nm  f=0.0000  <S**2>=0.000
      18 -> 25         0.70083
 
 Excited State   9:      Singlet-B1     8.7778 eV  141.25 nm  f=0.0011  <S**2>=0.000
      16 -> 19         0.69796
 
 Excited State  10:      Singlet-A2     8.9763 eV  138.12 nm  f=0.0000  <S**2>=0.000
      17 -> 22         0.70082
 
 Excited State  11:      Singlet-A1     9.0032 eV  137.71 nm  f=0.6075  <S**2>=0.000
      15 -> 25         0.10751
      17 -> 19         0.45147
      18 -> 21         0.48352
 
 Excited State  12:      Singlet-B2     9.0188 eV  137.47 nm  f=0.1721  <S**2>=0.000
      17 -> 21         0.68449
 
 Excited State  13:      Singlet-B1     9.0735 eV  136.64 nm  f=0.0033  <S**2>=0.000
      17 -> 23         0.69549
 
 Excited State  14:      Singlet-A2     9.4452 eV  131.27 nm  f=0.0000  <S**2>=0.000
      17 -> 24         0.69652
 
 Excited State  15:      Singlet-B1     9.5480 eV  129.85 nm  f=0.0016  <S**2>=0.000
      15 -> 19         0.65920
      18 -> 26        -0.23543
 SavETr:  write IOETrn=   770 NScale= 10 NData=  16 NLR=1 NState=   15 LETran=     280.
 The selected state is a singlet
 CISAX will form     1 AO SS matrices at one time.
 NMat=     1 NSing=     1 JSym2X=-1.
 CISAX will form     1 AO SS matrices at one time.
 NMat=     1 NSing=     1 JSym2X=-1.
 Leave Link  914 at Tue Oct  6 11:27:57 2015, MaxMem=    33554432 cpu:       226.8
 (Enter /home/Applications/g09/g09/l1002.exe)
 Minotr:  Closed shell wavefunction.
          Computing CIS/TD-HF/TD-KS derivatives.
          Using Z-Vector for PSCF gradient.
          Skipping F1 and S1 gradient terms here.
          IDoAtm=111111111
          Frozen-core window.
          Direct CPHF calculation.
          Differentiating once with respect to electric field.
                with respect to dipole field.
          Differentiating once with respect to nuclear coordinates.
          Requested convergence is 1.0D-10 RMS, and 1.0D-09 maximum.
          NewPWx=F KeepS1=T KeepF1=T KeepIn=T MapXYZ=F SortEE=F KeepMc=T.
          MDV=      33554137 using IRadAn=       0.
 Using stored XC quadrature information.
          Solving linear equations separately, MaxMat=       0.
          There are     1 degrees of freedom in the 1st order CPHF.  IDoFFX=0 NUNeed=     1.
 FoFJK:  IHMeth= 1 ICntrl=       0 DoSepK=F KAlg= 0 I1Cent=   0 FoldK=F
 IRaf= 990000000 NMat=   1 IRICut=       1 DoRegI=T DoRafI=F ISym2E=-1.
 FoFCou: FMM=F IPFlag=           0 FMFlag=      100000 FMFlg1=           0
         NFxFlg=           0 DoJE=F BraDBF=F KetDBF=F FulRan=T
         wScrn=  0.000000 ICntrl=       0 IOpCl=  0 I1Cent=           0 NGrid=           0
         NMat0=    1 NMatS0=      1 NMatT0=    0 NMatD0=    1 NMtDS0=    0 NMtDT0=    0
 Petite list used in FoFCou.
 LinEq1:  Iter=  0 NonCon=     1 RMS=9.77D-03 Max=3.81D-01 NDo=     1
 AX will form     1 AO Fock derivatives at one time.
 LinEq1:  Iter=  1 NonCon=     1 RMS=9.65D-03 Max=4.40D-01 NDo=     1
 LinEq1:  Iter=  2 NonCon=     1 RMS=5.35D-03 Max=2.04D-01 NDo=     1
 LinEq1:  Iter=  3 NonCon=     1 RMS=2.19D-03 Max=3.53D-02 NDo=     1
 LinEq1:  Iter=  4 NonCon=     1 RMS=1.15D-03 Max=2.65D-02 NDo=     1
 LinEq1:  Iter=  5 NonCon=     1 RMS=4.96D-04 Max=1.01D-02 NDo=     1
 LinEq1:  Iter=  6 NonCon=     1 RMS=5.25D-05 Max=7.04D-04 NDo=     1
 LinEq1:  Iter=  7 NonCon=     1 RMS=1.04D-05 Max=1.28D-04 NDo=     1
 LinEq1:  Iter=  8 NonCon=     1 RMS=2.12D-06 Max=3.18D-05 NDo=     1
 LinEq1:  Iter=  9 NonCon=     1 RMS=3.12D-07 Max=4.87D-06 NDo=     1
 LinEq1:  Iter= 10 NonCon=     1 RMS=3.93D-08 Max=7.20D-07 NDo=     1
 LinEq1:  Iter= 11 NonCon=     1 RMS=5.51D-09 Max=6.15D-08 NDo=     1
 LinEq1:  Iter= 12 NonCon=     1 RMS=7.97D-10 Max=1.56D-08 NDo=     1
 LinEq1:  Iter= 13 NonCon=     0 RMS=6.94D-11 Max=7.00D-10 NDo=     1
 Linear equations converged to 1.000D-10 1.000D-09 after    13 iterations.
 End of Minotr F.D. properties file   721 does not exist.
 End of Minotr F.D. properties file   722 does not exist.
 End of Minotr F.D. properties file   788 does not exist.
 Leave Link 1002 at Tue Oct  6 11:29:04 2015, MaxMem=    33554432 cpu:        66.5
 (Enter /home/Applications/g09/g09/l601.exe)
 Copying SCF densities to generalized density rwf, IOpCl= 0 IROHF=0.

 **********************************************************************

            Population analysis using the SCF density.

 **********************************************************************

 Orbital symmetries:
       Occupied  (A1) (B2) (A1) (A1) (B2) (A1) (A1) (B2) (B2) (A1)
                 (A1) (B1) (B2) (B2) (A1) (A1) (B1) (A2)
       Virtual   (B1) (A1) (A2) (B2) (A1) (B2) (A1) (B2) (A1) (A1)
                 (B2) (B1) (B2) (A2) (B1) (A1) (A1) (B2) (A1) (B2)
                 (A2) (B2) (A1) (A1) (B2) (B1) (A1) (B2) (A1) (B2)
                 (B1) (B1) (A1) (B2) (A2) (A2) (B2) (B1) (B2) (A1)
                 (A1) (B1) (A1) (A2) (B2) (A1) (B2) (B1) (B2) (A1)
                 (A2) (A1) (B2) (B1) (A1) (A2) (B2) (B2) (A1) (A1)
                 (A2) (A1) (B2) (B2) (B2) (B1) (A1) (A2) (B2) (A1)
                 (B1) (A2) (A1) (B2) (B1) (A1) (A1) (B2) (A2) (A1)
                 (B2) (B1) (B2) (B1) (A1) (A2) (B1) (A1) (A1) (A1)
                 (B2) (B1) (A2) (A1) (B2) (B2) (B1) (A1) (B2) (A1)
                 (B1) (A2) (B2) (A2) (B2) (A2) (B1) (A1) (B1) (A1)
                 (B2) (A2) (B1) (A2) (A1) (B2) (A1) (B2) (B2) (A1)
                 (B2) (A2) (A1) (A2) (B1) (B2) (A1) (B2) (A1) (B1)
                 (A2) (B1) (A1) (B2) (B1) (A2) (A1) (B2) (B1) (B2)
                 (A1) (A2) (B2) (A1) (A2) (B2) (B2) (B1) (A1) (A1)
                 (A2) (A1) (B2) (B1) (B2) (A1) (A2) (B1) (A1) (B2)
                 (A1) (B2) (A1) (B2) (A2) (B1) (A1) (B2) (B2) (B1)
                 (A2) (A1) (B2) (A1) (B2) (A1) (B2) (B1) (A2) (A1)
                 (B2) (B2) (A1) (A1) (A1) (B2) (A1) (B2)
 The electronic state is 1-A1.
 Alpha  occ. eigenvalues --  -19.19723 -10.22368 -10.22365 -10.17557 -10.17514
 Alpha  occ. eigenvalues --   -1.11322  -0.80311  -0.74823  -0.60202  -0.57299
 Alpha  occ. eigenvalues --   -0.54584  -0.45449  -0.44887  -0.41536  -0.40198
 Alpha  occ. eigenvalues --   -0.37742  -0.28582  -0.23649
 Alpha virt. eigenvalues --    0.00308   0.05594   0.05898   0.07852   0.08380
 Alpha virt. eigenvalues --    0.09621   0.13212   0.16805   0.21046   0.24231
 Alpha virt. eigenvalues --    0.26345   0.27295   0.31202   0.32362   0.35042
 Alpha virt. eigenvalues --    0.35234   0.35878   0.36690   0.39891   0.40073
 Alpha virt. eigenvalues --    0.42243   0.44927   0.46723   0.49013   0.50607
 Alpha virt. eigenvalues --    0.51012   0.54464   0.54638   0.64991   0.65860
 Alpha virt. eigenvalues --    0.65879   0.69019   0.69857   0.69996   0.71259
 Alpha virt. eigenvalues --    0.75410   0.82286   0.83219   0.90469   0.92706
 Alpha virt. eigenvalues --    0.96832   0.96850   0.98375   0.98702   0.99045
 Alpha virt. eigenvalues --    1.05775   1.08753   1.13060   1.14320   1.17705
 Alpha virt. eigenvalues --    1.17908   1.20400   1.21744   1.25202   1.26788
 Alpha virt. eigenvalues --    1.27805   1.30758   1.34781   1.36048   1.44456
 Alpha virt. eigenvalues --    1.45630   1.53213   1.53508   1.60353   1.74502
 Alpha virt. eigenvalues --    1.79916   1.82542   1.86212   1.87663   1.87986
 Alpha virt. eigenvalues --    2.01443   2.06114   2.10474   2.17785   2.17902
 Alpha virt. eigenvalues --    2.20870   2.24950   2.36064   2.36675   2.38104
 Alpha virt. eigenvalues --    2.41402   2.44339   2.50474   2.53402   2.59955
 Alpha virt. eigenvalues --    2.60361   2.61461   2.61879   2.71257   2.73600
 Alpha virt. eigenvalues --    2.77717   2.82737   2.82753   2.87284   2.87804
 Alpha virt. eigenvalues --    2.91615   2.92249   2.92286   2.94227   2.95086
 Alpha virt. eigenvalues --    2.96626   2.99893   3.04543   3.06671   3.09546
 Alpha virt. eigenvalues --    3.09604   3.12323   3.14905   3.15661   3.17098
 Alpha virt. eigenvalues --    3.18844   3.20050   3.25171   3.31618   3.32390
 Alpha virt. eigenvalues --    3.32835   3.36703   3.37533   3.45815   3.46597
 Alpha virt. eigenvalues --    3.53290   3.56822   3.59190   3.61416   3.61957
 Alpha virt. eigenvalues --    3.65523   3.68285   3.73852   3.75214   3.79138
 Alpha virt. eigenvalues --    3.80534   3.82751   3.86056   3.91420   3.92973
 Alpha virt. eigenvalues --    3.93780   4.02028   4.08090   4.09631   4.15734
 Alpha virt. eigenvalues --    4.17449   4.17984   4.28426   4.31168   4.31452
 Alpha virt. eigenvalues --    4.34829   4.40076   4.42372   4.43783   4.53215
 Alpha virt. eigenvalues --    4.62735   4.64300   4.66844   4.70619   4.78096
 Alpha virt. eigenvalues --    4.81215   4.86964   4.88955   4.96987   4.98505
 Alpha virt. eigenvalues --    5.02082   5.11856   5.14091   5.41502   5.46186
 Alpha virt. eigenvalues --    5.52011   5.57455   5.58383   5.67253   5.78529
 Alpha virt. eigenvalues --    5.83870   5.84980   5.98976   6.00614   6.38064
 Alpha virt. eigenvalues --    6.38176   6.52786   6.67764   6.79441   6.79864
 Alpha virt. eigenvalues --    6.95995   7.27044   7.33948   9.43811  11.27827
 Alpha virt. eigenvalues --   11.54654  13.05142  14.15175
     Molecular Orbital Coefficients:
                           1         2         3         4         5
                        (A1)--O   (B2)--O   (A1)--O   (A1)--O   (B2)--O
     Eigenvalues --   -19.19723 -10.22368 -10.22365 -10.17557 -10.17514
   1 1   C  1S          0.00003   0.00513   0.00490   0.68968   0.69000
   2        2S          0.00026  -0.00129  -0.00216   0.00217   0.00329
   3        3S          0.00005   0.00122   0.00071   0.03714   0.03588
   4        4S         -0.00086  -0.01389  -0.00186   0.00733   0.02053
   5        5PX         0.00000   0.00000   0.00000   0.00000   0.00000
   6        5PY        -0.00002   0.00058   0.00015  -0.00050   0.00039
   7        5PZ         0.00006   0.00053   0.00057  -0.00018   0.00018
   8        6PX         0.00000   0.00000   0.00000   0.00000   0.00000
   9        6PY         0.00026  -0.00582   0.00021   0.00368  -0.00029
  10        6PZ        -0.00032  -0.00443  -0.00670   0.00195  -0.00031
  11        7PX         0.00000   0.00000   0.00000   0.00000   0.00000
  12        7PY        -0.00008   0.00233  -0.00078   0.00206  -0.00192
  13        7PZ        -0.00034  -0.00497  -0.00238  -0.00041   0.00111
  14        8D 0        0.00003  -0.00043  -0.00053   0.00112   0.00106
  15        8D+1        0.00000   0.00000   0.00000   0.00000   0.00000
  16        8D-1        0.00000  -0.00029  -0.00021  -0.00055  -0.00059
  17        8D+2       -0.00002   0.00006   0.00015  -0.00083  -0.00130
  18        8D-2        0.00000   0.00000   0.00000   0.00000   0.00000
  19        9D 0       -0.00008  -0.00495  -0.00163   0.00309  -0.00136
  20        9D+1        0.00000   0.00000   0.00000   0.00000   0.00000
  21        9D-1        0.00013  -0.00650  -0.00301   0.00019   0.00310
  22        9D+2        0.00001  -0.00068  -0.00086   0.00133  -0.00308
  23        9D-2        0.00000   0.00000   0.00000   0.00000   0.00000
  24       10F 0       -0.00010  -0.00084  -0.00067   0.00039   0.00048
  25       10F+1        0.00000   0.00000   0.00000   0.00000   0.00000
  26       10F-1        0.00015  -0.00131  -0.00072   0.00056   0.00231
  27       10F+2        0.00000   0.00007   0.00020   0.00035   0.00065
  28       10F-2        0.00000   0.00000   0.00000   0.00000   0.00000
  29       10F+3        0.00000   0.00000   0.00000   0.00000   0.00000
  30       10F-3        0.00001  -0.00004   0.00005  -0.00055   0.00078
  31 2   C  1S          0.00013   0.69004   0.68975  -0.00575  -0.00579
  32        2S          0.00092   0.00369   0.00130  -0.00220  -0.00166
  33        3S         -0.00029   0.03662   0.03601   0.00030   0.00067
  34        4S          0.00078   0.01256   0.01033  -0.00098  -0.01175
  35        5PX         0.00000   0.00000   0.00000   0.00000   0.00000
  36        5PY         0.00008  -0.00064  -0.00055  -0.00010   0.00001
  37        5PZ         0.00000   0.00073   0.00060  -0.00064  -0.00049
  38        6PX         0.00000   0.00000   0.00000   0.00000   0.00000
  39        6PY        -0.00204   0.00130   0.00404   0.00307  -0.00002
  40        6PZ         0.00076  -0.00534  -0.00199   0.00622   0.00438
  41        7PX         0.00000   0.00000   0.00000   0.00000   0.00000
  42        7PY        -0.00033   0.00021   0.00231   0.00069   0.00372
  43        7PZ        -0.00059  -0.00056  -0.00027   0.00199   0.00342
  44        8D 0        0.00001   0.00063   0.00063  -0.00052  -0.00054
  45        8D+1        0.00000   0.00000   0.00000   0.00000   0.00000
  46        8D-1       -0.00036   0.00088   0.00071  -0.00016  -0.00015
  47        8D+2       -0.00020  -0.00147  -0.00108   0.00016  -0.00004
  48        8D-2        0.00000   0.00000   0.00000   0.00000   0.00000
  49        9D 0        0.00011   0.00364   0.00146  -0.00336  -0.00407
  50        9D+1        0.00000   0.00000   0.00000   0.00000   0.00000
  51        9D-1       -0.00045  -0.00130   0.00189  -0.00121   0.00054
  52        9D+2       -0.00020   0.00147  -0.00108  -0.00169  -0.00035
  53        9D-2        0.00000   0.00000   0.00000   0.00000   0.00000
  54       10F 0        0.00013  -0.00139  -0.00094   0.00075   0.00124
  55       10F+1        0.00000   0.00000   0.00000   0.00000   0.00000
  56       10F-1       -0.00002  -0.00042  -0.00057   0.00086   0.00063
  57       10F+2        0.00004  -0.00104  -0.00083  -0.00015   0.00015
  58       10F-2        0.00000   0.00000   0.00000   0.00000   0.00000
  59       10F+3        0.00000   0.00000   0.00000   0.00000   0.00000
  60       10F-3        0.00017  -0.00049  -0.00035   0.00008   0.00004
  61 3   O  1S          0.97286   0.00000  -0.00020  -0.00012   0.00000
  62        2S         -0.01160   0.00000  -0.00016  -0.00066   0.00000
  63        3S          0.05154   0.00000   0.00062   0.00010   0.00000
  64        4S         -0.00017   0.00000   0.00012  -0.00225   0.00000
  65        5PX         0.00000   0.00000   0.00000   0.00000   0.00000
  66        5PY         0.00000   0.00054   0.00000   0.00000  -0.00002
  67        5PZ        -0.00165   0.00000  -0.00028  -0.00019   0.00000
  68        6PX         0.00000   0.00000   0.00000   0.00000   0.00000
  69        6PY         0.00000  -0.00139   0.00000   0.00000   0.00031
  70        6PZ         0.00161   0.00000   0.00046   0.00104   0.00000
  71        7PX         0.00000   0.00000   0.00000   0.00000   0.00000
  72        7PY         0.00000  -0.00434   0.00000   0.00000   0.00295
  73        7PZ         0.00085   0.00000  -0.00086   0.00078   0.00000
  74        8D 0        0.00002   0.00000  -0.00003   0.00002   0.00000
  75        8D+1        0.00000   0.00000   0.00000   0.00000   0.00000
  76        8D-1        0.00000  -0.00024   0.00000   0.00000  -0.00007
  77        8D+2       -0.00022   0.00000  -0.00008   0.00005   0.00000
  78        8D-2        0.00000   0.00000   0.00000   0.00000   0.00000
  79        9D 0       -0.00011   0.00000   0.00020  -0.00047   0.00000
  80        9D+1        0.00000   0.00000   0.00000   0.00000   0.00000
  81        9D-1        0.00000   0.00190   0.00000   0.00000   0.00005
  82        9D+2        0.00084   0.00000   0.00102  -0.00040   0.00000
  83        9D-2        0.00000   0.00000   0.00000   0.00000   0.00000
  84       10F 0       -0.00006   0.00000  -0.00038   0.00009   0.00000
  85       10F+1        0.00000   0.00000   0.00000   0.00000   0.00000
  86       10F-1        0.00000  -0.00034   0.00000   0.00000  -0.00005
  87       10F+2       -0.00019   0.00000  -0.00066   0.00011   0.00000
  88       10F-2        0.00000   0.00000   0.00000   0.00000   0.00000
  89       10F+3        0.00000   0.00000   0.00000   0.00000   0.00000
  90       10F-3        0.00000   0.00033   0.00000   0.00000  -0.00006
  91 4   C  1S          0.00013  -0.69004   0.68975  -0.00575   0.00579
  92        2S          0.00092  -0.00369   0.00130  -0.00220   0.00166
  93        3S         -0.00029  -0.03662   0.03601   0.00030  -0.00067
  94        4S          0.00078  -0.01256   0.01033  -0.00098   0.01175
  95        5PX         0.00000   0.00000   0.00000   0.00000   0.00000
  96        5PY        -0.00008  -0.00064   0.00055   0.00010   0.00001
  97        5PZ         0.00000  -0.00073   0.00060  -0.00064   0.00049
  98        6PX         0.00000   0.00000   0.00000   0.00000   0.00000
  99        6PY         0.00204   0.00130  -0.00404  -0.00307  -0.00002
 100        6PZ         0.00076   0.00534  -0.00199   0.00622  -0.00438
 101        7PX         0.00000   0.00000   0.00000   0.00000   0.00000
 102        7PY         0.00033   0.00021  -0.00231  -0.00069   0.00372
 103        7PZ        -0.00059   0.00056  -0.00027   0.00199  -0.00342
 104        8D 0        0.00001  -0.00063   0.00063  -0.00052   0.00054
 105        8D+1        0.00000   0.00000   0.00000   0.00000   0.00000
 106        8D-1        0.00036   0.00088  -0.00071   0.00016  -0.00015
 107        8D+2       -0.00020   0.00147  -0.00108   0.00016   0.00004
 108        8D-2        0.00000   0.00000   0.00000   0.00000   0.00000
 109        9D 0        0.00011  -0.00364   0.00146  -0.00336   0.00407
 110        9D+1        0.00000   0.00000   0.00000   0.00000   0.00000
 111        9D-1        0.00045  -0.00130  -0.00189   0.00121   0.00054
 112        9D+2       -0.00020  -0.00147  -0.00108  -0.00169   0.00035
 113        9D-2        0.00000   0.00000   0.00000   0.00000   0.00000
 114       10F 0        0.00013   0.00139  -0.00094   0.00075  -0.00124
 115       10F+1        0.00000   0.00000   0.00000   0.00000   0.00000
 116       10F-1        0.00002  -0.00042   0.00057  -0.00086   0.00063
 117       10F+2        0.00004   0.00104  -0.00083  -0.00015  -0.00015
 118       10F-2        0.00000   0.00000   0.00000   0.00000   0.00000
 119       10F+3        0.00000   0.00000   0.00000   0.00000   0.00000
 120       10F-3       -0.00017  -0.00049   0.00035  -0.00008   0.00004
 121 5   C  1S          0.00003  -0.00513   0.00490   0.68968  -0.69000
 122        2S          0.00026   0.00129  -0.00216   0.00217  -0.00329
 123        3S          0.00005  -0.00122   0.00071   0.03714  -0.03588
 124        4S         -0.00086   0.01389  -0.00186   0.00733  -0.02053
 125        5PX         0.00000   0.00000   0.00000   0.00000   0.00000
 126        5PY         0.00002   0.00058  -0.00015   0.00050   0.00039
 127        5PZ         0.00006  -0.00053   0.00057  -0.00018  -0.00018
 128        6PX         0.00000   0.00000   0.00000   0.00000   0.00000
 129        6PY        -0.00026  -0.00582  -0.00021  -0.00368  -0.00029
 130        6PZ        -0.00032   0.00443  -0.00670   0.00195   0.00031
 131        7PX         0.00000   0.00000   0.00000   0.00000   0.00000
 132        7PY         0.00008   0.00233   0.00078  -0.00206  -0.00192
 133        7PZ        -0.00034   0.00497  -0.00238  -0.00041  -0.00111
 134        8D 0        0.00003   0.00043  -0.00053   0.00112  -0.00106
 135        8D+1        0.00000   0.00000   0.00000   0.00000   0.00000
 136        8D-1        0.00000  -0.00029   0.00021   0.00055  -0.00059
 137        8D+2       -0.00002  -0.00006   0.00015  -0.00083   0.00130
 138        8D-2        0.00000   0.00000   0.00000   0.00000   0.00000
 139        9D 0       -0.00008   0.00495  -0.00163   0.00309   0.00136
 140        9D+1        0.00000   0.00000   0.00000   0.00000   0.00000
 141        9D-1       -0.00013  -0.00650   0.00301  -0.00019   0.00310
 142        9D+2        0.00001   0.00068  -0.00086   0.00133   0.00308
 143        9D-2        0.00000   0.00000   0.00000   0.00000   0.00000
 144       10F 0       -0.00010   0.00084  -0.00067   0.00039  -0.00048
 145       10F+1        0.00000   0.00000   0.00000   0.00000   0.00000
 146       10F-1       -0.00015  -0.00131   0.00072  -0.00056   0.00231
 147       10F+2        0.00000  -0.00007   0.00020   0.00035  -0.00065
 148       10F-2        0.00000   0.00000   0.00000   0.00000   0.00000
 149       10F+3        0.00000   0.00000   0.00000   0.00000   0.00000
 150       10F-3       -0.00001  -0.00004  -0.00005   0.00055   0.00078
 151 6   H  1S         -0.00003  -0.00010   0.00008   0.00020   0.00008
 152        2S         -0.00022   0.00133  -0.00456  -0.00594   0.00468
 153        3S         -0.00008   0.00090  -0.00098  -0.00197   0.00155
 154        4PX         0.00000   0.00000   0.00000   0.00000   0.00000
 155        4PY        -0.00005  -0.00006  -0.00002  -0.00040   0.00080
 156        4PZ        -0.00003  -0.00026   0.00005  -0.00073   0.00095
 157        5PX         0.00000   0.00000   0.00000   0.00000   0.00000
 158        5PY        -0.00014  -0.00133  -0.00093  -0.00281   0.00133
 159        5PZ        -0.00013   0.00122  -0.00200  -0.00225   0.00277
 160        6D 0        0.00001   0.00009  -0.00009  -0.00056   0.00070
 161        6D+1        0.00000   0.00000   0.00000   0.00000   0.00000
 162        6D-1       -0.00005  -0.00012  -0.00009  -0.00113   0.00125
 163        6D+2        0.00005   0.00020   0.00006   0.00044  -0.00037
 164        6D-2        0.00000   0.00000   0.00000   0.00000   0.00000
 165 7   H  1S          0.00012  -0.00003   0.00005   0.00012  -0.00016
 166        2S          0.00081   0.00277  -0.00853  -0.00389   0.00117
 167        3S          0.00010   0.00184  -0.00254  -0.00092   0.00091
 168        4PX         0.00000   0.00000   0.00000   0.00000   0.00000
 169        4PY         0.00009   0.00092  -0.00085  -0.00009  -0.00008
 170        4PZ        -0.00008  -0.00057   0.00050  -0.00020   0.00019
 171        5PX         0.00000   0.00000   0.00000   0.00000   0.00000
 172        5PY         0.00022   0.00212  -0.00392  -0.00129   0.00021
 173        5PZ        -0.00024  -0.00083   0.00201   0.00177  -0.00066
 174        6D 0        0.00002  -0.00020   0.00021   0.00003  -0.00003
 175        6D+1        0.00000   0.00000   0.00000   0.00000   0.00000
 176        6D-1       -0.00014  -0.00107   0.00106   0.00005   0.00004
 177        6D+2        0.00003  -0.00088   0.00084   0.00017  -0.00004
 178        6D-2        0.00000   0.00000   0.00000   0.00000   0.00000
 179 8   H  1S          0.00012   0.00003   0.00005   0.00012   0.00016
 180        2S          0.00081  -0.00277  -0.00853  -0.00389  -0.00117
 181        3S          0.00010  -0.00184  -0.00254  -0.00092  -0.00091
 182        4PX         0.00000   0.00000   0.00000   0.00000   0.00000
 183        4PY        -0.00009   0.00092   0.00085   0.00009  -0.00008
 184        4PZ        -0.00008   0.00057   0.00050  -0.00020  -0.00019
 185        5PX         0.00000   0.00000   0.00000   0.00000   0.00000
 186        5PY        -0.00022   0.00212   0.00392   0.00129   0.00021
 187        5PZ        -0.00024   0.00083   0.00201   0.00177   0.00066
 188        6D 0        0.00002   0.00020   0.00021   0.00003   0.00003
 189        6D+1        0.00000   0.00000   0.00000   0.00000   0.00000
 190        6D-1        0.00014  -0.00107  -0.00106  -0.00005   0.00004
 191        6D+2        0.00003   0.00088   0.00084   0.00017   0.00004
 192        6D-2        0.00000   0.00000   0.00000   0.00000   0.00000
 193 9   H  1S         -0.00003   0.00010   0.00008   0.00020  -0.00008
 194        2S         -0.00022  -0.00133  -0.00456  -0.00594  -0.00468
 195        3S         -0.00008  -0.00090  -0.00098  -0.00197  -0.00155
 196        4PX         0.00000   0.00000   0.00000   0.00000   0.00000
 197        4PY         0.00005  -0.00006   0.00002   0.00040   0.00080
 198        4PZ        -0.00003   0.00026   0.00005  -0.00073  -0.00095
 199        5PX         0.00000   0.00000   0.00000   0.00000   0.00000
 200        5PY         0.00014  -0.00133   0.00093   0.00281   0.00133
 201        5PZ        -0.00013  -0.00122  -0.00200  -0.00225  -0.00277
 202        6D 0        0.00001  -0.00009  -0.00009  -0.00056  -0.00070
 203        6D+1        0.00000   0.00000   0.00000   0.00000   0.00000
 204        6D-1        0.00005  -0.00012   0.00009   0.00113   0.00125
 205        6D+2        0.00005  -0.00020   0.00006   0.00044   0.00037
 206        6D-2        0.00000   0.00000   0.00000   0.00000   0.00000
                           6         7         8         9        10
[...]
  97         (A2)--V           2.366752          4.568732
  98         (A1)--V           2.381039          3.919322
  99         (B2)--V           2.414025          4.380776
 100         (B1)--V           2.443392          3.557669
 101         (B2)--V           2.504745          3.991535
 102         (B1)--V           2.534018          3.677536
 103         (A1)--V           2.599548          4.104683
 104         (A2)--V           2.603611          3.784217
 105         (B1)--V           2.614612          3.616767
 106         (A1)--V           2.618791          4.639649
 107         (A1)--V           2.712573          4.378958
 108         (A1)--V           2.735997          4.280078
 109         (B2)--V           2.777167          3.998748
 110         (B1)--V           2.827373          4.076122
 111         (A2)--V           2.827531          3.842797
 112         (A1)--V           2.872840          4.927063
 113         (B2)--V           2.878038          4.699518
 114         (B2)--V           2.916147          4.390923
 115         (B1)--V           2.922489          4.593150
 116         (A1)--V           2.922857          4.314525
 117         (B2)--V           2.942275          4.842486
 118         (A1)--V           2.950857          4.557532
 119         (B1)--V           2.966259          4.146800
 120         (A2)--V           2.998934          4.172540
 121         (B2)--V           3.045433          5.199475
 122         (A2)--V           3.066709          4.363437
 123         (B2)--V           3.095456          4.703817
 124         (A2)--V           3.096041          4.142208
 125         (B1)--V           3.123235          4.201231
 126         (A1)--V           3.149046          4.488097
 127         (B1)--V           3.156606          4.148123
 128         (A1)--V           3.170976          4.517801
 129         (B2)--V           3.188436          4.537009
 130         (A2)--V           3.200504          4.410660
 131         (B1)--V           3.251707          4.416436
 132         (A2)--V           3.316177          4.319309
 133         (A1)--V           3.323901          5.132438
 134         (B2)--V           3.328350          4.797767
 135         (A1)--V           3.367031          5.412573
 136         (B2)--V           3.375328          4.973082
 137         (B2)--V           3.458154          5.341525
 138         (A1)--V           3.465972          4.862387
 139         (B2)--V           3.532901          4.953305
 140         (A2)--V           3.568220          4.389570
 141         (A1)--V           3.591897          4.638000
 142         (A2)--V           3.614164          4.576988
 143         (B1)--V           3.619567          5.006521
 144         (B2)--V           3.655230          4.917147
 145         (A1)--V           3.682845          5.652431
 146         (B2)--V           3.738517          4.758333
 147         (A1)--V           3.752142          5.213257
 148         (B1)--V           3.791384          4.876687
 149         (A2)--V           3.805343          4.735744
 150         (B1)--V           3.827506          4.710862
 151         (A1)--V           3.860559          5.291346
 152         (B2)--V           3.914201          4.998754
 153         (B1)--V           3.929730          5.260226
 154         (A2)--V           3.937795          4.755690
 155         (A1)--V           4.020282          5.487833
 156         (B2)--V           4.080897          5.298344
 157         (B1)--V           4.096313          7.337096
 158         (B2)--V           4.157337          5.759450
 159         (A1)--V           4.174488          5.663689
 160         (A2)--V           4.179844          4.963085
 161         (B2)--V           4.284260          5.797351
 162         (A1)--V           4.311676          6.463722
 163         (A2)--V           4.314524          5.528653
 164         (B2)--V           4.348293          6.633936
 165         (B2)--V           4.400763          6.228591
 166         (B1)--V           4.423717          5.595657
 167         (A1)--V           4.437833          7.119241
 168         (A1)--V           4.532153          5.800920
 169         (A2)--V           4.627354          5.836330
 170         (A1)--V           4.642996          7.138953
 171         (B2)--V           4.668442          5.788737
 172         (B1)--V           4.706191          5.755279
 173         (B2)--V           4.780962          7.776203
 174         (A1)--V           4.812151          6.732721
 175         (A2)--V           4.869644          5.881911
 176         (B1)--V           4.889548          5.885556
 177         (A1)--V           4.969871          6.846805
 178         (B2)--V           4.985046          6.569807
 179         (A1)--V           5.020820          7.396740
 180         (B2)--V           5.118562          7.238785
 181         (A1)--V           5.140910          6.980435
 182         (B2)--V           5.415016          7.029776
 183         (A2)--V           5.461861          6.440751
 184         (B1)--V           5.520114          7.073093
 185         (A1)--V           5.574547          7.706901
 186         (B2)--V           5.583830          7.415949
 187         (B2)--V           5.672532          7.375055
 188         (B1)--V           5.785289          7.453402
 189         (A2)--V           5.838701          7.725337
 190         (A1)--V           5.849800          7.428646
 191         (B2)--V           5.989757          7.746773
 192         (A1)--V           6.006142          8.457663
 193         (B2)--V           6.380642          9.738402
 194         (A1)--V           6.381757          8.691209
 195         (B2)--V           6.527862          9.201109
 196         (B1)--V           6.677639          9.576968
 197         (A2)--V           6.794406          9.530714
 198         (A1)--V           6.798644          9.933784
 199         (B2)--V           6.959954          8.789914
 200         (B2)--V           7.270444         10.101788
 201         (A1)--V           7.339481         10.219641
 202         (A1)--V           9.438115         23.980297
 203         (A1)--V          11.278272         31.595142
 204         (B2)--V          11.546536         27.792935
 205         (A1)--V          13.051417         31.801745
 206         (B2)--V          14.151748         34.534716
 Total kinetic energy from orbitals= 2.286025979454D+02
 No NMR shielding tensors so no spin-rotation constants.
 Leave Link  601 at Tue Oct  6 11:29:04 2015, MaxMem=    33554432 cpu:         0.3
 (Enter /home/Applications/g09/g09/l701.exe)
 Compute integral first derivatives.
 ... and contract with generalized density number  6.
 Leave Link  701 at Tue Oct  6 11:29:04 2015, MaxMem=    33554432 cpu:         0.1
 (Enter /home/Applications/g09/g09/l702.exe)
 L702 exits ... SP integral derivatives will be done elsewhere.
 Leave Link  702 at Tue Oct  6 11:29:04 2015, MaxMem=    33554432 cpu:         0.0
 (Enter /home/Applications/g09/g09/l703.exe)
 Compute integral first derivatives, UseDBF=F ICtDFT=           0.
 Integral derivatives from FoFJK, PRISM(SPDF).
 Calling FoFJK, ICntrl=  10005127 FMM=F ISym2X=1 I1Cent= 0 IOpClX= 0 NMat=1 NMatS=1 NMatT=0.
 FoFJK:  IHMeth= 1 ICntrl=10005127 DoSepK=F KAlg= 0 I1Cent=   0 FoldK=F
 IRaf=         0 NMat=   1 IRICut=       1 DoRegI=T DoRafI=F ISym2E= 1.
 FoFCou: FMM=F IPFlag=           0 FMFlag=      100000 FMFlg1=         800
         NFxFlg=           0 DoJE=F BraDBF=F KetDBF=F FulRan=T
         wScrn=  0.000000 ICntrl=10005127 IOpCl=  0 I1Cent=           0 NGrid=           0
         NMat0=    1 NMatS0=      1 NMatT0=    0 NMatD0=    1 NMtDS0=    0 NMtDT0=    0
 Petite list used in FoFCou.
 Leave Link  703 at Tue Oct  6 11:29:19 2015, MaxMem=    33554432 cpu:        14.7
 (Enter /home/Applications/g09/g09/l716.exe)
 Dipole        = 8.69562296D-17-4.44089210D-16-2.89013985D-01
 ***** Axes restored to original set *****
 -------------------------------------------------------------------
 Center     Atomic                   Forces (Hartrees/Bohr)
 Number     Number              X              Y              Z
 -------------------------------------------------------------------
      1        6           0.066534551    0.042876735    0.000000000
      2        6          -0.031651597   -0.030137080    0.000000000
      3        8          -0.069667377    0.000000000    0.000000000
      4        6          -0.031651597    0.030137080    0.000000000
      5        6           0.066534551   -0.042876735    0.000000000
      6        1           0.000129169   -0.001359211    0.000000000
      7        1          -0.000178434    0.001382912    0.000000000
      8        1          -0.000178434   -0.001382912    0.000000000
      9        1           0.000129169    0.001359211    0.000000000
 -------------------------------------------------------------------
 Cartesian Forces:  Max     0.069667377 RMS     0.028028964
 Z-matrix is all fixed cartesians, so copy forces.
 Force constants in Cartesian coordinates: 
                1             2             3             4             5 
      1  0.924213D+00
      2 -0.280496D-01  0.794695D+00
      3  0.000000D+00  0.000000D+00  0.206887D+00
      4 -0.512400D+00 -0.107252D+00  0.000000D+00  0.940723D+00
      5 -0.840374D-01 -0.216108D+00  0.000000D+00  0.222648D-01  0.891463D+00
      6  0.000000D+00  0.000000D+00 -0.105153D+00  0.000000D+00  0.000000D+00
      7 -0.847936D-02  0.292752D-01  0.000000D+00 -0.289302D+00  0.168432D+00
      8 -0.629794D-02  0.217438D-01  0.000000D+00  0.212644D+00 -0.374940D+00
      9  0.000000D+00  0.000000D+00  0.744560D-02  0.000000D+00  0.000000D+00
     10  0.100412D-01  0.000000D+00  0.000000D+00  0.243474D-01  0.180838D-01
     11  0.346676D-01  0.000000D+00  0.000000D+00 -0.180838D-01 -0.134315D-01
     12  0.000000D+00  0.000000D+00 -0.114437D-02  0.000000D+00  0.000000D+00
     13 -0.167385D+00  0.115645D-01  0.000000D+00  0.100412D-01 -0.346676D-01
     14 -0.115645D-01 -0.407138D+00  0.000000D+00  0.000000D+00  0.000000D+00
     15  0.000000D+00  0.000000D+00 -0.812287D-01  0.000000D+00  0.000000D+00
     16  0.176569D-01  0.000000D+00  0.000000D+00  0.000000D+00  0.000000D+00
     17 -0.231031D-01  0.000000D+00  0.000000D+00  0.000000D+00  0.000000D+00
     18  0.000000D+00  0.000000D+00  0.180027D-01  0.000000D+00  0.000000D+00
     19  0.000000D+00  0.000000D+00  0.000000D+00  0.000000D+00  0.000000D+00
     20  0.000000D+00  0.000000D+00  0.000000D+00  0.000000D+00  0.000000D+00
     21  0.000000D+00  0.000000D+00  0.703148D-02  0.000000D+00  0.000000D+00
     22  0.760156D-02 -0.262446D-01  0.000000D+00 -0.168217D+00 -0.108004D+00
     23 -0.394138D-02  0.136077D-01  0.000000D+00 -0.102778D+00 -0.310441D+00
     24  0.000000D+00  0.000000D+00  0.295845D-01  0.000000D+00  0.000000D+00
     25 -0.271249D+00  0.120707D+00  0.000000D+00 -0.519280D-02  0.179283D-01
     26  0.122326D+00 -0.206800D+00  0.000000D+00 -0.679449D-02  0.234582D-01
     27  0.000000D+00  0.000000D+00 -0.814255D-01  0.000000D+00  0.000000D+00
                6             7             8             9            10 
      6  0.197193D+00
      7  0.000000D+00  0.551909D+00
      8  0.000000D+00  0.000000D+00  0.723204D+00
      9 -0.472115D-01  0.000000D+00  0.000000D+00  0.567211D-01
     10  0.000000D+00 -0.289302D+00 -0.212644D+00  0.000000D+00  0.940723D+00
     11  0.000000D+00 -0.168432D+00 -0.374940D+00  0.000000D+00 -0.222648D-01
     12 -0.169673D-02  0.000000D+00  0.000000D+00 -0.472115D-01  0.000000D+00
     13  0.000000D+00 -0.847936D-02  0.629794D-02  0.000000D+00 -0.512400D+00
     14  0.000000D+00 -0.292752D-01  0.217438D-01  0.000000D+00  0.107252D+00
     15 -0.114437D-02  0.000000D+00  0.000000D+00  0.744560D-02  0.000000D+00
     16  0.000000D+00  0.000000D+00  0.000000D+00  0.000000D+00 -0.519280D-02
     17  0.000000D+00  0.000000D+00  0.000000D+00  0.000000D+00  0.679449D-02
     18  0.419500D-02  0.000000D+00  0.000000D+00  0.682264D-02  0.000000D+00
     19  0.000000D+00  0.218269D-01 -0.162117D-01  0.000000D+00 -0.168217D+00
     20  0.000000D+00  0.113172D-01 -0.840572D-02  0.000000D+00  0.102778D+00
     21  0.490261D-02  0.000000D+00  0.000000D+00  0.458270D-02  0.000000D+00
     22  0.000000D+00  0.218269D-01  0.162117D-01  0.000000D+00  0.000000D+00
     23  0.000000D+00 -0.113172D-01 -0.840572D-02  0.000000D+00  0.000000D+00
     24 -0.772883D-01  0.000000D+00  0.000000D+00  0.458270D-02  0.000000D+00
     25  0.000000D+00  0.000000D+00  0.000000D+00  0.000000D+00  0.000000D+00
     26  0.000000D+00  0.000000D+00  0.000000D+00  0.000000D+00  0.000000D+00
     27  0.262030D-01  0.000000D+00  0.000000D+00  0.682264D-02  0.000000D+00
               11            12            13            14            15 
     11  0.891463D+00
     12  0.000000D+00  0.197193D+00
     13  0.840374D-01  0.000000D+00  0.924213D+00
     14 -0.216108D+00  0.000000D+00  0.280496D-01  0.794695D+00
     15  0.000000D+00 -0.105153D+00  0.000000D+00  0.000000D+00  0.206887D+00
     16 -0.179283D-01  0.000000D+00 -0.271249D+00 -0.120707D+00  0.000000D+00
     17  0.234582D-01  0.000000D+00 -0.122326D+00 -0.206800D+00  0.000000D+00
     18  0.000000D+00  0.262030D-01  0.000000D+00  0.000000D+00 -0.814255D-01
     19  0.108004D+00  0.000000D+00  0.760156D-02  0.262446D-01  0.000000D+00
     20 -0.310441D+00  0.000000D+00  0.394138D-02  0.136077D-01  0.000000D+00
     21  0.000000D+00 -0.772883D-01  0.000000D+00  0.000000D+00  0.295845D-01
     22  0.000000D+00  0.000000D+00  0.000000D+00  0.000000D+00  0.000000D+00
     23  0.000000D+00  0.000000D+00  0.000000D+00  0.000000D+00  0.000000D+00
     24  0.000000D+00  0.490261D-02  0.000000D+00  0.000000D+00  0.703148D-02
     25  0.000000D+00  0.000000D+00  0.176569D-01  0.000000D+00  0.000000D+00
     26  0.000000D+00  0.000000D+00  0.231031D-01  0.000000D+00  0.000000D+00
     27  0.000000D+00  0.419500D-02  0.000000D+00  0.000000D+00  0.180027D-01
               16            17            18            19            20 
     16  0.258784D+00
     17  0.138635D+00  0.183342D+00
     18  0.000000D+00  0.000000D+00  0.437604D-01
     19  0.000000D+00  0.000000D+00  0.000000D+00  0.138789D+00
     20  0.000000D+00  0.000000D+00  0.000000D+00 -0.118037D+00  0.305239D+00
     21  0.000000D+00  0.000000D+00 -0.111742D-01  0.000000D+00  0.000000D+00
     22  0.000000D+00  0.000000D+00  0.000000D+00  0.000000D+00  0.000000D+00
     23  0.000000D+00  0.000000D+00  0.000000D+00  0.000000D+00  0.000000D+00
     24  0.000000D+00  0.000000D+00  0.000000D+00  0.000000D+00  0.000000D+00
     25  0.000000D+00  0.000000D+00  0.000000D+00  0.000000D+00  0.000000D+00
     26  0.000000D+00  0.000000D+00  0.000000D+00  0.000000D+00  0.000000D+00
     27  0.000000D+00  0.000000D+00 -0.638405D-02  0.000000D+00  0.000000D+00
               21            22            23            24            25 
     21  0.423613D-01
     22  0.000000D+00  0.138789D+00
     23  0.000000D+00  0.118037D+00  0.305239D+00
     24  0.000000D+00  0.000000D+00  0.000000D+00  0.423613D-01
     25  0.000000D+00  0.000000D+00  0.000000D+00  0.000000D+00  0.258784D+00
     26  0.000000D+00  0.000000D+00  0.000000D+00  0.000000D+00 -0.138635D+00
     27  0.000000D+00  0.000000D+00  0.000000D+00 -0.111742D-01  0.000000D+00
               26            27 
     26  0.183342D+00
     27  0.000000D+00  0.437604D-01
 Leave Link  716 at Tue Oct  6 11:29:19 2015, MaxMem=    33554432 cpu:         0.0
 (Enter /home/Applications/g09/g09/l103.exe)

 GradGradGradGradGradGradGradGradGradGradGradGradGradGradGradGradGradGrad
 Berny optimization.
 Search for a local minimum.
 Step number   1 out of a maximum of    2
 All quantities printed in internal units (Hartrees-Bohrs-Radians)
 Second derivative matrix not updated -- first step.
 ITU=  0
     Eigenvalues ---    0.01909   0.03043   0.07124   0.07582   0.07733
     Eigenvalues ---    0.08210   0.13100   0.13481   0.16178   0.22954
     Eigenvalues ---    0.26166   0.31112   0.39564   0.42521   0.63269
     Eigenvalues ---    0.84274   1.09112   1.36532   1.42425   1.55978
     Eigenvalues ---    1.63653
 Angle between quadratic step and forces=  44.09 degrees.
 ClnCor:  largest displacement from symmetrization is 1.91D-11 for atom     9.
 Linear search not attempted -- first point.
 ClnCor:  largest displacement from symmetrization is 4.44D-16 for atom     5.
 TrRot= -0.016801  0.000000  0.000000  0.000000  0.000000  0.000000
 Variable       Old X    -DE/DX   Delta X   Delta X   Delta X     New X
                                 (Linear)    (Quad)   (Total)
    X1        1.80559   0.06653   0.00000   0.08972   0.07292   1.87850
    Y1       -1.35297   0.04288   0.00000   0.04072   0.04072  -1.31225
    Z1        0.00000   0.00000   0.00000   0.00000   0.00000   0.00000
    X2       -0.65314  -0.03165   0.00000  -0.03256  -0.04936  -0.70250
    Y2       -2.06513  -0.03014   0.00000   0.01664   0.01664  -2.04848
    Z2        0.00000   0.00000   0.00000   0.00000   0.00000   0.00000
    X3       -2.18699  -0.06967   0.00000  -0.17332  -0.19012  -2.37711
    Y3        0.00000   0.00000   0.00000   0.00000   0.00000   0.00000
    Z3        0.00000   0.00000   0.00000   0.00000   0.00000   0.00000
    X4       -0.65314  -0.03165   0.00000  -0.03256  -0.04936  -0.70250
    Y4        2.06513   0.03014   0.00000  -0.01664  -0.01664   2.04848
    Z4        0.00000   0.00000   0.00000   0.00000   0.00000   0.00000
    X5        1.80559   0.06653   0.00000   0.08972   0.07292   1.87850
    Y5        1.35297  -0.04288   0.00000  -0.04072  -0.04072   1.31225
    Z5        0.00000   0.00000   0.00000   0.00000   0.00000   0.00000
    X6        3.42123   0.00013   0.00000   0.09460   0.07780   3.49904
    Y6        2.58776  -0.00136   0.00000  -0.05038  -0.05038   2.53738
    Z6        0.00000   0.00000   0.00000   0.00000   0.00000   0.00000
    X7       -1.58795  -0.00018   0.00000   0.01050  -0.00630  -1.59425
    Y7        3.86805   0.00138   0.00000   0.00971   0.00971   3.87776
    Z7        0.00000   0.00000   0.00000   0.00000   0.00000   0.00000
    X8       -1.58795  -0.00018   0.00000   0.01050  -0.00630  -1.59425
    Y8       -3.86805  -0.00138   0.00000  -0.00971  -0.00971  -3.87776
    Z8        0.00000   0.00000   0.00000   0.00000   0.00000   0.00000
    X9        3.42123   0.00013   0.00000   0.09460   0.07780   3.49904
    Y9       -2.58776   0.00136   0.00000   0.05038   0.05038  -2.53738
    Z9        0.00000   0.00000   0.00000   0.00000   0.00000   0.00000
         Item               Value     Threshold  Converged?
 Maximum Force            0.069667     0.000450     NO 
 RMS     Force            0.028029     0.000300     NO 
 Maximum Displacement     0.190119     0.001800     NO 
 RMS     Displacement     0.051988     0.001200     NO 
 Predicted change in Energy=-1.437390D-02
 GradGradGradGradGradGradGradGradGradGradGradGradGradGradGradGradGradGrad

 Leave Link  103 at Tue Oct  6 11:29:19 2015, MaxMem=    33554432 cpu:         0.0
 (Enter /home/Applications/g09/g09/l9999.exe)
 1\1\GINC-DUSTIN-DESKTOP\Force\RB3LYP-FC\CC-pVTZ\C4H4O1\DUSTIN\06-Oct-2
 015\0\\#P B3LYP/cc-pVTZ CIS(Singlets,NStates=15) pop(full) force\\Fura
 nDFT\\0,1\C,0.955475,-0.715963,0.\C,-0.345627,-1.092818,0.\O,-1.157305
 ,0.,0.\C,-0.345627,1.092818,0.\C,0.955475,0.715963,0.\H,1.810438,1.369
 382,0.\H,-0.840307,2.046884,0.\H,-0.840307,-2.046884,0.\H,1.810438,-1.
 369382,0.\\Version=ES64L-G09RevD.01\State=1-A1\HF=-230.1087415\RMSD=9.
 054e-09\RMSF=2.803e-02\Dipole=0.289014,0.,0.\PG=C02V [C2(O1),SGV(C4H4)
 ]\\@


 BOOKS ARE LIGHTHOUSES ERECTED IN THE GREAT SEA OF TIME.
     -- E.P.WHIPPLE
 Job cpu time:       0 days  0 hours  5 minutes 47.0 seconds.
 File lengths (MBytes):  RWF=     73 Int=      0 D2E=      0 Chk=     21 Scr=      1
 Normal termination of Gaussian 09 at Tue Oct  6 11:29:19 2015.
