 Entering Gaussian System, Link 0=g09
 Input=FuranAM1_43.com
 Output=FuranAM1_43.log
 Initial command:
 /home/Applications/g09/g09/l1.exe "/home/Applications/g09/scratch/Gau-5865.inp" -scrdir="/home/Applications/g09/scratch/"
 Entering Link 1 = /home/Applications/g09/g09/l1.exe PID=      5867.
  
 Copyright (c) 1988,1990,1992,1993,1995,1998,2003,2009,2013,
            Gaussian, Inc.  All Rights Reserved.
  
 This is part of the Gaussian(R) 09 program.  It is based on
 the Gaussian(R) 03 system (copyright 2003, Gaussian, Inc.),
 the Gaussian(R) 98 system (copyright 1998, Gaussian, Inc.),
 the Gaussian(R) 94 system (copyright 1995, Gaussian, Inc.),
 the Gaussian 92(TM) system (copyright 1992, Gaussian, Inc.),
 the Gaussian 90(TM) system (copyright 1990, Gaussian, Inc.),
 the Gaussian 88(TM) system (copyright 1988, Gaussian, Inc.),
 the Gaussian 86(TM) system (copyright 1986, Carnegie Mellon
 University), and the Gaussian 82(TM) system (copyright 1983,
 Carnegie Mellon University). Gaussian is a federally registered
 trademark of Gaussian, Inc.
  
 This software contains proprietary and confidential information,
 including trade secrets, belonging to Gaussian, Inc.
  
 This software is provided under written license and may be
 used, copied, transmitted, or stored only in accord with that
 written license.
  
 The following legend is applicable only to US Government
 contracts under FAR:
  
                    RESTRICTED RIGHTS LEGEND
  
 Use, reproduction and disclosure by the US Government is
 subject to restrictions as set forth in subparagraphs (a)
 and (c) of the Commercial Computer Software - Restricted
 Rights clause in FAR 52.227-19.
  
 Gaussian, Inc.
 340 Quinnipiac St., Bldg. 40, Wallingford CT 06492
  
  
 ---------------------------------------------------------------
 Warning -- This program may not be used in any manner that
 competes with the business of Gaussian, Inc. or will provide
 assistance to any competitor of Gaussian, Inc.  The licensee
 of this program is prohibited from giving any competitor of
 Gaussian, Inc. access to this program.  By using this program,
 the user acknowledges that Gaussian, Inc. is engaged in the
 business of creating and licensing software in the field of
 computational chemistry and represents and warrants to the
 licensee that it is not a competitor of Gaussian, Inc. and that
 it will not use this program in any manner prohibited above.
 ---------------------------------------------------------------
  

 Cite this work as:
 Gaussian 09, Revision D.01,
 M. J. Frisch, G. W. Trucks, H. B. Schlegel, G. E. Scuseria, 
 M. A. Robb, J. R. Cheeseman, G. Scalmani, V. Barone, B. Mennucci, 
 G. A. Petersson, H. Nakatsuji, M. Caricato, X. Li, H. P. Hratchian, 
 A. F. Izmaylov, J. Bloino, G. Zheng, J. L. Sonnenberg, M. Hada, 
 M. Ehara, K. Toyota, R. Fukuda, J. Hasegawa, M. Ishida, T. Nakajima, 
 Y. Honda, O. Kitao, H. Nakai, T. Vreven, J. A. Montgomery, Jr., 
 J. E. Peralta, F. Ogliaro, M. Bearpark, J. J. Heyd, E. Brothers, 
 K. N. Kudin, V. N. Staroverov, T. Keith, R. Kobayashi, J. Normand, 
 K. Raghavachari, A. Rendell, J. C. Burant, S. S. Iyengar, J. Tomasi, 
 M. Cossi, N. Rega, J. M. Millam, M. Klene, J. E. Knox, J. B. Cross, 
 V. Bakken, C. Adamo, J. Jaramillo, R. Gomperts, R. E. Stratmann, 
 O. Yazyev, A. J. Austin, R. Cammi, C. Pomelli, J. W. Ochterski, 
 R. L. Martin, K. Morokuma, V. G. Zakrzewski, G. A. Voth, 
 P. Salvador, J. J. Dannenberg, S. Dapprich, A. D. Daniels, 
 O. Farkas, J. B. Foresman, J. V. Ortiz, J. Cioslowski, 
 and D. J. Fox, Gaussian, Inc., Wallingford CT, 2013.
 
 ******************************************
 Gaussian 09:  ES64L-G09RevD.01 24-Apr-2013
                15-Dec-2015 
 ******************************************
 ------------------------------------------------------------
 #P AM1(Input,print) CIS(Singlets,NStates=15) pop(full) force
 ------------------------------------------------------------
 1/10=7,30=1,38=1/1,3;
 2/12=2,17=6,18=5,40=1/2;
 3/5=2,16=1,25=1,41=700000,71=1,135=100,136=1/1,2,8,3;
 4/35=1/1;
 5/5=2,35=1,38=5/2;
 8/6=1,10=1,108=15/1;
 9/15=2,41=15,42=1,48=1,49=10/14;
 10/5=4/2;
 6/7=3,18=1/1;
 7/12=6,13=5,29=1/1,2,3,16;
 1/10=7,30=1/3;
 99//99;
 Leave Link    1 at Tue Dec 15 16:18:53 2015, MaxMem=           0 cpu:         0.0
 (Enter /home/Applications/g09/g09/l101.exe)
 -----------------
 AM1-Reparam Input
 -----------------
 Symbolic Z-matrix:
 Charge =  0 Multiplicity = 1
 6                     0.96545  -0.69164   0.01898 
 6                    -0.3718   -1.12657   0.01927 
 8                    -1.13023   0.03669   0.00689 
 6                    -0.29797   1.10673   0.00309 
 6                     0.94164   0.76177  -0.01812 
 1                     1.76698   1.37378  -0.04022 
 1                    -0.79493   2.00962  -0.02552 
 1                    -0.81291  -2.01008   0.04441 
 1                     1.80119  -1.40022   0.04508 
 
 NAtoms=      9 NQM=        9 NQMF=       0 NMMI=      0 NMMIF=      0
                NMic=       0 NMicF=      0.
                    Isotopes and Nuclear Properties:
 (Nuclear quadrupole moments (NQMom) in fm**2, nuclear magnetic moments (NMagM)
  in nuclear magnetons)

  Atom         1           2           3           4           5           6           7           8           9
 IAtWgt=          12          12          16          12          12           1           1           1           1
 AtmWgt=  12.0000000  12.0000000  15.9949146  12.0000000  12.0000000   1.0078250   1.0078250   1.0078250   1.0078250
 NucSpn=           0           0           0           0           0           1           1           1           1
 AtZEff=   0.0000000   0.0000000   0.0000000   0.0000000   0.0000000   0.0000000   0.0000000   0.0000000   0.0000000
 NQMom=    0.0000000   0.0000000   0.0000000   0.0000000   0.0000000   0.0000000   0.0000000   0.0000000   0.0000000
 NMagM=    0.0000000   0.0000000   0.0000000   0.0000000   0.0000000   2.7928460   2.7928460   2.7928460   2.7928460
 AtZNuc=   6.0000000   6.0000000   8.0000000   6.0000000   6.0000000   1.0000000   1.0000000   1.0000000   1.0000000
 Leave Link  101 at Tue Dec 15 16:18:53 2015, MaxMem=    33554432 cpu:         0.0
 (Enter /home/Applications/g09/g09/l103.exe)

 GradGradGradGradGradGradGradGradGradGradGradGradGradGradGradGradGradGrad
 Berny optimization.
 Initialization pass.
 Trust Radius=3.00D-01 FncErr=1.00D-07 GrdErr=1.00D-07
 Number of steps in this run=      2 maximum allowed number of steps=      2.
 GradGradGradGradGradGradGradGradGradGradGradGradGradGradGradGradGradGrad

 Leave Link  103 at Tue Dec 15 16:18:53 2015, MaxMem=    33554432 cpu:         0.0
 (Enter /home/Applications/g09/g09/l202.exe)
                          Input orientation:                          
 ---------------------------------------------------------------------
 Center     Atomic      Atomic             Coordinates (Angstroms)
 Number     Number       Type             X           Y           Z
 ---------------------------------------------------------------------
      1          6           0        0.965454   -0.691642    0.018978
      2          6           0       -0.371797   -1.126569    0.019270
      3          8           0       -1.130230    0.036691    0.006891
      4          6           0       -0.297972    1.106729    0.003092
      5          6           0        0.941641    0.761768   -0.018118
      6          1           0        1.766977    1.373778   -0.040216
      7          1           0       -0.794934    2.009617   -0.025516
      8          1           0       -0.812912   -2.010075    0.044408
      9          1           0        1.801185   -1.400221    0.045079
 ---------------------------------------------------------------------
                    Distance matrix (angstroms):
                    1          2          3          4          5
     1  C    0.000000
     2  C    1.406201   0.000000
     3  O    2.218672   1.388722   0.000000
     4  C    2.197871   2.234576   1.355599   0.000000
     5  C    1.454078   2.300507   2.195225   1.286891   0.000000
     6  H    2.216281   3.290840   3.191211   2.082596   1.027728
     7  H    3.224554   3.164919   2.001477   1.031017   2.138428
     8  H    2.213933   0.987824   2.071557   3.159325   3.281079
     9  H    1.095998   2.190297   3.264869   3.270019   2.327446
                    6          7          8          9
     6  H    0.000000
     7  H    2.639677   0.000000
     8  H    4.255990   4.020340   0.000000
     9  H    2.775521   4.286235   2.684292   0.000000
 Stoichiometry    C4H4O
 Framework group  C1[X(C4H4O)]
 Deg. of freedom    21
 Full point group                 C1      NOp   1
 Largest Abelian subgroup         C1      NOp   1
 Largest concise Abelian subgroup C1      NOp   1
                         Standard orientation:                         
 ---------------------------------------------------------------------
 Center     Atomic      Atomic             Coordinates (Angstroms)
 Number     Number       Type             X           Y           Z
 ---------------------------------------------------------------------
      1          6           0        0.569653    1.043992    0.004934
      2          6           0        1.183941   -0.220889   -0.006324
      3          8           0        0.135734   -1.131821   -0.002770
      4          6           0       -1.038320   -0.454336    0.013365
      5          6           0       -0.867145    0.820923   -0.009065
      6          1           0       -1.586914    1.554453   -0.018553
      7          1           0       -1.864804   -1.070508   -0.002558
      8          1           0        2.119918   -0.536569    0.003201
      9          1           0        1.157157    1.969053    0.022617
 ---------------------------------------------------------------------
 Rotational constants (GHZ):      9.6647206      9.1782159      4.7080163
 Leave Link  202 at Tue Dec 15 16:18:53 2015, MaxMem=    33554432 cpu:         0.0
 (Enter /home/Applications/g09/g09/l301.exe)

 Semi-emprical parameters in input format:
 Method=8 CoreType=1 PeptideFC=0.0114510000 RIJScale=0.5291770000
 ****
 H       
 PQN=1 NValence=1 F0ss=0.4721550000 ZetaOverlap=1.1880780000 U=-0.4188110000
 Beta=-0.2268830000 CoreKO=1.0589200000 KON=0,0,0,1.0589200000 KON=1,0,1,1.0589200000
 KON=0,1,1,1.0589200000 KON=2,1,1,1.0589200000 EISol=-0.4188110042 EHeat=0.0830298228
 Alpha=1.5252600000
 GCore=0.0085280000,1.4001430000,2.2676710000
 GCore=0.0003530000,1.4001430000,3.4015070000
 GCore=-0.0012730000,0.5600570000,3.9684250000
 ****
 C       
 PQN=2,2 NValence=4 F0ss=0.4494440000 F0sp=0.4215150000 F0pp=0.3768030000 F2pp=0.1898720000
 G1sp=0.2679030000
 ZetaOverlap=1.8086650000,1.6851160000
 U=-1.9120180000,-1.4557970000
 Beta=-0.5775440000,-0.2836780000 DDN=0,1,0.8236740000 DDN=1,1,0.7268010000
 CoreKO=1.1124280000 KON=0,0,0,1.1124280000 KON=1,0,1,0.8219700000 KON=0,1,1,1.1124280000
 KON=2,1,1,0.7783930000 EISol=-4.4398989268 EHeat=0.2723305520 Alpha=1.4014060000
 DipHyp=1.6472532266
 GCore=0.0007890000,1.4001430000,3.0235620000
 GCore=0.0031890000,1.4001430000,3.4959930000
 GCore=-0.0013930000,1.4001430000,3.8739390000
 GCore=-0.0000880000,1.4001430000,5.0077740000
 ****
 O       
 PQN=2,2 NValence=6 F0ss=0.5666750000 F0sp=0.5321300000 F0pp=0.4958710000 F2pp=0.2358080000
 G1sp=0.4343770000
 ZetaOverlap=3.1080320000,2.5240390000
 U=-3.5951870000,-2.8760900000
 Beta=-1.0757550000,-1.0757550000 DDN=0,1,0.4988900000 DDN=1,1,0.4852320000
 CoreKO=0.8822960000 KON=0,0,0,0.8822960000 KON=1,0,1,0.5019540000 KON=0,1,1,0.8822960000
 KON=2,1,1,0.5515580000 EISol=-11.6164441184 EHeat=0.0949133088 Alpha=2.3576810000
 DipHyp=0.9977225968
 GCore=0.0195120000,1.4001430000,1.6023330000
 GCore=0.0056550000,1.9602000000,2.7307880000
 ****
 
 Standard basis: VSTO-6G (5D, 7F)
 Ernie: Thresh=  0.10000D-02 Tol=  0.10000D-05 Strict=F.
  NNHCO=     0 NNPyr=     0 NCTC=     0               EPep=         0.000000000
    EC=        68.952549974  ECS=         1.910237041   EG=         0.350711476
   EHC=         0.000000000  EAt=       -31.051283842  AtH=         1.516354808
 EPDDG=         0.000000000  ECC=        71.213498492 EAtT=        32.567638650
 There are    24 symmetry adapted cartesian basis functions of A   symmetry.
 There are    24 symmetry adapted basis functions of A   symmetry.
    24 basis functions,   144 primitive gaussians,    24 cartesian basis functions
    13 alpha electrons       13 beta electrons
       nuclear repulsion energy       103.7811371419 Hartrees.
 IExCor=    0 DFT=F Ex=HF Corr=None ExCW=0 ScaHFX=  1.000000
 ScaDFX=  1.000000  1.000000  1.000000  1.000000 ScalE2=  1.000000  1.000000
 IRadAn=      0 IRanWt=     -1 IRanGd=            0 ICorTp=0 IEmpDi=  4
 Integral buffers will be    131072 words long.
 Regular integral format.
 Two-electron integral symmetry is turned off.
 Leave Link  301 at Tue Dec 15 16:18:53 2015, MaxMem=    33554432 cpu:         0.0
 (Enter /home/Applications/g09/g09/l302.exe)
 Do NDO integrals.
 NPDir=0 NMtPBC=     1 NCelOv=     1 NCel=       1 NClECP=     1 NCelD=      1
         NCelK=      1 NCelE2=     1 NClLst=     1 CellRange=     0.0.
 One-electron integrals computed using PRISM.
 NBasis=    24 RedAO= F EigKep=  0.00D+00  NBF=    24
 NBsUse=    24 1.00D-04 EigRej=  0.00D+00 NBFU=    24
 Leave Link  302 at Tue Dec 15 16:18:53 2015, MaxMem=    33554432 cpu:         0.0
 (Enter /home/Applications/g09/g09/l308.exe)
 Leave Link  308 at Tue Dec 15 16:18:53 2015, MaxMem=    33554432 cpu:         0.0
 (Enter /home/Applications/g09/g09/l303.exe)
 DipDrv:  MaxL=1.
 Leave Link  303 at Tue Dec 15 16:18:53 2015, MaxMem=    33554432 cpu:         0.0
 (Enter /home/Applications/g09/g09/l401.exe)
 Simple Huckel Guess.
 JPrj=0 DoOrth=F DoCkMO=F.
 Leave Link  401 at Tue Dec 15 16:18:53 2015, MaxMem=    33554432 cpu:         0.0
 (Enter /home/Applications/g09/g09/l502.exe)
 Closed shell SCF:
 Using DIIS extrapolation, IDIIS=  1040.
 Overlap will be assumed to be unity.
 Two-electron integral symmetry not used.
 Keep J ints in memory in canonical form, NReq=888082.
 IVT=       79475 IEndB=       79475 NGot=    33554432 MDV=    33473473
 LenX=    33473473 LenY=    33472456
 Requested convergence on RMS density matrix=1.00D-08 within 128 cycles.
 Requested convergence on MAX density matrix=1.00D-06.
 Requested convergence on             energy=1.00D-06.
 No special actions if energy rises.
 FoFCou: FMM=F IPFlag=           0 FMFlag=           0 FMFlg1=           0
         NFxFlg=           0 DoJE=F BraDBF=F KetDBF=F FulRan=T
         wScrn=  0.000000 ICntrl=     600 IOpCl=  2 I1Cent=           0 NGrid=           0
         NMat0=    1 NMatS0=     54 NMatT0=    0 NMatD0=    1 NMtDS0=    0 NMtDT0=    0
 Symmetry not used in FoFCou.

 Cycle   1  Pass 1  IDiag  1:
 E= 0.344018164240438    
 DIIS: error= 6.06D-02 at cycle   1 NSaved=   1.
 NSaved= 1 IEnMin= 1 EnMin= 0.344018164240438     IErMin= 1 ErrMin= 6.06D-02
 ErrMax= 6.06D-02  0.00D+00 EMaxC= 1.00D-01 BMatC= 1.11D-01 BMatP= 1.11D-01
 IDIUse=3 WtCom= 3.94D-01 WtEn= 6.06D-01
 Coeff-Com:  0.100D+01
 Coeff-En:   0.100D+01
 Coeff:      0.100D+01
 GapD=    2.000 DampG=2.000 DampE=0.500 DampFc=1.0000 IDamp=-1.
 RMSDP=1.92D-02 MaxDP=1.62D-01              OVMax= 0.00D+00

 Cycle   2  Pass 1  IDiag  1:
 E= 0.691897663552652E-01 Delta-E=       -0.274828397885 Rises=F Damp=F
 DIIS: error= 2.00D-02 at cycle   2 NSaved=   2.
 NSaved= 2 IEnMin= 2 EnMin= 0.691897663552652E-01 IErMin= 2 ErrMin= 2.00D-02
 ErrMax= 2.00D-02  0.00D+00 EMaxC= 1.00D-01 BMatC= 9.60D-03 BMatP= 1.11D-01
 IDIUse=3 WtCom= 8.00D-01 WtEn= 2.00D-01
 Coeff-Com: -0.360D+00 0.136D+01
 Coeff-En:   0.000D+00 0.100D+01
 Coeff:     -0.288D+00 0.129D+01
 RMSDP=8.19D-03 MaxDP=7.59D-02 DE=-2.75D-01 OVMax= 0.00D+00

 Cycle   3  Pass 1  IDiag  3:
 E= 0.384791274131260E-01 Delta-E=       -0.030710638942 Rises=F Damp=F
 DIIS: error= 3.92D-03 at cycle   3 NSaved=   3.
 NSaved= 3 IEnMin= 3 EnMin= 0.384791274131260E-01 IErMin= 3 ErrMin= 3.92D-03
 ErrMax= 3.92D-03  0.00D+00 EMaxC= 1.00D-01 BMatC= 3.92D-04 BMatP= 9.60D-03
 IDIUse=3 WtCom= 9.61D-01 WtEn= 3.92D-02
 Coeff-Com:  0.139D+00-0.623D+00 0.148D+01
 Coeff-En:   0.000D+00 0.000D+00 0.100D+01
 Coeff:      0.134D+00-0.599D+00 0.147D+01
 Gap=     0.379 Goal=   None    Shift=    0.000
 RMSDP=2.67D-03 MaxDP=3.24D-02 DE=-3.07D-02 OVMax= 3.39D-02

 Cycle   4  Pass 1  IDiag  3:
 E= 0.362839211989012E-01 Delta-E=       -0.002195206214 Rises=F Damp=F
 DIIS: error= 1.20D-03 at cycle   4 NSaved=   4.
 NSaved= 4 IEnMin= 4 EnMin= 0.362839211989012E-01 IErMin= 4 ErrMin= 1.20D-03
 ErrMax= 1.20D-03  0.00D+00 EMaxC= 1.00D-01 BMatC= 2.89D-05 BMatP= 3.92D-04
 IDIUse=3 WtCom= 9.88D-01 WtEn= 1.20D-02
 Coeff-Com:  0.143D-01-0.457D-01-0.212D+00 0.124D+01
 Coeff-En:   0.000D+00 0.000D+00 0.000D+00 0.100D+01
 Coeff:      0.141D-01-0.452D-01-0.210D+00 0.124D+01
 Gap=     0.380 Goal=   None    Shift=    0.000
 RMSDP=8.63D-04 MaxDP=1.10D-02 DE=-2.20D-03 OVMax= 1.14D-02

 Cycle   5  Pass 1  IDiag  3:
 E= 0.361010286353292E-01 Delta-E=       -0.000182892564 Rises=F Damp=F
 DIIS: error= 2.01D-04 at cycle   5 NSaved=   5.
 NSaved= 5 IEnMin= 5 EnMin= 0.361010286353292E-01 IErMin= 5 ErrMin= 2.01D-04
 ErrMax= 2.01D-04  0.00D+00 EMaxC= 1.00D-01 BMatC= 1.80D-06 BMatP= 2.89D-05
 IDIUse=3 WtCom= 9.98D-01 WtEn= 2.01D-03
 Coeff-Com: -0.822D-02 0.324D-01 0.256D-01-0.484D+00 0.143D+01
 Coeff-En:   0.000D+00 0.000D+00 0.000D+00 0.000D+00 0.100D+01
 Coeff:     -0.820D-02 0.324D-01 0.256D-01-0.483D+00 0.143D+01
 Gap=     0.380 Goal=   None    Shift=    0.000
 RMSDP=2.44D-04 MaxDP=2.05D-03 DE=-1.83D-04 OVMax= 2.55D-03

 Cycle   6  Pass 1  IDiag  3:
 E= 0.360879076474134E-01 Delta-E=       -0.000013120988 Rises=F Damp=F
 DIIS: error= 8.95D-05 at cycle   6 NSaved=   6.
 NSaved= 6 IEnMin= 6 EnMin= 0.360879076474134E-01 IErMin= 6 ErrMin= 8.95D-05
 ErrMax= 8.95D-05  0.00D+00 EMaxC= 1.00D-01 BMatC= 1.67D-07 BMatP= 1.80D-06
 IDIUse=1 WtCom= 1.00D+00 WtEn= 0.00D+00
 Coeff-Com:  0.349D-02-0.138D-01 0.301D-02 0.156D+00-0.699D+00 0.155D+01
 Coeff:      0.349D-02-0.138D-01 0.301D-02 0.156D+00-0.699D+00 0.155D+01
 Gap=     0.380 Goal=   None    Shift=    0.000
 RMSDP=8.85D-05 MaxDP=7.41D-04 DE=-1.31D-05 OVMax= 1.16D-03

 Cycle   7  Pass 1  IDiag  3:
 E= 0.360864410169057E-01 Delta-E=       -0.000001466631 Rises=F Damp=F
 DIIS: error= 3.23D-05 at cycle   7 NSaved=   7.
 NSaved= 7 IEnMin= 7 EnMin= 0.360864410169057E-01 IErMin= 7 ErrMin= 3.23D-05
 ErrMax= 3.23D-05  0.00D+00 EMaxC= 1.00D-01 BMatC= 1.39D-08 BMatP= 1.67D-07
 IDIUse=1 WtCom= 1.00D+00 WtEn= 0.00D+00
 Coeff-Com: -0.401D-03 0.114D-02 0.108D-02-0.287D-01 0.156D+00-0.615D+00
 Coeff-Com:  0.149D+01
 Coeff:     -0.401D-03 0.114D-02 0.108D-02-0.287D-01 0.156D+00-0.615D+00
 Coeff:      0.149D+01
 Gap=     0.380 Goal=   None    Shift=    0.000
 RMSDP=2.98D-05 MaxDP=2.83D-04 DE=-1.47D-06 OVMax= 3.66D-04

 Cycle   8  Pass 1  IDiag  3:
 E= 0.360863097247091E-01 Delta-E=       -0.000000131292 Rises=F Damp=F
 DIIS: error= 7.18D-06 at cycle   8 NSaved=   8.
 NSaved= 8 IEnMin= 8 EnMin= 0.360863097247091E-01 IErMin= 8 ErrMin= 7.18D-06
 ErrMax= 7.18D-06  0.00D+00 EMaxC= 1.00D-01 BMatC= 6.65D-10 BMatP= 1.39D-08
 IDIUse=1 WtCom= 1.00D+00 WtEn= 0.00D+00
 Coeff-Com:  0.142D-04 0.222D-03-0.136D-02 0.898D-02-0.458D-01 0.219D+00
 Coeff-Com: -0.713D+00 0.153D+01
 Coeff:      0.142D-04 0.222D-03-0.136D-02 0.898D-02-0.458D-01 0.219D+00
 Coeff:     -0.713D+00 0.153D+01
 Gap=     0.380 Goal=   None    Shift=    0.000
 RMSDP=6.33D-06 MaxDP=6.32D-05 DE=-1.31D-07 OVMax= 7.75D-05

 Cycle   9  Pass 1  IDiag  3:
 E= 0.360863039897907E-01 Delta-E=       -0.000000005735 Rises=F Damp=F
 DIIS: error= 1.10D-06 at cycle   9 NSaved=   9.
 NSaved= 9 IEnMin= 9 EnMin= 0.360863039897907E-01 IErMin= 9 ErrMin= 1.10D-06
 ErrMax= 1.10D-06  0.00D+00 EMaxC= 1.00D-01 BMatC= 2.45D-11 BMatP= 6.65D-10
 IDIUse=1 WtCom= 1.00D+00 WtEn= 0.00D+00
 Coeff-Com:  0.253D-04-0.223D-03 0.605D-03-0.248D-02 0.133D-01-0.768D-01
 Coeff-Com:  0.279D+00-0.721D+00 0.151D+01
 Coeff:      0.253D-04-0.223D-03 0.605D-03-0.248D-02 0.133D-01-0.768D-01
 Coeff:      0.279D+00-0.721D+00 0.151D+01
 Gap=     0.380 Goal=   None    Shift=    0.000
 RMSDP=9.98D-07 MaxDP=9.17D-06 DE=-5.73D-09 OVMax= 1.33D-05

 Cycle  10  Pass 1  IDiag  3:
 E= 0.360863038207953E-01 Delta-E=       -0.000000000169 Rises=F Damp=F
 DIIS: error= 1.37D-07 at cycle  10 NSaved=  10.
 NSaved=10 IEnMin=10 EnMin= 0.360863038207953E-01 IErMin=10 ErrMin= 1.37D-07
 ErrMax= 1.37D-07  0.00D+00 EMaxC= 1.00D-01 BMatC= 9.94D-13 BMatP= 2.45D-11
 IDIUse=1 WtCom= 1.00D+00 WtEn= 0.00D+00
 Coeff-Com: -0.125D-04 0.988D-04-0.252D-03 0.920D-03-0.461D-02 0.276D-01
 Coeff-Com: -0.103D+00 0.276D+00-0.700D+00 0.150D+01
 Coeff:     -0.125D-04 0.988D-04-0.252D-03 0.920D-03-0.461D-02 0.276D-01
 Coeff:     -0.103D+00 0.276D+00-0.700D+00 0.150D+01
 Gap=     0.380 Goal=   None    Shift=    0.000
 RMSDP=1.73D-07 MaxDP=1.12D-06 DE=-1.69D-10 OVMax= 1.84D-06

 Cycle  11  Pass 1  IDiag  3:
 E= 0.360863038149120E-01 Delta-E=       -0.000000000006 Rises=F Damp=F
 DIIS: error= 2.47D-08 at cycle  11 NSaved=  11.
 NSaved=11 IEnMin=11 EnMin= 0.360863038149120E-01 IErMin=11 ErrMin= 2.47D-08
 ErrMax= 2.47D-08  0.00D+00 EMaxC= 1.00D-01 BMatC= 3.21D-14 BMatP= 9.94D-13
 IDIUse=1 WtCom= 1.00D+00 WtEn= 0.00D+00
 Coeff-Com:  0.376D-05-0.304D-04 0.777D-04-0.289D-03 0.139D-02-0.830D-02
 Coeff-Com:  0.308D-01-0.824D-01 0.214D+00-0.550D+00 0.139D+01
 Coeff:      0.376D-05-0.304D-04 0.777D-04-0.289D-03 0.139D-02-0.830D-02
 Coeff:      0.308D-01-0.824D-01 0.214D+00-0.550D+00 0.139D+01
 Gap=     0.380 Goal=   None    Shift=    0.000
 RMSDP=2.91D-08 MaxDP=1.30D-07 DE=-5.88D-12 OVMax= 1.97D-07

 Cycle  12  Pass 1  IDiag  3:
 E= 0.360863038149830E-01 Delta-E=        0.000000000000 Rises=F Damp=F
 DIIS: error= 5.16D-09 at cycle  12 NSaved=  12.
 NSaved=12 IEnMin=11 EnMin= 0.360863038149120E-01 IErMin=12 ErrMin= 5.16D-09
 ErrMax= 5.16D-09  0.00D+00 EMaxC= 1.00D-01 BMatC= 1.98D-15 BMatP= 3.21D-14
 IDIUse=1 WtCom= 1.00D+00 WtEn= 0.00D+00
 Coeff-Com: -0.730D-06 0.573D-05-0.133D-04 0.475D-04-0.216D-03 0.137D-02
 Coeff-Com: -0.512D-02 0.136D-01-0.364D-01 0.107D+00-0.474D+00 0.139D+01
 Coeff:     -0.730D-06 0.573D-05-0.133D-04 0.475D-04-0.216D-03 0.137D-02
 Coeff:     -0.512D-02 0.136D-01-0.364D-01 0.107D+00-0.474D+00 0.139D+01
 Gap=     0.380 Goal=   None    Shift=    0.000
 RMSDP=7.42D-09 MaxDP=3.93D-08 DE= 7.11D-14 OVMax= 5.89D-08

 Cycle  13  Pass 2  IDiag  1:
 SCF Done:  E(RAM1) =  0.360863038150E-01 A.U. after   13 cycles
            NFock= 12  Conv=0.74D-08     -V/T= 1.0022
 KE=-1.661316348120D+01 PE=-1.714701065711D+02 EE= 8.433821921418D+01
 Leave Link  502 at Tue Dec 15 16:18:53 2015, MaxMem=    33554432 cpu:         0.0
 (Enter /home/Applications/g09/g09/l801.exe)
 Range of M.O.s used for correlation:     1    24
 NBasis=    24 NAE=    13 NBE=    13 NFC=     0 NFV=     0
 NROrb=     24 NOA=    13 NOB=    13 NVA=    11 NVB=    11
 Leave Link  801 at Tue Dec 15 16:18:53 2015, MaxMem=    33554432 cpu:         0.0
 (Enter /home/Applications/g09/g09/l914.exe)
 RHF ground state
 MDV=    33554432 DFT=F DoStab=F Mixed=F DoRPA=F DoScal=F NonHer=F
 Making orbital integer symmetry assigments:
 Orbital symmetries:
       Occupied  (A) (A) (A) (A) (A) (A) (A) (A) (A) (A) (A) (A)
                 (A)
       Virtual   (A) (A) (A) (A) (A) (A) (A) (A) (A) (A) (A)
    60 initial guesses have been made.
 Convergence on wavefunction:    0.000001000000000
 Davidson Disk Diagonalization:  ConvIn= 1.00D-06 SkipCon=T Conv= 1.00D-06.
 Max sub-space:   240 roots to seek:    60 dimension of matrix:          286
 Iteration     1 Dimension    60 NMult     0 NNew     60
 CISAX will form    60 AO SS matrices at one time.
 NMat=    60 NSing=    60 JSym2X= 0.
 FoFJK:  IHMeth= 8 ICntrl=       0 DoSepK=F KAlg= 0 I1Cent=   0 FoldK=F
 IRaf=         1 NMat= 120 IRICut=       1 DoRegI=T DoRafI=F ISym2E= 0.
 FoFCou: FMM=F IPFlag=           0 FMFlag=      100000 FMFlg1=           0
         NFxFlg=           0 DoJE=F BraDBF=F KetDBF=F FulRan=T
         wScrn=  0.000000 ICntrl=       0 IOpCl=  0 I1Cent=           0 NGrid=           0
         NMat0=  120 NMatS0=     60 NMatT0=    0 NMatD0=  120 NMtDS0=    0 NMtDT0=    0
 Symmetry not used in FoFCou.
 New state      2 was old state      4
 New state      3 was old state      2
 New state      4 was old state      8
 New state      5 was old state      6
 New state      6 was old state      3
 New state      7 was old state      5
 New state      8 was old state      9
 New state      9 was old state      7
 New state     11 was old state     13
 New state     12 was old state     18
 New state     13 was old state     15
 New state     14 was old state     12
 New state     15 was old state     17
 Excitation Energies [eV] at current iteration:
 Root      1 :     4.602144774362017
 Root      2 :     5.074900150504292
 Root      3 :     5.183002845965863
 Root      4 :     5.887256673842070
 Root      5 :     5.918899888467662
 Root      6 :     6.263679781146601
 Root      7 :     6.545683255170190
 Root      8 :     6.596225396423542
 Root      9 :     6.636882175267593
 Root     10 :     6.901937826140630
 Root     11 :     7.182538441315987
 Root     12 :     7.450687998591227
 Root     13 :     7.734272041790137
 Root     14 :     7.783374548699663
 Root     15 :     7.861150938819814
 Root     16 :     7.972783162644260
 Root     17 :     8.115829217610109
 Root     18 :     8.177097146268318
 Root     19 :     8.219066000115664
 Root     20 :     8.479418154108942
 Root     21 :     8.723368624602314
 Root     22 :     8.904092013210947
 Root     23 :     8.963322805720052
 Root     24 :     9.108645720609390
 Root     25 :     9.500884046475022
 Root     26 :     9.519354739647758
 Root     27 :     9.691151521792088
 Root     28 :     9.780512418788653
 Root     29 :     9.826071733822955
 Root     30 :     9.854899681864886
 Root     31 :     9.963085401566895
 Root     32 :    10.045540832286370
 Root     33 :    10.151290448463880
 Root     34 :    10.329619787122540
 Root     35 :    10.453527178825790
 Root     36 :    10.468667985159920
 Root     37 :    10.612033791591090
 Root     38 :    10.743740624222380
 Root     39 :    10.948362102694750
 Root     40 :    11.024821921975680
 Root     41 :    11.084874690836160
 Root     42 :    11.288856970348560
 Root     43 :    11.310235168812990
 Root     44 :    11.525938690814960
 Root     45 :    11.580283043082510
 Root     46 :    11.694159247123770
 Root     47 :    11.770104744007170
 Root     48 :    11.905062523003320
 Root     49 :    11.983113242242870
 Root     50 :    12.091741874363630
 Root     51 :    12.340548722790880
 Root     52 :    12.672232707635380
 Root     53 :    12.895903243750060
 Root     54 :    13.147679467008910
 Root     55 :    13.194584764412480
 Root     56 :    13.322529649021850
 Root     57 :    13.482076025985000
 Root     58 :    13.593288192412110
 Root     59 :    13.810851610766690
 Root     60 :    13.932736630481420
 Iteration     2 Dimension   120 NMult    60 NNew     60
 CISAX will form    60 AO SS matrices at one time.
 NMat=    60 NSing=    60 JSym2X= 0.
 Root      1 not converged, maximum delta is    0.022933251136917
 Root      2 not converged, maximum delta is    0.036855214897009
 Root      3 not converged, maximum delta is    0.020141205923322
 Root      4 not converged, maximum delta is    0.287186544648386
 Root      5 not converged, maximum delta is    0.227417875891083
 Root      6 not converged, maximum delta is    0.091310369162290
 Root      7 not converged, maximum delta is    0.242114491445139
 Root      8 not converged, maximum delta is    0.376186772466550
 Root      9 not converged, maximum delta is    0.313056900654234
 Root     10 not converged, maximum delta is    0.043118737694320
 Root     11 not converged, maximum delta is    0.059319970137948
 Root     12 not converged, maximum delta is    0.059867532883311
 Root     13 not converged, maximum delta is    0.228098759352663
 Root     14 not converged, maximum delta is    0.204389029862827
 Root     15 not converged, maximum delta is    0.071318411657522
 Excitation Energies [eV] at current iteration:
 Root      1 :     4.542726320204440   Change is   -0.059418454157577
 Root      2 :     5.043019220267239   Change is   -0.031880930237053
 Root      3 :     5.163635225570657   Change is   -0.019367620395206
 Root      4 :     5.790043159251648   Change is   -0.097213514590422
 Root      5 :     5.849754948873464   Change is   -0.069144939594198
 Root      6 :     6.156631096355165   Change is   -0.107048684791437
 Root      7 :     6.457067750883248   Change is   -0.088615504286942
 Root      8 :     6.477753956471481   Change is   -0.118471439952061
 Root      9 :     6.576116215635450   Change is   -0.060765959632144
 Root     10 :     6.833383285030248   Change is   -0.068554541110382
 Root     11 :     7.069748090813533   Change is   -0.112790350502453
 Root     12 :     7.346042005014317   Change is   -0.104645993576910
 Root     13 :     7.626975195155767   Change is   -0.107296846634370
 Root     14 :     7.698795578743828   Change is   -0.084578969955834
 Root     15 :     7.787633045890082   Change is   -0.073517892929732
 Root     16 :     7.864774770170775   Change is   -0.108008392473485
 Root     17 :     7.983667132812297   Change is   -0.193430013456020
 Root     18 :     8.053107030453464   Change is   -0.062722187156645
 Root     19 :     8.131823625160706   Change is   -0.087242374954958
 Root     20 :     8.202183515326681   Change is   -0.277234638782260
 Root     21 :     8.574449226129055   Change is   -0.148919398473259
 Root     22 :     8.857301124658218   Change is   -0.046790888552730
 Root     23 :     8.917196873322466   Change is   -0.046125932397586
 Root     24 :     9.031138868158063   Change is   -0.077506852451327
 Root     25 :     9.122958994397790   Change is   -0.396395745249968
 Root     26 :     9.315060469096863   Change is   -0.185823577378158
 Root     27 :     9.349468878898518   Change is   -0.341682642893570
 Root     28 :     9.431253881799890   Change is   -0.423645800064996
 Root     29 :     9.648393000808619   Change is   -0.132119417980034
 Root     30 :     9.733977714091209   Change is   -0.595642073031333
 Root     31 :     9.749247019604473   Change is   -0.076824714218482
 Root     32 :     9.832272651860473   Change is   -0.130812749706421
 Root     33 :     9.876809116470470   Change is   -0.168731715815895
 Root     34 :     9.882103158110231   Change is   -0.269187290353652
 Root     35 :     9.937124353620812   Change is   -0.531543631539106
 Root     36 :    10.186239919608560   Change is   -0.425793871982532
 Root     37 :    10.304151093772680   Change is   -0.439589530449696
 Root     38 :    10.329600479151290   Change is   -0.123926699674498
 Root     39 :    10.416546397316360   Change is   -0.531815705378395
 Root     40 :    10.602287804274840   Change is   -0.482586886561316
 Root     41 :    10.767848576550620   Change is   -0.256973345425064
 Root     42 :    10.871002647699030   Change is   -0.654936043115932
 Root     43 :    10.889545160369230   Change is   -0.399311809979332
 Root     44 :    11.055036831740850   Change is   -0.715067912266319
 Root     45 :    11.163157519361900   Change is   -0.417125523720607
 Root     46 :    11.201100118109940   Change is   -0.109135050703047
 Root     47 :    11.409698356339530   Change is   -0.284460890784236
 Root     48 :    11.571688144644340   Change is   -0.411425097598524
 Root     49 :    11.682126438515290   Change is   -0.222936084488033
 Root     50 :    11.868698790336540   Change is   -0.223043084027086
 Root     51 :    11.991165433398600   Change is   -0.349383289392282
 Root     52 :    12.160276736984630   Change is   -0.987402730024273
 Root     53 :    12.325369330431070   Change is   -0.346863377204305
 Root     54 :    12.529227824497800   Change is   -0.793301824524049
 Root     55 :    12.691943932388790   Change is   -0.203959311361269
 Root     56 :    12.854319783746520
 Root     57 :    13.149620981980870   Change is   -0.044963782431612
 Root     58 :    13.187576655359130   Change is   -0.294499370625861
 Root     59 :    13.415276414116050   Change is   -0.395575196650634
 Root     60 :    13.487787760776640   Change is   -0.105500431635476
 Iteration     3 Dimension   135 NMult   120 NNew     15
 CISAX will form    15 AO SS matrices at one time.
 NMat=    15 NSing=    15 JSym2X= 0.
 Root      1 not converged, maximum delta is    0.000622777930494
 Root      2 not converged, maximum delta is    0.000073047195097
 Root      3 not converged, maximum delta is    0.000388360666551
 Root      4 not converged, maximum delta is    0.000062905992597
 Root      5 not converged, maximum delta is    0.000100863941097
 Root      6 not converged, maximum delta is    0.002326741336827
 Root      7 not converged, maximum delta is    0.006535059011039
 Root      8 not converged, maximum delta is    0.005099981112104
 Root      9 not converged, maximum delta is    0.000142679960742
 Root     10 not converged, maximum delta is    0.000089162335425
 Root     11 not converged, maximum delta is    0.000081332488765
 Root     12 not converged, maximum delta is    0.000079686059225
 Root     13 not converged, maximum delta is    0.000139109944642
 Root     14 not converged, maximum delta is    0.000140967008633
 Root     15 not converged, maximum delta is    0.000077739196441
 Excitation Energies [eV] at current iteration:
 Root      1 :     4.542645071257098   Change is   -0.000081248947342
 Root      2 :     5.043016905605493   Change is   -0.000002314661746
 Root      3 :     5.163579175383084   Change is   -0.000056050187574
 Root      4 :     5.790042502749956   Change is   -0.000000656501692
 Root      5 :     5.849753983130513   Change is   -0.000000965742951
 Root      6 :     6.155879450066354   Change is   -0.000751646288811
 Root      7 :     6.456833233376313   Change is   -0.000234517506936
 Root      8 :     6.477438462728687   Change is   -0.000315493742794
 Root      9 :     6.576114769601117   Change is   -0.000001446034332
 Root     10 :     6.833381623138761   Change is   -0.000001661891486
 Root     11 :     7.069746629117059   Change is   -0.000001461696474
 Root     12 :     7.346040182076016   Change is   -0.000001822938301
 Root     13 :     7.626970218572748   Change is   -0.000004976583019
 Root     14 :     7.698791375265152   Change is   -0.000004203478676
 Root     15 :     7.787631798757049   Change is   -0.000001247133033
 Iteration     4 Dimension   143 NMult   135 NNew      8
 CISAX will form     8 AO SS matrices at one time.
 NMat=     8 NSing=     8 JSym2X= 0.
 Root      1 not converged, maximum delta is    0.000013361616126
 Root      2 not converged, maximum delta is    0.000002765697901
 Root      3 not converged, maximum delta is    0.000014074211086
 Root      4 not converged, maximum delta is    0.000002475684424
 Root      5 not converged, maximum delta is    0.000002065266644
 Root      6 not converged, maximum delta is    0.000094953857351
 Root      7 not converged, maximum delta is    0.000052163617437
 Root      8 not converged, maximum delta is    0.000064029163969
 Root      9 not converged, maximum delta is    0.000003314917302
 Root     10 not converged, maximum delta is    0.000002123762190
 Root     11 not converged, maximum delta is    0.000003467538566
 Root     12 not converged, maximum delta is    0.000005669337794
 Root     13 not converged, maximum delta is    0.000006376714777
 Root     14 not converged, maximum delta is    0.000005952974325
 Root     15 not converged, maximum delta is    0.000003946347495
 Excitation Energies [eV] at current iteration:
 Root      1 :     4.542645018420878   Change is   -0.000000052836221
 Root      2 :     5.043016903414045   Change is   -0.000000002191448
 Root      3 :     5.163579108545095   Change is   -0.000000066837988
 Root      4 :     5.790042501390686   Change is   -0.000000001359270
 Root      5 :     5.849753981536173   Change is   -0.000000001594340
 Root      6 :     6.155877281965468   Change is   -0.000002168100885
 Root      7 :     6.456832277256082   Change is   -0.000000956120231
 Root      8 :     6.477437145360629   Change is   -0.000001317368058
 Root      9 :     6.576114764953073   Change is   -0.000000004648044
 Root     10 :     6.833381622096697   Change is   -0.000000001042064
 Root     11 :     7.069746625771478   Change is   -0.000000003345582
 Root     12 :     7.346040177014405   Change is   -0.000000005061610
 Root     13 :     7.626970200349367   Change is   -0.000000018223381
 Root     14 :     7.698791367066323   Change is   -0.000000008198829
 Root     15 :     7.787631796247392   Change is   -0.000000002509658
 Convergence achieved on expansion vectors.
 ***********************************************************************
 Excited states from <AA,BB:AA,BB> singles matrix:
 ***********************************************************************
 
 1PDM for each excited state written to RWF  633
 Ground to excited state transition densities written to RWF  633
 Ground to excited state transition electric dipole moments (Au):
       state          X           Y           Z        Dip. S.      Osc.
         1        -0.8646      0.2412      0.0402      0.8074      0.0899
         2         0.0236      0.0521      0.0386      0.0048      0.0006
         3         0.0163      0.1307     -0.0187      0.0177      0.0022
         4         0.0140      0.0163     -0.0433      0.0023      0.0003
         5         0.0528      0.0247      0.0893      0.0114      0.0016
         6         0.4269      1.3344     -0.0185      1.9633      0.2961
         7         0.4781     -0.5637     -0.0351      0.5475      0.0866
         8         0.6095     -0.6095      0.0372      0.7443      0.1181
         9         0.0344     -0.0263      0.1344      0.0200      0.0032
        10         0.0186      0.0108     -0.0733      0.0058      0.0010
        11         0.0143     -0.0336      0.0145      0.0015      0.0003
        12         0.0107      0.0209      0.1099      0.0126      0.0023
        13         0.0060     -0.0222     -0.0633      0.0045      0.0008
        14         0.0047      0.0152      0.0217      0.0007      0.0001
        15        -0.0152      0.0084      0.1124      0.0129      0.0025
 Ground to excited state transition velocity dipole moments (Au):
       state          X           Y           Z        Dip. S.      Osc.
         1         0.0562     -0.0390     -0.0071      0.0047      0.0189
         2        -0.0005     -0.0013     -0.0083      0.0001      0.0003
         3         0.0020      0.0028      0.0040      0.0000      0.0001
         4        -0.0010     -0.0026     -0.0019      0.0000      0.0000
         5        -0.0093     -0.0045     -0.0800      0.0065      0.0202
         6        -0.0616     -0.2642      0.0054      0.0736      0.2170
         7        -0.0920      0.1213      0.0460      0.0253      0.0711
         8        -0.1186      0.1339     -0.0364      0.0333      0.0933
         9        -0.0049      0.0071     -0.1779      0.0317      0.0875
        10        -0.0036     -0.0035     -0.0043      0.0000      0.0001
        11        -0.0033      0.0099      0.0472      0.0023      0.0060
        12        -0.0014     -0.0012      0.0259      0.0007      0.0017
        13        -0.0019      0.0053      0.0230      0.0006      0.0013
        14        -0.0003     -0.0060      0.0994      0.0099      0.0234
        15         0.0021      0.0008      0.0052      0.0000      0.0001
 Ground to excited state transition magnetic dipole moments (Au):
       state          X           Y           Z
         1        -0.0045      0.0046     -0.6910
         2        -0.1550      0.5855      0.0109
         3         0.0345     -0.1282      0.0041
         4        -0.3432     -0.1617     -0.0049
         5         0.1736     -0.1760      0.0132
         6         0.0133      0.0113      0.1678
         7         0.0437      0.0766     -0.0479
         8         0.0033     -0.0770     -0.0400
         9        -0.0973      0.2335      0.0094
        10        -1.5378     -0.2766     -0.0161
        11        -0.0161      0.6693     -0.0065
        12         0.2777     -0.1002      0.0056
        13        -0.6048      0.7200     -0.0108
        14         0.8537      0.2827      0.0024
        15        -0.2224     -0.1583     -0.0097
 Ground to excited state transition velocity quadrupole moments (Au):
       state          XX          YY          ZZ          XY          XZ          YZ
         1         0.2126     -0.1769      0.0006     -0.4718      0.0049     -0.0027
         2         0.0121     -0.0184      0.0140      0.0100      0.1673      0.0294
         3         0.0652     -0.1280      0.0736      0.0089     -0.0330     -0.0100
         4         0.0075      0.0041     -0.0067     -0.0071      0.1159     -0.2236
         5         0.0122     -0.0158      0.0027     -0.0141     -0.0266      0.1504
         6         0.4322     -0.2524     -0.0360     -0.1261     -0.0176     -0.0191
         7        -0.1011      0.0183      0.0226     -0.3128     -0.0286     -0.1992
         8        -0.0992      0.0258      0.0046     -0.3850      0.0530      0.1431
         9        -0.0034      0.0037      0.0021     -0.0060     -0.1504     -0.0234
        10         0.0075     -0.0099      0.0012     -0.0204     -0.0955      0.0404
        11        -0.0007      0.0109     -0.0070     -0.0145     -0.2845     -0.0534
        12         0.0014     -0.0038      0.0038     -0.0093     -0.0787      0.2583
        13        -0.0092     -0.0077     -0.0003     -0.0127      0.1632      0.0677
        14         0.0068     -0.0055     -0.0034     -0.0073      0.0422      0.1295
        15         0.0035      0.0053      0.0018      0.0084      0.0150     -0.3074
 <0|del|b> * <b|rxdel|0> + <0|del|b> * <b|delr+rdel|0>
 Rotatory Strengths (R) in cgs (10**-40 erg-esu-cm/Gauss)
       state          XX          YY          ZZ    R(velocity)    E-M Angle
         1        17.4625      2.4314     -0.9989      6.2983       84.61
         2        -1.3419      0.1131     -1.6353     -0.9547       98.48
         3        -0.4007      0.0538     -0.6795     -0.3421      113.02
         4         1.2187      0.9424      0.3953      0.8521       52.51
         5         1.2287     -8.5699      1.1572     -2.0613       95.40
         6       -11.5620      3.0629     -0.5131     -3.0040       93.61
         7        -5.6991     39.4830    -24.6070      3.0590       78.88
         8        -2.8672    -44.4555     19.8831     -9.1465      125.67
         9         3.0944     -3.1452      1.3904      0.4465       89.42
        10         1.1272      7.5908      9.8842      6.2007       50.65
        11        11.4690      0.8265      5.0014      5.7656       78.68
        12        -0.0944     -0.5087      0.2410     -0.1207       91.03
        13         3.0278      1.3109      7.4594      3.9327       77.89
        14        -2.4122      0.8195     -2.7202     -1.4376       91.10
        15        -0.1696     -1.4815      0.0857     -0.5218      114.22
 1/2[<0|r|b>*<b|rxdel|0> + (<0|rxdel|b>*<b|r|0>)*]
 Rotatory Strengths (R) in cgs (10**-40 erg-esu-cm/Gauss)
       state          XX          YY          ZZ     R(length)
         1        -2.7524     -0.7819     19.6497      5.3718
         2         2.5885    -21.5646     -0.2969     -6.4244
         3        -0.3968     11.8461      0.0538      3.8344
         4         3.3966      1.8599     -0.1508      1.7019
         5        -6.4862      3.0752     -0.8346     -1.4152
         6        -4.0051    -10.6396      2.1983     -4.1488
         7       -14.7702     30.5501     -1.1871      4.8643
         8        -1.4100    -33.1680      1.0516    -11.1755
         9         2.3702      4.3478     -0.8928      1.9417
        10        20.2524      2.1035     -0.8372      7.1729
        11         0.1636     15.8933      0.0665      5.3745
        12        -2.1079      1.4781     -0.4330     -0.3543
        13         2.5639     11.2941     -0.4845      4.4578
        14        -2.8311     -3.0397     -0.0367     -1.9692
        15        -2.3835      0.9425      0.7679     -0.2244
  1/2[<0|del|b>*<b|r|0> + (<0|r|b>*<b|del|0>)*] (Au)
       state          X           Y           Z        Dip. S.   Osc.(frdel)
         1        -0.0486     -0.0094     -0.0003      0.0582      0.0388
         2         0.0000     -0.0001     -0.0003      0.0004      0.0003
         3         0.0000      0.0004     -0.0001     -0.0003     -0.0002
         4         0.0000      0.0000      0.0001      0.0000      0.0000
         5        -0.0005     -0.0001     -0.0071      0.0078      0.0052
         6        -0.0263     -0.3526     -0.0001      0.3790      0.2527
         7        -0.0440     -0.0684     -0.0016      0.1140      0.0760
         8        -0.0723     -0.0816     -0.0014      0.1553      0.1035
         9        -0.0002     -0.0002     -0.0239      0.0243      0.0162
        10        -0.0001      0.0000      0.0003     -0.0002     -0.0001
        11         0.0000     -0.0003      0.0007     -0.0003     -0.0002
        12         0.0000      0.0000      0.0028     -0.0028     -0.0019
        13         0.0000     -0.0001     -0.0015      0.0016      0.0011
        14         0.0000     -0.0001      0.0022     -0.0021     -0.0014
        15         0.0000      0.0000      0.0006     -0.0006     -0.0004

 Excitation energies and oscillator strengths:
 
 Excited State   1:      Singlet-A      4.5426 eV  272.93 nm  f=0.0899  <S**2>=0.000
      12 -> 15         0.21801
      13 -> 14         0.66382
 This state for optimization and/or second-order correction.
 Total Energy, E(CIS) =  0.203025443761    
 Copying the excited state density for this state as the 1-particle RhoCI density.
 
 Excited State   2:      Singlet-A      5.0430 eV  245.85 nm  f=0.0006  <S**2>=0.000
      13 -> 15         0.15342
      13 -> 16         0.67168
 
 Excited State   3:      Singlet-A      5.1636 eV  240.11 nm  f=0.0022  <S**2>=0.000
      12 -> 14        -0.43718
      13 -> 15         0.52092
      13 -> 16        -0.17409
 
 Excited State   4:      Singlet-A      5.7900 eV  214.13 nm  f=0.0003  <S**2>=0.000
      12 -> 18         0.17162
      13 -> 17         0.14634
      13 -> 18         0.52426
      13 -> 19        -0.20158
      13 -> 21         0.18345
      13 -> 22        -0.17576
      13 -> 23        -0.18262
 
 Excited State   5:      Singlet-A      5.8498 eV  211.95 nm  f=0.0016  <S**2>=0.000
       7 -> 16        -0.18863
      12 -> 16         0.65695
      12 -> 22         0.13261
 
 Excited State   6:      Singlet-A      6.1559 eV  201.41 nm  f=0.2961  <S**2>=0.000
      11 -> 16        -0.10294
      12 -> 14         0.49706
      12 -> 15         0.17472
      13 -> 15         0.41627
 
 Excited State   7:      Singlet-A      6.4568 eV  192.02 nm  f=0.0866  <S**2>=0.000
      11 -> 14        -0.10210
      12 -> 15         0.39868
      12 -> 19        -0.17534
      12 -> 20         0.12760
      12 -> 23         0.13594
      13 -> 14        -0.12558
      13 -> 18         0.13113
      13 -> 19         0.33218
      13 -> 20        -0.11909
      13 -> 22         0.12352
      13 -> 23        -0.14226
 
 Excited State   8:      Singlet-A      6.4774 eV  191.41 nm  f=0.1181  <S**2>=0.000
      12 -> 15         0.49151
      12 -> 19         0.15149
      12 -> 20        -0.11400
      12 -> 23        -0.11095
      13 -> 14        -0.15447
      13 -> 18        -0.11139
      13 -> 19        -0.26165
      13 -> 22        -0.10305
      13 -> 23         0.12871
 
 Excited State   9:      Singlet-A      6.5761 eV  188.54 nm  f=0.0032  <S**2>=0.000
      13 -> 17         0.59513
      13 -> 18        -0.20102
      13 -> 19        -0.15558
      13 -> 21        -0.11736
      13 -> 23        -0.12162
 
 Excited State  10:      Singlet-A      6.8334 eV  181.44 nm  f=0.0010  <S**2>=0.000
       9 -> 15        -0.13641
      11 -> 14         0.63371
      11 -> 15         0.15362
      12 -> 19        -0.10751
 
 Excited State  11:      Singlet-A      7.0697 eV  175.37 nm  f=0.0003  <S**2>=0.000
      12 -> 17         0.57212
      12 -> 18        -0.22663
      12 -> 19        -0.12042
      12 -> 20         0.11148
      12 -> 21        -0.10679
      12 -> 23        -0.15857
      13 -> 17        -0.13040
 
 Excited State  12:      Singlet-A      7.3460 eV  168.78 nm  f=0.0023  <S**2>=0.000
      12 -> 17         0.13654
      12 -> 18         0.16648
      12 -> 19         0.32331
      13 -> 17         0.18624
      13 -> 18         0.11508
      13 -> 19         0.39259
      13 -> 20         0.27125
      13 -> 24        -0.10912
 
 Excited State  13:      Singlet-A      7.6270 eV  162.56 nm  f=0.0008  <S**2>=0.000
       8 -> 14         0.11237
       9 -> 14         0.47529
       9 -> 15        -0.18348
      10 -> 15         0.38551
      11 -> 15        -0.17116
      13 -> 22         0.11044
 
 Excited State  14:      Singlet-A      7.6988 eV  161.04 nm  f=0.0001  <S**2>=0.000
       9 -> 15         0.14538
      10 -> 14         0.51822
      11 -> 14         0.11017
      12 -> 18        -0.23506
      12 -> 19         0.14143
      12 -> 22         0.10594
      13 -> 18         0.15414
      13 -> 24        -0.15472
 
 Excited State  15:      Singlet-A      7.7876 eV  159.21 nm  f=0.0025  <S**2>=0.000
       9 -> 14         0.11006
      10 -> 14         0.34923
      12 -> 17         0.10032
      12 -> 18         0.23857
      12 -> 21        -0.11968
      12 -> 22        -0.13693
      12 -> 23        -0.11013
      12 -> 24        -0.12119
      13 -> 17        -0.12765
      13 -> 18        -0.20528
      13 -> 19         0.10794
      13 -> 22        -0.28672
      13 -> 23        -0.20442
 SavETr:  write IOETrn=   770 NScale= 10 NData=  16 NLR=1 NState=   15 LETran=     280.
 The selected state is a singlet
 CISAX will form     1 AO SS matrices at one time.
 NMat=     1 NSing=     1 JSym2X= 0.
 Leave Link  914 at Tue Dec 15 16:18:53 2015, MaxMem=    33554432 cpu:         0.1
 (Enter /home/Applications/g09/g09/l1002.exe)
 Minotr:  Closed shell wavefunction.
          Computing CIS/TD-HF/TD-KS derivatives.
          Using Z-Vector for PSCF gradient.
          Skipping F1 and S1 gradient terms here.
          IDoAtm=111111111
          Direct CPHF calculation.
          Differentiating once with respect to electric field.
                with respect to dipole field.
          Differentiating once with respect to nuclear coordinates.
          Electric field/nuclear overlap derivatives assumed to be zero.
          Requested convergence is 1.0D-10 RMS, and 1.0D-09 maximum.
          NewPWx=T KeepS1=F KeepF1=F KeepIn=T MapXYZ=F SortEE=F KeepMc=T.
          MDV=      33495423 using IRadAn=       0.
 Keep J ints in memory in canonical form, NReq=871704.
 FoFCou: FMM=F IPFlag=           0 FMFlag=           0 FMFlg1=           0
         NFxFlg=           0 DoJE=F BraDBF=F KetDBF=F FulRan=T
         wScrn=  0.000000 ICntrl=     600 IOpCl=  2 I1Cent=           0 NGrid=           0
         NMat0=    1 NMatS0=     54 NMatT0=    0 NMatD0=    1 NMtDS0=    0 NMtDT0=    0
 Symmetry not used in FoFCou.
          Solving linear equations separately, MaxMat=       0.
          There are     1 degrees of freedom in the 1st order CPHF.  IDoFFX=0 NUNeed=     1.
 LinEq1:  Iter=  0 NonCon=     1 RMS=1.03D-02 Max=6.46D-02 NDo=     1
 AX will form     1 AO Fock derivatives at one time.
 LinEq1:  Iter=  1 NonCon=     1 RMS=1.79D-03 Max=8.98D-03 NDo=     1
 LinEq1:  Iter=  2 NonCon=     1 RMS=2.66D-04 Max=1.53D-03 NDo=     1
 LinEq1:  Iter=  3 NonCon=     1 RMS=3.57D-05 Max=1.63D-04 NDo=     1
 LinEq1:  Iter=  4 NonCon=     1 RMS=3.92D-06 Max=2.08D-05 NDo=     1
 LinEq1:  Iter=  5 NonCon=     1 RMS=6.08D-07 Max=3.20D-06 NDo=     1
 LinEq1:  Iter=  6 NonCon=     1 RMS=9.17D-08 Max=3.85D-07 NDo=     1
 LinEq1:  Iter=  7 NonCon=     1 RMS=1.36D-08 Max=7.03D-08 NDo=     1
 LinEq1:  Iter=  8 NonCon=     1 RMS=1.60D-09 Max=5.77D-09 NDo=     1
 LinEq1:  Iter=  9 NonCon=     1 RMS=1.84D-10 Max=6.80D-10 NDo=     1
 LinEq1:  Iter= 10 NonCon=     0 RMS=1.84D-11 Max=8.73D-11 NDo=     1
 Linear equations converged to 1.000D-10 1.000D-09 after    10 iterations.
 End of Minotr F.D. properties file   721 does not exist.
 End of Minotr F.D. properties file   722 does not exist.
 End of Minotr F.D. properties file   788 does not exist.
 Leave Link 1002 at Tue Dec 15 16:18:53 2015, MaxMem=    33554432 cpu:         0.0
 (Enter /home/Applications/g09/g09/l601.exe)
 Copying SCF densities to generalized density rwf, IOpCl= 0 IROHF=0.

 **********************************************************************

            Population analysis using the SCF density.

 **********************************************************************

 Orbital symmetries:
       Occupied  (A) (A) (A) (A) (A) (A) (A) (A) (A) (A) (A) (A)
                 (A)
       Virtual   (A) (A) (A) (A) (A) (A) (A) (A) (A) (A) (A)
 The electronic state is 1-A.
 Alpha  occ. eigenvalues --   -1.56596  -1.23503  -1.11959  -0.82789  -0.82209
 Alpha  occ. eigenvalues --   -0.69223  -0.60054  -0.57778  -0.51723  -0.50269
 Alpha  occ. eigenvalues --   -0.49495  -0.39628  -0.35116
 Alpha virt. eigenvalues --    0.02854   0.06347   0.09586   0.14192   0.15028
 Alpha virt. eigenvalues --    0.15858   0.17818   0.18870   0.19542   0.20667
 Alpha virt. eigenvalues --    0.22306
     Molecular Orbital Coefficients:
                           1         2         3         4         5
                           O         O         O         O         O
     Eigenvalues --    -1.56596  -1.23503  -1.11959  -0.82789  -0.82209
   1 1   C  1S          0.27355  -0.39207   0.37562  -0.43712  -0.11620
   2        1PX        -0.05352   0.10334   0.14477  -0.07988   0.27410
   3        1PY        -0.11552   0.02688  -0.10470  -0.11344  -0.18056
   4        1PZ        -0.00085   0.00100  -0.00073  -0.00134   0.00104
   5 2   C  1S          0.33836  -0.03467   0.54733   0.25261   0.33627
   6        1PX        -0.17224  -0.03292  -0.00460   0.04103   0.17653
   7        1PY        -0.02799  -0.20503   0.06102  -0.34481   0.12292
   8        1PZ         0.00130  -0.00036   0.00185  -0.00128   0.00237
   9 3   O  1S          0.62957   0.60206  -0.06833  -0.05667  -0.27482
  10        1PX        -0.03548   0.03300   0.31548   0.45808  -0.19941
  11        1PY         0.19343  -0.01964   0.05112   0.06709   0.11907
  12        1PZ         0.00122   0.00058  -0.00132  -0.00482   0.00342
  13 4   C  1S          0.39861  -0.19721  -0.46482   0.01805   0.40132
  14        1PX         0.18025   0.09510   0.01674  -0.18070  -0.09839
  15        1PY         0.01937  -0.25107   0.01238   0.30646  -0.16489
  16        1PZ        -0.00379   0.00125   0.00392  -0.00113  -0.00095
  17 5   C  1S          0.30710  -0.51195  -0.19947   0.22510  -0.33469
  18        1PX         0.07507  -0.05440   0.14883  -0.25416  -0.08147
  19        1PY        -0.11399   0.04549   0.14337  -0.09291  -0.28023
  20        1PZ         0.00185  -0.00280  -0.00124   0.00014   0.00118
  21 6   H  1S          0.07218  -0.17737  -0.08227   0.15942  -0.23322
  22 7   H  1S          0.09616  -0.05327  -0.19875  -0.01243   0.28516
  23 8   H  1S          0.08097  -0.00366   0.22705   0.20517   0.23640
  24 9   H  1S          0.05713  -0.11914   0.14152  -0.26315  -0.05682
                           6         7         8         9        10
                           O         O         O         O         O
     Eigenvalues --    -0.69223  -0.60054  -0.57778  -0.51723  -0.50269
   1 1   C  1S         -0.10331  -0.00276   0.17590  -0.05303  -0.04640
   2        1PX        -0.13761  -0.00506   0.13127   0.03796   0.55650
   3        1PY        -0.26437   0.00299   0.10300  -0.24730   0.04014
   4        1PZ        -0.00196   0.21331   0.00877  -0.00738   0.00845
   5 2   C  1S         -0.06238  -0.00144  -0.12102   0.11276  -0.02007
   6        1PX        -0.36019   0.01012  -0.41030  -0.29470  -0.07222
   7        1PY         0.03208  -0.00643  -0.05850   0.14243   0.24231
   8        1PZ        -0.00002   0.35693   0.00563   0.00325   0.00448
   9 3   O  1S         -0.20436  -0.00153   0.02417  -0.09472   0.07822
  10        1PX        -0.00314   0.00113   0.46296  -0.05685  -0.07431
  11        1PY         0.48277  -0.00201  -0.00247   0.28664   0.06193
  12        1PZ         0.00187   0.76932   0.00611   0.01474  -0.00009
  13 4   C  1S         -0.04323   0.00431   0.12819  -0.06007  -0.03639
  14        1PX         0.32660   0.01202  -0.43127  -0.09870   0.15500
  15        1PY         0.17305   0.00271   0.04244  -0.38488   0.29291
  16        1PZ         0.00009   0.41392   0.01015   0.00291  -0.00368
  17 5   C  1S         -0.09201   0.00203  -0.16643   0.00565  -0.00593
  18        1PX         0.21632   0.00003  -0.00784  -0.22361  -0.52745
  19        1PY        -0.24249   0.00415  -0.15566   0.48175  -0.16092
  20        1PZ         0.00327   0.25174   0.01015  -0.01348  -0.00023
  21 6   H  1S         -0.24820   0.00163  -0.17605   0.40579   0.19716
  22 7   H  1S         -0.24801  -0.00862   0.30514   0.21116  -0.28369
  23 8   H  1S         -0.24970   0.00908  -0.34064  -0.18050  -0.14302
  24 9   H  1S         -0.23017   0.00059   0.20777  -0.18567   0.22702
                          11        12        13        14        15
                           O         O         O         V         V
     Eigenvalues --    -0.49495  -0.39628  -0.35116   0.02854   0.06347
   1 1   C  1S         -0.02000  -0.00038   0.00183   0.00033   0.00220
   2        1PX         0.00713  -0.00627  -0.00600   0.00625   0.00022
   3        1PY         0.52026  -0.01083  -0.00837   0.00423   0.01080
   4        1PZ         0.00675   0.47783   0.51241  -0.46592  -0.49557
   5 2   C  1S         -0.01886   0.00257  -0.00402  -0.00736  -0.00796
   6        1PX         0.03926  -0.00092  -0.00050   0.00034   0.00769
   7        1PY        -0.41492   0.00356  -0.00313   0.00077   0.01550
   8        1PZ        -0.00288   0.04321   0.63410   0.63608   0.25233
   9 3   O  1S         -0.17115   0.00051  -0.00035   0.00176   0.00991
  10        1PX        -0.00136  -0.00921  -0.00088   0.00024  -0.00389
  11        1PY         0.55126   0.00337  -0.00007   0.00383   0.02136
  12        1PZ        -0.00748  -0.51978  -0.07637  -0.35329   0.08310
  13 4   C  1S          0.09201   0.00160  -0.00896   0.00907  -0.01636
  14        1PX         0.16611  -0.00040  -0.00373  -0.00197  -0.01346
  15        1PY        -0.11576  -0.00240  -0.00384   0.00388   0.01421
  16        1PZ        -0.00476   0.29110  -0.51573   0.46495  -0.51056
  17 5   C  1S         -0.05414  -0.00410   0.00281  -0.00113  -0.00160
  18        1PX        -0.03298  -0.00522   0.00313   0.00399  -0.00524
  19        1PY         0.12501   0.01660  -0.00454   0.00246   0.00884
  20        1PZ        -0.00185   0.64359  -0.25144  -0.19235   0.64878
  21 6   H  1S          0.06239   0.00691  -0.00127  -0.00002  -0.00662
  22 7   H  1S          0.01246   0.00013   0.00509  -0.00600   0.01516
  23 8   H  1S          0.13998   0.00070   0.00262   0.00581   0.00876
  24 9   H  1S          0.35883  -0.00645  -0.00165  -0.00200  -0.00893
                          16        17        18        19        20
                           V         V         V         V         V
     Eigenvalues --     0.09586   0.14192   0.15028   0.15858   0.17818
   1 1   C  1S          0.04985  -0.39471  -0.26681  -0.02617  -0.32311
   2        1PX        -0.02843   0.30579  -0.36039  -0.15174  -0.01170
   3        1PY         0.06639  -0.04902   0.25211  -0.41233  -0.27668
   4        1PZ         0.02258   0.00148   0.00080  -0.01004  -0.00149
   5 2   C  1S         -0.26829   0.12736   0.43587  -0.19845  -0.13115
   6        1PX         0.23661   0.16949  -0.12836  -0.21232  -0.02015
   7        1PY         0.39398   0.08739   0.19363  -0.18472   0.20950
   8        1PZ        -0.01505   0.00367   0.00594  -0.00105  -0.00231
   9 3   O  1S          0.24563  -0.00094   0.02498  -0.01252   0.04207
  10        1PX        -0.01480   0.09081  -0.28861  -0.17569   0.12741
  11        1PY         0.50130  -0.01085  -0.00465   0.00120   0.06051
  12        1PZ         0.00286  -0.00334   0.00136   0.00026   0.00264
  13 4   C  1S         -0.23778  -0.20409  -0.12170  -0.36947   0.33304
  14        1PX        -0.30220   0.27653  -0.26774  -0.02671  -0.25365
  15        1PY         0.28756   0.06005  -0.01168  -0.17014  -0.00159
  16        1PZ         0.02375   0.00567   0.00684   0.00984  -0.01252
  17 5   C  1S          0.02513   0.28965   0.17935   0.11880  -0.06087
  18        1PX        -0.01172   0.38074  -0.21981  -0.17717   0.30844
  19        1PY         0.05830   0.05861   0.03647  -0.34956   0.25182
  20        1PZ        -0.02744   0.00337  -0.00478   0.00607   0.00306
  21 6   H  1S         -0.12876  -0.04108  -0.36650   0.02995   0.07440
  22 7   H  1S          0.24023   0.44781  -0.11630   0.18869  -0.40558
  23 8   H  1S          0.25750  -0.26557  -0.22120   0.31733   0.17770
  24 9   H  1S         -0.14103   0.24596   0.20530   0.43055   0.44323
                          21        22        23        24
                           V         V         V         V
     Eigenvalues --     0.18870   0.19542   0.20667   0.22306
   1 1   C  1S         -0.07216   0.13145   0.14718  -0.00954
   2        1PX        -0.42376   0.04338  -0.21773  -0.24550
   3        1PY         0.10115  -0.21225  -0.37673   0.03297
   4        1PZ        -0.00248  -0.00389  -0.00589  -0.00256
   5 2   C  1S          0.16638   0.04547  -0.03570  -0.09955
   6        1PX         0.06894   0.52377   0.25983   0.22641
   7        1PY         0.20225  -0.23470  -0.20065   0.38591
   8        1PZ         0.00358   0.00158   0.00005   0.00218
   9 3   O  1S          0.02412   0.08476   0.00232  -0.01653
  10        1PX         0.00119  -0.05040   0.00618   0.53281
  11        1PY        -0.02018   0.24558  -0.01085   0.03914
  12        1PZ        -0.00041   0.00108  -0.00032  -0.00654
  13 4   C  1S         -0.02596  -0.08678   0.13458   0.07673
  14        1PX         0.07866  -0.33191   0.19508   0.32023
  15        1PY         0.23098  -0.22600   0.34732  -0.44222
  16        1PZ         0.00129   0.00279  -0.00320  -0.00177
  17 5   C  1S         -0.46106   0.07100  -0.19562   0.10733
  18        1PX         0.09537   0.05856  -0.32558  -0.28865
  19        1PY        -0.25310  -0.25798   0.41643  -0.14965
  20        1PZ        -0.00242   0.00532  -0.00941   0.00404
  21 6   H  1S          0.56119   0.12899  -0.26474  -0.12630
  22 7   H  1S          0.17584  -0.23318   0.16802  -0.03649
  23 8   H  1S         -0.12479  -0.46756  -0.20100  -0.00790
  24 9   H  1S          0.15251   0.02807   0.21556   0.06423
     Density Matrix:
                           1         2         3         4         5
   1 1   C  1S          1.24240
   2        1PX         0.02325   0.92695
   3        1PY         0.07072   0.04008   0.96927
   4        1PZ         0.00270  -0.00166  -0.00313   1.07329
   5 2   C  1S          0.28545   0.23046  -0.44235  -0.00783   1.24836
   6        1PX        -0.18237  -0.01034   0.25276   0.00128   0.09932
   7        1PY         0.41600   0.35122  -0.49529  -0.00658   0.01880
   8        1PZ         0.00461  -0.00327  -0.01377   0.84350  -0.00273
   9 3   O  1S         -0.00522   0.03569   0.00137   0.00093   0.09765
  10        1PX         0.01408  -0.04506   0.02998  -0.00350   0.29487
  11        1PY        -0.08550   0.00960   0.06628   0.00423   0.28394
  12        1PZ        -0.00098   0.00391   0.00221  -0.24699  -0.00317
  13 4   C  1S         -0.02549   0.00095   0.01756  -0.00149   0.01249
  14        1PX        -0.01239  -0.05565   0.00921  -0.00147   0.00513
  15        1PY        -0.01542   0.06897  -0.01974   0.00235  -0.03804
  16        1PZ         0.00048  -0.00149   0.00087  -0.07374   0.00340
  17 5   C  1S          0.26317  -0.44120  -0.03210  -0.00620  -0.03113
  18        1PX         0.46321  -0.64631  -0.04635  -0.00874  -0.01886
  19        1PY         0.11016  -0.19073   0.09580   0.00279   0.01967
  20        1PZ         0.00351  -0.00766  -0.00392   0.46511  -0.00026
  21 6   H  1S         -0.04289   0.05160   0.01396   0.00079   0.04964
  22 7   H  1S          0.05175  -0.07169  -0.00401   0.00089   0.05230
  23 8   H  1S         -0.05803  -0.03859   0.08693   0.00384   0.63955
  24 9   H  1S          0.57918   0.38282   0.67908   0.00840  -0.05544
                           6         7         8         9        10
   6        1PX         0.91082
   7        1PY        -0.08909   0.87245
   8        1PZ        -0.00061  -0.00166   1.06286
   9 3   O  1S         -0.19911  -0.18190  -0.00034   1.85794
  10        1PX        -0.35913  -0.44349   0.00202   0.03289   1.14933
  11        1PY        -0.49867  -0.32801  -0.00094  -0.29086  -0.01747
  12        1PZ         0.00135   0.00035   0.40764  -0.00247   0.00879
  13 4   C  1S         -0.00296  -0.04082  -0.00663   0.10340  -0.34716
  14        1PX         0.04964   0.03382  -0.00081   0.24545  -0.53586
  15        1PY        -0.00730  -0.01402  -0.00317  -0.13405   0.37520
  16        1PZ        -0.00084   0.00252  -0.33328  -0.00280   0.00828
  17 5   C  1S          0.02624  -0.01196   0.00135   0.00203   0.00521
  18        1PX        -0.01728  -0.08569  -0.00149  -0.03540  -0.01998
  19        1PY        -0.02001  -0.04134  -0.00304  -0.01142  -0.04589
  20        1PZ         0.00129   0.00061  -0.08351   0.00083  -0.00134
  21 6   H  1S         -0.02114   0.05545   0.00071   0.02423  -0.06685
  22 7   H  1S         -0.08255  -0.06833   0.00345  -0.04373   0.04132
  23 8   H  1S          0.66818  -0.27188   0.00443  -0.03720  -0.04147
  24 9   H  1S          0.04536  -0.04932   0.00003   0.02216   0.03928
                          11        12        13        14        15
  11        1PY         1.36413
  12        1PZ        -0.00414   1.73641
  13 4   C  1S          0.23254   0.00915   1.21404
  14        1PX         0.48321   0.01159  -0.10237   0.87666
  15        1PY        -0.12467  -0.00561  -0.01870   0.08619   0.92756
  16        1PZ        -0.00513   0.41330   0.00742   0.00118   0.00136
  17 5   C  1S         -0.07621   0.00177   0.32671   0.05371   0.47113
  18        1PX        -0.02813   0.00133  -0.09323   0.14729  -0.15003
  19        1PY         0.05038  -0.00225  -0.51230  -0.06639  -0.57944
  20        1PZ        -0.00233  -0.24353   0.01704   0.00258   0.01402
  21 6   H  1S          0.07944   0.00049  -0.05269  -0.03067  -0.04771
  22 7   H  1S         -0.05606  -0.00251   0.60795  -0.58467  -0.46775
  23 8   H  1S         -0.06780  -0.00041   0.04420   0.08414  -0.03417
  24 9   H  1S          0.08639   0.00044   0.05087   0.00566   0.05385
                          16        17        18        19        20
  16        1PZ         1.04445
  17 5   C  1S         -0.01145   1.19615
  18        1PX        -0.00228  -0.04729   0.95633
  19        1PY         0.02021   0.06208  -0.04311   0.95945
  20        1PZ         0.84256  -0.00582  -0.00067   0.00590   1.08224
  21 6   H  1S          0.00183   0.58636  -0.53565   0.56346  -0.00515
  22 7   H  1S         -0.00590  -0.05512   0.01288   0.08177  -0.00595
  23 8   H  1S         -0.00283   0.04090   0.05701   0.01003   0.00040
  24 9   H  1S         -0.00248  -0.05022  -0.07622  -0.01803  -0.00057
                          21        22        23        24
  21 6   H  1S          0.84664
  22 7   H  1S          0.00520   0.82599
  23 8   H  1S         -0.01072  -0.02033   0.81441
  24 9   H  1S         -0.00554  -0.01577   0.01548   0.84185
    Full Mulliken population analysis:
                           1         2         3         4         5
   1 1   C  1S          1.24240
   2        1PX         0.00000   0.92695
   3        1PY         0.00000   0.00000   0.96927
   4        1PZ         0.00000   0.00000   0.00000   1.07329
   5 2   C  1S          0.00000   0.00000   0.00000   0.00000   1.24836
   6        1PX         0.00000   0.00000   0.00000   0.00000   0.00000
   7        1PY         0.00000   0.00000   0.00000   0.00000   0.00000
   8        1PZ         0.00000   0.00000   0.00000   0.00000   0.00000
   9 3   O  1S          0.00000   0.00000   0.00000   0.00000   0.00000
  10        1PX         0.00000   0.00000   0.00000   0.00000   0.00000
  11        1PY         0.00000   0.00000   0.00000   0.00000   0.00000
  12        1PZ         0.00000   0.00000   0.00000   0.00000   0.00000
  13 4   C  1S          0.00000   0.00000   0.00000   0.00000   0.00000
  14        1PX         0.00000   0.00000   0.00000   0.00000   0.00000
  15        1PY         0.00000   0.00000   0.00000   0.00000   0.00000
  16        1PZ         0.00000   0.00000   0.00000   0.00000   0.00000
  17 5   C  1S          0.00000   0.00000   0.00000   0.00000   0.00000
  18        1PX         0.00000   0.00000   0.00000   0.00000   0.00000
  19        1PY         0.00000   0.00000   0.00000   0.00000   0.00000
  20        1PZ         0.00000   0.00000   0.00000   0.00000   0.00000
  21 6   H  1S          0.00000   0.00000   0.00000   0.00000   0.00000
  22 7   H  1S          0.00000   0.00000   0.00000   0.00000   0.00000
  23 8   H  1S          0.00000   0.00000   0.00000   0.00000   0.00000
  24 9   H  1S          0.00000   0.00000   0.00000   0.00000   0.00000
                           6         7         8         9        10
   6        1PX         0.91082
   7        1PY         0.00000   0.87245
   8        1PZ         0.00000   0.00000   1.06286
   9 3   O  1S          0.00000   0.00000   0.00000   1.85794
  10        1PX         0.00000   0.00000   0.00000   0.00000   1.14933
  11        1PY         0.00000   0.00000   0.00000   0.00000   0.00000
  12        1PZ         0.00000   0.00000   0.00000   0.00000   0.00000
  13 4   C  1S          0.00000   0.00000   0.00000   0.00000   0.00000
  14        1PX         0.00000   0.00000   0.00000   0.00000   0.00000
  15        1PY         0.00000   0.00000   0.00000   0.00000   0.00000
  16        1PZ         0.00000   0.00000   0.00000   0.00000   0.00000
  17 5   C  1S          0.00000   0.00000   0.00000   0.00000   0.00000
  18        1PX         0.00000   0.00000   0.00000   0.00000   0.00000
  19        1PY         0.00000   0.00000   0.00000   0.00000   0.00000
  20        1PZ         0.00000   0.00000   0.00000   0.00000   0.00000
  21 6   H  1S          0.00000   0.00000   0.00000   0.00000   0.00000
  22 7   H  1S          0.00000   0.00000   0.00000   0.00000   0.00000
  23 8   H  1S          0.00000   0.00000   0.00000   0.00000   0.00000
  24 9   H  1S          0.00000   0.00000   0.00000   0.00000   0.00000
                          11        12        13        14        15
  11        1PY         1.36413
  12        1PZ         0.00000   1.73641
  13 4   C  1S          0.00000   0.00000   1.21404
  14        1PX         0.00000   0.00000   0.00000   0.87666
  15        1PY         0.00000   0.00000   0.00000   0.00000   0.92756
  16        1PZ         0.00000   0.00000   0.00000   0.00000   0.00000
  17 5   C  1S          0.00000   0.00000   0.00000   0.00000   0.00000
  18        1PX         0.00000   0.00000   0.00000   0.00000   0.00000
  19        1PY         0.00000   0.00000   0.00000   0.00000   0.00000
  20        1PZ         0.00000   0.00000   0.00000   0.00000   0.00000
  21 6   H  1S          0.00000   0.00000   0.00000   0.00000   0.00000
  22 7   H  1S          0.00000   0.00000   0.00000   0.00000   0.00000
  23 8   H  1S          0.00000   0.00000   0.00000   0.00000   0.00000
  24 9   H  1S          0.00000   0.00000   0.00000   0.00000   0.00000
                          16        17        18        19        20
  16        1PZ         1.04445
  17 5   C  1S          0.00000   1.19615
  18        1PX         0.00000   0.00000   0.95633
  19        1PY         0.00000   0.00000   0.00000   0.95945
  20        1PZ         0.00000   0.00000   0.00000   0.00000   1.08224
  21 6   H  1S          0.00000   0.00000   0.00000   0.00000   0.00000
  22 7   H  1S          0.00000   0.00000   0.00000   0.00000   0.00000
  23 8   H  1S          0.00000   0.00000   0.00000   0.00000   0.00000
  24 9   H  1S          0.00000   0.00000   0.00000   0.00000   0.00000
                          21        22        23        24
  21 6   H  1S          0.84664
  22 7   H  1S          0.00000   0.82599
  23 8   H  1S          0.00000   0.00000   0.81441
  24 9   H  1S          0.00000   0.00000   0.00000   0.84185
     Gross orbital populations:
                           1
   1 1   C  1S          1.24240
   2        1PX         0.92695
   3        1PY         0.96927
   4        1PZ         1.07329
   5 2   C  1S          1.24836
   6        1PX         0.91082
   7        1PY         0.87245
   8        1PZ         1.06286
   9 3   O  1S          1.85794
  10        1PX         1.14933
  11        1PY         1.36413
  12        1PZ         1.73641
  13 4   C  1S          1.21404
  14        1PX         0.87666
  15        1PY         0.92756
  16        1PZ         1.04445
  17 5   C  1S          1.19615
  18        1PX         0.95633
  19        1PY         0.95945
  20        1PZ         1.08224
  21 6   H  1S          0.84664
  22 7   H  1S          0.82599
  23 8   H  1S          0.81441
  24 9   H  1S          0.84185
          Condensed to atoms (all electrons):
               1          2          3          4          5          6
     1  C    4.211919   0.000000   0.000000   0.000000   0.000000   0.000000
     2  C    0.000000   4.094490   0.000000   0.000000   0.000000   0.000000
     3  O    0.000000   0.000000   6.107804   0.000000   0.000000   0.000000
     4  C    0.000000   0.000000   0.000000   4.062725   0.000000   0.000000
     5  C    0.000000   0.000000   0.000000   0.000000   4.194168   0.000000
     6  H    0.000000   0.000000   0.000000   0.000000   0.000000   0.846640
     7  H    0.000000   0.000000   0.000000   0.000000   0.000000   0.000000
     8  H    0.000000   0.000000   0.000000   0.000000   0.000000   0.000000
     9  H    0.000000   0.000000   0.000000   0.000000   0.000000   0.000000
               7          8          9
     1  C    0.000000   0.000000   0.000000
     2  C    0.000000   0.000000   0.000000
     3  O    0.000000   0.000000   0.000000
     4  C    0.000000   0.000000   0.000000
     5  C    0.000000   0.000000   0.000000
     6  H    0.000000   0.000000   0.000000
     7  H    0.825992   0.000000   0.000000
     8  H    0.000000   0.814409   0.000000
     9  H    0.000000   0.000000   0.841851
 Mulliken charges:
               1
     1  C   -0.211919
     2  C   -0.094490
     3  O   -0.107804
     4  C   -0.062725
     5  C   -0.194168
     6  H    0.153360
     7  H    0.174008
     8  H    0.185591
     9  H    0.158149
 Sum of Mulliken charges =   0.00000
 Mulliken charges with hydrogens summed into heavy atoms:
               1
     1  C   -0.053771
     2  C    0.091101
     3  O   -0.107804
     4  C    0.111283
     5  C   -0.040808
 Charge=              0.0000 electrons
 Dipole moment (field-independent basis, Debye):
    X=              0.0053    Y=              0.4438    Z=              0.0077  Tot=              0.4439
 N-N= 1.037811371419D+02 E-N=-1.714701064996D+02  KE=-1.661316348120D+01
 Orbital energies and kinetic energies (alpha):
                                 1                 2
   1         O                -1.565959         -1.317632
   2         O                -1.235027         -1.044990
   3         O                -1.119594         -0.978839
   4         O                -0.827892         -0.712241
   5         O                -0.822085         -0.731153
   6         O                -0.692227         -0.605960
   7         O                -0.600539         -0.486664
   8         O                -0.577783         -0.506870
   9         O                -0.517231         -0.437629
  10         O                -0.502692         -0.421710
  11         O                -0.494954         -0.407221
  12         O                -0.396276         -0.339947
  13         O                -0.351159         -0.315728
  14         V                 0.028535         -0.196649
  15         V                 0.063472         -0.188113
  16         V                 0.095858         -0.177506
  17         V                 0.141924         -0.211997
  18         V                 0.150277         -0.182191
  19         V                 0.158584         -0.181360
  20         V                 0.178178         -0.193178
  21         V                 0.188701         -0.187965
  22         V                 0.195417         -0.135544
  23         V                 0.206668         -0.122577
  24         V                 0.223056         -0.046455
 Total kinetic energy from orbitals=-1.661316348120D+01
 Leave Link  601 at Tue Dec 15 16:18:53 2015, MaxMem=    33554432 cpu:         0.0
 (Enter /home/Applications/g09/g09/l701.exe)
 Compute integral first derivatives.
 ... and contract with generalized density number  6.
 Leave Link  701 at Tue Dec 15 16:18:53 2015, MaxMem=    33554432 cpu:         0.0
 (Enter /home/Applications/g09/g09/l702.exe)
 L702 exits ... SP integral derivatives will be done elsewhere.
 Leave Link  702 at Tue Dec 15 16:18:53 2015, MaxMem=    33554432 cpu:         0.0
 (Enter /home/Applications/g09/g09/l703.exe)
 Compute integral first derivatives, UseDBF=F ICtDFT=           0.
 Integral derivatives from FoFJK, PRISM(SPDF).
 Calling FoFJK, ICntrl=  10005127 FMM=F ISym2X=0 I1Cent= 0 IOpClX= 0 NMat=1 NMatS=1 NMatT=0.
 FoFJK:  IHMeth= 8 ICntrl=10005127 DoSepK=F KAlg= 0 I1Cent=   0 FoldK=F
 IRaf=         0 NMat=   1 IRICut=       1 DoRegI=T DoRafI=F ISym2E= 0.
 FoFCou: FMM=F IPFlag=           0 FMFlag=      100000 FMFlg1=         800
         NFxFlg=           0 DoJE=F BraDBF=F KetDBF=F FulRan=T
         wScrn=  0.000000 ICntrl=10005127 IOpCl=  0 I1Cent=           0 NGrid=           0
         NMat0=    1 NMatS0=      1 NMatT0=    0 NMatD0=    1 NMtDS0=    0 NMtDT0=    0
 Symmetry not used in FoFCou.
 Leave Link  703 at Tue Dec 15 16:18:53 2015, MaxMem=    33554432 cpu:         0.0
 (Enter /home/Applications/g09/g09/l716.exe)
 Dipole        =-2.42085455D-02 2.54473911D-01 1.01129757D-02
 ***** Axes restored to original set *****
 -------------------------------------------------------------------
 Center     Atomic                   Forces (Hartrees/Bohr)
 Number     Number              X              Y              Z
 -------------------------------------------------------------------
      1        6           0.063281044    0.011035264   -0.002551844
      2        6           0.023923666    0.062505884    0.000547158
      3        8          -0.102970702   -0.042553523    0.000948382
      4        6          -0.107293191    0.058376316   -0.001997834
      5        6           0.145700220   -0.103060748    0.002706028
      6        1           0.044618141    0.027151190   -0.001123163
      7        1          -0.025656572    0.046536448    0.000494702
      8        1          -0.042016746   -0.071674288    0.001450446
      9        1           0.000414140    0.011683455   -0.000473875
 -------------------------------------------------------------------
 Cartesian Forces:  Max     0.145700220 RMS     0.054570060
 Z-matrix is all fixed cartesians, so copy forces.
 Force constants in Cartesian coordinates: 
                1             2             3             4             5 
      1  0.798744D+00
      2 -0.384266D-01  0.752366D+00
      3  0.533261D-02 -0.148963D-01  0.174444D+00
      4 -0.418917D+00 -0.915090D-01 -0.118542D-02  0.844773D+00
      5 -0.718852D-01 -0.200497D+00  0.177888D-02  0.803556D-01  0.975960D+00
      6 -0.753452D-03  0.203154D-02 -0.846300D-01 -0.261962D-02 -0.154891D-01
      7 -0.929007D-02  0.285550D-01 -0.357656D-03 -0.248819D+00  0.141285D+00
      8 -0.605454D-02  0.186202D-01 -0.220137D-04  0.182885D+00 -0.360348D+00
      9 -0.138254D-03 -0.145705D-03  0.455501D-02 -0.121777D-02  0.295460D-02
     10  0.999980D-02  0.153916D-03 -0.379236D-03  0.245887D-01  0.160322D-01
     11  0.360012D-01  0.551200D-03 -0.152864D-02 -0.191234D-01 -0.124719D-01
     12 -0.107903D-02 -0.634562D-05 -0.148064D-02  0.156373D-03  0.382379D-04
     13 -0.165296D+00  0.150638D-01 -0.729054D-04  0.105842D-01 -0.325416D-01
     14 -0.801697D-02 -0.376876D+00  0.862427D-02  0.175899D-03 -0.541033D-03
     15  0.435951D-03  0.772189D-02 -0.780284D-01  0.124167D-03 -0.348125D-03
     16  0.178632D-01  0.293510D-03  0.327410D-04  0.000000D+00  0.000000D+00
     17 -0.240673D-01 -0.379861D-03  0.566660D-03  0.000000D+00  0.222931D-05
     18  0.620630D-03  0.441939D-03  0.169166D-01 -0.275195D-04  0.869111D-04
     19  0.725078D-05  0.772719D-05  0.298094D-03  0.000000D+00  0.000000D+00
     20  0.114946D-04  0.122498D-04  0.472566D-03  0.000000D+00  0.000000D+00
     21  0.236821D-03  0.252381D-03  0.973619D-02 -0.254477D-04  0.380091D-04
     22  0.892173D-02 -0.274306D-01  0.895572D-03 -0.206397D+00 -0.151117D+00
     23 -0.445336D-02  0.136927D-01  0.258594D-03 -0.145924D+00 -0.423195D+00
     24  0.373694D-04 -0.982454D-04  0.248039D-01  0.489551D-02  0.106185D-01
     25 -0.242032D+00  0.113292D+00 -0.456380D-02 -0.581238D-02  0.178706D-01
     26  0.116891D+00 -0.207491D+00  0.474594D-02 -0.685908D-02  0.210893D-01
     27 -0.469265D-02  0.469881D-02 -0.663162D-01 -0.100275D-03  0.322126D-03
                6             7             8             9            10 
      6  0.176122D+00
      7 -0.148722D-02  0.523833D+00
      8  0.372313D-02  0.354785D-01  0.710622D+00
      9 -0.421517D-01  0.153797D-02 -0.499582D-02  0.562630D-01
     10  0.161958D-03 -0.303863D+00 -0.217634D+00 -0.936589D-03  0.114095D+01
     11 -0.227403D-03 -0.174791D+00 -0.375178D+00  0.215625D-03 -0.756832D-01
     12 -0.163661D-02  0.144232D-03  0.128505D-02 -0.519974D-01 -0.535483D-02
     13  0.845018D-03 -0.849342D-02  0.660763D-02  0.424266D-03 -0.672499D+00
     14  0.109602D-03 -0.305106D-01  0.237326D-01  0.609603D-03  0.142060D+00
     15 -0.165313D-02 -0.154123D-03  0.142718D-03  0.920684D-02  0.110612D-01
     16  0.265405D-04  0.289920D-05 -0.156311D-05  0.194866D-03 -0.538332D-02
     17  0.877968D-04  0.139131D-05  0.000000D+00  0.935149D-04  0.730107D-02
     18  0.342281D-02  0.146815D-03 -0.791555D-04  0.986793D-02  0.114413D-02
     19 -0.108685D-03  0.221566D-01 -0.172299D-01  0.898251D-03 -0.193796D+00
     20  0.102749D-03  0.122017D-01 -0.948801D-02  0.629394D-03  0.127768D+00
     21  0.513085D-02  0.200202D-03 -0.140589D-03  0.426020D-02 -0.576514D-02
     22  0.464349D-02  0.244738D-01  0.159490D-01 -0.724549D-03  0.000000D+00
     23  0.973878D-02 -0.122198D-01 -0.796164D-02  0.518377D-03  0.000000D+00
     24 -0.751823D-01 -0.181993D-04  0.467145D-04  0.550481D-02 -0.233996D-04
     25 -0.708024D-03  0.000000D+00  0.000000D+00 -0.381815D-04  0.000000D+00
     26 -0.770655D-04  0.000000D+00  0.107133D-05  0.120410D-03  0.233071D-05
     27  0.205782D-01 -0.120163D-04  0.399613D-04  0.449139D-02  0.918902D-04
               11            12            13            14            15 
     11  0.959370D+00
     12 -0.751335D-02  0.248021D+00
     13  0.119913D+00  0.102106D-01  0.113034D+01
     14 -0.245805D+00 -0.155981D-02  0.140584D-01  0.816981D+00
     15 -0.245822D-02 -0.137501D+00 -0.162429D-01 -0.115219D-01  0.241664D+00
     16 -0.194037D-01  0.956932D-03 -0.320732D+00 -0.146542D+00  0.546345D-02
     17  0.262340D-01  0.378745D-04 -0.148901D+00 -0.233519D+00  0.465421D-02
     18  0.184943D-02  0.367893D-01  0.487492D-02  0.379354D-02 -0.983237D-01
     19  0.133088D+00 -0.507056D-02  0.791403D-02  0.284782D-01 -0.638132D-03
     20 -0.352703D+00  0.752473D-02  0.437343D-02  0.156552D-01  0.986493D-03
     21  0.952968D-02 -0.100690D+00  0.550473D-03 -0.617766D-03  0.422197D-01
     22  0.000000D+00  0.729893D-04  0.000000D+00 -0.157092D-05 -0.618676D-04
     23  0.000000D+00  0.977945D-04 -0.156034D-05  0.492782D-05  0.194072D-03
     24  0.349500D-04  0.471791D-02 -0.461117D-04  0.145628D-03  0.573527D-02
     25  0.000000D+00 -0.367439D-04  0.181848D-01  0.298257D-03  0.122488D-04
     26  0.248385D-05  0.958202D-04  0.214280D-01  0.367133D-03  0.628882D-03
     27  0.979278D-04  0.377779D-02 -0.543396D-03  0.416838D-03  0.166804D-01
               16            17            18            19            20 
     16  0.308259D+00
     17  0.165670D+00  0.207674D+00
     18 -0.630049D-02 -0.513811D-02  0.536592D-01
     19 -0.101264D-04 -0.485962D-05 -0.512799D-03  0.163727D+00
     20 -0.160533D-04 -0.770391D-05 -0.812937D-03 -0.144338D+00  0.346531D+00
     21 -0.330744D-03 -0.158722D-03 -0.167488D-01  0.513383D-02 -0.890299D-02
     22  0.000000D+00  0.000000D+00  0.000000D+00  0.000000D+00  0.000000D+00
     23  0.000000D+00  0.000000D+00  0.000000D+00  0.000000D+00  0.000000D+00
     24  0.000000D+00  0.000000D+00  0.000000D+00  0.000000D+00  0.000000D+00
     25  0.000000D+00  0.139297D-05  0.543060D-04  0.000000D+00  0.000000D+00
     26 -0.109811D-05 -0.363258D-05 -0.141618D-03  0.000000D+00  0.000000D+00
     27 -0.432939D-04 -0.143218D-03 -0.558343D-02  0.000000D+00  0.000000D+00
               21            22            23            24            25 
     21  0.560917D-01
     22  0.000000D+00  0.173002D+00
     23  0.000000D+00  0.162597D+00  0.417466D+00
     24  0.000000D+00 -0.491783D-02 -0.105184D-01  0.429675D-01
     25  0.000000D+00  0.000000D+00  0.245865D-05  0.726586D-04  0.229661D+00
     26  0.000000D+00  0.247177D-05 -0.775368D-05 -0.229139D-03 -0.131464D+00
     27  0.000000D+00  0.921986D-04 -0.289217D-03 -0.854702D-02  0.520754D-02
               26            27 
     26  0.186042D+00
     27 -0.514323D-02  0.349189D-01
 Leave Link  716 at Tue Dec 15 16:18:53 2015, MaxMem=    33554432 cpu:         0.0
 (Enter /home/Applications/g09/g09/l103.exe)

 GradGradGradGradGradGradGradGradGradGradGradGradGradGradGradGradGradGrad
 Berny optimization.
 Search for a local minimum.
 Step number   1 out of a maximum of    2
 All quantities printed in internal units (Hartrees-Bohrs-Radians)
 Second derivative matrix not updated -- first step.
 ITU=  0
     Eigenvalues ---    0.01773   0.03415   0.07238   0.08348   0.08477
     Eigenvalues ---    0.08802   0.13290   0.15207   0.17077   0.25343
     Eigenvalues ---    0.27859   0.29911   0.44725   0.50238   0.67572
     Eigenvalues ---    0.88499   1.13819   1.31354   1.49650   1.52083
     Eigenvalues ---    1.95505
 Quadratic step=5.759D-01 exceeds max=3.000D-01 adjusted using Lamda=-2.647D-01.
 Angle between NR and scaled steps=  22.13 degrees.
 Angle between quadratic step and forces=  27.93 degrees.
 Linear search not attempted -- first point.
 TrRot= -0.007474 -0.004421  0.000031  1.516073  0.000199 -1.515325
 Variable       Old X    -DE/DX   Delta X   Delta X   Delta X     New X
                                 (Linear)    (Quad)   (Total)
    X1        1.82444   0.06328   0.00000   0.09131   0.08482   1.90926
    Y1       -1.30701   0.01104   0.00000   0.00007  -0.00291  -1.30993
    Z1        0.03586  -0.00255   0.00000  -0.00468  -0.00441   0.03146
    X2       -0.70259   0.02392   0.00000   0.00971   0.00380  -0.69880
    Y2       -2.12891   0.06251   0.00000   0.04029   0.03536  -2.09355
    Z2        0.03642   0.00055   0.00000   0.00349   0.00395   0.04036
    X3       -2.13583  -0.10297   0.00000  -0.14945  -0.15695  -2.29278
    Y3        0.06934  -0.04255   0.00000  -0.02638  -0.03251   0.03683
    Z3        0.01302   0.00095   0.00000   0.00188   0.00192   0.01495
    X4       -0.56309  -0.10729   0.00000  -0.06542  -0.07448  -0.63757
    Y4        2.09141   0.05838   0.00000   0.02428   0.01939   2.11080
    Z4        0.00584  -0.00200   0.00000  -0.00653  -0.00691  -0.00107
    X5        1.77944   0.14570   0.00000   0.11365   0.10514   1.88459
    Y5        1.43953  -0.10306   0.00000  -0.06319  -0.06620   1.37334
    Z5       -0.03424   0.00271   0.00000   0.00520   0.00493  -0.02931
    X6        3.33910   0.04462   0.00000   0.11807   0.10863   3.44773
    Y6        2.59606   0.02715   0.00000   0.02547   0.02362   2.61968
    Z6       -0.07600  -0.00112   0.00000   0.00121   0.00068  -0.07532
    X7       -1.50221  -0.02566   0.00000  -0.05170  -0.06209  -1.56430
    Y7        3.79763   0.04654   0.00000   0.09657   0.09097   3.88860
    Z7       -0.04822   0.00049   0.00000   0.00084   0.00012  -0.04810
    X8       -1.53618  -0.04202   0.00000  -0.04285  -0.04743  -1.58361
    Y8       -3.79849  -0.07167   0.00000  -0.06888  -0.07446  -3.87295
    Z8        0.08392   0.00145   0.00000   0.00075   0.00157   0.08549
    X9        3.40375   0.00041   0.00000   0.04407   0.03856   3.44231
    Y9       -2.64603   0.01168   0.00000   0.00857   0.00675  -2.63929
    Z9        0.08519  -0.00047   0.00000  -0.00237  -0.00185   0.08334
         Item               Value     Threshold  Converged?
 Maximum Force            0.145700     0.000450     NO 
 RMS     Force            0.054570     0.000300     NO 
 Maximum Displacement     0.156953     0.001800     NO 
 RMS     Displacement     0.057559     0.001200     NO 
 Predicted change in Energy=-4.954800D-02
 GradGradGradGradGradGradGradGradGradGradGradGradGradGradGradGradGradGrad

 Leave Link  103 at Tue Dec 15 16:18:53 2015, MaxMem=    33554432 cpu:         0.0
 (Enter /home/Applications/g09/g09/l9999.exe)
 1\1\GINC-DUSTIN-DESKTOP\Force\RAM1-FC\STO-3G\C4H4O1\DUSTIN\15-Dec-2015
 \0\\#P AM1(Input,print) CIS(Singlets,NStates=15) pop(full) force\\AM1-
 Reparam Input\\0,1\C,0.965454,-0.691642,0.018978\C,-0.371797,-1.126569
 ,0.01927\O,-1.13023,0.036691,0.006891\C,-0.297972,1.106729,0.003092\C,
 0.941641,0.761768,-0.018118\H,1.766977,1.373778,-0.040216\H,-0.794934,
 2.009617,-0.025516\H,-0.812912,-2.010075,0.044408\H,1.801185,-1.400221
 ,0.045079\\Version=ES64L-G09RevD.01\State=1-A\HF=0.0360863\RMSD=7.417e
 -09\RMSF=5.457e-02\Dipole=0.2554217,-0.0107973,0.009405\PG=C01 [X(C4H4
 O1)]\\@


 IN THE UNIVERSE THE DIFFICULT THINGS ARE DONE AS IF THEY WERE EASY.

                                                          -- LAO-TSU
 Job cpu time:       0 days  0 hours  0 minutes  0.5 seconds.
 File lengths (MBytes):  RWF=      7 Int=      0 D2E=      0 Chk=      2 Scr=      1
 Normal termination of Gaussian 09 at Tue Dec 15 16:18:53 2015.
