 Entering Gaussian System, Link 0=g09
 Input=FuranDFT_61.com
 Output=FuranDFT_61.log
 Initial command:
 /home/Applications/g09/g09/l1.exe "/home/Applications/g09/scratch/Gau-6078.inp" -scrdir="/home/Applications/g09/scratch/"
 Entering Link 1 = /home/Applications/g09/g09/l1.exe PID=      6080.
  
 Copyright (c) 1988,1990,1992,1993,1995,1998,2003,2009,2013,
            Gaussian, Inc.  All Rights Reserved.
  
 This is part of the Gaussian(R) 09 program.  It is based on
 the Gaussian(R) 03 system (copyright 2003, Gaussian, Inc.),
 the Gaussian(R) 98 system (copyright 1998, Gaussian, Inc.),
 the Gaussian(R) 94 system (copyright 1995, Gaussian, Inc.),
 the Gaussian 92(TM) system (copyright 1992, Gaussian, Inc.),
 the Gaussian 90(TM) system (copyright 1990, Gaussian, Inc.),
 the Gaussian 88(TM) system (copyright 1988, Gaussian, Inc.),
 the Gaussian 86(TM) system (copyright 1986, Carnegie Mellon
 University), and the Gaussian 82(TM) system (copyright 1983,
 Carnegie Mellon University). Gaussian is a federally registered
 trademark of Gaussian, Inc.
  
 This software contains proprietary and confidential information,
 including trade secrets, belonging to Gaussian, Inc.
  
 This software is provided under written license and may be
 used, copied, transmitted, or stored only in accord with that
 written license.
  
 The following legend is applicable only to US Government
 contracts under FAR:
  
                    RESTRICTED RIGHTS LEGEND
  
 Use, reproduction and disclosure by the US Government is
 subject to restrictions as set forth in subparagraphs (a)
 and (c) of the Commercial Computer Software - Restricted
 Rights clause in FAR 52.227-19.
  
 Gaussian, Inc.
 340 Quinnipiac St., Bldg. 40, Wallingford CT 06492
  
  
 ---------------------------------------------------------------
 Warning -- This program may not be used in any manner that
 competes with the business of Gaussian, Inc. or will provide
 assistance to any competitor of Gaussian, Inc.  The licensee
 of this program is prohibited from giving any competitor of
 Gaussian, Inc. access to this program.  By using this program,
 the user acknowledges that Gaussian, Inc. is engaged in the
 business of creating and licensing software in the field of
 computational chemistry and represents and warrants to the
 licensee that it is not a competitor of Gaussian, Inc. and that
 it will not use this program in any manner prohibited above.
 ---------------------------------------------------------------
  

 Cite this work as:
 Gaussian 09, Revision D.01,
 M. J. Frisch, G. W. Trucks, H. B. Schlegel, G. E. Scuseria, 
 M. A. Robb, J. R. Cheeseman, G. Scalmani, V. Barone, B. Mennucci, 
 G. A. Petersson, H. Nakatsuji, M. Caricato, X. Li, H. P. Hratchian, 
 A. F. Izmaylov, J. Bloino, G. Zheng, J. L. Sonnenberg, M. Hada, 
 M. Ehara, K. Toyota, R. Fukuda, J. Hasegawa, M. Ishida, T. Nakajima, 
 Y. Honda, O. Kitao, H. Nakai, T. Vreven, J. A. Montgomery, Jr., 
 J. E. Peralta, F. Ogliaro, M. Bearpark, J. J. Heyd, E. Brothers, 
 K. N. Kudin, V. N. Staroverov, T. Keith, R. Kobayashi, J. Normand, 
 K. Raghavachari, A. Rendell, J. C. Burant, S. S. Iyengar, J. Tomasi, 
 M. Cossi, N. Rega, J. M. Millam, M. Klene, J. E. Knox, J. B. Cross, 
 V. Bakken, C. Adamo, J. Jaramillo, R. Gomperts, R. E. Stratmann, 
 O. Yazyev, A. J. Austin, R. Cammi, C. Pomelli, J. W. Ochterski, 
 R. L. Martin, K. Morokuma, V. G. Zakrzewski, G. A. Voth, 
 P. Salvador, J. J. Dannenberg, S. Dapprich, A. D. Daniels, 
 O. Farkas, J. B. Foresman, J. V. Ortiz, J. Cioslowski, 
 and D. J. Fox, Gaussian, Inc., Wallingford CT, 2013.
 
 ******************************************
 Gaussian 09:  ES64L-G09RevD.01 24-Apr-2013
                15-Dec-2015 
 ******************************************
 -------------------------------------------------------
 #P B3LYP/3-21G CIS(Singlets,NStates=15) pop(full) force
 -------------------------------------------------------
 1/10=7,30=1,38=1/1,3;
 2/12=2,17=6,18=5,40=1/2;
 3/5=5,11=9,16=1,25=1,30=1,71=1,74=-5/1,2,8,3;
 4//1;
 5/5=2,38=5/2;
 8/6=1,10=1,108=15/1;
 9/15=2,41=15,42=1,48=1/14;
 10/5=4/2;
 6/7=3,18=1/1;
 7/12=6,13=5,29=1/1,2,3,16;
 1/10=7,30=1/3;
 99//99;
 Leave Link    1 at Tue Dec 15 16:23:05 2015, MaxMem=           0 cpu:         0.0
 (Enter /home/Applications/g09/g09/l101.exe)
 --------
 FuranDFT
 --------
 Symbolic Z-matrix:
 Charge =  0 Multiplicity = 1
 6                     0.96085  -0.72744  -0.02723 
 6                    -0.37303  -1.12173   0.01191 
 8                    -1.13735  -0.02453   0.00005 
 6                    -0.38943   1.09089   0.04443 
 6                     0.90614   0.70165  -0.02774 
 1                     1.76839   1.34966   0.01174 
 1                    -0.84904   2.03734  -0.04404 
 1                    -0.85227  -2.01271  -0.04358 
 1                     1.85556  -1.3468   -0.01902 
 
 NAtoms=      9 NQM=        9 NQMF=       0 NMMI=      0 NMMIF=      0
                NMic=       0 NMicF=      0.
                    Isotopes and Nuclear Properties:
 (Nuclear quadrupole moments (NQMom) in fm**2, nuclear magnetic moments (NMagM)
  in nuclear magnetons)

  Atom         1           2           3           4           5           6           7           8           9
 IAtWgt=          12          12          16          12          12           1           1           1           1
 AtmWgt=  12.0000000  12.0000000  15.9949146  12.0000000  12.0000000   1.0078250   1.0078250   1.0078250   1.0078250
 NucSpn=           0           0           0           0           0           1           1           1           1
 AtZEff=   0.0000000   0.0000000   0.0000000   0.0000000   0.0000000   0.0000000   0.0000000   0.0000000   0.0000000
 NQMom=    0.0000000   0.0000000   0.0000000   0.0000000   0.0000000   0.0000000   0.0000000   0.0000000   0.0000000
 NMagM=    0.0000000   0.0000000   0.0000000   0.0000000   0.0000000   2.7928460   2.7928460   2.7928460   2.7928460
 AtZNuc=   6.0000000   6.0000000   8.0000000   6.0000000   6.0000000   1.0000000   1.0000000   1.0000000   1.0000000
 Leave Link  101 at Tue Dec 15 16:23:06 2015, MaxMem=    33554432 cpu:         0.0
 (Enter /home/Applications/g09/g09/l103.exe)

 GradGradGradGradGradGradGradGradGradGradGradGradGradGradGradGradGradGrad
 Berny optimization.
 Initialization pass.
 Trust Radius=3.00D-01 FncErr=1.00D-07 GrdErr=1.00D-07
 Number of steps in this run=      2 maximum allowed number of steps=      2.
 GradGradGradGradGradGradGradGradGradGradGradGradGradGradGradGradGradGrad

 Leave Link  103 at Tue Dec 15 16:23:06 2015, MaxMem=    33554432 cpu:         0.0
 (Enter /home/Applications/g09/g09/l202.exe)
                          Input orientation:                          
 ---------------------------------------------------------------------
 Center     Atomic      Atomic             Coordinates (Angstroms)
 Number     Number       Type             X           Y           Z
 ---------------------------------------------------------------------
      1          6           0        0.960854   -0.727439   -0.027229
      2          6           0       -0.373033   -1.121733    0.011906
      3          8           0       -1.137353   -0.024528    0.000048
      4          6           0       -0.389426    1.090886    0.044431
      5          6           0        0.906140    0.701653   -0.027741
      6          1           0        1.768393    1.349659    0.011742
      7          1           0       -0.849036    2.037337   -0.044039
      8          1           0       -0.852265   -2.012710   -0.043580
      9          1           0        1.855563   -1.346800   -0.019019
 ---------------------------------------------------------------------
                    Distance matrix (angstroms):
                    1          2          3          4          5
     1  C    0.000000
     2  C    1.391493   0.000000
     3  O    2.212985   1.337230   0.000000
     4  C    2.265987   2.212919   1.343694   0.000000
     5  C    1.430139   2.227688   2.168865   1.354696   0.000000
     6  H    2.228895   3.270089   3.214325   2.173526   1.079329
     7  H    3.304538   3.195220   2.082392   1.055859   2.205665
     8  H    2.222519   1.013204   2.008991   3.139152   3.234193
     9  H    1.088200   2.240145   3.272050   3.314561   2.257795
                    6          7          8          9
     6  H    0.000000
     7  H    2.706833   0.000000
     8  H    4.263383   4.050048   0.000000
     9  H    2.698043   4.332189   2.788615   0.000000
 Stoichiometry    C4H4O
 Framework group  C1[X(C4H4O)]
 Deg. of freedom    21
 Full point group                 C1      NOp   1
 Largest Abelian subgroup         C1      NOp   1
 Largest concise Abelian subgroup C1      NOp   1
                         Standard orientation:                         
 ---------------------------------------------------------------------
 Center     Atomic      Atomic             Coordinates (Angstroms)
 Number     Number       Type             X           Y           Z
 ---------------------------------------------------------------------
      1          6           0       -0.854886    0.855175    0.007371
      2          6           0       -1.039381   -0.523795   -0.018260
      3          8           0        0.161980   -1.110345    0.011342
      4          6           0        1.149741   -0.200510   -0.033841
      5          6           0        0.565601    1.020617    0.019370
      6          1           0        1.073919    1.971679   -0.025861
      7          1           0        2.154652   -0.508292    0.067459
      8          1           0       -1.846721   -1.133546    0.036402
      9          1           0       -1.604135    1.643992   -0.016579
 ---------------------------------------------------------------------
 Rotational constants (GHZ):      9.5842657      9.3640352      4.7392103
 Leave Link  202 at Tue Dec 15 16:23:06 2015, MaxMem=    33554432 cpu:         0.0
 (Enter /home/Applications/g09/g09/l301.exe)
 Standard basis: 3-21G (6D, 7F)
 Ernie: Thresh=  0.10000D-02 Tol=  0.10000D-05 Strict=F.
 There are    53 symmetry adapted cartesian basis functions of A   symmetry.
 There are    53 symmetry adapted basis functions of A   symmetry.
    53 basis functions,    87 primitive gaussians,    53 cartesian basis functions
    18 alpha electrons       18 beta electrons
       nuclear repulsion energy       161.8919917089 Hartrees.
 IExCor=  402 DFT=T Ex+Corr=B3LYP ExCW=0 ScaHFX=  0.200000
 ScaDFX=  0.800000  0.720000  1.000000  0.810000 ScalE2=  1.000000  1.000000
 IRadAn=      0 IRanWt=     -1 IRanGd=            0 ICorTp=0 IEmpDi=  4
 NAtoms=    9 NActive=    9 NUniq=    9 SFac= 1.00D+00 NAtFMM=   60 NAOKFM=F Big=F
 Integral buffers will be    131072 words long.
 Regular integral format.
 Two-electron integral symmetry is turned on.
 Leave Link  301 at Tue Dec 15 16:23:06 2015, MaxMem=    33554432 cpu:         0.0
 (Enter /home/Applications/g09/g09/l302.exe)
 NPDir=0 NMtPBC=     1 NCelOv=     1 NCel=       1 NClECP=     1 NCelD=      1
         NCelK=      1 NCelE2=     1 NClLst=     1 CellRange=     0.0.
 One-electron integrals computed using PRISM.
 NBasis=    53 RedAO= T EigKep=  3.44D-03  NBF=    53
 NBsUse=    53 1.00D-06 EigRej= -1.00D+00 NBFU=    53
 Precomputing XC quadrature grid using
 IXCGrd= 4 IRadAn=           0 IRanWt=          -1 IRanGd=           0 AccXCQ= 0.00D+00.
 Generated NRdTot=       0 NPtTot=           0 NUsed=           0 NTot=          32
 NSgBfM=    53    53    53    53    53 MxSgAt=     9 MxSgA2=     9.
 Leave Link  302 at Tue Dec 15 16:23:06 2015, MaxMem=    33554432 cpu:         0.1
 (Enter /home/Applications/g09/g09/l308.exe)
 Leave Link  308 at Tue Dec 15 16:23:06 2015, MaxMem=    33554432 cpu:         0.0
 (Enter /home/Applications/g09/g09/l303.exe)
 DipDrv:  MaxL=1.
 Leave Link  303 at Tue Dec 15 16:23:06 2015, MaxMem=    33554432 cpu:         0.0
 (Enter /home/Applications/g09/g09/l401.exe)
 ExpMin= 1.83D-01 ExpMax= 3.22D+02 ExpMxC= 3.22D+02 IAcc=1 IRadAn=         1 AccDes= 0.00D+00
 Harris functional with IExCor=  402 and IRadAn=       1 diagonalized for initial guess.
 HarFok:  IExCor=  402 AccDes= 0.00D+00 IRadAn=         1 IDoV= 1 UseB2=F ITyADJ=14
 ICtDFT=  3500011 ScaDFX=  1.000000  1.000000  1.000000  1.000000
 FoFCou: FMM=F IPFlag=           0 FMFlag=      100000 FMFlg1=           0
         NFxFlg=           0 DoJE=T BraDBF=F KetDBF=T FulRan=T
         wScrn=  0.000000 ICntrl=     500 IOpCl=  0 I1Cent=   200000004 NGrid=           0
         NMat0=    1 NMatS0=      1 NMatT0=    0 NMatD0=    1 NMtDS0=    0 NMtDT0=    0
 Petite list used in FoFCou.
 Harris En= -228.731331986152    
 JPrj=0 DoOrth=F DoCkMO=F.
 Leave Link  401 at Tue Dec 15 16:23:06 2015, MaxMem=    33554432 cpu:         0.2
 (Enter /home/Applications/g09/g09/l502.exe)
 Closed shell SCF:
 Using DIIS extrapolation, IDIIS=  1040.
 Integral symmetry usage will be decided dynamically.
 Keep R1 ints in memory in canonical form, NReq=1925595.
 IVT=       27707 IEndB=       27707 NGot=    33554432 MDV=    32502130
 LenX=    32502130 LenY=    32498880
 Requested convergence on RMS density matrix=1.00D-08 within 128 cycles.
 Requested convergence on MAX density matrix=1.00D-06.
 Requested convergence on             energy=1.00D-06.
 No special actions if energy rises.
 FoFCou: FMM=F IPFlag=           0 FMFlag=           0 FMFlg1=           0
         NFxFlg=           0 DoJE=F BraDBF=F KetDBF=F FulRan=T
         wScrn=  0.000000 ICntrl=     600 IOpCl=  0 I1Cent=           0 NGrid=           0
         NMat0=    1 NMatS0=   1431 NMatT0=    0 NMatD0=    1 NMtDS0=    0 NMtDT0=    0
 Symmetry not used in FoFCou.
 Integral accuracy reduced to 1.0D-05 until final iterations.

 Cycle   1  Pass 0  IDiag  1:
 E= -228.663926521255    
 DIIS: error= 3.49D-02 at cycle   1 NSaved=   1.
 NSaved= 1 IEnMin= 1 EnMin= -228.663926521255     IErMin= 1 ErrMin= 3.49D-02
 ErrMax= 3.49D-02  0.00D+00 EMaxC= 1.00D-01 BMatC= 7.32D-02 BMatP= 7.32D-02
 IDIUse=3 WtCom= 6.51D-01 WtEn= 3.49D-01
 Coeff-Com:  0.100D+01
 Coeff-En:   0.100D+01
 Coeff:      0.100D+01
 Gap=     0.232 Goal=   None    Shift=    0.000
 GapD=    0.232 DampG=1.000 DampE=0.500 DampFc=0.5000 IDamp=-1.
 Damping current iteration by 5.00D-01
 RMSDP=1.16D-02 MaxDP=1.07D-01              OVMax= 1.90D-01

 Cycle   2  Pass 0  IDiag  1:
 E= -228.694755107264     Delta-E=       -0.030828586009 Rises=F Damp=T
 DIIS: error= 1.33D-02 at cycle   2 NSaved=   2.
 NSaved= 2 IEnMin= 2 EnMin= -228.694755107264     IErMin= 2 ErrMin= 1.33D-02
 ErrMax= 1.33D-02  0.00D+00 EMaxC= 1.00D-01 BMatC= 8.39D-03 BMatP= 7.32D-02
 IDIUse=3 WtCom= 8.67D-01 WtEn= 1.33D-01
 Coeff-Com:  0.969D-01 0.903D+00
 Coeff-En:   0.173D+00 0.827D+00
 Coeff:      0.107D+00 0.893D+00
 Gap=     0.247 Goal=   None    Shift=    0.000
 RMSDP=4.14D-03 MaxDP=3.39D-02 DE=-3.08D-02 OVMax= 1.61D-01

 Cycle   3  Pass 0  IDiag  1:
 E= -228.731264776244     Delta-E=       -0.036509668981 Rises=F Damp=F
 DIIS: error= 1.95D-02 at cycle   3 NSaved=   3.
 NSaved= 3 IEnMin= 3 EnMin= -228.731264776244     IErMin= 2 ErrMin= 1.33D-02
 ErrMax= 1.95D-02  0.00D+00 EMaxC= 1.00D-01 BMatC= 1.09D-02 BMatP= 8.39D-03
 IDIUse=2 WtCom= 0.00D+00 WtEn= 1.00D+00
 Coeff-En:   0.000D+00 0.000D+00 0.100D+01
 Coeff:      0.000D+00 0.000D+00 0.100D+01
 Gap=     0.239 Goal=   None    Shift=    0.000
 RMSDP=5.72D-03 MaxDP=4.73D-02 DE=-3.65D-02 OVMax= 1.24D-01

 Cycle   4  Pass 0  IDiag  1:
 E= -228.702940099910     Delta-E=        0.028324676334 Rises=F Damp=F
 DIIS: error= 4.05D-02 at cycle   4 NSaved=   4.
 NSaved= 4 IEnMin= 3 EnMin= -228.731264776244     IErMin= 2 ErrMin= 1.33D-02
 ErrMax= 4.05D-02  0.00D+00 EMaxC= 1.00D-01 BMatC= 4.15D-02 BMatP= 8.39D-03
 IDIUse=2 WtCom= 0.00D+00 WtEn= 1.00D+00
 Coeff-En:   0.000D+00 0.000D+00 0.745D+00 0.255D+00
 Coeff:      0.000D+00 0.000D+00 0.745D+00 0.255D+00
 Gap=     0.249 Goal=   None    Shift=    0.000
 RMSDP=2.88D-03 MaxDP=2.29D-02 DE= 2.83D-02 OVMax= 6.82D-02

 Cycle   5  Pass 0  IDiag  1:
 E= -228.739268877255     Delta-E=       -0.036328777344 Rises=F Damp=F
 DIIS: error= 9.19D-03 at cycle   5 NSaved=   5.
 NSaved= 5 IEnMin= 5 EnMin= -228.739268877255     IErMin= 5 ErrMin= 9.19D-03
 ErrMax= 9.19D-03  0.00D+00 EMaxC= 1.00D-01 BMatC= 2.25D-03 BMatP= 8.39D-03
 IDIUse=3 WtCom= 9.08D-01 WtEn= 9.19D-02
 Coeff-Com: -0.722D-02 0.257D-01 0.232D+00-0.891D-01 0.839D+00
 Coeff-En:   0.000D+00 0.000D+00 0.211D+00 0.000D+00 0.789D+00
 Coeff:     -0.656D-02 0.233D-01 0.230D+00-0.809D-01 0.835D+00
 Gap=     0.253 Goal=   None    Shift=    0.000
 RMSDP=9.63D-04 MaxDP=7.11D-03 DE=-3.63D-02 OVMax= 2.11D-02

 Cycle   6  Pass 0  IDiag  1:
 E= -228.741354984191     Delta-E=       -0.002086106936 Rises=F Damp=F
 DIIS: error= 5.36D-04 at cycle   6 NSaved=   6.
 NSaved= 6 IEnMin= 6 EnMin= -228.741354984191     IErMin= 6 ErrMin= 5.36D-04
 ErrMax= 5.36D-04  0.00D+00 EMaxC= 1.00D-01 BMatC= 1.00D-05 BMatP= 2.25D-03
 IDIUse=3 WtCom= 9.95D-01 WtEn= 5.36D-03
 Coeff-Com: -0.535D-02 0.121D-01 0.487D-01-0.447D-01 0.314D+00 0.675D+00
 Coeff-En:   0.000D+00 0.000D+00 0.000D+00 0.000D+00 0.000D+00 0.100D+01
 Coeff:     -0.532D-02 0.120D-01 0.484D-01-0.445D-01 0.313D+00 0.677D+00
 Gap=     0.253 Goal=   None    Shift=    0.000
 RMSDP=7.01D-05 MaxDP=6.23D-04 DE=-2.09D-03 OVMax= 1.44D-03

 Cycle   7  Pass 0  IDiag  1:
 E= -228.741365228896     Delta-E=       -0.000010244705 Rises=F Damp=F
 DIIS: error= 1.10D-04 at cycle   7 NSaved=   7.
 NSaved= 7 IEnMin= 7 EnMin= -228.741365228896     IErMin= 7 ErrMin= 1.10D-04
 ErrMax= 1.10D-04  0.00D+00 EMaxC= 1.00D-01 BMatC= 2.89D-07 BMatP= 1.00D-05
 IDIUse=3 WtCom= 9.99D-01 WtEn= 1.10D-03
 Coeff-Com: -0.247D-02 0.504D-02 0.179D-01-0.202D-01 0.140D+00 0.411D+00
 Coeff-Com:  0.449D+00
 Coeff-En:   0.000D+00 0.000D+00 0.000D+00 0.000D+00 0.000D+00 0.000D+00
 Coeff-En:   0.100D+01
 Coeff:     -0.247D-02 0.503D-02 0.178D-01-0.202D-01 0.140D+00 0.411D+00
 Coeff:      0.449D+00
 Gap=     0.253 Goal=   None    Shift=    0.000
 RMSDP=1.08D-05 MaxDP=1.24D-04 DE=-1.02D-05 OVMax= 3.42D-04

 Cycle   8  Pass 0  IDiag  1:
 E= -228.741365527366     Delta-E=       -0.000000298470 Rises=F Damp=F
 DIIS: error= 1.76D-05 at cycle   8 NSaved=   8.
 NSaved= 8 IEnMin= 8 EnMin= -228.741365527366     IErMin= 8 ErrMin= 1.76D-05
 ErrMax= 1.76D-05  0.00D+00 EMaxC= 1.00D-01 BMatC= 1.27D-08 BMatP= 2.89D-07
 IDIUse=1 WtCom= 1.00D+00 WtEn= 0.00D+00
 Coeff-Com: -0.256D-03 0.189D-03 0.233D-02-0.239D-02 0.223D-01 0.126D+00
 Coeff-Com:  0.201D+00 0.652D+00
 Coeff:     -0.256D-03 0.189D-03 0.233D-02-0.239D-02 0.223D-01 0.126D+00
 Coeff:      0.201D+00 0.652D+00
 Gap=     0.253 Goal=   None    Shift=    0.000
 RMSDP=2.06D-06 MaxDP=2.02D-05 DE=-2.98D-07 OVMax= 3.17D-05

 Initial convergence to 1.0D-05 achieved.  Increase integral accuracy.
 Cycle   9  Pass 1  IDiag  1:
 E= -228.741398550700     Delta-E=       -0.000033023334 Rises=F Damp=F
 DIIS: error= 2.42D-05 at cycle   1 NSaved=   1.
 NSaved= 1 IEnMin= 1 EnMin= -228.741398550700     IErMin= 1 ErrMin= 2.42D-05
 ErrMax= 2.42D-05  0.00D+00 EMaxC= 1.00D-01 BMatC= 1.40D-08 BMatP= 1.40D-08
 IDIUse=1 WtCom= 1.00D+00 WtEn= 0.00D+00
 Coeff-Com:  0.100D+01
 Coeff:      0.100D+01
 Gap=     0.253 Goal=   None    Shift=    0.000
 RMSDP=2.06D-06 MaxDP=2.02D-05 DE=-3.30D-05 OVMax= 4.29D-05

 Cycle  10  Pass 1  IDiag  1:
 E= -228.741398569476     Delta-E=       -0.000000018776 Rises=F Damp=F
 DIIS: error= 2.44D-06 at cycle   2 NSaved=   2.
 NSaved= 2 IEnMin= 2 EnMin= -228.741398569476     IErMin= 2 ErrMin= 2.44D-06
 ErrMax= 2.44D-06  0.00D+00 EMaxC= 1.00D-01 BMatC= 4.26D-10 BMatP= 1.40D-08
 IDIUse=1 WtCom= 1.00D+00 WtEn= 0.00D+00
 Coeff-Com: -0.640D-02 0.101D+01
 Coeff:     -0.640D-02 0.101D+01
 Gap=     0.253 Goal=   None    Shift=    0.000
 RMSDP=9.99D-07 MaxDP=1.32D-05 DE=-1.88D-08 OVMax= 1.90D-05

 Cycle  11  Pass 1  IDiag  1:
 E= -228.741398569031     Delta-E=        0.000000000446 Rises=F Damp=F
 DIIS: error= 3.96D-06 at cycle   3 NSaved=   3.
 NSaved= 3 IEnMin= 2 EnMin= -228.741398569476     IErMin= 2 ErrMin= 2.44D-06
 ErrMax= 3.96D-06  0.00D+00 EMaxC= 1.00D-01 BMatC= 8.72D-10 BMatP= 4.26D-10
 IDIUse=1 WtCom= 1.00D+00 WtEn= 0.00D+00
 Coeff-Com: -0.231D-01 0.611D+00 0.412D+00
 Coeff:     -0.231D-01 0.611D+00 0.412D+00
 Gap=     0.253 Goal=   None    Shift=    0.000
 RMSDP=5.82D-07 MaxDP=7.45D-06 DE= 4.46D-10 OVMax= 1.53D-05

 Cycle  12  Pass 1  IDiag  1:
 E= -228.741398569928     Delta-E=       -0.000000000898 Rises=F Damp=F
 DIIS: error= 7.56D-07 at cycle   4 NSaved=   4.
 NSaved= 4 IEnMin= 4 EnMin= -228.741398569928     IErMin= 4 ErrMin= 7.56D-07
 ErrMax= 7.56D-07  0.00D+00 EMaxC= 1.00D-01 BMatC= 2.15D-11 BMatP= 4.26D-10
 IDIUse=1 WtCom= 1.00D+00 WtEn= 0.00D+00
 Coeff-Com: -0.133D-01 0.284D+00 0.219D+00 0.511D+00
 Coeff:     -0.133D-01 0.284D+00 0.219D+00 0.511D+00
 Gap=     0.253 Goal=   None    Shift=    0.000
 RMSDP=1.14D-07 MaxDP=9.08D-07 DE=-8.98D-10 OVMax= 2.16D-06

 Cycle  13  Pass 1  IDiag  1:
 E= -228.741398569948     Delta-E=       -0.000000000020 Rises=F Damp=F
 DIIS: error= 2.94D-07 at cycle   5 NSaved=   5.
 NSaved= 5 IEnMin= 5 EnMin= -228.741398569948     IErMin= 5 ErrMin= 2.94D-07
 ErrMax= 2.94D-07  0.00D+00 EMaxC= 1.00D-01 BMatC= 2.53D-12 BMatP= 2.15D-11
 IDIUse=1 WtCom= 1.00D+00 WtEn= 0.00D+00
 Coeff-Com: -0.440D-02 0.797D-01 0.706D-01 0.287D+00 0.568D+00
 Coeff:     -0.440D-02 0.797D-01 0.706D-01 0.287D+00 0.568D+00
 Gap=     0.253 Goal=   None    Shift=    0.000
 RMSDP=3.25D-08 MaxDP=4.72D-07 DE=-1.97D-11 OVMax= 6.15D-07

 Cycle  14  Pass 1  IDiag  1:
 E= -228.741398569950     Delta-E=       -0.000000000002 Rises=F Damp=F
 DIIS: error= 8.18D-08 at cycle   6 NSaved=   6.
 NSaved= 6 IEnMin= 6 EnMin= -228.741398569950     IErMin= 6 ErrMin= 8.18D-08
 ErrMax= 8.18D-08  0.00D+00 EMaxC= 1.00D-01 BMatC= 2.60D-13 BMatP= 2.53D-12
 IDIUse=1 WtCom= 1.00D+00 WtEn= 0.00D+00
 Coeff-Com: -0.614D-03 0.602D-02 0.101D-01 0.847D-01 0.296D+00 0.604D+00
 Coeff:     -0.614D-03 0.602D-02 0.101D-01 0.847D-01 0.296D+00 0.604D+00
 Gap=     0.253 Goal=   None    Shift=    0.000
 RMSDP=1.13D-08 MaxDP=1.28D-07 DE=-1.88D-12 OVMax= 2.27D-07

 Cycle  15  Pass 1  IDiag  1:
 E= -228.741398569949     Delta-E=        0.000000000001 Rises=F Damp=F
 DIIS: error= 2.61D-08 at cycle   7 NSaved=   7.
 NSaved= 7 IEnMin= 6 EnMin= -228.741398569950     IErMin= 7 ErrMin= 2.61D-08
 ErrMax= 2.61D-08  0.00D+00 EMaxC= 1.00D-01 BMatC= 2.30D-14 BMatP= 2.60D-13
 IDIUse=1 WtCom= 1.00D+00 WtEn= 0.00D+00
 Coeff-Com: -0.734D-04-0.905D-03 0.224D-02 0.253D-01 0.109D+00 0.314D+00
 Coeff-Com:  0.550D+00
 Coeff:     -0.734D-04-0.905D-03 0.224D-02 0.253D-01 0.109D+00 0.314D+00
 Coeff:      0.550D+00
 Gap=     0.253 Goal=   None    Shift=    0.000
 RMSDP=3.92D-09 MaxDP=3.38D-08 DE= 1.31D-12 OVMax= 8.94D-08

 SCF Done:  E(RB3LYP) =  -228.741398570     A.U. after   15 cycles
            NFock= 15  Conv=0.39D-08     -V/T= 2.0075
 KE= 2.270281027583D+02 PE=-8.564131179179D+02 EE= 2.387516248807D+02
 Leave Link  502 at Tue Dec 15 16:23:10 2015, MaxMem=    33554432 cpu:         4.1
 (Enter /home/Applications/g09/g09/l801.exe)
 DoSCS=F DFT=T ScalE2(SS,OS)=  1.000000  1.000000
 ExpMin= 1.83D-01 ExpMax= 3.22D+02 ExpMxC= 3.22D+02 IAcc=3 IRadAn=         5 AccDes= 0.00D+00
 HarFok:  IExCor=  205 AccDes= 0.00D+00 IRadAn=         5 IDoV=-2 UseB2=F ITyADJ=14
 ICtDFT= 12500011 ScaDFX=  1.000000  1.000000  1.000000  1.000000
 Largest valence mixing into a core orbital is  1.77D-04
 Largest core mixing into a valence orbital is  4.47D-05
 Range of M.O.s used for correlation:     6    53
 NBasis=    53 NAE=    18 NBE=    18 NFC=     5 NFV=     0
 NROrb=     48 NOA=    13 NOB=    13 NVA=    35 NVB=    35
 Leave Link  801 at Tue Dec 15 16:23:10 2015, MaxMem=    33554432 cpu:         0.3
 (Enter /home/Applications/g09/g09/l914.exe)
 RHF ground state
 MDV=    33554432 DFT=T DoStab=F Mixed=T DoRPA=F DoScal=F NonHer=F
 Keep R1, R2, and R3 ints in memory in canonical form, NReq=5596273.
 FoFCou: FMM=F IPFlag=           0 FMFlag=           0 FMFlg1=           0
         NFxFlg=           0 DoJE=F BraDBF=F KetDBF=F FulRan=T
         wScrn=  0.000000 ICntrl=     600 IOpCl=  0 I1Cent=           0 NGrid=           0
         NMat0=    1 NMatS0=   1431 NMatT0=    0 NMatD0=    1 NMtDS0=    0 NMtDT0=    0
 Symmetry not used in FoFCou.
 Making orbital integer symmetry assigments:
 Orbital symmetries:
       Occupied  (A) (A) (A) (A) (A) (A) (A) (A) (A) (A) (A) (A)
                 (A) (A) (A) (A) (A) (A)
       Virtual   (A) (A) (A) (A) (A) (A) (A) (A) (A) (A) (A) (A)
                 (A) (A) (A) (A) (A) (A) (A) (A) (A) (A) (A) (A)
                 (A) (A) (A) (A) (A) (A) (A) (A) (A) (A) (A)
    60 initial guesses have been made.
 Convergence on wavefunction:    0.000001000000000
 Davidson Disk Diagonalization:  ConvIn= 1.00D-06 SkipCon=T Conv= 1.00D-06.
 Max sub-space:   240 roots to seek:    60 dimension of matrix:          910
 Iteration     1 Dimension    60 NMult     0 NNew     60
 CISAX will form    60 AO SS matrices at one time.
 NMat=    60 NSing=    60 JSym2X= 0.
 New state      1 was old state      2
 New state      2 was old state      1
 New state      3 was old state      6
 New state      4 was old state      5
 New state      5 was old state      7
 New state      6 was old state      8
 New state      7 was old state     10
 New state      8 was old state      4
 New state     10 was old state     12
 New state     12 was old state     13
 New state     13 was old state     14
 New state     14 was old state      3
 Excitation Energies [eV] at current iteration:
 Root      1 :     7.301461536896431
 Root      2 :     8.246354235493303
 Root      3 :     8.611249399596556
 Root      4 :     8.859391608369291
 Root      5 :     9.523026873359116
 Root      6 :     9.914161916395933
 Root      7 :     9.953814525419126
 Root      8 :    10.088019084510170
 Root      9 :    10.183933172109100
 Root     10 :    10.247117849187900
 Root     11 :    10.459597821208710
 Root     12 :    10.581890039336840
 Root     13 :    10.623977614770880
 Root     14 :    10.965444400713360
 Root     15 :    11.049431416922550
 Root     16 :    11.257342454945420
 Root     17 :    11.391864906825620
 Root     18 :    11.486713394690760
 Root     19 :    11.561983774888950
 Root     20 :    11.859392837151160
 Root     21 :    11.911445488162110
 Root     22 :    12.200409844196890
 Root     23 :    12.265034377127490
 Root     24 :    12.450665376392070
 Root     25 :    12.781653358558730
 Root     26 :    13.549610775292700
 Root     27 :    13.593693534287960
 Root     28 :    13.740063602489310
 Root     29 :    13.847013137999900
 Root     30 :    13.948880517679720
 Root     31 :    14.128161781671470
 Root     32 :    14.164292967206140
 Root     33 :    14.371900435342440
 Root     34 :    14.565283254519900
 Root     35 :    14.602900105735520
 Root     36 :    14.665827770781050
 Root     37 :    14.842928360498810
 Root     38 :    14.880968907505850
 Root     39 :    15.053129672443410
 Root     40 :    15.086081817831370
 Root     41 :    15.220334462166720
 Root     42 :    15.268135911092860
 Root     43 :    15.420216503186920
 Root     44 :    15.451567716965180
 Root     45 :    15.588678071435020
 Root     46 :    15.705567829257530
 Root     47 :    15.774205715122510
 Root     48 :    15.899620827488560
 Root     49 :    15.954984361864050
 Root     50 :    16.113170255793500
 Root     51 :    16.175685317902800
 Root     52 :    16.203598985612820
 Root     53 :    16.296651939541380
 Root     54 :    16.605398881519530
 Root     55 :    16.653761094775450
 Root     56 :    16.866338531911730
 Root     57 :    17.181376279243790
 Root     58 :    17.718266222543110
 Root     59 :    17.772760798357780
 Root     60 :    18.117543370950520
 Iteration     2 Dimension   120 NMult    60 NNew     60
 CISAX will form    60 AO SS matrices at one time.
 NMat=    60 NSing=    60 JSym2X= 0.
 Root      1 not converged, maximum delta is    0.040651408721893
 Root      2 not converged, maximum delta is    0.060723999015078
 Root      3 not converged, maximum delta is    0.014323633150297
 Root      4 not converged, maximum delta is    0.036708896532503
 Root      5 not converged, maximum delta is    0.311036784982568
 New state      6 was old state      8
 Root      6 not converged, maximum delta is    0.358882842040379
 New state      7 was old state     14
 Root      7 not converged, maximum delta is    0.356659194455155
 New state      8 was old state      6
 Root      8 not converged, maximum delta is    0.410242154627270
 New state      9 was old state      7
 Root      9 not converged, maximum delta is    0.348177262121727
 New state     10 was old state      9
 Root     10 not converged, maximum delta is    0.255840866461039
 New state     11 was old state     10
 Root     11 not converged, maximum delta is    0.236717329801016
 New state     12 was old state     11
 Root     12 not converged, maximum delta is    0.053925414186051
 Root     13 not converged, maximum delta is    0.350481281179605
 New state     14 was old state     12
 Root     14 not converged, maximum delta is    0.291029583257814
 Root     15 not converged, maximum delta is    0.035440003514693
 Excitation Energies [eV] at current iteration:
 Root      1 :     7.163386280442314   Change is   -0.138075256454117
 Root      2 :     7.396695331951184   Change is   -0.849658903542119
 Root      3 :     8.583731283251717   Change is   -0.027518116344839
 Root      4 :     8.849533922803065   Change is   -0.009857685566226
 Root      5 :     9.428798407142931   Change is   -0.094228466216184
 Root      6 :     9.537801140766311   Change is   -0.550217943743861
 Root      7 :     9.635901471139034   Change is   -1.329542929574330
 Root      8 :     9.934832896278543   Change is    0.020670979882609
 Root      9 :     9.977592643774695   Change is    0.023778118355570
 Root     10 :    10.160428103987100   Change is   -0.023505068121999
 Root     11 :    10.223654455915210   Change is   -0.023463393272695
 Root     12 :    10.448078196307020   Change is   -0.011519624901698
 Root     13 :    10.606456211379350   Change is   -0.017521403391531
 Root     14 :    10.656303569620350   Change is    0.074413530283511
 Root     15 :    11.028522814255830   Change is   -0.020908602666720
 Root     16 :    11.238326988462690   Change is   -0.019015466482721
 Root     17 :    11.382620172666060   Change is   -0.009244734159557
 Root     18 :    11.458896514115670   Change is   -0.027816880575086
 Root     19 :    11.538186512042440   Change is   -0.023797262846510
 Root     20 :    11.809962245338870   Change is   -0.049430591812291
 Root     21 :    11.865863003267650   Change is   -0.045582484894460
 Root     22 :    12.090538037762400   Change is   -0.109871806434482
 Root     23 :    12.229084439804860   Change is   -0.035949937322631
 Root     24 :    12.417364271065920   Change is   -0.033301105326153
 Root     25 :    12.715394638474190   Change is   -0.066258720084536
 Root     26 :    13.030345723208670   Change is   -1.534937531311229
 Root     27 :    13.479639529818400   Change is   -0.069971245474295
 Root     28 :    13.560440854567680   Change is   -0.033252679720276
 Root     29 :    13.628213588059560   Change is   -0.320666929620163
 Root     30 :    13.749048247443620   Change is    0.008984644954311
 Root     31 :    13.822606344968200   Change is   -0.024406793031701
 Root     32 :    14.070375809067330   Change is   -0.057785972604137
 Root     33 :    14.178862122390490   Change is    0.014569155184351
 Root     34 :    14.264784649212720   Change is   -0.107115786129723
 Root     35 :    14.536196243094930   Change is   -0.066703862640584
 Root     36 :    14.625432898445210   Change is   -0.040394872335841
 Root     37 :    14.637210985808040   Change is   -0.243757921697815
 Root     38 :    14.722235199662330   Change is   -0.120693160836476
 Root     39 :    14.957500755160320   Change is   -0.095628917283096
 Root     40 :    15.038366638873010   Change is   -0.047715178958352
 Root     41 :    15.061087445823370   Change is   -0.159247016343348
 Root     42 :    15.218399361580970   Change is   -0.049736549511889
 Root     43 :    15.378595292895680   Change is   -0.041621210291237
 Root     44 :    15.399702553475940   Change is   -0.051865163489241
 Root     45 :    15.535400148733040   Change is   -0.053277922701979
 Root     46 :    15.553702763079230   Change is   -0.220502952043281
 Root     47 :    15.662021653458700   Change is   -0.043546175798827
 Root     48 :    15.715662800141880   Change is   -0.183958027346682
 Root     49 :    15.763145872065240   Change is   -0.191838489798811
 Root     50 :    15.928725842094790   Change is   -0.274873143518037
 Root     51 :    16.035497741228990   Change is   -0.140187576673818
 Root     52 :    16.060473579898450   Change is   -0.052696675895043
 Root     53 :    16.168498479336930   Change is   -0.436900402182600
 Root     54 :    16.222352000951150   Change is   -0.074299938590228
 Root     55 :    16.599300456569320   Change is   -0.054460638206132
 Root     56 :    16.637016251902710   Change is   -1.135744546455075
 Root     57 :    16.707106510859240   Change is   -1.011159711683863
 Root     58 :    16.739445818024120   Change is   -0.126892713887618
 Root     59 :    16.979287890194570   Change is   -0.202088389049224
 Root     60 :    17.180729273455440   Change is   -0.936814097495079
 Iteration     3 Dimension   135 NMult   120 NNew     15
 CISAX will form    15 AO SS matrices at one time.
 NMat=    15 NSing=    15 JSym2X= 0.
 Root      1 not converged, maximum delta is    0.001412248207538
 Root      2 not converged, maximum delta is    0.002668031542202
 Root      3 not converged, maximum delta is    0.000211476393524
 Root      4 not converged, maximum delta is    0.000151176019919
 Root      5 not converged, maximum delta is    0.005874262748992
 Root      6 not converged, maximum delta is    0.003656894246096
 Root      7 not converged, maximum delta is    0.005299784283763
 Root      8 not converged, maximum delta is    0.002838725831587
 Root      9 not converged, maximum delta is    0.002815979348771
 Root     10 not converged, maximum delta is    0.000610179267326
 Root     11 not converged, maximum delta is    0.000733217806646
 Root     12 not converged, maximum delta is    0.000352533848165
 Root     13 not converged, maximum delta is    0.000421203731277
 Root     14 not converged, maximum delta is    0.000543373120258
 Root     15 not converged, maximum delta is    0.000397463659054
 Excitation Energies [eV] at current iteration:
 Root      1 :     7.162469911264855   Change is   -0.000916369177459
 Root      2 :     7.394649581338274   Change is   -0.002045750612911
 Root      3 :     8.583697135204783   Change is   -0.000034148046933
 Root      4 :     8.849522304677274   Change is   -0.000011618125790
 Root      5 :     9.426950096972133   Change is   -0.001848310170798
 Root      6 :     9.536600291023804   Change is   -0.001200849742507
 Root      7 :     9.632361434786953   Change is   -0.003540036352083
 Root      8 :     9.934660998556401   Change is   -0.000171897722141
 Root      9 :     9.977189301581785   Change is   -0.000403342192912
 Root     10 :    10.160352082052680   Change is   -0.000076021934420
 Root     11 :    10.223456668300490   Change is   -0.000197787614717
 Root     12 :    10.448047731925660   Change is   -0.000030464381352
 Root     13 :    10.606439067292300   Change is   -0.000017144087046
 Root     14 :    10.656164723081550   Change is   -0.000138846538793
 Root     15 :    11.028494706520250   Change is   -0.000028107735574
 Iteration     4 Dimension   150 NMult   135 NNew     15
 CISAX will form    15 AO SS matrices at one time.
 NMat=    15 NSing=    15 JSym2X= 0.
 Root      1 not converged, maximum delta is    0.000043076005859
 Root      2 not converged, maximum delta is    0.000083518917482
 Root      3 not converged, maximum delta is    0.000004757032245
 Root      4 not converged, maximum delta is    0.000003271178153
 Root      5 not converged, maximum delta is    0.000050313656443
 Root      6 not converged, maximum delta is    0.000054156284312
 Root      7 not converged, maximum delta is    0.000087821681281
 Root      8 not converged, maximum delta is    0.000020700288068
 Root      9 not converged, maximum delta is    0.000029678425093
 Root     10 not converged, maximum delta is    0.000010241744715
 Root     11 not converged, maximum delta is    0.000020450864534
 Root     12 not converged, maximum delta is    0.000005549763107
 Root     13 not converged, maximum delta is    0.000006181835582
 Root     14 not converged, maximum delta is    0.000023837386504
 Root     15 not converged, maximum delta is    0.000017245362898
 Excitation Energies [eV] at current iteration:
 Root      1 :     7.162468691518124   Change is   -0.000001219746732
 Root      2 :     7.394647170496241   Change is   -0.000002410842032
 Root      3 :     8.583697104047090   Change is   -0.000000031157694
 Root      4 :     8.849522290723286   Change is   -0.000000013953989
 Root      5 :     9.426947207149563   Change is   -0.000002889822570
 Root      6 :     9.536598484602068   Change is   -0.000001806421736
 Root      7 :     9.632355825889546   Change is   -0.000005608897406
 Root      8 :     9.934660756188473   Change is   -0.000000242367930
 Root      9 :     9.977188640773978   Change is   -0.000000660807805
 Root     10 :    10.160351971651550   Change is   -0.000000110401134
 Root     11 :    10.223456382701090   Change is   -0.000000285599397
 Root     12 :    10.448047713241000   Change is   -0.000000018684661
 Root     13 :    10.606439042200680   Change is   -0.000000025091619
 Root     14 :    10.656164486531100   Change is   -0.000000236550457
 Root     15 :    11.028494675626090   Change is   -0.000000030894168
 Iteration     5 Dimension   165 NMult   150 NNew     15
 CISAX will form    15 AO SS matrices at one time.
 NMat=    15 NSing=    15 JSym2X= 0.
 Root      1 not converged, maximum delta is    0.000001301162102
 Root      2 not converged, maximum delta is    0.000002822505360
 Root      3 has converged.
 Root      4 has converged.
 Root      5 not converged, maximum delta is    0.000002006725249
 Root      6 not converged, maximum delta is    0.000002411198275
 Root      7 not converged, maximum delta is    0.000003022386314
 Root      8 has converged.
 Root      9 not converged, maximum delta is    0.000001184685685
 Root     10 has converged.
 Root     11 has converged.
 Root     12 has converged.
 Root     13 has converged.
 Root     14 has converged.
 Root     15 has converged.
 Excitation Energies [eV] at current iteration:
 Root      1 :     7.162468690446200   Change is   -0.000000001071924
 Root      2 :     7.394647168224633   Change is   -0.000000002271608
 Root      3 :     8.583697104022418   Change is   -0.000000000024672
 Root      4 :     8.849522290711704   Change is   -0.000000000011581
 Root      5 :     9.426947204916338   Change is   -0.000000002233225
 Root      6 :     9.536598482816393   Change is   -0.000000001785675
 Root      7 :     9.632355821966936   Change is   -0.000000003922611
 Root      8 :     9.934660756014893   Change is   -0.000000000173580
 Root      9 :     9.977188640255459   Change is   -0.000000000518518
 Root     10 :    10.160351971557770   Change is   -0.000000000093777
 Root     11 :    10.223456382459080   Change is   -0.000000000242015
 Root     12 :    10.448047713221630   Change is   -0.000000000019371
 Root     13 :    10.606439042175830   Change is   -0.000000000024856
 Root     14 :    10.656164486321750   Change is   -0.000000000209351
 Root     15 :    11.028494675586510   Change is   -0.000000000039579
 Iteration     6 Dimension   170 NMult   165 NNew      5
 CISAX will form     5 AO SS matrices at one time.
 NMat=     5 NSing=     5 JSym2X= 0.
 Root      1 has converged.
 Root      2 has converged.
 Root      3 has converged.
 Root      4 has converged.
 Root      5 has converged.
 Root      6 has converged.
 Root      7 has converged.
 Root      8 has converged.
 Root      9 has converged.
 Root     10 has converged.
 Root     11 has converged.
 Root     12 has converged.
 Root     13 has converged.
 Root     14 has converged.
 Root     15 has converged.
 Excitation Energies [eV] at current iteration:
 Root      1 :     7.162468690445832   Change is   -0.000000000000369
 Root      2 :     7.394647168223874   Change is   -0.000000000000760
 Root      3 :     8.583697104022423   Change is    0.000000000000005
 Root      4 :     8.849522290711699   Change is   -0.000000000000005
 Root      5 :     9.426947204914944   Change is   -0.000000000001396
 Root      6 :     9.536598482815107   Change is   -0.000000000001285
 Root      7 :     9.632355821964836   Change is   -0.000000000002100
 Root      8 :     9.934660756014809   Change is   -0.000000000000083
 Root      9 :     9.977188640255161   Change is   -0.000000000000299
 Root     10 :    10.160351971557690   Change is   -0.000000000000076
 Root     11 :    10.223456382458950   Change is   -0.000000000000128
 Root     12 :    10.448047713221620   Change is   -0.000000000000012
 Root     13 :    10.606439042175820   Change is   -0.000000000000008
 Root     14 :    10.656164486321610   Change is   -0.000000000000133
 Root     15 :    11.028494675586510   Change is    0.000000000000009
 Convergence achieved on expansion vectors.
 ***********************************************************************
 Excited states from <AA,BB:AA,BB> singles matrix:
 ***********************************************************************
 
 1PDM for each excited state written to RWF  633
 Ground to excited state transition densities written to RWF  633
 Ground to excited state transition electric dipole moments (Au):
       state          X           Y           Z        Dip. S.      Osc.
         1         0.0951     -0.0385      0.0244      0.0111      0.0020
         2         1.1309      0.2586     -0.0333      1.3469      0.2440
         3         0.0136     -0.0692     -0.1419      0.0251      0.0053
         4        -0.0265     -0.0467      0.0089      0.0030      0.0006
         5         0.6378     -0.6789     -0.0282      0.8685      0.2006
         6         0.7144      0.0840      0.0192      0.5178      0.1210
         7         0.0070      1.2391      0.0822      1.5423      0.3640
         8         0.0335      0.2306      0.0610      0.0580      0.0141
         9         0.0594     -0.4067      0.0218      0.1694      0.0414
        10         0.0255     -0.1141     -0.0760      0.0194      0.0048
        11         0.0079     -0.2409     -0.0049      0.0581      0.0146
        12        -0.0184      0.0388      0.0098      0.0019      0.0005
        13         0.0442     -0.0495      0.0282      0.0052      0.0014
        14         0.0226      0.2364     -0.0385      0.0579      0.0151
        15         0.0707      0.0052      0.0352      0.0063      0.0017
 Ground to excited state transition velocity dipole moments (Au):
       state          X           Y           Z        Dip. S.      Osc.
         1         0.0095     -0.0475     -0.0006      0.0023      0.0059
         2        -0.0015      0.0070     -0.0008      0.0001      0.0001
         3         0.0013     -0.0008      0.0750      0.0056      0.0119
         4        -0.0026     -0.0008      0.0011      0.0000      0.0000
         5        -0.0589      0.0150     -0.0166      0.0040      0.0076
         6        -0.0667     -0.0124      0.0136      0.0048      0.0091
         7        -0.0171     -0.0460      0.0098      0.0025      0.0047
         8        -0.0057     -0.0079     -0.0403      0.0017      0.0031
         9        -0.0010      0.0185     -0.0024      0.0004      0.0006
        10         0.0032      0.0051      0.0359      0.0013      0.0024
        11         0.0011      0.0178      0.0036      0.0003      0.0006
        12         0.0024     -0.0013     -0.0273      0.0008      0.0013
        13        -0.0109      0.0016     -0.0051      0.0001      0.0003
        14        -0.0034     -0.0229     -0.0488      0.0029      0.0050
        15        -0.0188     -0.0053      0.0056      0.0004      0.0007
 Ground to excited state transition magnetic dipole moments (Au):
       state          X           Y           Z
         1        -0.0555      0.0024      0.0027
         2         0.0089     -0.0368      0.3857
         3        -1.5719     -0.2066     -0.0063
         4        -0.0709      0.5212     -0.0575
         5         0.0275     -0.0257     -0.1043
         6        -0.0131      0.1160     -0.1684
         7         0.0526     -0.0159     -0.1071
         8        -0.1429     -0.0918     -0.0554
         9         0.3646     -0.1411      0.0051
        10        -0.0246     -0.2510     -0.0286
        11         0.0592      0.2739      0.0539
        12        -0.0878      0.0567     -0.0104
        13        -0.0712     -0.2545      0.0342
        14         0.1077      0.0644     -0.0478
        15         0.0082      0.3491     -0.0719
 Ground to excited state transition velocity quadrupole moments (Au):
       state          XX          YY          ZZ          XY          XZ          YZ
         1        -0.0310     -0.0150      0.0238      0.0128      0.0021     -0.0026
         2        -0.0750      0.0746     -0.0048      0.2233     -0.0075      0.0010
         3        -0.0030     -0.0072      0.0019     -0.0082      0.0261     -0.1743
         4        -0.0102      0.0058      0.0009     -0.0179     -0.0508      0.0061
         5        -0.0971      0.0758      0.0177     -0.2153     -0.1397     -0.0071
         6         0.0819     -0.0722      0.0024     -0.2660      0.1211      0.0073
         7         0.2515     -0.2493     -0.0330     -0.0534     -0.0986     -0.0157
         8         0.0194     -0.0305     -0.0078     -0.0297      0.0312     -0.0426
         9        -0.0938      0.0689      0.0177     -0.0166     -0.0152      0.0790
        10         0.0272      0.0078      0.0088     -0.0277     -0.0329     -0.1309
        11        -0.0619      0.0538      0.0188      0.0377     -0.0150     -0.0728
        12         0.0181     -0.0164      0.0040      0.0046      0.0190     -0.0961
        13        -0.0236      0.0195      0.0053      0.0027      0.0724     -0.0163
        14         0.1028     -0.0517     -0.0173     -0.0356     -0.0252      0.0399
        15        -0.0040      0.0025     -0.0026     -0.0480     -0.0010      0.0304
 <0|del|b> * <b|rxdel|0> + <0|del|b> * <b|delr+rdel|0>
 Rotatory Strengths (R) in cgs (10**-40 erg-esu-cm/Gauss)
       state          XX          YY          ZZ    R(velocity)    E-M Angle
         1        -0.0296     -0.7332     -0.9585     -0.5738      103.76
         2        -0.8735     -0.1818     -0.4172     -0.4908      101.73
         3        -1.0147     -2.2931     -1.8014     -1.7031       91.10
         4        -0.5764      0.1366     -0.1816     -0.2071      100.60
         5         7.1709     -3.1109     -4.6136     -0.1845       92.22
         6        -5.9083      1.7288     -1.5952     -1.9249      101.65
         7        -5.3666     -1.1536      4.0923     -0.8093      101.65
         8         4.2657      2.0308      1.0189      2.4385       59.37
         9        -2.2221     -0.4941     -3.0762     -1.9308      114.23
        10        -2.9648     -0.5075     -1.0377     -1.5033      104.93
        11         5.1556      0.0400      4.4832      3.2263        8.45
        12         0.0975     -0.0337     -0.0751     -0.0038       90.00
        13        -0.6411      0.7239      0.2822      0.1217       86.44
        14         1.8161      0.0913     -1.0160      0.2972       86.10
        15        -2.2178     -0.7502     -1.2532     -1.4071      109.50
 1/2[<0|r|b>*<b|rxdel|0> + (<0|rxdel|b>*<b|r|0>)*]
 Rotatory Strengths (R) in cgs (10**-40 erg-esu-cm/Gauss)
       state          XX          YY          ZZ     R(length)
         1         3.7299      0.0641     -0.0469      1.2490
         2        -7.1248      6.7293      9.0788      2.8944
         3        15.1137    -10.1133     -0.6347      1.4552
         4        -1.3320     17.2164      0.3634      5.4159
         5       -12.3870    -12.3531     -2.0809     -8.9403
         6         6.6144     -6.8964      2.2821      0.6667
         7        -0.2598     13.9477      6.2237      6.6372
         8         3.3802     14.9594      2.3892      6.9096
         9       -15.3101    -40.5752     -0.0789    -18.6547
        10         0.4437    -20.2623     -1.5384     -7.1190
        11        -0.3296     46.6572      0.1858     15.5045
        12        -1.1442     -1.5552      0.0722     -0.8757
        13         2.2270     -8.9122     -0.6821     -2.4558
        14        -1.7230    -10.7610     -1.3035     -4.5958
        15        -0.4090     -1.2897      1.7906      0.0307
  1/2[<0|del|b>*<b|r|0> + (<0|r|b>*<b|del|0>)*] (Au)
       state          X           Y           Z        Dip. S.   Osc.(frdel)
         1         0.0009      0.0018      0.0000     -0.0027     -0.0018
         2        -0.0017      0.0018      0.0000     -0.0001     -0.0001
         3         0.0000      0.0001     -0.0106      0.0106      0.0070
         4         0.0001      0.0000      0.0000     -0.0001     -0.0001
         5        -0.0376     -0.0102      0.0005      0.0473      0.0315
         6        -0.0476     -0.0010      0.0003      0.0484      0.0323
         7        -0.0001     -0.0570      0.0008      0.0563      0.0375
         8        -0.0002     -0.0018     -0.0025      0.0045      0.0030
         9        -0.0001     -0.0075     -0.0001      0.0076      0.0051
        10         0.0001     -0.0006     -0.0027      0.0032      0.0021
        11         0.0000     -0.0043      0.0000      0.0043      0.0029
        12         0.0000     -0.0001     -0.0003      0.0004      0.0002
        13        -0.0005     -0.0001     -0.0001      0.0007      0.0005
        14        -0.0001     -0.0054      0.0019      0.0036      0.0024
        15        -0.0013      0.0000      0.0002      0.0012      0.0008

 Excitation energies and oscillator strengths:
 
 Excited State   1:      Singlet-A      7.1625 eV  173.10 nm  f=0.0020  <S**2>=0.000
      17 -> 19         0.52026
      18 -> 20         0.46704
 This state for optimization and/or second-order correction.
 Total Energy, E(CIS) =  -228.478182677    
 Copying the excited state density for this state as the 1-particle RhoCI density.
 
 Excited State   2:      Singlet-A      7.3946 eV  167.67 nm  f=0.2440  <S**2>=0.000
      18 -> 19         0.68004
 
 Excited State   3:      Singlet-A      8.5837 eV  144.44 nm  f=0.0053  <S**2>=0.000
      16 -> 19         0.70175
 
 Excited State   4:      Singlet-A      8.8495 eV  140.10 nm  f=0.0006  <S**2>=0.000
      18 -> 21         0.69613
 
 Excited State   5:      Singlet-A      9.4269 eV  131.52 nm  f=0.2006  <S**2>=0.000
      17 -> 19         0.23765
      17 -> 20         0.35225
      18 -> 20        -0.27551
      18 -> 22         0.44516
 
 Excited State   6:      Singlet-A      9.5366 eV  130.01 nm  f=0.1210  <S**2>=0.000
      17 -> 20         0.51678
      18 -> 22        -0.44076
 
 Excited State   7:      Singlet-A      9.6324 eV  128.72 nm  f=0.3640  <S**2>=0.000
      15 -> 19         0.10917
      17 -> 19        -0.33700
      17 -> 20         0.25343
      17 -> 21        -0.14224
      18 -> 20         0.38168
      18 -> 22         0.28236
 
 Excited State   8:      Singlet-A      9.9347 eV  124.80 nm  f=0.0141  <S**2>=0.000
      15 -> 19         0.41149
      16 -> 20        -0.11265
      17 -> 21         0.45741
      18 -> 23        -0.24724
      18 -> 24         0.14726
 
 Excited State   9:      Singlet-A      9.9772 eV  124.27 nm  f=0.0414  <S**2>=0.000
      15 -> 19         0.47670
      16 -> 20        -0.16325
      17 -> 19         0.10336
      17 -> 21        -0.44002
      18 -> 20        -0.10977
 
 Excited State  10:      Singlet-A     10.1604 eV  122.03 nm  f=0.0048  <S**2>=0.000
      14 -> 19        -0.27120
      16 -> 20        -0.32199
      17 -> 21         0.20047
      18 -> 23         0.47883
      18 -> 24        -0.18272
 
 Excited State  11:      Singlet-A     10.2235 eV  121.27 nm  f=0.0146  <S**2>=0.000
      14 -> 19         0.29658
      15 -> 19         0.27475
      16 -> 20         0.42698
      17 -> 21         0.10424
      18 -> 23         0.30358
      18 -> 24        -0.18271
 
 Excited State  12:      Singlet-A     10.4480 eV  118.67 nm  f=0.0005  <S**2>=0.000
      18 -> 23         0.30251
      18 -> 24         0.62234
 
 Excited State  13:      Singlet-A     10.6064 eV  116.90 nm  f=0.0014  <S**2>=0.000
      14 -> 19         0.56277
      16 -> 20        -0.40116
 
 Excited State  14:      Singlet-A     10.6562 eV  116.35 nm  f=0.0151  <S**2>=0.000
      17 -> 22         0.68811
 
 Excited State  15:      Singlet-A     11.0285 eV  112.42 nm  f=0.0017  <S**2>=0.000
      18 -> 25         0.68752
 SavETr:  write IOETrn=   770 NScale= 10 NData=  16 NLR=1 NState=   15 LETran=     280.
 The selected state is a singlet
 CISAX will form     1 AO SS matrices at one time.
 NMat=     1 NSing=     1 JSym2X= 0.
 CISAX will form     1 AO SS matrices at one time.
 NMat=     1 NSing=     1 JSym2X= 0.
 Leave Link  914 at Tue Dec 15 16:23:45 2015, MaxMem=    33554432 cpu:        34.6
 (Enter /home/Applications/g09/g09/l1002.exe)
 Minotr:  Closed shell wavefunction.
          Computing CIS/TD-HF/TD-KS derivatives.
          Using Z-Vector for PSCF gradient.
          Skipping F1 and S1 gradient terms here.
          IDoAtm=111111111
          Frozen-core window.
          Direct CPHF calculation.
          Differentiating once with respect to electric field.
                with respect to dipole field.
          Differentiating once with respect to nuclear coordinates.
          Requested convergence is 1.0D-10 RMS, and 1.0D-09 maximum.
          NewPWx=F KeepS1=T KeepF1=T KeepIn=T MapXYZ=F SortEE=F KeepMc=T.
          MDV=      33554290 using IRadAn=       0.
 Using stored XC quadrature information.
 Keep R1 ints in memory in canonical form, NReq=1898913.
 FoFCou: FMM=F IPFlag=           0 FMFlag=           0 FMFlg1=           0
         NFxFlg=           0 DoJE=F BraDBF=F KetDBF=F FulRan=T
         wScrn=  0.000000 ICntrl=     600 IOpCl=  0 I1Cent=           0 NGrid=           0
         NMat0=    1 NMatS0=   1431 NMatT0=    0 NMatD0=    1 NMtDS0=    0 NMtDT0=    0
 Symmetry not used in FoFCou.
          Solving linear equations separately, MaxMat=       0.
          There are     1 degrees of freedom in the 1st order CPHF.  IDoFFX=0 NUNeed=     1.
 LinEq1:  Iter=  0 NonCon=     1 RMS=1.26D-02 Max=1.70D-01 NDo=     1
 AX will form     1 AO Fock derivatives at one time.
 LinEq1:  Iter=  1 NonCon=     1 RMS=6.35D-03 Max=9.07D-02 NDo=     1
 LinEq1:  Iter=  2 NonCon=     1 RMS=4.03D-03 Max=4.88D-02 NDo=     1
 LinEq1:  Iter=  3 NonCon=     1 RMS=1.70D-03 Max=1.76D-02 NDo=     1
 LinEq1:  Iter=  4 NonCon=     1 RMS=1.12D-03 Max=1.31D-02 NDo=     1
 LinEq1:  Iter=  5 NonCon=     1 RMS=4.81D-04 Max=4.84D-03 NDo=     1
 LinEq1:  Iter=  6 NonCon=     1 RMS=1.34D-04 Max=9.34D-04 NDo=     1
 LinEq1:  Iter=  7 NonCon=     1 RMS=8.93D-05 Max=1.03D-03 NDo=     1
 LinEq1:  Iter=  8 NonCon=     1 RMS=2.63D-05 Max=1.68D-04 NDo=     1
 LinEq1:  Iter=  9 NonCon=     1 RMS=3.26D-06 Max=2.14D-05 NDo=     1
 LinEq1:  Iter= 10 NonCon=     1 RMS=3.84D-07 Max=2.39D-06 NDo=     1
 LinEq1:  Iter= 11 NonCon=     1 RMS=5.16D-08 Max=4.17D-07 NDo=     1
 LinEq1:  Iter= 12 NonCon=     1 RMS=5.00D-09 Max=3.98D-08 NDo=     1
 LinEq1:  Iter= 13 NonCon=     1 RMS=6.62D-10 Max=4.24D-09 NDo=     1
 LinEq1:  Iter= 14 NonCon=     0 RMS=9.35D-11 Max=7.71D-10 NDo=     1
 Linear equations converged to 1.000D-10 1.000D-09 after    14 iterations.
 End of Minotr F.D. properties file   721 does not exist.
 End of Minotr F.D. properties file   722 does not exist.
 End of Minotr F.D. properties file   788 does not exist.
 Leave Link 1002 at Tue Dec 15 16:23:55 2015, MaxMem=    33554432 cpu:         9.3
 (Enter /home/Applications/g09/g09/l601.exe)
 Copying SCF densities to generalized density rwf, IOpCl= 0 IROHF=0.

 **********************************************************************

            Population analysis using the SCF density.

 **********************************************************************

 Orbital symmetries:
       Occupied  (A) (A) (A) (A) (A) (A) (A) (A) (A) (A) (A) (A)
                 (A) (A) (A) (A) (A) (A)
       Virtual   (A) (A) (A) (A) (A) (A) (A) (A) (A) (A) (A) (A)
                 (A) (A) (A) (A) (A) (A) (A) (A) (A) (A) (A) (A)
                 (A) (A) (A) (A) (A) (A) (A) (A) (A) (A) (A)
 The electronic state is 1-A.
 Alpha  occ. eigenvalues --  -19.11324 -10.17294 -10.17149 -10.12640 -10.12057
 Alpha  occ. eigenvalues --   -1.14015  -0.79725  -0.76029  -0.60293  -0.57990
 Alpha  occ. eigenvalues --   -0.54242  -0.46584  -0.45531  -0.41586  -0.39925
 Alpha  occ. eigenvalues --   -0.35352  -0.27383  -0.23146
 Alpha virt. eigenvalues --    0.02189   0.07854   0.14040   0.15921   0.18689
 Alpha virt. eigenvalues --    0.19194   0.22298   0.23544   0.35760   0.41009
 Alpha virt. eigenvalues --    0.48576   0.68840   0.69965   0.70680   0.74578
 Alpha virt. eigenvalues --    0.77075   0.78708   0.79634   0.81831   0.84072
 Alpha virt. eigenvalues --    0.91817   0.99024   1.02861   1.03412   1.17759
 Alpha virt. eigenvalues --    1.23072   1.33859   1.35826   1.51056   1.56911
 Alpha virt. eigenvalues --    1.61399   1.74128   1.97453   2.11891   3.20142
     Molecular Orbital Coefficients:
                           1         2         3         4         5
                           O         O         O         O         O
     Eigenvalues --   -19.11324 -10.17294 -10.17149 -10.12640 -10.12057
   1 1   C  1S          0.00016  -0.01189  -0.00274   0.98066   0.10274
   2        2S          0.00061  -0.00488  -0.00085   0.10973   0.00763
   3        2PX         0.00094   0.00074  -0.00011   0.00158  -0.00097
   4        2PY         0.00099   0.00213   0.00092  -0.00145   0.00025
   5        2PZ        -0.00002   0.00002   0.00000  -0.00007  -0.00004
   6        3S         -0.00585   0.03327  -0.01056  -0.10451   0.02372
   7        3PX        -0.00552  -0.00049  -0.00379  -0.02470   0.01819
   8        3PY         0.00614  -0.01892   0.00791   0.02434  -0.00415
   9        3PZ         0.00015  -0.00030   0.00031   0.00033   0.00007
  10 2   C  1S         -0.00038   0.97330   0.15362   0.01169   0.00212
  11        2S         -0.00051   0.10574   0.01354  -0.00277  -0.00095
  12        2PX         0.00227   0.00248  -0.00068  -0.00050  -0.00011
  13        2PY        -0.00141  -0.00020  -0.00085  -0.00168  -0.00121
  14        2PZ         0.00003   0.00018   0.00012   0.00005  -0.00006
  15        3S          0.01763  -0.07222   0.00305   0.03783  -0.00334
  16        3PX         0.01591  -0.00773   0.01380   0.01329  -0.00077
  17        3PY         0.00304  -0.01762   0.01188   0.02143   0.00149
  18        3PZ         0.00029  -0.00054  -0.00058   0.00017   0.00006
  19 3   O  1S          0.98282   0.00024   0.00032   0.00006   0.00006
  20        2S          0.10829   0.00147   0.00203   0.00021   0.00019
  21        2PX        -0.00064  -0.00052   0.00024  -0.00002   0.00007
  22        2PY         0.00420   0.00035   0.00075  -0.00007  -0.00016
  23        2PZ        -0.00024  -0.00007  -0.00011   0.00000  -0.00006
  24        3S         -0.06271  -0.00055  -0.00064  -0.00311  -0.00416
  25        3PX         0.00211   0.00196  -0.00028   0.00281  -0.00180
  26        3PY        -0.01386  -0.00272  -0.00457  -0.00118  -0.00169
  27        3PZ         0.00072   0.00039   0.00060   0.00004   0.00028
  28 4   C  1S         -0.00040  -0.15465   0.97318  -0.00020   0.01041
  29        2S         -0.00055  -0.01983   0.10488  -0.00005  -0.00350
  30        2PX        -0.00170   0.00167  -0.00211   0.00018   0.00126
  31        2PY        -0.00193  -0.00027  -0.00076  -0.00082  -0.00207
  32        2PZ         0.00011   0.00006   0.00043  -0.00002   0.00000
  33        3S          0.01784   0.02551  -0.07100  -0.01233   0.03789
  34        3PX        -0.01657  -0.01894   0.00754   0.00657  -0.01814
  35        3PY        -0.00171   0.01053  -0.01320  -0.00205   0.01607
  36        3PZ         0.00036  -0.00028  -0.00162  -0.00026   0.00039
  37 5   C  1S          0.00013   0.00071  -0.01072  -0.10326   0.98055
  38        2S          0.00043   0.00035  -0.00541  -0.01549   0.10895
  39        2PX        -0.00119   0.00039  -0.00171   0.00113  -0.00077
  40        2PY         0.00083   0.00031   0.00255   0.00071  -0.00164
  41        2PZ         0.00002  -0.00003   0.00007  -0.00001  -0.00024
  42        3S         -0.00627  -0.02010   0.03304   0.04825  -0.09744
  43        3PX         0.00338  -0.00167   0.00669  -0.02089   0.01100
  44        3PY         0.00744   0.01132  -0.01644  -0.01468   0.02572
  45        3PZ         0.00012   0.00081  -0.00040  -0.00033   0.00144
  46 6   H  1S         -0.00084  -0.00008  -0.00111   0.00005  -0.00349
  47        2S         -0.00246  -0.00073   0.00164   0.00380   0.00588
  48 7   H  1S          0.00047   0.00196  -0.00342  -0.00014  -0.00030
  49        2S          0.00463   0.00622   0.01108  -0.00071   0.00548
  50 8   H  1S          0.00023  -0.00480   0.00078  -0.00026   0.00006
  51        2S          0.00458   0.00904   0.01038   0.00621   0.00144
  52 9   H  1S         -0.00085  -0.00083  -0.00068  -0.00367  -0.00060
  53        2S         -0.00269   0.00195  -0.00152   0.00363   0.00477
                           6         7         8         9        10
                           O         O         O         O         O
     Eigenvalues --    -1.14015  -0.79725  -0.76029  -0.60293  -0.57990
   1 1   C  1S         -0.02558   0.14032  -0.07327  -0.11789   0.01273
   2        2S          0.02480  -0.15018   0.07892   0.12026  -0.01339
   3        2PX         0.01386  -0.07520  -0.03022  -0.07610  -0.13216
   4        2PY        -0.02960   0.03949  -0.06981  -0.01375  -0.08885
   5        2PZ        -0.00017   0.00186  -0.00103  -0.00312   0.00041
   6        3S          0.04624  -0.28398   0.14395   0.38965  -0.02694
   7        3PX         0.02827  -0.02533   0.02121  -0.00507  -0.05497
   8        3PY        -0.03321   0.02805   0.00946  -0.03520  -0.03109
   9        3PZ        -0.00072   0.00084   0.00015  -0.00261  -0.00009
  10 2   C  1S         -0.07650   0.03885  -0.15091   0.02707  -0.10208
  11        2S          0.08468  -0.04673   0.16373  -0.02826   0.11324
  12        2PX         0.09051   0.01408   0.03204  -0.04439  -0.19169
  13        2PY        -0.01932  -0.12130  -0.01129   0.20336  -0.00689
  14        2PZ         0.00239  -0.00075   0.00687  -0.00452   0.00841
  15        3S          0.05764  -0.05079   0.35462  -0.11302   0.30930
  16        3PX        -0.04333  -0.00700   0.01954  -0.01810  -0.10142
  17        3PY        -0.02225  -0.03439   0.04078   0.05745  -0.01306
  18        3PZ         0.00032  -0.00012   0.00285  -0.00232   0.00663
  19 3   O  1S         -0.21140  -0.08787   0.00755  -0.01022   0.04108
  20        2S          0.19136   0.08484  -0.00701   0.01006  -0.04096
  21        2PX        -0.01765  -0.01303  -0.23547   0.23988   0.06854
  22        2PY         0.11116  -0.03205  -0.03293   0.04213  -0.03272
  23        2PZ        -0.00485  -0.00233   0.00098  -0.00353   0.00828
  24        3S          0.67807   0.32049  -0.02930   0.04431  -0.18484
  25        3PX        -0.02159  -0.01257  -0.19523   0.21214   0.06125
  26        3PY         0.14277  -0.01304  -0.02959   0.03883  -0.03447
  27        3PZ        -0.00683  -0.00179   0.00118  -0.00271   0.00632
  28 4   C  1S         -0.07553   0.06351   0.14169   0.01816  -0.10521
  29        2S          0.08421  -0.07449  -0.15240  -0.02308   0.11512
  30        2PX        -0.08189   0.02992   0.03363  -0.05084   0.15237
  31        2PY        -0.04132  -0.12119   0.02921  -0.21443  -0.03496
  32        2PZ         0.00393  -0.00372  -0.01097  -0.00075   0.01519
  33        3S          0.05187  -0.09931  -0.34524  -0.01868   0.34325
  34        3PX         0.05305   0.01459   0.02774  -0.03793   0.07875
  35        3PY        -0.00908  -0.03330  -0.03104  -0.06512  -0.00362
  36        3PZ         0.00123  -0.00198  -0.00602  -0.00131   0.01193
  37 5   C  1S         -0.02781   0.15408   0.04930   0.09877   0.05744
  38        2S          0.02735  -0.16432  -0.05364  -0.10108  -0.05657
  39        2PX        -0.00448   0.04845  -0.06842  -0.14321   0.10669
  40        2PY        -0.03533   0.06615   0.05485   0.01631  -0.05927
  41        2PZ        -0.00078   0.00584   0.00218   0.00640   0.00423
  42        3S          0.05636  -0.31545  -0.08534  -0.33368  -0.19529
  43        3PX        -0.01985   0.02046   0.02079  -0.04293   0.04992
  44        3PY        -0.04446   0.03813  -0.00869   0.02942   0.00518
  45        3PZ        -0.00132   0.00370   0.00012   0.00539   0.00225
  46 6   H  1S          0.00731  -0.06190  -0.02426  -0.09889  -0.04702
  47        2S          0.01458  -0.01542  -0.00599  -0.05253  -0.03319
  48 7   H  1S          0.01212  -0.02253  -0.08225  -0.01156   0.16971
  49        2S         -0.02991  -0.00586  -0.02917   0.00381   0.08399
  50 8   H  1S          0.01547  -0.00953   0.09705  -0.06321   0.17616
  51        2S         -0.02841  -0.00463   0.03500  -0.03567   0.07870
  52 9   H  1S          0.00670  -0.05446   0.03394   0.10968   0.00178
  53        2S          0.01417  -0.01320   0.00809   0.06373  -0.00062
                          11        12        13        14        15
                           O         O         O         O         O
     Eigenvalues --    -0.54242  -0.46584  -0.45531  -0.41586  -0.39925
   1 1   C  1S         -0.05073  -0.04151   0.00486  -0.01004   0.02076
   2        2S          0.04694   0.04519  -0.00484   0.00630  -0.02176
   3        2PX        -0.04474  -0.03255   0.02554  -0.18365  -0.29634
   4        2PY         0.21331  -0.00041  -0.00222   0.23978  -0.10577
   5        2PZ         0.00076   0.01268   0.10232  -0.00043  -0.00412
   6        3S          0.22074   0.13748  -0.02456   0.04489  -0.09768
   7        3PX        -0.04396  -0.01207   0.01268  -0.14581  -0.17384
   8        3PY         0.10116   0.01593  -0.00555   0.14844  -0.02979
   9        3PZ        -0.00059   0.00983   0.07346  -0.00145  -0.00076
  10 2   C  1S          0.02965   0.02396   0.00202   0.03856  -0.02173
  11        2S         -0.03550  -0.02317  -0.00347  -0.04449   0.02561
  12        2PX        -0.09421   0.26250  -0.04266  -0.02511   0.06330
  13        2PY        -0.12241   0.07259  -0.01067  -0.16412   0.17426
  14        2PZ         0.00145   0.02277   0.18727   0.00458   0.00862
  15        3S         -0.06730  -0.08351  -0.00157  -0.13414   0.09640
  16        3PX        -0.06348   0.15284  -0.02671  -0.02844   0.03913
  17        3PY        -0.12258   0.05553  -0.01185  -0.09443   0.16070
  18        3PZ         0.00245   0.02092   0.17196   0.00491   0.00992
  19 3   O  1S         -0.06019  -0.00033  -0.00423   0.00033  -0.00425
  20        2S          0.06017   0.00005   0.00428  -0.00135   0.00044
  21        2PX         0.02840  -0.23944   0.03990  -0.07640   0.01094
  22        2PY        -0.18968  -0.02965   0.00484   0.03896   0.14357
  23        2PZ         0.00450   0.06030   0.38201   0.01084   0.02586
  24        3S          0.23307   0.00353   0.01807   0.00780   0.04914
  25        3PX         0.02647  -0.22501   0.03810  -0.08314   0.01266
  26        3PY        -0.17514  -0.02743   0.00616   0.03892   0.14629
  27        3PZ         0.00410   0.05963   0.38449   0.01105   0.02632
  28 4   C  1S          0.02522  -0.02770   0.01258  -0.03905   0.01137
  29        2S         -0.03211   0.02640  -0.01378   0.04772  -0.01159
  30        2PX         0.12843   0.27375  -0.04002  -0.13872  -0.05786
  31        2PY        -0.08333   0.01896  -0.00389   0.20171   0.02404
  32        2PZ         0.00042   0.03875   0.18571   0.00425   0.00704
  33        3S         -0.04454   0.10127  -0.04389   0.13967  -0.03033
  34        3PX         0.08580   0.16945  -0.01048  -0.10091  -0.04288
  35        3PY        -0.08661   0.00114  -0.00690   0.14179   0.05556
  36        3PZ         0.00297   0.03374   0.16944   0.00370   0.00840
  37 5   C  1S         -0.04997   0.04445  -0.01039   0.01736   0.01311
  38        2S          0.04802  -0.04837   0.01021  -0.01408  -0.01651
  39        2PX        -0.00880  -0.00739  -0.01796   0.09620   0.31722
  40        2PY         0.22148  -0.01166  -0.00424  -0.23547   0.15210
  41        2PZ         0.00028   0.02125   0.10642  -0.00231  -0.00305
  42        3S          0.20099  -0.14785   0.04168  -0.08740  -0.05767
  43        3PX         0.02824   0.00398  -0.02061   0.01630   0.20322
  44        3PY         0.12716  -0.02284  -0.01488  -0.13264   0.12344
  45        3PZ        -0.00309   0.01406   0.07798   0.00168  -0.00028
  46 6   H  1S          0.13767  -0.05605   0.00126  -0.13169   0.18811
  47        2S          0.07187  -0.03252   0.00692  -0.11169   0.17364
  48 7   H  1S          0.04894   0.19706  -0.02917  -0.08217  -0.06724
  49        2S          0.02004   0.14396  -0.03180  -0.07446  -0.05676
  50 8   H  1S          0.04634  -0.19376   0.03083   0.02788  -0.08992
  51        2S          0.01068  -0.13755   0.01905   0.02713  -0.07553
  52 9   H  1S          0.13522   0.05871  -0.01868   0.21897   0.06658
  53        2S          0.07709   0.03804  -0.01254   0.19153   0.06458
                          16        17        18        19        20
                           O         O         O         V         V
     Eigenvalues --    -0.35352  -0.27383  -0.23146   0.02189   0.07854
   1 1   C  1S          0.02394   0.00187  -0.00267  -0.00127   0.00230
   2        2S         -0.02199  -0.00133   0.00450   0.00336  -0.00257
   3        2PX         0.04971   0.01490  -0.00284   0.00351   0.00303
   4        2PY         0.17382   0.01037  -0.00475  -0.00972  -0.00351
   5        2PZ         0.01175  -0.28399   0.20184  -0.18396  -0.33177
   6        3S         -0.16274  -0.01821  -0.00599   0.00761  -0.01493
   7        3PX         0.06777   0.01111  -0.01166   0.00752   0.02198
   8        3PY         0.13839   0.00975   0.00883  -0.01192   0.00121
   9        3PZ         0.01043  -0.29532   0.21802  -0.31372  -0.65450
  10 2   C  1S         -0.01824  -0.00095   0.00470   0.00869   0.00084
  11        2S          0.02507   0.00078  -0.00604  -0.00367  -0.00065
  12        2PX         0.05323  -0.00077   0.00458   0.00385   0.00839
  13        2PY        -0.18451  -0.00715   0.00413   0.00744   0.00655
  14        2PZ         0.00640  -0.04794   0.32973   0.33664   0.19230
  15        3S          0.05944   0.00590  -0.00916  -0.08159  -0.01192
  16        3PX         0.00180   0.00124   0.01409   0.01082   0.02498
  17        3PY        -0.00418   0.00077   0.01204   0.01294   0.01712
  18        3PZ         0.00311  -0.01550   0.35379   0.51195   0.37022
  19 3   O  1S          0.06470   0.00070   0.00076  -0.00270   0.00376
  20        2S         -0.06480  -0.00084  -0.00117   0.00435  -0.00310
  21        2PX        -0.05623  -0.00079  -0.00618   0.00160  -0.00951
  22        2PY         0.41625   0.01689  -0.00072  -0.00384  -0.00351
  23        2PZ        -0.01397   0.29606  -0.01207  -0.29345   0.01270
  24        3S         -0.23660  -0.00205  -0.00179   0.00966  -0.02718
  25        3PX        -0.06055   0.00022  -0.00085  -0.00087  -0.01316
  26        3PY         0.45332   0.01898   0.00098  -0.00954  -0.00476
  27        3PZ        -0.01621   0.33753  -0.01462  -0.41551   0.01976
  28 4   C  1S         -0.01761  -0.00258  -0.00954   0.01305  -0.01126
  29        2S          0.02340   0.00268   0.01174  -0.00714   0.00613
  30        2PX         0.00700   0.00494   0.00729  -0.01439   0.01776
  31        2PY        -0.19808  -0.00642  -0.00301   0.00628  -0.02169
  32        2PZ         0.00931  -0.08603  -0.32470   0.30448  -0.22771
  33        3S          0.05872   0.00746   0.02505  -0.11214   0.11051
  34        3PX         0.01281   0.00849   0.02478  -0.05132   0.05707
  35        3PY        -0.01206  -0.00215  -0.01033   0.01013  -0.04648
  36        3PZ         0.00530  -0.04955  -0.35031   0.45976  -0.43985
  37 5   C  1S          0.02311   0.00567   0.00474  -0.00065  -0.00542
  38        2S         -0.02430  -0.00690  -0.00716   0.00489   0.00079
  39        2PX        -0.09468  -0.01677  -0.00477   0.00209   0.00801
  40        2PY         0.15868   0.00876   0.00596  -0.01442   0.01420
  41        2PZ         0.01434  -0.30180  -0.16935  -0.14428   0.35063
  42        3S         -0.13590  -0.01914   0.00349  -0.01894   0.07122
  43        3PX        -0.11753  -0.02149  -0.00824   0.01378   0.03417
  44        3PY         0.09587  -0.00021  -0.01403  -0.00624   0.01711
  45        3PZ         0.01505  -0.31313  -0.17816  -0.24968   0.69398
  46 6   H  1S          0.04923   0.00126   0.00112   0.00687  -0.01375
  47        2S          0.08019   0.00437   0.00734   0.01255  -0.05664
  48 7   H  1S          0.08332   0.00545  -0.00517   0.02313  -0.02440
  49        2S          0.08586   0.00592  -0.01016   0.08621  -0.11679
  50 8   H  1S          0.08486   0.00586   0.00194   0.01435   0.00701
  51        2S          0.08547   0.00891   0.00486   0.04594   0.02458
  52 9   H  1S          0.04452  -0.00026  -0.00088   0.00454   0.00498
  53        2S          0.06614  -0.00060  -0.00628   0.01246   0.01536
                          21        22        23        24        25
                           V         V         V         V         V
     Eigenvalues --     0.14040   0.15921   0.18689   0.19194   0.22298
   1 1   C  1S          0.06206  -0.01198  -0.07842  -0.08496  -0.03485
   2        2S         -0.03991   0.01482   0.07323   0.05862   0.01429
   3        2PX         0.10024  -0.01588   0.05529  -0.13411  -0.21682
   4        2PY        -0.16827   0.02015  -0.00852   0.12608  -0.05598
   5        2PZ         0.00322  -0.00726   0.00409  -0.01587   0.00305
   6        3S         -0.72536   0.04672   0.54691   0.99148   0.63681
   7        3PX         0.34144  -0.12395  -0.06604  -0.59244  -0.86692
   8        3PY        -0.50529   0.11105   0.30132   0.58401  -0.34509
   9        3PZ         0.00514  -0.01372   0.02620  -0.06419   0.00895
  10 2   C  1S          0.01216   0.08942   0.08186   0.00256   0.06117
  11        2S         -0.00272  -0.06856  -0.06459  -0.01918  -0.03442
  12        2PX         0.12273  -0.08910   0.19360  -0.09970   0.17701
  13        2PY        -0.00116   0.12844   0.08965  -0.12066  -0.07726
  14        2PZ        -0.00777  -0.01289  -0.02179   0.00875  -0.01067
  15        3S         -0.35228  -0.87947  -1.03234   0.32779  -1.07707
  16        3PX         0.25858  -0.03918   0.92091  -0.16508   0.60500
  17        3PY        -0.09003   0.49549   0.45943  -0.34553  -0.38188
  18        3PZ        -0.02221  -0.03275  -0.06276   0.03835  -0.03760
  19 3   O  1S          0.04559  -0.09531  -0.01453   0.02061   0.07827
  20        2S         -0.03073   0.06744   0.00942  -0.01286  -0.03504
  21        2PX         0.01879  -0.00591   0.02320  -0.05802  -0.09995
  22        2PY        -0.11292   0.11451   0.02249  -0.03200  -0.04665
  23        2PZ         0.01468   0.01168  -0.00306   0.00348   0.01447
  24        3S         -0.39194   0.78970   0.13027  -0.18517  -0.82340
  25        3PX         0.02761  -0.01973   0.10943  -0.05487  -0.20497
  26        3PY        -0.20498   0.17710   0.03702  -0.05409  -0.18505
  27        3PZ         0.02853   0.02106  -0.00667   0.00732   0.03251
  28 4   C  1S          0.02422   0.11761  -0.03431  -0.02096   0.00054
  29        2S         -0.01500  -0.08613   0.03245   0.03471   0.00947
  30        2PX        -0.13697  -0.07533   0.18146  -0.16700  -0.17232
  31        2PY        -0.04884   0.18102   0.02272   0.00318  -0.20525
  32        2PZ        -0.02220  -0.05436   0.02302  -0.00962  -0.00209
  33        3S         -0.44870  -1.22600   0.40797  -0.17278  -0.32206
  34        3PX        -0.30822  -0.51050   0.81012  -0.23682  -0.49731
  35        3PY        -0.17918   0.56857   0.05337  -0.00005  -0.81933
  36        3PZ        -0.06417  -0.13964   0.05883  -0.05306  -0.00478
  37 5   C  1S          0.03948  -0.01844   0.07734   0.07933  -0.08833
  38        2S         -0.02004   0.02600  -0.06483  -0.06092   0.02992
  39        2PX        -0.06617  -0.02001   0.04705  -0.06638   0.08632
  40        2PY        -0.18158  -0.01530  -0.01151  -0.17436   0.06524
  41        2PZ         0.01870   0.02382   0.00005   0.02284  -0.01162
  42        3S         -0.55235  -0.01766  -0.61614  -0.84350   1.57540
  43        3PX        -0.17374   0.04127   0.03418  -0.36857   0.19772
  44        3PY        -0.50952   0.10165  -0.35398  -0.81248   0.11075
  45        3PZ         0.05180   0.08200  -0.01913   0.07835  -0.04687
  46 6   H  1S          0.08829  -0.02811   0.01527   0.06012   0.05889
  47        2S          1.04673  -0.14269   0.56058   1.42265  -0.79165
  48 7   H  1S          0.02870   0.09251  -0.04298  -0.00128   0.00302
  49        2S          0.56290   1.46897  -1.06239   0.37745   0.38165
  50 8   H  1S          0.02159   0.05599   0.06906  -0.01515  -0.02807
  51        2S          0.41494   0.83102   1.73499  -0.60031   0.79250
  52 9   H  1S          0.09888  -0.03168  -0.01504  -0.04915   0.02526
  53        2S          1.18904  -0.25508  -0.48648  -1.38773  -0.61707
                          26        27        28        29        30
                           V         V         V         V         V
     Eigenvalues --     0.23544   0.35760   0.41009   0.48576   0.68840
   1 1   C  1S         -0.06870   0.08083  -0.00620   0.12454   0.02861
   2        2S          0.01081  -0.02664  -0.02090  -0.02686  -0.09499
   3        2PX         0.08465  -0.06057  -0.17975  -0.17896   0.26763
   4        2PY         0.07401   0.15904  -0.19682   0.16277   0.35059
   5        2PZ        -0.00094   0.00086  -0.00956  -0.01594  -0.05552
   6        3S          1.36146  -1.49253   0.47199  -2.88275  -0.02031
   7        3PX         0.81558   0.04677  -0.73679  -1.99394  -0.31377
   8        3PY         0.23577   1.66079  -1.37807   1.36886  -0.16077
   9        3PZ        -0.00172   0.02586  -0.05044  -0.00125   0.01731
  10 2   C  1S         -0.07909  -0.08649   0.01836  -0.09358  -0.04934
  11        2S          0.06289  -0.00197  -0.01958   0.02377  -0.02420
  12        2PX         0.16757   0.11740   0.05291   0.27116   0.32610
  13        2PY        -0.12044   0.28317  -0.08416  -0.09036  -0.12565
  14        2PZ         0.00732   0.00136   0.00992  -0.01457  -0.10225
  15        3S          0.79853   1.53859  -0.72682   1.64126   0.19278
  16        3PX         0.45653   0.82160   0.44175   1.18132  -0.24527
  17        3PY        -0.50707   1.51634  -1.43918   1.08087   0.24409
  18        3PZ         0.02646   0.02208   0.01345   0.03320   0.11372
  19 3   O  1S          0.03816   0.06112   0.01561  -0.00190   0.03218
  20        2S         -0.01684  -0.02329  -0.00463  -0.00172  -0.09242
  21        2PX         0.29398  -0.02533   0.19617   0.26884   0.01067
  22        2PY         0.01778  -0.15737  -0.00836   0.03338  -0.17020
  23        2PZ         0.00658   0.00235  -0.00234  -0.00519  -0.01625
  24        3S         -0.41317  -0.80372  -0.22120   0.04645   0.19109
  25        3PX         0.62599  -0.06626   0.53900   0.57288   0.05718
[...]
     6  H   -0.029162   0.005171   0.002653  -0.029427   0.377919   0.490519
     7  H    0.002645   0.003327  -0.026789   0.388553  -0.041610  -0.000446
     8  H   -0.038894   0.393447  -0.031717   0.003794   0.003039  -0.000027
     9  H    0.381308  -0.025673   0.001944   0.004235  -0.026864  -0.001021
               7          8          9
     1  C    0.002645  -0.038894   0.381308
     2  C    0.003327   0.393447  -0.025673
     3  O   -0.026789  -0.031717   0.001944
     4  C    0.388553   0.003794   0.004235
     5  C   -0.041610   0.003039  -0.026864
     6  H   -0.000446  -0.000027  -0.001021
     7  H    0.453234  -0.000040  -0.000023
     8  H   -0.000040   0.448479  -0.000304
     9  H   -0.000023  -0.000304   0.481254
 Mulliken charges:
               1
     1  C   -0.250369
     2  C    0.096680
     3  O   -0.503018
     4  C    0.109042
     5  C   -0.264674
     6  H    0.183821
     7  H    0.221150
     8  H    0.222224
     9  H    0.185144
 Sum of Mulliken charges =   0.00000
 Mulliken charges with hydrogens summed into heavy atoms:
               1
     1  C   -0.065225
     2  C    0.318904
     3  O   -0.503018
     4  C    0.330192
     5  C   -0.080853
 Electronic spatial extent (au):  <R**2>=            287.8023
 Charge=              0.0000 electrons
 Dipole moment (field-independent basis, Debye):
    X=             -0.0671    Y=              0.5433    Z=              0.0562  Tot=              0.5503
 Quadrupole moment (field-independent basis, Debye-Ang):
   XX=            -23.6882   YY=            -27.8992   ZZ=            -31.7230
   XY=              0.5375   XZ=              0.1132   YZ=             -0.1854
 Traceless Quadrupole moment (field-independent basis, Debye-Ang):
   XX=              4.0819   YY=             -0.1291   ZZ=             -3.9529
   XY=              0.5375   XZ=              0.1132   YZ=             -0.1854
 Octapole moment (field-independent basis, Debye-Ang**2):
  XXX=              2.4116  YYY=              1.1127  ZZZ=              0.2025  XYY=             -1.9273
  XXY=             -3.9132  XXZ=              0.6075  XZZ=              0.5163  YZZ=             -3.5260
  YYZ=             -0.0875  XYZ=             -0.0141
 Hexadecapole moment (field-independent basis, Debye-Ang**3):
 XXXX=           -155.4398 YYYY=           -154.3277 ZZZZ=            -30.9106 XXXY=             -2.3443
 XXXZ=              0.8792 YYYX=              2.6870 YYYZ=             -0.6438 ZZZX=              0.1393
 ZZZY=             -0.3131 XXYY=            -46.1933 XXZZ=            -38.9625 YYZZ=            -34.0180
 XXYZ=             -0.7748 YYXZ=             -0.1505 ZZXY=             -0.3195
 N-N= 1.618919917089D+02 E-N=-8.564131183968D+02  KE= 2.270281027583D+02
 Orbital energies and kinetic energies (alpha):
                                 1                 2
   1         O               -19.113239         28.828222
   2         O               -10.172944         15.800207
   3         O               -10.171490         15.797309
   4         O               -10.126401         15.807188
   5         O               -10.120567         15.805978
   6         O                -1.140147          2.533677
   7         O                -0.797249          1.786645
   8         O                -0.760292          1.836581
   9         O                -0.602927          1.658297
  10         O                -0.579896          1.378735
  11         O                -0.542419          1.373522
  12         O                -0.465840          1.502972
  13         O                -0.455311          1.617745
  14         O                -0.415863          1.356445
  15         O                -0.399251          1.416053
  16         O                -0.353522          2.290725
  17         O                -0.273833          1.509081
  18         O                -0.231464          1.214670
  19         V                 0.021889          1.844894
  20         V                 0.078541          1.490354
  21         V                 0.140399          1.188486
  22         V                 0.159210          1.722887
  23         V                 0.186892          1.253102
  24         V                 0.191939          1.236907
  25         V                 0.222981          1.667362
  26         V                 0.235436          2.019738
  27         V                 0.357601          1.988290
  28         V                 0.410089          1.686108
  29         V                 0.485765          2.931238
  30         V                 0.688397          2.542177
  31         V                 0.699646          2.511601
  32         V                 0.706804          2.777489
  33         V                 0.745776          2.610093
  34         V                 0.770747          2.531890
  35         V                 0.787084          2.586668
  36         V                 0.796342          2.714300
  37         V                 0.818313          2.681417
  38         V                 0.840718          2.596593
  39         V                 0.918172          2.730836
  40         V                 0.990241          3.299189
  41         V                 1.028608          3.168650
  42         V                 1.034120          3.127700
  43         V                 1.177586          2.680766
  44         V                 1.230720          2.856941
  45         V                 1.338594          2.557544
  46         V                 1.358257          3.015501
  47         V                 1.510557          4.882708
  48         V                 1.569114          3.423375
  49         V                 1.613989          3.679023
  50         V                 1.741276          4.399057
  51         V                 1.974526          3.940515
  52         V                 2.118914          4.373398
  53         V                 3.201422          6.834573
 Total kinetic energy from orbitals= 2.270281027583D+02
 No NMR shielding tensors so no spin-rotation constants.
 Leave Link  601 at Tue Dec 15 16:23:55 2015, MaxMem=    33554432 cpu:         0.1
 (Enter /home/Applications/g09/g09/l701.exe)
 Compute integral first derivatives.
 ... and contract with generalized density number  6.
 Leave Link  701 at Tue Dec 15 16:23:55 2015, MaxMem=    33554432 cpu:         0.1
 (Enter /home/Applications/g09/g09/l702.exe)
 L702 exits ... SP integral derivatives will be done elsewhere.
 Leave Link  702 at Tue Dec 15 16:23:55 2015, MaxMem=    33554432 cpu:         0.0
 (Enter /home/Applications/g09/g09/l703.exe)
 Compute integral first derivatives, UseDBF=F ICtDFT=           0.
 Integral derivatives from FoFJK, PRISM(SPDF).
 Calling FoFJK, ICntrl=  10005127 FMM=F ISym2X=0 I1Cent= 0 IOpClX= 0 NMat=1 NMatS=1 NMatT=0.
 FoFJK:  IHMeth= 1 ICntrl=10005127 DoSepK=F KAlg= 0 I1Cent=   0 FoldK=F
 IRaf=         0 NMat=   1 IRICut=       1 DoRegI=T DoRafI=F ISym2E= 0.
 FoFCou: FMM=F IPFlag=           0 FMFlag=      100000 FMFlg1=         800
         NFxFlg=           0 DoJE=F BraDBF=F KetDBF=F FulRan=T
         wScrn=  0.000000 ICntrl=10005127 IOpCl=  0 I1Cent=           0 NGrid=           0
         NMat0=    1 NMatS0=      1 NMatT0=    0 NMatD0=    1 NMtDS0=    0 NMtDT0=    0
 Symmetry not used in FoFCou.
 Leave Link  703 at Tue Dec 15 16:23:56 2015, MaxMem=    33554432 cpu:         1.2
 (Enter /home/Applications/g09/g09/l716.exe)
 Dipole        = 7.81832010D-02 3.44076471D-01 4.50006492D-02
 ***** Axes restored to original set *****
 -------------------------------------------------------------------
 Center     Atomic                   Forces (Hartrees/Bohr)
 Number     Number              X              Y              Z
 -------------------------------------------------------------------
      1        6           0.057260560   -0.035877244   -0.002074363
      2        6           0.017411950   -0.026741967    0.003344701
      3        8          -0.094024515    0.014387444    0.000414625
      4        6          -0.036062215    0.048753909    0.005462089
      5        6           0.098911328    0.031168822   -0.001553512
      6        1          -0.001933671   -0.000591409   -0.000696223
      7        1          -0.009341613    0.010161452   -0.002010881
      8        1          -0.023048339   -0.046593971   -0.002962110
      9        1          -0.009173486    0.005332964    0.000075673
 -------------------------------------------------------------------
 Cartesian Forces:  Max     0.098911328 RMS     0.034498998
 Z-matrix is all fixed cartesians, so copy forces.
 Force constants in Cartesian coordinates: 
                1             2             3             4             5 
      1  0.858903D+00
      2 -0.439731D-01  0.766277D+00
      3 -0.107117D-01 -0.457842D-02  0.192871D+00
      4 -0.446222D+00 -0.920463D-01  0.137914D-01  0.915317D+00
      5 -0.677900D-01 -0.203452D+00  0.395218D-02  0.218811D-01  0.992477D+00
      6  0.113338D-01  0.238515D-02 -0.984034D-01  0.324201D-02  0.129233D-01
      7 -0.877704D-02  0.295753D-01 -0.103177D-02 -0.299889D+00  0.187623D+00
      8 -0.608427D-02  0.205888D-01 -0.203702D-03  0.230120D+00 -0.422266D+00
      9  0.503310D-03 -0.135252D-02  0.762215D-02 -0.776947D-02  0.500441D-02
     10  0.103210D-01  0.398736D-03 -0.877582D-03  0.264453D-01  0.184494D-01
     11  0.344243D-01  0.131812D-02 -0.395582D-02 -0.177834D-01 -0.124047D-01
     12 -0.527710D-03 -0.126065D-03 -0.117355D-02  0.111758D-02  0.840225D-03
     13 -0.166646D+00  0.203458D-01  0.122310D-02  0.996548D-02 -0.336656D-01
     14 -0.947815D-03 -0.409306D+00  0.435118D-02  0.371122D-03 -0.129232D-02
     15  0.100217D-02 -0.159443D-02 -0.776943D-01 -0.376557D-03  0.210549D-02
     16  0.173994D-01  0.666255D-03  0.286837D-03 -0.511140D-05  0.000000D+00
     17 -0.231783D-01 -0.887912D-03 -0.142742D-02  0.000000D+00  0.000000D+00
     18  0.429540D-03  0.225943D-04  0.171630D-01  0.114166D-03  0.578596D-05
     19  0.386530D-04  0.172512D-05  0.684560D-03  0.253221D-04  0.102451D-04
     20  0.556003D-04  0.248149D-05  0.984702D-03 -0.823812D-05 -0.333308D-05
     21  0.394005D-03  0.175848D-04  0.697798D-02 -0.219682D-03 -0.888815D-04
     22  0.783603D-02 -0.267017D-01 -0.194073D-02 -0.200869D+00 -0.142617D+00
     23 -0.422603D-02  0.142264D-01 -0.707248D-03 -0.135665D+00 -0.376298D+00
     24  0.180618D-03  0.217986D-02  0.281188D-01 -0.113070D-01 -0.223981D-01
     25 -0.272853D+00  0.111733D+00 -0.142410D-02 -0.476836D-02  0.161088D-01
     26  0.111720D+00 -0.188768D+00  0.158454D-02 -0.686955D-02  0.232392D-01
     27 -0.260396D-02  0.304626D-02 -0.754813D-01  0.140757D-02 -0.234439D-02
                6             7             8             9            10 
      6  0.195359D+00
      7 -0.581230D-02  0.556324D+00
      8  0.377687D-02 -0.874867D-02  0.818451D+00
      9 -0.480110D-01  0.173882D-01  0.102641D-01  0.624659D-01
     10  0.211496D-02 -0.285401D+00 -0.222307D+00 -0.175783D-01  0.931822D+00
     11 -0.156787D-02 -0.176565D+00 -0.420398D+00 -0.170139D-01 -0.201066D-01
     12 -0.174315D-02 -0.118939D-01 -0.136280D-01 -0.499566D-01  0.241934D-03
     13  0.107614D-03 -0.926633D-02  0.614935D-02  0.140613D-02 -0.508165D+00
     14  0.281253D-03 -0.304670D-01  0.203177D-01  0.279306D-02  0.110740D+00
     15 -0.177986D-02 -0.206543D-02  0.767165D-03  0.846614D-02  0.287339D-01
     16 -0.176828D-03  0.648727D-05 -0.114383D-04  0.178142D-03 -0.532103D-02
     17 -0.535501D-05 -0.234253D-04  0.413034D-04 -0.643263D-03  0.691262D-02
     18  0.394956D-02  0.242789D-03 -0.428085D-03  0.666705D-02  0.275189D-02
     19 -0.684194D-03  0.232168D-01 -0.157126D-01  0.364151D-02 -0.169712D+00
     20  0.222591D-03  0.114604D-01 -0.776790D-02  0.209207D-02  0.105905D+00
     21  0.593573D-02  0.199013D-02 -0.147225D-02  0.346296D-02 -0.153958D-01
     22 -0.989922D-02  0.237849D-01  0.165917D-01  0.212863D-02  0.136220D-04
     23 -0.180126D-01 -0.128591D-01 -0.897253D-02 -0.136690D-02  0.700244D-05
     24 -0.796624D-01  0.105828D-02  0.775727D-03  0.356425D-02 -0.230096D-03
     25 -0.225803D-03  0.220880D-05  0.263974D-05  0.101881D-03 -0.219316D-05
     26 -0.333942D-05  0.483436D-05  0.577755D-05  0.222986D-03  0.000000D+00
     27  0.243556D-01  0.123993D-03  0.148184D-03  0.571918D-02  0.239135D-03
               11            12            13            14            15 
     11  0.958881D+00
     12 -0.265580D-02  0.199653D+00
     13  0.873053D-01  0.256120D-01  0.919942D+00
     14 -0.216013D+00 -0.707859D-02  0.123951D-01  0.794252D+00
     15 -0.957050D-02 -0.103711D+00 -0.169311D-01  0.138207D-01  0.203469D+00
     16 -0.174922D-01 -0.118045D-02 -0.270050D+00 -0.119308D+00 -0.796821D-02
     17  0.230074D-01  0.716401D-05 -0.119999D+00 -0.201390D+00 -0.653411D-02
     18  0.440147D-02  0.256617D-01 -0.114104D-01 -0.100317D-01 -0.795012D-01
     19  0.110213D+00 -0.129625D-01  0.782986D-02  0.265887D-01 -0.284180D-02
     20 -0.334394D+00  0.228302D-01  0.383018D-02  0.125256D-01  0.120394D-02
     21  0.304449D-01 -0.791823D-01  0.298386D-03 -0.413245D-02  0.276432D-01
     22  0.551137D-05 -0.368063D-03  0.100382D-04  0.000000D+00  0.347269D-03
     23  0.283313D-05 -0.189204D-03 -0.164101D-04  0.000000D+00 -0.567705D-03
     24 -0.930952D-04  0.621713D-02  0.176808D-03  0.896067D-05  0.611666D-02
     25  0.000000D+00 -0.388417D-04  0.163799D-01  0.627156D-03  0.998324D-04
     26  0.000000D+00  0.000000D+00  0.236556D-01  0.905805D-03  0.369450D-03
     27  0.106728D-04  0.423517D-02 -0.482400D-03 -0.123815D-04  0.169917D-01
               16            17            18            19            20 
     16  0.258001D+00
     17  0.136186D+00  0.179082D+00
     18  0.887485D-02  0.755322D-02  0.429755D-01
     19 -0.282944D-04  0.102170D-03 -0.105893D-02  0.138630D+00
     20 -0.406999D-04  0.146966D-03 -0.152321D-02 -0.121203D+00  0.329491D+00
     21 -0.288415D-03  0.104145D-02 -0.107941D-01  0.132214D-01 -0.258103D-01
     22  0.000000D+00  0.000000D+00  0.000000D+00  0.000000D+00  0.000000D+00
     23  0.000000D+00  0.000000D+00  0.000000D+00  0.000000D+00  0.000000D+00
     24  0.000000D+00  0.000000D+00  0.000000D+00  0.000000D+00  0.000000D+00
     25 -0.251360D-05  0.000000D+00  0.561428D-04  0.000000D+00  0.000000D+00
     26  0.000000D+00  0.000000D+00  0.000000D+00  0.000000D+00  0.000000D+00
     27  0.274075D-03  0.829998D-05 -0.612162D-02  0.000000D+00  0.000000D+00
               21            22            23            24            25 
     21  0.459565D-01
     22  0.000000D+00  0.169234D+00
     23  0.000000D+00  0.152743D+00  0.371006D+00
     24  0.000000D+00  0.102994D-01  0.199163D-01  0.456377D-01
     25  0.000000D+00 -0.101058D-04  0.165206D-04 -0.177999D-03  0.261254D+00
     26  0.000000D+00 -0.221183D-04  0.361583D-04 -0.389583D-03 -0.128488D+00
     27  0.000000D+00 -0.567295D-03  0.927396D-03 -0.999211D-02  0.160889D-02
               26            27 
     26  0.164581D+00
     27 -0.178404D-02  0.402934D-01
 Leave Link  716 at Tue Dec 15 16:23:56 2015, MaxMem=    33554432 cpu:         0.0
 (Enter /home/Applications/g09/g09/l103.exe)

 GradGradGradGradGradGradGradGradGradGradGradGradGradGradGradGradGradGrad
 Berny optimization.
 Search for a local minimum.
 Step number   1 out of a maximum of    2
 All quantities printed in internal units (Hartrees-Bohrs-Radians)
 Second derivative matrix not updated -- first step.
 ITU=  0
     Eigenvalues ---    0.01811   0.03409   0.07044   0.07709   0.08114
     Eigenvalues ---    0.08175   0.12811   0.13681   0.17113   0.23964
     Eigenvalues ---    0.25162   0.30808   0.37516   0.44978   0.65935
     Eigenvalues ---    0.86330   1.14156   1.37918   1.49376   1.55321
     Eigenvalues ---    1.66321
 Quadratic step=3.930D-01 exceeds max=3.000D-01 adjusted using Lamda=-7.634D-02.
 Angle between NR and scaled steps=   9.25 degrees.
 Angle between quadratic step and forces=  33.84 degrees.
 Linear search not attempted -- first point.
 TrRot= -0.003550  0.004605  0.002175 -0.310197  0.000859  0.309434
 Variable       Old X    -DE/DX   Delta X   Delta X   Delta X     New X
                                 (Linear)    (Quad)   (Total)
    X1        1.81575   0.05726   0.00000   0.07907   0.07439   1.89014
    Y1       -1.37466  -0.03588   0.00000  -0.03684  -0.03367  -1.40833
    Z1       -0.05146  -0.00207   0.00000  -0.00404  -0.00379  -0.05524
    X2       -0.70493   0.01741   0.00000  -0.01952  -0.02471  -0.72964
    Y2       -2.11977  -0.02674   0.00000  -0.04926  -0.04411  -2.16387
    Z2        0.02250   0.00334   0.00000  -0.00392  -0.00172   0.02078
    X3       -2.14929  -0.09402   0.00000  -0.13608  -0.13965  -2.28893
    Y3       -0.04635   0.01439   0.00000   0.00915   0.01549  -0.03086
    Z3        0.00009   0.00041   0.00000   0.01409   0.01812   0.01821
    X4       -0.73591  -0.03606   0.00000  -0.03081  -0.03268  -0.76859
    Y4        2.06148   0.04875   0.00000   0.04894   0.05411   2.11559
    Z4        0.08396   0.00546   0.00000  -0.00313   0.00023   0.08419
    X5        1.71236   0.09891   0.00000   0.12069   0.11815   1.83050
    Y5        1.32593   0.03117   0.00000   0.05235   0.05557   1.38151
    Z5       -0.05242  -0.00155   0.00000   0.00476   0.00580  -0.04663
    X6        3.34178  -0.00193   0.00000   0.08721   0.08567   3.42745
    Y6        2.55049  -0.00059   0.00000   0.05252   0.05450   2.60498
    Z6        0.02219  -0.00070   0.00000   0.00180   0.00185   0.02404
    X7       -1.60445  -0.00934   0.00000  -0.05591  -0.05656  -1.66100
    Y7        3.85001   0.01016   0.00000   0.05645   0.06235   3.91235
    Z7       -0.08322  -0.00201   0.00000  -0.01586  -0.01130  -0.09452
    X8       -1.61055  -0.02305   0.00000  -0.04524  -0.05187  -1.66242
    Y8       -3.80347  -0.04659   0.00000  -0.13808  -0.13218  -3.93565
    Z8       -0.08235  -0.00296   0.00000  -0.01018  -0.00768  -0.09004
    X9        3.50651  -0.00917   0.00000   0.03280   0.02725   3.53376
    Y9       -2.54508   0.00533   0.00000  -0.03398  -0.03206  -2.57715
    Z9       -0.03594   0.00008   0.00000  -0.00011  -0.00150  -0.03745
         Item               Value     Threshold  Converged?
 Maximum Force            0.098911     0.000450     NO 
 RMS     Force            0.034499     0.000300     NO 
 Maximum Displacement     0.139646     0.001800     NO 
 RMS     Displacement     0.057705     0.001200     NO 
 Predicted change in Energy=-2.582067D-02
 GradGradGradGradGradGradGradGradGradGradGradGradGradGradGradGradGradGrad

 Leave Link  103 at Tue Dec 15 16:23:56 2015, MaxMem=    33554432 cpu:         0.0
 (Enter /home/Applications/g09/g09/l9999.exe)
 1\1\GINC-DUSTIN-DESKTOP\Force\RB3LYP-FC\3-21G\C4H4O1\DUSTIN\15-Dec-201
 5\0\\#P B3LYP/3-21G CIS(Singlets,NStates=15) pop(full) force\\FuranDFT
 \\0,1\C,0.960854,-0.727439,-0.027229\C,-0.373033,-1.121733,0.011906\O,
 -1.137353,-0.024528,0.000048\C,-0.389426,1.090886,0.044431\C,0.90614,0
 .701653,-0.027741\H,1.768393,1.349659,0.011742\H,-0.849036,2.037337,-0
 .044039\H,-0.852265,-2.01271,-0.04358\H,1.855563,-1.3468,-0.019019\\Ve
 rsion=ES64L-G09RevD.01\State=1-A\HF=-228.7413986\RMSD=3.921e-09\RMSF=3
 .450e-02\Dipole=0.3274158,0.1304413,-0.0480647\PG=C01 [X(C4H4O1)]\\@


 LET US LEARN TO DREAM, GENTLEMEN, THEN PERHAPS WE SHALL
 DISCOVER THE TRUTH;  BUT LET US BEWARE OF PUBLISHING
 OUR DREAMS ABROAD BEFORE THEY HAVE BEEN SCRUTINIZED
 BY OUR VIGILANT INTELLECT ... LET US ALWAYS ALLOW
 THE FRUIT TO HANG UNTIL IT IS RIPE.  UNRIPE FRUIT
 BRINGS EVEN THE GROWER BUT LITTLE PROFIT; IT DAMAGES
 THE HEALTH OF THOSE WHO CONSUME IT; IT ENDANGERS
 PARTICULARLY THE YOUTH WHO CANNOT YET DISTINGUISH
 BETWEEN RIPE AND UNRIPE FRUIT.

                                  -- KEKULE, 1890
 Job cpu time:       0 days  0 hours  0 minutes 50.2 seconds.
 File lengths (MBytes):  RWF=     14 Int=      0 D2E=      0 Chk=      3 Scr=      1
 Normal termination of Gaussian 09 at Tue Dec 15 16:23:56 2015.
