 Entering Gaussian System, Link 0=g09
 Input=FuranAM1_53.com
 Output=FuranAM1_53.log
 Initial command:
 /home/Applications/g09/g09/l1.exe "/home/Applications/g09/scratch/Gau-5996.inp" -scrdir="/home/Applications/g09/scratch/"
 Entering Link 1 = /home/Applications/g09/g09/l1.exe PID=      5998.
  
 Copyright (c) 1988,1990,1992,1993,1995,1998,2003,2009,2013,
            Gaussian, Inc.  All Rights Reserved.
  
 This is part of the Gaussian(R) 09 program.  It is based on
 the Gaussian(R) 03 system (copyright 2003, Gaussian, Inc.),
 the Gaussian(R) 98 system (copyright 1998, Gaussian, Inc.),
 the Gaussian(R) 94 system (copyright 1995, Gaussian, Inc.),
 the Gaussian 92(TM) system (copyright 1992, Gaussian, Inc.),
 the Gaussian 90(TM) system (copyright 1990, Gaussian, Inc.),
 the Gaussian 88(TM) system (copyright 1988, Gaussian, Inc.),
 the Gaussian 86(TM) system (copyright 1986, Carnegie Mellon
 University), and the Gaussian 82(TM) system (copyright 1983,
 Carnegie Mellon University). Gaussian is a federally registered
 trademark of Gaussian, Inc.
  
 This software contains proprietary and confidential information,
 including trade secrets, belonging to Gaussian, Inc.
  
 This software is provided under written license and may be
 used, copied, transmitted, or stored only in accord with that
 written license.
  
 The following legend is applicable only to US Government
 contracts under FAR:
  
                    RESTRICTED RIGHTS LEGEND
  
 Use, reproduction and disclosure by the US Government is
 subject to restrictions as set forth in subparagraphs (a)
 and (c) of the Commercial Computer Software - Restricted
 Rights clause in FAR 52.227-19.
  
 Gaussian, Inc.
 340 Quinnipiac St., Bldg. 40, Wallingford CT 06492
  
  
 ---------------------------------------------------------------
 Warning -- This program may not be used in any manner that
 competes with the business of Gaussian, Inc. or will provide
 assistance to any competitor of Gaussian, Inc.  The licensee
 of this program is prohibited from giving any competitor of
 Gaussian, Inc. access to this program.  By using this program,
 the user acknowledges that Gaussian, Inc. is engaged in the
 business of creating and licensing software in the field of
 computational chemistry and represents and warrants to the
 licensee that it is not a competitor of Gaussian, Inc. and that
 it will not use this program in any manner prohibited above.
 ---------------------------------------------------------------
  

 Cite this work as:
 Gaussian 09, Revision D.01,
 M. J. Frisch, G. W. Trucks, H. B. Schlegel, G. E. Scuseria, 
 M. A. Robb, J. R. Cheeseman, G. Scalmani, V. Barone, B. Mennucci, 
 G. A. Petersson, H. Nakatsuji, M. Caricato, X. Li, H. P. Hratchian, 
 A. F. Izmaylov, J. Bloino, G. Zheng, J. L. Sonnenberg, M. Hada, 
 M. Ehara, K. Toyota, R. Fukuda, J. Hasegawa, M. Ishida, T. Nakajima, 
 Y. Honda, O. Kitao, H. Nakai, T. Vreven, J. A. Montgomery, Jr., 
 J. E. Peralta, F. Ogliaro, M. Bearpark, J. J. Heyd, E. Brothers, 
 K. N. Kudin, V. N. Staroverov, T. Keith, R. Kobayashi, J. Normand, 
 K. Raghavachari, A. Rendell, J. C. Burant, S. S. Iyengar, J. Tomasi, 
 M. Cossi, N. Rega, J. M. Millam, M. Klene, J. E. Knox, J. B. Cross, 
 V. Bakken, C. Adamo, J. Jaramillo, R. Gomperts, R. E. Stratmann, 
 O. Yazyev, A. J. Austin, R. Cammi, C. Pomelli, J. W. Ochterski, 
 R. L. Martin, K. Morokuma, V. G. Zakrzewski, G. A. Voth, 
 P. Salvador, J. J. Dannenberg, S. Dapprich, A. D. Daniels, 
 O. Farkas, J. B. Foresman, J. V. Ortiz, J. Cioslowski, 
 and D. J. Fox, Gaussian, Inc., Wallingford CT, 2013.
 
 ******************************************
 Gaussian 09:  ES64L-G09RevD.01 24-Apr-2013
                15-Dec-2015 
 ******************************************
 ------------------------------------------------------------
 #P AM1(Input,print) CIS(Singlets,NStates=15) pop(full) force
 ------------------------------------------------------------
 1/10=7,30=1,38=1/1,3;
 2/12=2,17=6,18=5,40=1/2;
 3/5=2,16=1,25=1,41=700000,71=1,135=100,136=1/1,2,8,3;
 4/35=1/1;
 5/5=2,35=1,38=5/2;
 8/6=1,10=1,108=15/1;
 9/15=2,41=15,42=1,48=1,49=10/14;
 10/5=4/2;
 6/7=3,18=1/1;
 7/12=6,13=5,29=1/1,2,3,16;
 1/10=7,30=1/3;
 99//99;
 Leave Link    1 at Tue Dec 15 16:21:23 2015, MaxMem=           0 cpu:         0.0
 (Enter /home/Applications/g09/g09/l101.exe)
 -----------------
 AM1-Reparam Input
 -----------------
 Symbolic Z-matrix:
 Charge =  0 Multiplicity = 1
 6                     0.99856  -0.7322   -0.03644 
 6                    -0.36511  -1.06995  -0.04922 
 8                    -1.12814   0.02293  -0.01466 
 6                    -0.38507   1.0587   -0.0283 
 6                     0.91063   0.74994   0.00984 
 1                     1.7907    1.34891  -0.04833 
 1                    -0.88742   2.05632   0.03423 
 1                    -0.88311  -2.08018  -0.01714 
 1                     1.78103  -1.34808   0.02706 
 
 NAtoms=      9 NQM=        9 NQMF=       0 NMMI=      0 NMMIF=      0
                NMic=       0 NMicF=      0.
                    Isotopes and Nuclear Properties:
 (Nuclear quadrupole moments (NQMom) in fm**2, nuclear magnetic moments (NMagM)
  in nuclear magnetons)

  Atom         1           2           3           4           5           6           7           8           9
 IAtWgt=          12          12          16          12          12           1           1           1           1
 AtmWgt=  12.0000000  12.0000000  15.9949146  12.0000000  12.0000000   1.0078250   1.0078250   1.0078250   1.0078250
 NucSpn=           0           0           0           0           0           1           1           1           1
 AtZEff=   0.0000000   0.0000000   0.0000000   0.0000000   0.0000000   0.0000000   0.0000000   0.0000000   0.0000000
 NQMom=    0.0000000   0.0000000   0.0000000   0.0000000   0.0000000   0.0000000   0.0000000   0.0000000   0.0000000
 NMagM=    0.0000000   0.0000000   0.0000000   0.0000000   0.0000000   2.7928460   2.7928460   2.7928460   2.7928460
 AtZNuc=   6.0000000   6.0000000   8.0000000   6.0000000   6.0000000   1.0000000   1.0000000   1.0000000   1.0000000
 Leave Link  101 at Tue Dec 15 16:21:23 2015, MaxMem=    33554432 cpu:         0.0
 (Enter /home/Applications/g09/g09/l103.exe)

 GradGradGradGradGradGradGradGradGradGradGradGradGradGradGradGradGradGrad
 Berny optimization.
 Initialization pass.
 Trust Radius=3.00D-01 FncErr=1.00D-07 GrdErr=1.00D-07
 Number of steps in this run=      2 maximum allowed number of steps=      2.
 GradGradGradGradGradGradGradGradGradGradGradGradGradGradGradGradGradGrad

 Leave Link  103 at Tue Dec 15 16:21:23 2015, MaxMem=    33554432 cpu:         0.0
 (Enter /home/Applications/g09/g09/l202.exe)
                          Input orientation:                          
 ---------------------------------------------------------------------
 Center     Atomic      Atomic             Coordinates (Angstroms)
 Number     Number       Type             X           Y           Z
 ---------------------------------------------------------------------
      1          6           0        0.998562   -0.732196   -0.036436
      2          6           0       -0.365105   -1.069955   -0.049218
      3          8           0       -1.128138    0.022932   -0.014658
      4          6           0       -0.385074    1.058698   -0.028299
      5          6           0        0.910625    0.749940    0.009836
      6          1           0        1.790703    1.348906   -0.048334
      7          1           0       -0.887424    2.056323    0.034230
      8          1           0       -0.883111   -2.080180   -0.017144
      9          1           0        1.781028   -1.348077    0.027058
 ---------------------------------------------------------------------
                    Distance matrix (angstroms):
                    1          2          3          4          5
     1  C    0.000000
     2  C    1.404931   0.000000
     3  O    2.256888   1.333348   0.000000
     4  C    2.263143   2.128849   1.274810   0.000000
     5  C    1.485463   2.223284   2.164647   1.332525   0.000000
     6  H    2.226795   3.240123   3.206084   2.195137   1.066153
     7  H    3.367161   3.170709   2.048173   1.118714   2.222659
     8  H    2.314763   1.135744   2.117339   3.178163   3.350790
     9  H    0.997795   2.165423   3.216310   3.238461   2.271469
                    6          7          8          9
     6  H    0.000000
     7  H    2.771213   0.000000
     8  H    4.348435   4.136824   0.000000
     9  H    2.698054   4.325578   2.763253   0.000000
 Stoichiometry    C4H4O
 Framework group  C1[X(C4H4O)]
 Deg. of freedom    21
 Full point group                 C1      NOp   1
 Largest Abelian subgroup         C1      NOp   1
 Largest concise Abelian subgroup C1      NOp   1
                         Standard orientation:                         
 ---------------------------------------------------------------------
 Center     Atomic      Atomic             Coordinates (Angstroms)
 Number     Number       Type             X           Y           Z
 ---------------------------------------------------------------------
      1          6           0        1.007904    0.735301   -0.010651
      2          6           0        0.916886   -0.666669   -0.015906
      3          8           0       -0.356045   -1.062698    0.009082
      4          6           0       -1.117933   -0.040962   -0.017816
      5          6           0       -0.431617    1.100602    0.019935
      6          1           0       -0.735326    2.120375   -0.047185
      7          1           0       -2.221389   -0.217233    0.035419
      8          1           0        1.722424   -1.466074    0.028507
      9          1           0        1.831221    1.294886    0.057225
 ---------------------------------------------------------------------
 Rotational constants (GHZ):      9.7358231      9.2920578      4.7563077
 Leave Link  202 at Tue Dec 15 16:21:23 2015, MaxMem=    33554432 cpu:         0.0
 (Enter /home/Applications/g09/g09/l301.exe)

 Semi-emprical parameters in input format:
 Method=8 CoreType=1 PeptideFC=0.0114510000 RIJScale=0.5291770000
 ****
 H       
 PQN=1 NValence=1 F0ss=0.4721550000 ZetaOverlap=1.1880780000 U=-0.4188110000
 Beta=-0.2268830000 CoreKO=1.0589200000 KON=0,0,0,1.0589200000 KON=1,0,1,1.0589200000
 KON=0,1,1,1.0589200000 KON=2,1,1,1.0589200000 EISol=-0.4188110042 EHeat=0.0830298228
 Alpha=1.5252600000
 GCore=0.0085280000,1.4001430000,2.2676710000
 GCore=0.0003530000,1.4001430000,3.4015070000
 GCore=-0.0012730000,0.5600570000,3.9684250000
 ****
 C       
 PQN=2,2 NValence=4 F0ss=0.4494440000 F0sp=0.4215150000 F0pp=0.3768030000 F2pp=0.1898720000
 G1sp=0.2679030000
 ZetaOverlap=1.8086650000,1.6851160000
 U=-1.9120180000,-1.4557970000
 Beta=-0.5775440000,-0.2836780000 DDN=0,1,0.8236740000 DDN=1,1,0.7268010000
 CoreKO=1.1124280000 KON=0,0,0,1.1124280000 KON=1,0,1,0.8219700000 KON=0,1,1,1.1124280000
 KON=2,1,1,0.7783930000 EISol=-4.4398989268 EHeat=0.2723305520 Alpha=1.4014060000
 DipHyp=1.6472532266
 GCore=0.0007890000,1.4001430000,3.0235620000
 GCore=0.0031890000,1.4001430000,3.4959930000
 GCore=-0.0013930000,1.4001430000,3.8739390000
 GCore=-0.0000880000,1.4001430000,5.0077740000
 ****
 O       
 PQN=2,2 NValence=6 F0ss=0.5666750000 F0sp=0.5321300000 F0pp=0.4958710000 F2pp=0.2358080000
 G1sp=0.4343770000
 ZetaOverlap=3.1080320000,2.5240390000
 U=-3.5951870000,-2.8760900000
 Beta=-1.0757550000,-1.0757550000 DDN=0,1,0.4988900000 DDN=1,1,0.4852320000
 CoreKO=0.8822960000 KON=0,0,0,0.8822960000 KON=1,0,1,0.5019540000 KON=0,1,1,0.8822960000
 KON=2,1,1,0.5515580000 EISol=-11.6164441184 EHeat=0.0949133088 Alpha=2.3576810000
 DipHyp=0.9977225968
 GCore=0.0195120000,1.4001430000,1.6023330000
 GCore=0.0056550000,1.9602000000,2.7307880000
 ****
 
 Standard basis: VSTO-6G (5D, 7F)
 Ernie: Thresh=  0.10000D-02 Tol=  0.10000D-05 Strict=F.
  NNHCO=     0 NNPyr=     0 NCTC=     0               EPep=         0.000000000
    EC=        69.147218445  ECS=         1.881404166   EG=         0.391444541
   EHC=         0.000000000  EAt=       -31.051283842  AtH=         1.516354808
 EPDDG=         0.000000000  ECC=        71.420067153 EAtT=        32.567638650
 There are    24 symmetry adapted cartesian basis functions of A   symmetry.
 There are    24 symmetry adapted basis functions of A   symmetry.
    24 basis functions,   144 primitive gaussians,    24 cartesian basis functions
    13 alpha electrons       13 beta electrons
       nuclear repulsion energy       103.9877058030 Hartrees.
 IExCor=    0 DFT=F Ex=HF Corr=None ExCW=0 ScaHFX=  1.000000
 ScaDFX=  1.000000  1.000000  1.000000  1.000000 ScalE2=  1.000000  1.000000
 IRadAn=      0 IRanWt=     -1 IRanGd=            0 ICorTp=0 IEmpDi=  4
 Integral buffers will be    131072 words long.
 Regular integral format.
 Two-electron integral symmetry is turned off.
 Leave Link  301 at Tue Dec 15 16:21:23 2015, MaxMem=    33554432 cpu:         0.0
 (Enter /home/Applications/g09/g09/l302.exe)
 Do NDO integrals.
 NPDir=0 NMtPBC=     1 NCelOv=     1 NCel=       1 NClECP=     1 NCelD=      1
         NCelK=      1 NCelE2=     1 NClLst=     1 CellRange=     0.0.
 One-electron integrals computed using PRISM.
 NBasis=    24 RedAO= F EigKep=  0.00D+00  NBF=    24
 NBsUse=    24 1.00D-04 EigRej=  0.00D+00 NBFU=    24
 Leave Link  302 at Tue Dec 15 16:21:23 2015, MaxMem=    33554432 cpu:         0.0
 (Enter /home/Applications/g09/g09/l308.exe)
 Leave Link  308 at Tue Dec 15 16:21:23 2015, MaxMem=    33554432 cpu:         0.0
 (Enter /home/Applications/g09/g09/l303.exe)
 DipDrv:  MaxL=1.
 Leave Link  303 at Tue Dec 15 16:21:23 2015, MaxMem=    33554432 cpu:         0.0
 (Enter /home/Applications/g09/g09/l401.exe)
 Simple Huckel Guess.
 JPrj=0 DoOrth=F DoCkMO=F.
 Leave Link  401 at Tue Dec 15 16:21:23 2015, MaxMem=    33554432 cpu:         0.0
 (Enter /home/Applications/g09/g09/l502.exe)
 Closed shell SCF:
 Using DIIS extrapolation, IDIIS=  1040.
 Overlap will be assumed to be unity.
 Two-electron integral symmetry not used.
 Keep J ints in memory in canonical form, NReq=888082.
 IVT=       79475 IEndB=       79475 NGot=    33554432 MDV=    33473473
 LenX=    33473473 LenY=    33472456
 Requested convergence on RMS density matrix=1.00D-08 within 128 cycles.
 Requested convergence on MAX density matrix=1.00D-06.
 Requested convergence on             energy=1.00D-06.
 No special actions if energy rises.
 FoFCou: FMM=F IPFlag=           0 FMFlag=           0 FMFlg1=           0
         NFxFlg=           0 DoJE=F BraDBF=F KetDBF=F FulRan=T
         wScrn=  0.000000 ICntrl=     600 IOpCl=  2 I1Cent=           0 NGrid=           0
         NMat0=    1 NMatS0=     54 NMatT0=    0 NMatD0=    1 NMtDS0=    0 NMtDT0=    0
 Symmetry not used in FoFCou.

 Cycle   1  Pass 1  IDiag  1:
 E= 0.363616075841108    
 DIIS: error= 6.59D-02 at cycle   1 NSaved=   1.
 NSaved= 1 IEnMin= 1 EnMin= 0.363616075841108     IErMin= 1 ErrMin= 6.59D-02
 ErrMax= 6.59D-02  0.00D+00 EMaxC= 1.00D-01 BMatC= 1.14D-01 BMatP= 1.14D-01
 IDIUse=3 WtCom= 3.41D-01 WtEn= 6.59D-01
 Coeff-Com:  0.100D+01
 Coeff-En:   0.100D+01
 Coeff:      0.100D+01
 GapD=    2.000 DampG=2.000 DampE=0.500 DampFc=1.0000 IDamp=-1.
 RMSDP=1.97D-02 MaxDP=1.67D-01              OVMax= 0.00D+00

 Cycle   2  Pass 1  IDiag  1:
 E= 0.789677820122989E-01 Delta-E=       -0.284648293829 Rises=F Damp=F
 DIIS: error= 1.98D-02 at cycle   2 NSaved=   2.
 NSaved= 2 IEnMin= 2 EnMin= 0.789677820122989E-01 IErMin= 2 ErrMin= 1.98D-02
 ErrMax= 1.98D-02  0.00D+00 EMaxC= 1.00D-01 BMatC= 9.90D-03 BMatP= 1.14D-01
 IDIUse=3 WtCom= 8.02D-01 WtEn= 1.98D-01
 Coeff-Com: -0.350D+00 0.135D+01
 Coeff-En:   0.000D+00 0.100D+01
 Coeff:     -0.281D+00 0.128D+01
 RMSDP=8.36D-03 MaxDP=7.18D-02 DE=-2.85D-01 OVMax= 0.00D+00

 Cycle   3  Pass 1  IDiag  3:
 E= 0.467793656705879E-01 Delta-E=       -0.032188416342 Rises=F Damp=F
 DIIS: error= 4.30D-03 at cycle   3 NSaved=   3.
 NSaved= 3 IEnMin= 3 EnMin= 0.467793656705879E-01 IErMin= 3 ErrMin= 4.30D-03
 ErrMax= 4.30D-03  0.00D+00 EMaxC= 1.00D-01 BMatC= 4.47D-04 BMatP= 9.90D-03
 IDIUse=3 WtCom= 9.57D-01 WtEn= 4.30D-02
 Coeff-Com:  0.106D+00-0.515D+00 0.141D+01
 Coeff-En:   0.000D+00 0.000D+00 0.100D+01
 Coeff:      0.101D+00-0.493D+00 0.139D+01
 Gap=     0.386 Goal=   None    Shift=    0.000
 RMSDP=2.71D-03 MaxDP=2.94D-02 DE=-3.22D-02 OVMax= 2.49D-02

 Cycle   4  Pass 1  IDiag  3:
 E= 0.443685568057361E-01 Delta-E=       -0.002410808865 Rises=F Damp=F
 DIIS: error= 1.35D-03 at cycle   4 NSaved=   4.
 NSaved= 4 IEnMin= 4 EnMin= 0.443685568057361E-01 IErMin= 4 ErrMin= 1.35D-03
 ErrMax= 1.35D-03  0.00D+00 EMaxC= 1.00D-01 BMatC= 3.57D-05 BMatP= 4.47D-04
 IDIUse=3 WtCom= 9.87D-01 WtEn= 1.35D-02
 Coeff-Com:  0.170D-01-0.480D-01-0.262D+00 0.129D+01
 Coeff-En:   0.000D+00 0.000D+00 0.000D+00 0.100D+01
 Coeff:      0.168D-01-0.473D-01-0.259D+00 0.129D+01
 Gap=     0.386 Goal=   None    Shift=    0.000
 RMSDP=9.57D-04 MaxDP=1.11D-02 DE=-2.41D-03 OVMax= 9.70D-03

 Cycle   5  Pass 1  IDiag  3:
 E= 0.441531595438391E-01 Delta-E=       -0.000215397262 Rises=F Damp=F
 DIIS: error= 1.54D-04 at cycle   5 NSaved=   5.
 NSaved= 5 IEnMin= 5 EnMin= 0.441531595438391E-01 IErMin= 5 ErrMin= 1.54D-04
 ErrMax= 1.54D-04  0.00D+00 EMaxC= 1.00D-01 BMatC= 1.46D-06 BMatP= 3.57D-05
 IDIUse=3 WtCom= 9.98D-01 WtEn= 1.54D-03
 Coeff-Com: -0.807D-02 0.280D-01 0.684D-01-0.533D+00 0.144D+01
 Coeff-En:   0.000D+00 0.000D+00 0.000D+00 0.000D+00 0.100D+01
 Coeff:     -0.805D-02 0.279D-01 0.683D-01-0.532D+00 0.144D+01
 Gap=     0.386 Goal=   None    Shift=    0.000
 RMSDP=1.97D-04 MaxDP=1.59D-03 DE=-2.15D-04 OVMax= 1.55D-03

 Cycle   6  Pass 1  IDiag  3:
 E= 0.441441315088156E-01 Delta-E=       -0.000009028035 Rises=F Damp=F
 DIIS: error= 6.17D-05 at cycle   6 NSaved=   6.
 NSaved= 6 IEnMin= 6 EnMin= 0.441441315088156E-01 IErMin= 6 ErrMin= 6.17D-05
 ErrMax= 6.17D-05  0.00D+00 EMaxC= 1.00D-01 BMatC= 9.35D-08 BMatP= 1.46D-06
 IDIUse=1 WtCom= 1.00D+00 WtEn= 0.00D+00
 Coeff-Com:  0.245D-02-0.855D-02-0.110D-01 0.131D+00-0.516D+00 0.140D+01
 Coeff:      0.245D-02-0.855D-02-0.110D-01 0.131D+00-0.516D+00 0.140D+01
 Gap=     0.386 Goal=   None    Shift=    0.000
 RMSDP=5.71D-05 MaxDP=4.40D-04 DE=-9.03D-06 OVMax= 6.59D-04

 Cycle   7  Pass 1  IDiag  3:
 E= 0.441433867623289E-01 Delta-E=       -0.000000744746 Rises=F Damp=F
 DIIS: error= 2.80D-05 at cycle   7 NSaved=   7.
 NSaved= 7 IEnMin= 7 EnMin= 0.441433867623289E-01 IErMin= 7 ErrMin= 2.80D-05
 ErrMax= 2.80D-05  0.00D+00 EMaxC= 1.00D-01 BMatC= 1.14D-08 BMatP= 9.35D-08
 IDIUse=1 WtCom= 1.00D+00 WtEn= 0.00D+00
 Coeff-Com: -0.321D-03 0.642D-03 0.233D-02-0.206D-01 0.117D+00-0.690D+00
 Coeff-Com:  0.159D+01
 Coeff:     -0.321D-03 0.642D-03 0.233D-02-0.206D-01 0.117D+00-0.690D+00
 Coeff:      0.159D+01
 Gap=     0.386 Goal=   None    Shift=    0.000
 RMSDP=2.74D-05 MaxDP=2.44D-04 DE=-7.45D-07 OVMax= 3.03D-04

 Cycle   8  Pass 1  IDiag  3:
 E= 0.441432737110148E-01 Delta-E=       -0.000000113051 Rises=F Damp=F
 DIIS: error= 7.06D-06 at cycle   8 NSaved=   8.
 NSaved= 8 IEnMin= 8 EnMin= 0.441432737110148E-01 IErMin= 8 ErrMin= 7.06D-06
 ErrMax= 7.06D-06  0.00D+00 EMaxC= 1.00D-01 BMatC= 6.39D-10 BMatP= 1.14D-08
 IDIUse=1 WtCom= 1.00D+00 WtEn= 0.00D+00
 Coeff-Com:  0.309D-04 0.243D-03-0.164D-02 0.712D-02-0.396D-01 0.288D+00
 Coeff-Com: -0.855D+00 0.160D+01
 Coeff:      0.309D-04 0.243D-03-0.164D-02 0.712D-02-0.396D-01 0.288D+00
 Coeff:     -0.855D+00 0.160D+01
 Gap=     0.386 Goal=   None    Shift=    0.000
 RMSDP=6.95D-06 MaxDP=6.65D-05 DE=-1.13D-07 OVMax= 6.87D-05

 Cycle   9  Pass 1  IDiag  3:
 E= 0.441432674763149E-01 Delta-E=       -0.000000006235 Rises=F Damp=F
 DIIS: error= 1.11D-06 at cycle   9 NSaved=   9.
 NSaved= 9 IEnMin= 9 EnMin= 0.441432674763149E-01 IErMin= 9 ErrMin= 1.11D-06
 ErrMax= 1.11D-06  0.00D+00 EMaxC= 1.00D-01 BMatC= 2.65D-11 BMatP= 6.39D-10
 IDIUse=1 WtCom= 1.00D+00 WtEn= 0.00D+00
 Coeff-Com:  0.237D-04-0.214D-03 0.408D-03-0.669D-03 0.684D-02-0.801D-01
 Coeff-Com:  0.277D+00-0.669D+00 0.146D+01
 Coeff:      0.237D-04-0.214D-03 0.408D-03-0.669D-03 0.684D-02-0.801D-01
 Coeff:      0.277D+00-0.669D+00 0.146D+01
 Gap=     0.386 Goal=   None    Shift=    0.000
 RMSDP=1.07D-06 MaxDP=9.54D-06 DE=-6.23D-09 OVMax= 1.31D-05

 Cycle  10  Pass 1  IDiag  3:
 E= 0.441432672911475E-01 Delta-E=       -0.000000000185 Rises=F Damp=F
 DIIS: error= 1.68D-07 at cycle  10 NSaved=  10.
 NSaved=10 IEnMin=10 EnMin= 0.441432672911475E-01 IErMin=10 ErrMin= 1.68D-07
 ErrMax= 1.68D-07  0.00D+00 EMaxC= 1.00D-01 BMatC= 1.24D-12 BMatP= 2.65D-11
 IDIUse=1 WtCom= 1.00D+00 WtEn= 0.00D+00
 Coeff-Com: -0.115D-04 0.910D-04-0.160D-03 0.197D-03-0.191D-02 0.263D-01
 Coeff-Com: -0.947D-01 0.240D+00-0.651D+00 0.148D+01
 Coeff:     -0.115D-04 0.910D-04-0.160D-03 0.197D-03-0.191D-02 0.263D-01
 Coeff:     -0.947D-01 0.240D+00-0.651D+00 0.148D+01
 Gap=     0.386 Goal=   None    Shift=    0.000
 RMSDP=1.95D-07 MaxDP=1.29D-06 DE=-1.85D-10 OVMax= 2.16D-06

 Cycle  11  Pass 1  IDiag  3:
 E= 0.441432672834452E-01 Delta-E=       -0.000000000008 Rises=F Damp=F
 DIIS: error= 2.79D-08 at cycle  11 NSaved=  11.
 NSaved=11 IEnMin=11 EnMin= 0.441432672834452E-01 IErMin=11 ErrMin= 2.79D-08
 ErrMax= 2.79D-08  0.00D+00 EMaxC= 1.00D-01 BMatC= 5.34D-14 BMatP= 1.24D-12
 IDIUse=1 WtCom= 1.00D+00 WtEn= 0.00D+00
 Coeff-Com:  0.314D-05-0.253D-04 0.472D-04-0.718D-04 0.496D-03-0.679D-02
 Coeff-Com:  0.244D-01-0.617D-01 0.174D+00-0.522D+00 0.139D+01
 Coeff:      0.314D-05-0.253D-04 0.472D-04-0.718D-04 0.496D-03-0.679D-02
 Coeff:      0.244D-01-0.617D-01 0.174D+00-0.522D+00 0.139D+01
 Gap=     0.386 Goal=   None    Shift=    0.000
 RMSDP=3.98D-08 MaxDP=2.96D-07 DE=-7.70D-12 OVMax= 3.95D-07

 Cycle  12  Pass 1  IDiag  3:
 E= 0.441432672830473E-01 Delta-E=        0.000000000000 Rises=F Damp=F
 DIIS: error= 7.79D-09 at cycle  12 NSaved=  12.
 NSaved=12 IEnMin=12 EnMin= 0.441432672830473E-01 IErMin=12 ErrMin= 7.79D-09
 ErrMax= 7.79D-09  0.00D+00 EMaxC= 1.00D-01 BMatC= 3.56D-15 BMatP= 5.34D-14
 IDIUse=1 WtCom= 1.00D+00 WtEn= 0.00D+00
 Coeff-Com: -0.679D-06 0.579D-05-0.117D-04 0.234D-04-0.106D-03 0.144D-02
 Coeff-Com: -0.507D-02 0.125D-01-0.358D-01 0.136D+00-0.594D+00 0.149D+01
 Coeff:     -0.679D-06 0.579D-05-0.117D-04 0.234D-04-0.106D-03 0.144D-02
 Coeff:     -0.507D-02 0.125D-01-0.358D-01 0.136D+00-0.594D+00 0.149D+01
 Gap=     0.386 Goal=   None    Shift=    0.000
 RMSDP=1.14D-08 MaxDP=8.89D-08 DE=-3.98D-13 OVMax= 8.28D-08

 Cycle  13  Pass 1  IDiag  3:
 E= 0.441432672834168E-01 Delta-E=        0.000000000000 Rises=F Damp=F
 DIIS: error= 1.71D-09 at cycle  13 NSaved=  13.
 NSaved=13 IEnMin=12 EnMin= 0.441432672830473E-01 IErMin=13 ErrMin= 1.71D-09
 ErrMax= 1.71D-09  0.00D+00 EMaxC= 1.00D-01 BMatC= 2.02D-16 BMatP= 3.56D-15
 IDIUse=1 WtCom= 1.00D+00 WtEn= 0.00D+00
 Coeff-Com:  0.635D-07-0.632D-06 0.162D-05-0.519D-05 0.502D-05-0.769D-04
 Coeff-Com:  0.244D-03-0.440D-03 0.163D-02-0.193D-01 0.157D+00-0.589D+00
 Coeff-Com:  0.145D+01
 Coeff:      0.635D-07-0.632D-06 0.162D-05-0.519D-05 0.502D-05-0.769D-04
 Coeff:      0.244D-03-0.440D-03 0.163D-02-0.193D-01 0.157D+00-0.589D+00
 Coeff:      0.145D+01
 Gap=     0.386 Goal=   None    Shift=    0.000
 RMSDP=2.71D-09 MaxDP=1.89D-08 DE= 3.69D-13 OVMax= 2.10D-08

 Cycle  14  Pass 2  IDiag  1:
 SCF Done:  E(RAM1) =  0.441432672834E-01 A.U. after   14 cycles
            NFock= 13  Conv=0.27D-08     -V/T= 1.0027
 KE=-1.663116963602D+01 PE=-1.718111683681D+02 EE= 8.449877546836D+01
 Leave Link  502 at Tue Dec 15 16:21:23 2015, MaxMem=    33554432 cpu:         0.0
 (Enter /home/Applications/g09/g09/l801.exe)
 Range of M.O.s used for correlation:     1    24
 NBasis=    24 NAE=    13 NBE=    13 NFC=     0 NFV=     0
 NROrb=     24 NOA=    13 NOB=    13 NVA=    11 NVB=    11
 Leave Link  801 at Tue Dec 15 16:21:23 2015, MaxMem=    33554432 cpu:         0.0
 (Enter /home/Applications/g09/g09/l914.exe)
 RHF ground state
 MDV=    33554432 DFT=F DoStab=F Mixed=F DoRPA=F DoScal=F NonHer=F
 Making orbital integer symmetry assigments:
 Orbital symmetries:
       Occupied  (A) (A) (A) (A) (A) (A) (A) (A) (A) (A) (A) (A)
                 (A)
       Virtual   (A) (A) (A) (A) (A) (A) (A) (A) (A) (A) (A)
    60 initial guesses have been made.
 Convergence on wavefunction:    0.000001000000000
 Davidson Disk Diagonalization:  ConvIn= 1.00D-06 SkipCon=T Conv= 1.00D-06.
 Max sub-space:   240 roots to seek:    60 dimension of matrix:          286
 Iteration     1 Dimension    60 NMult     0 NNew     60
 CISAX will form    60 AO SS matrices at one time.
 NMat=    60 NSing=    60 JSym2X= 0.
 FoFJK:  IHMeth= 8 ICntrl=       0 DoSepK=F KAlg= 0 I1Cent=   0 FoldK=F
 IRaf=         1 NMat= 120 IRICut=       1 DoRegI=T DoRafI=F ISym2E= 0.
 FoFCou: FMM=F IPFlag=           0 FMFlag=      100000 FMFlg1=           0
         NFxFlg=           0 DoJE=F BraDBF=F KetDBF=F FulRan=T
         wScrn=  0.000000 ICntrl=       0 IOpCl=  0 I1Cent=           0 NGrid=           0
         NMat0=  120 NMatS0=     60 NMatT0=    0 NMatD0=  120 NMtDS0=    0 NMtDT0=    0
 Symmetry not used in FoFCou.
 New state      2 was old state      4
 New state      3 was old state      2
 New state      4 was old state      8
 New state      5 was old state      6
 New state      6 was old state      5
 New state      7 was old state      9
 New state      8 was old state      7
 New state      9 was old state      3
 New state     12 was old state     13
 New state     13 was old state     15
 New state     14 was old state     12
 New state     15 was old state     14
 Excitation Energies [eV] at current iteration:
 Root      1 :     4.637168399494098
 Root      2 :     4.928305167845239
 Root      3 :     5.012962240812702
 Root      4 :     5.884708926892575
 Root      5 :     6.006633804070155
 Root      6 :     6.136598507123322
 Root      7 :     6.230917277174316
 Root      8 :     6.349998498843274
 Root      9 :     6.381543271739814
 Root     10 :     6.694158315741950
 Root     11 :     6.949161181408676
 Root     12 :     7.249130513513454
 Root     13 :     7.411695010355116
 Root     14 :     7.594679430006874
 Root     15 :     7.652479018904206
 Root     16 :     7.794703748247712
 Root     17 :     7.860919616497539
 Root     18 :     8.102385266531307
 Root     19 :     8.367341943736237
 Root     20 :     8.431415007568697
 Root     21 :     8.476728659430158
 Root     22 :     8.780413742258762
 Root     23 :     8.956789706405958
 Root     24 :     9.099127576393874
 Root     25 :     9.168785848334021
 Root     26 :     9.207631152044792
 Root     27 :     9.311215237984729
 Root     28 :     9.334444678531375
 Root     29 :     9.505379121065351
 Root     30 :     9.753930004060354
 Root     31 :     9.902435726302652
 Root     32 :     9.928542731316735
 Root     33 :    10.075691680998730
 Root     34 :    10.199953209429980
 Root     35 :    10.264988615139500
 Root     36 :    10.372444961066180
 Root     37 :    10.403551175168930
 Root     38 :    10.521055052587010
 Root     39 :    10.936059561120990
 Root     40 :    11.106152523233850
 Root     41 :    11.178942132143240
 Root     42 :    11.198923408960610
 Root     43 :    11.294005457321820
 Root     44 :    11.629746479459190
 Root     45 :    11.698030695585150
 Root     46 :    11.751128328258130
 Root     47 :    11.840943014895660
 Root     48 :    11.881553523745150
 Root     49 :    12.100459193811530
 Root     50 :    12.281439278800270
 Root     51 :    12.315080044012800
 Root     52 :    12.511307066488910
 Root     53 :    12.692493340660800
 Root     54 :    12.746881680777700
 Root     55 :    12.976583296497950
 Root     56 :    13.338160130955490
 Root     57 :    13.673716928513140
 Root     58 :    13.721656798720870
 Root     59 :    13.844210627344610
 Root     60 :    14.022387649200890
 Iteration     2 Dimension   120 NMult    60 NNew     60
 CISAX will form    60 AO SS matrices at one time.
 NMat=    60 NSing=    60 JSym2X= 0.
 Root      1 not converged, maximum delta is    0.029869653418470
 Root      2 not converged, maximum delta is    0.032143544543404
 Root      3 not converged, maximum delta is    0.012251838804027
 Root      4 not converged, maximum delta is    0.042845356283919
 Root      5 not converged, maximum delta is    0.047985685405279
 Root      6 not converged, maximum delta is    0.068610790876310
 Root      7 not converged, maximum delta is    0.043670423972735
 Root      8 not converged, maximum delta is    0.378199179282067
 Root      9 not converged, maximum delta is    0.278185599153960
 Root     10 not converged, maximum delta is    0.041855621324089
 Root     11 not converged, maximum delta is    0.035785856599066
 Root     12 not converged, maximum delta is    0.038465689208493
 Root     13 not converged, maximum delta is    0.049579827676362
 Root     14 not converged, maximum delta is    0.115969417300973
 Root     15 not converged, maximum delta is    0.137675568920813
 Excitation Energies [eV] at current iteration:
 Root      1 :     4.574834230385854   Change is   -0.062334169108245
 Root      2 :     4.898672355393979   Change is   -0.029632812451260
 Root      3 :     5.002263780287488   Change is   -0.010698460525213
 Root      4 :     5.799094071079239   Change is   -0.085614855813336
 Root      5 :     5.924649273445876   Change is   -0.081984530624278
 Root      6 :     6.049047966764435   Change is   -0.087550540358888
 Root      7 :     6.124071005541885   Change is   -0.106846271632431
 Root      8 :     6.241557109945000   Change is   -0.108441388898274
 Root      9 :     6.334898644406849   Change is   -0.046644627332964
 Root     10 :     6.634787593105500   Change is   -0.059370722636450
 Root     11 :     6.861718670104046   Change is   -0.087442511304630
 Root     12 :     7.186343942669646   Change is   -0.062786570843808
 Root     13 :     7.335012679709244   Change is   -0.076682330645871
 Root     14 :     7.547243904351516   Change is   -0.047435525655358
 Root     15 :     7.578078774286830   Change is   -0.074400244617376
 Root     16 :     7.722476992090042   Change is   -0.072226756157669
 Root     17 :     7.789252625080238   Change is   -0.071666991417302
 Root     18 :     8.009840544526002   Change is   -0.092544722005306
 Root     19 :     8.162378368141196   Change is   -0.269036639427502
 Root     20 :     8.255761402768323   Change is   -0.111580540967916
 Root     21 :     8.374863440400365   Change is   -0.101865219029794
 Root     22 :     8.654645179589556   Change is   -0.125768562669207
 Root     23 :     8.713269813735028   Change is   -0.385857762658847
 Root     24 :     8.889439256672148   Change is   -0.067350449733810
 Root     25 :     9.025949921389653   Change is   -0.308494757141721
 Root     26 :     9.052539244183043   Change is   -0.116246604150977
 Root     27 :     9.119466562713745   Change is   -0.088164589331047
 Root     28 :     9.247540284827588   Change is   -0.506389719232766
 Root     29 :     9.269509517664165   Change is   -0.041705720320566
 Root     30 :     9.435263532839684   Change is   -0.070115588225667
 Root     31 :     9.579387312386082   Change is   -0.349155418930653
 Root     32 :     9.620200893065945   Change is   -0.282234833236706
 Root     33 :     9.701920248376325   Change is   -0.670524712689858
 Root     34 :     9.878100071057530   Change is   -0.321853138372450
 Root     35 :     9.932103264399958   Change is   -0.332885350739542
 Root     36 :     9.964814746322329   Change is   -0.110876934676404
 Root     37 :    10.120724774710970   Change is   -0.400330277876038
 Root     38 :    10.239838699862340   Change is   -0.163712475306584
 Root     39 :    10.504440522362270   Change is   -0.601712000871577
 Root     40 :    10.688048409867280   Change is   -0.248011151253713
 Root     41 :    10.741656700073310   Change is   -0.457266708887301
 Root     42 :    11.031002958912190   Change is   -0.263002498409630
 Root     43 :    11.050309061946550   Change is   -0.128633070196694
 Root     44 :    11.263131930689600   Change is   -0.434898764895551
 Root     45 :    11.391602356775480   Change is   -0.238144122683712
 Root     46 :    11.430425773413050   Change is   -0.320702554845086
 Root     47 :    11.493266368567600   Change is   -0.388287155177552
 Root     48 :    11.516323501169520   Change is   -0.584135692642013
 Root     49 :    11.681050569052930   Change is   -0.159892445842730
 Root     50 :    11.850279942569760   Change is   -0.464800101443042
 Root     51 :    11.926253623788810   Change is   -0.820628056988888
 Root     52 :    12.182744845992970   Change is   -0.098694432807301
 Root     53 :    12.348291055722380   Change is   -0.344202284938421
 Root     54 :    12.411943048389920   Change is   -0.099364018098980
 Root     55 :    12.565118874381970   Change is   -0.411464422115973
 Root     56 :    12.727699686969850   Change is   -0.946017241543291
 Root     57 :    13.091840216532200   Change is   -0.752370410812405
 Root     58 :    13.227930886068760   Change is   -0.110229244886733
 Root     59 :    13.328181617331300
 Root     60 :    13.441394449722250   Change is   -0.580993199478634
 Iteration     3 Dimension   135 NMult   120 NNew     15
 CISAX will form    15 AO SS matrices at one time.
 NMat=    15 NSing=    15 JSym2X= 0.
 Root      1 not converged, maximum delta is    0.000909884538866
 Root      2 not converged, maximum delta is    0.000044632697649
 Root      3 not converged, maximum delta is    0.000259960674999
 Root      4 not converged, maximum delta is    0.000172508406224
 Root      5 not converged, maximum delta is    0.000255405857911
 Root      6 not converged, maximum delta is    0.001379847858311
 Root      7 not converged, maximum delta is    0.000214421248319
 Root      8 not converged, maximum delta is    0.001107489998679
 Root      9 not converged, maximum delta is    0.000284592363647
 Root     10 not converged, maximum delta is    0.000155920648598
 Root     11 not converged, maximum delta is    0.000258178907317
 Root     12 not converged, maximum delta is    0.000135914699775
 Root     13 not converged, maximum delta is    0.000279634416478
 Root     14 not converged, maximum delta is    0.000123877604205
 Root     15 not converged, maximum delta is    0.000408326418529
 Excitation Energies [eV] at current iteration:
 Root      1 :     4.574636987780725   Change is   -0.000197242605129
 Root      2 :     4.898671537891628   Change is   -0.000000817502351
 Root      3 :     5.002241882459293   Change is   -0.000021897828196
 Root      4 :     5.799085829084818   Change is   -0.000008241994421
 Root      5 :     5.924638431727982   Change is   -0.000010841717895
 Root      6 :     6.048613268742066   Change is   -0.000434698022368
 Root      7 :     6.124064434668551   Change is   -0.000006570873334
 Root      8 :     6.241167249271735   Change is   -0.000389860673265
 Root      9 :     6.334888006783812   Change is   -0.000010637623037
 Root     10 :     6.634779855826057   Change is   -0.000007737279443
 Root     11 :     6.861701348720795   Change is   -0.000017321383250
 Root     12 :     7.186339607250392   Change is   -0.000004335419253
 Root     13 :     7.335000331874608   Change is   -0.000012347834637
 Root     14 :     7.547239732667389   Change is   -0.000004171684127
 Root     15 :     7.578048672583464   Change is   -0.000030101703365
 Iteration     4 Dimension   143 NMult   135 NNew      8
 CISAX will form     8 AO SS matrices at one time.
 NMat=     8 NSing=     8 JSym2X= 0.
 Root      1 not converged, maximum delta is    0.000029571850725
 Root      2 not converged, maximum delta is    0.000001427234182
 Root      3 not converged, maximum delta is    0.000005778919477
 Root      4 not converged, maximum delta is    0.000006108643928
 Root      5 not converged, maximum delta is    0.000012856103423
 Root      6 not converged, maximum delta is    0.000064520178060
 Root      7 not converged, maximum delta is    0.000007815309195
 Root      8 not converged, maximum delta is    0.000103494813877
 Root      9 not converged, maximum delta is    0.000017659943902
 Root     10 not converged, maximum delta is    0.000007012469642
 Root     11 not converged, maximum delta is    0.000016790274133
 Root     12 not converged, maximum delta is    0.000003972494204
 Root     13 not converged, maximum delta is    0.000016812867108
 Root     14 not converged, maximum delta is    0.000006931038999
 Root     15 not converged, maximum delta is    0.000014635537790
 Excitation Energies [eV] at current iteration:
 Root      1 :     4.574636714668297   Change is   -0.000000273112428
 Root      2 :     4.898671536955640   Change is   -0.000000000935988
 Root      3 :     5.002241874894979   Change is   -0.000000007564313
 Root      4 :     5.799085816071533   Change is   -0.000000013013285
 Root      5 :     5.924638385157999   Change is   -0.000000046569983
 Root      6 :     6.048611699596653   Change is   -0.000001569145414
 Root      7 :     6.124064408589431   Change is   -0.000000026079119
 Root      8 :     6.241164725154333   Change is   -0.000002524117403
 Root      9 :     6.334887927428828   Change is   -0.000000079354984
 Root     10 :     6.634779837914771   Change is   -0.000000017911286
 Root     11 :     6.861701268920941   Change is   -0.000000079799855
 Root     12 :     7.186339601717653   Change is   -0.000000005532740
 Root     13 :     7.335000256076215   Change is   -0.000000075798393
 Root     14 :     7.547239718675005   Change is   -0.000000013992384
 Root     15 :     7.578048616342080   Change is   -0.000000056241384
 Convergence achieved on expansion vectors.
 ***********************************************************************
 Excited states from <AA,BB:AA,BB> singles matrix:
 ***********************************************************************
 
 1PDM for each excited state written to RWF  633
 Ground to excited state transition densities written to RWF  633
 Ground to excited state transition electric dipole moments (Au):
       state          X           Y           Z        Dip. S.      Osc.
         1        -0.6154      0.4056     -0.0474      0.5454      0.0611
         2         0.0247      0.0165      0.0395      0.0024      0.0003
         3         0.0975      0.2472      0.0475      0.0729      0.0089
         4        -0.0520     -0.0727     -0.1232      0.0232      0.0033
         5         0.1601      0.0718      0.0516      0.0334      0.0049
         6         1.0781      0.4544     -0.0309      1.3698      0.2030
         7         0.0852      0.1010      0.0198      0.0179      0.0027
         8         0.0047     -1.4593     -0.0548      2.1326      0.3261
         9        -0.0577      0.2298      0.0505      0.0587      0.0091
        10        -0.0410     -0.0530      0.0074      0.0045      0.0007
        11         0.0425      0.1855     -0.0676      0.0408      0.0069
        12         0.0183      0.0311     -0.1690      0.0299      0.0053
        13         0.0279      0.0622     -0.0224      0.0051      0.0009
        14         0.0320     -0.0095      0.2367      0.0571      0.0106
        15         0.0038      0.0157     -0.0304      0.0012      0.0002
 Ground to excited state transition velocity dipole moments (Au):
       state          X           Y           Z        Dip. S.      Osc.
         1         0.0105     -0.0315      0.0097      0.0012      0.0048
         2        -0.0032     -0.0002     -0.0090      0.0001      0.0003
         3         0.0024     -0.0132     -0.0055      0.0002      0.0008
         4         0.0076      0.0209      0.0606      0.0042      0.0130
         5        -0.0208     -0.0125     -0.0415      0.0023      0.0071
         6        -0.1784     -0.1037      0.0087      0.0427      0.1279
         7        -0.0175     -0.0204     -0.0171      0.0010      0.0030
         8         0.0164      0.3011     -0.0274      0.0917      0.2665
         9         0.0051     -0.0480     -0.1707      0.0315      0.0901
        10         0.0057      0.0159      0.0176      0.0006      0.0016
        11        -0.0160     -0.0452     -0.0366      0.0036      0.0096
        12        -0.0017     -0.0099      0.0127      0.0003      0.0007
        13        -0.0050     -0.0129     -0.0290      0.0010      0.0025
        14        -0.0028      0.0066     -0.0419      0.0018      0.0043
        15        -0.0014     -0.0040     -0.0364      0.0013      0.0032
 Ground to excited state transition magnetic dipole moments (Au):
       state          X           Y           Z
         1         0.0499      0.0560     -0.5842
         2         0.1464      0.5740      0.0441
         3        -0.0417     -0.0253      0.0895
         4        -0.3416      0.0766     -0.0315
         5        -0.1406      0.0195      0.0002
         6         0.1038      0.0392      0.1111
         7         0.1828     -0.1707      0.0018
         8        -0.0918      0.0272     -0.0418
         9         0.1180      0.0542      0.0096
        10         0.3429      0.7810     -0.0084
        11        -1.3496     -0.2657     -0.0485
        12        -0.1804      0.6140     -0.0196
        13        -0.9613      0.9313      0.0047
        14        -0.2327      0.1107     -0.0047
        15        -0.2813      0.2293     -0.0088
 Ground to excited state transition velocity quadrupole moments (Au):
       state          XX          YY          ZZ          XY          XZ          YZ
         1        -0.2724      0.2433      0.0181     -0.4727     -0.0013      0.0033
         2         0.0420     -0.0266     -0.0001      0.0401      0.1524     -0.0373
         3         0.1523     -0.1747      0.0694      0.0555     -0.0068     -0.0014
         4        -0.0248      0.0085      0.0000     -0.0015      0.0190     -0.2646
         5         0.0028      0.0216     -0.0092     -0.0421      0.0447     -0.0843
         6        -0.0547      0.1038     -0.0077     -0.4181     -0.0061     -0.0151
         7         0.0150     -0.0064      0.0261     -0.0540      0.1561      0.1824
         8        -0.4457      0.3038      0.0265     -0.0408      0.0002      0.0753
         9         0.0808     -0.0438     -0.0115      0.0264      0.0171      0.1030
        10        -0.0221      0.0343      0.0147      0.0145     -0.3005      0.1054
        11         0.0361      0.0106      0.0003     -0.0641     -0.0980      0.1283
        12         0.0126     -0.0063     -0.0260     -0.0102      0.1219      0.1036
        13         0.0253     -0.0223      0.0095      0.0060      0.0832     -0.0437
        14        -0.0051      0.0064      0.0125     -0.0158     -0.0750     -0.2612
        15         0.0066      0.0035      0.0158      0.0133     -0.0849     -0.0958
 <0|del|b> * <b|rxdel|0> + <0|del|b> * <b|delr+rdel|0>
 Rotatory Strengths (R) in cgs (10**-40 erg-esu-cm/Gauss)
       state          XX          YY          ZZ    R(velocity)    E-M Angle
         1       -25.3430     -1.0989     -2.5944     -9.6788      109.79
         2        -1.6561     -0.7619     -1.4606     -1.2929      100.04
         3        -1.0687     -0.5633      0.6257     -0.3354      100.20
         4        -1.3282    -10.6888      2.3355     -3.2272       97.39
         5         3.3333      4.7326      0.5990      2.8883       66.98
         6       -11.7108    -17.8821    -39.2190    -22.9373      131.81
         7        11.8821    -11.5138      0.4548      0.2744       88.11
         8        16.0446     -0.3789      8.4936      8.0531       75.66
         9       -12.0181      6.0698     -5.0798     -3.6761       99.04
        10        25.1320      3.1514     13.0758     13.7864       46.80
        11        16.4105     26.6105     56.2113     33.0775       64.78
        12        -7.0033      0.0173     -9.0646     -5.3502      125.47
        13       -14.7241      6.5771    -11.1682     -6.4384       99.87
        14         2.6556      1.1850      0.1973      1.3460       81.69
        15        -1.7826      1.6724     -0.4045     -0.1716       90.87
 1/2[<0|r|b>*<b|rxdel|0> + (<0|rxdel|b>*<b|r|0>)*]
 Rotatory Strengths (R) in cgs (10**-40 erg-esu-cm/Gauss)
       state          XX          YY          ZZ     R(length)
         1        21.6960    -16.0488    -19.5716     -4.6415
         2        -2.5539     -6.7150     -1.2335     -3.5008
         3         2.8743      4.4255     -3.0067      1.4311
         4       -12.5680      3.9390     -2.7469     -3.7920
         5        15.9149     -0.9882     -0.0083      4.9728
         6       -79.1653    -12.6031      2.4306    -29.7793
         7       -11.0165     12.1947     -0.0259      0.3841
         8         0.3065     28.0937     -1.6167      8.9278
         9         4.8202     -8.8068     -0.3414     -1.4427
        10         9.9520     29.2590      0.0439     13.0850
        11        40.5942     34.8539     -2.3197     24.3762
        12         2.3291    -13.5224     -2.3454     -4.5129
        13        18.9629    -40.9599      0.0742     -7.3076
        14         5.2625      0.7443      0.7823      2.2630
        15         0.7548     -2.5451     -0.1896     -0.6600
  1/2[<0|del|b>*<b|r|0> + (<0|r|b>*<b|del|0>)*] (Au)
       state          X           Y           Z        Dip. S.   Osc.(frdel)
         1        -0.0065     -0.0128     -0.0005      0.0197      0.0131
         2        -0.0001      0.0000     -0.0004      0.0004      0.0003
         3         0.0002     -0.0033     -0.0003      0.0033      0.0022
         4        -0.0004     -0.0015     -0.0075      0.0094      0.0063
         5        -0.0033     -0.0009     -0.0021      0.0064      0.0042
         6        -0.1924     -0.0471     -0.0003      0.2397      0.1598
         7        -0.0015     -0.0021     -0.0003      0.0039      0.0026
         8         0.0001     -0.4394      0.0015      0.4378      0.2919
         9        -0.0003     -0.0110     -0.0086      0.0199      0.0133
        10        -0.0002     -0.0008      0.0001      0.0009      0.0006
        11        -0.0007     -0.0084      0.0025      0.0066      0.0044
        12         0.0000     -0.0003     -0.0021      0.0025      0.0017
        13        -0.0001     -0.0008      0.0006      0.0003      0.0002
        14        -0.0001     -0.0001     -0.0099      0.0101      0.0067
        15         0.0000     -0.0001      0.0011     -0.0010     -0.0007

 Excitation energies and oscillator strengths:
 
 Excited State   1:      Singlet-A      4.5746 eV  271.03 nm  f=0.0611  <S**2>=0.000
      12 -> 15         0.26526
      13 -> 14         0.64771
 This state for optimization and/or second-order correction.
 Total Energy, E(CIS) =  0.212258080485    
 Copying the excited state density for this state as the 1-particle RhoCI density.
 
 Excited State   2:      Singlet-A      4.8987 eV  253.10 nm  f=0.0003  <S**2>=0.000
      13 -> 16         0.67545
      13 -> 19         0.12382
 
 Excited State   3:      Singlet-A      5.0022 eV  247.86 nm  f=0.0089  <S**2>=0.000
      12 -> 14        -0.41762
      13 -> 15         0.56330
 
 Excited State   4:      Singlet-A      5.7991 eV  213.80 nm  f=0.0033  <S**2>=0.000
      12 -> 16        -0.32198
      12 -> 18         0.17899
      12 -> 21         0.19413
      13 -> 17         0.10997
      13 -> 18         0.44769
      13 -> 21         0.25857
      13 -> 23        -0.11880
 
 Excited State   5:      Singlet-A      5.9246 eV  209.27 nm  f=0.0049  <S**2>=0.000
       7 -> 16        -0.13144
      12 -> 16         0.55515
      12 -> 18         0.17548
      12 -> 19         0.12261
      13 -> 18         0.25913
      13 -> 21         0.13804
      13 -> 23        -0.10342
 
 Excited State   6:      Singlet-A      6.0486 eV  204.98 nm  f=0.2030  <S**2>=0.000
      12 -> 14         0.36999
      12 -> 15         0.44622
      12 -> 16        -0.10161
      13 -> 14        -0.15837
      13 -> 15         0.29630
 
 Excited State   7:      Singlet-A      6.1241 eV  202.45 nm  f=0.0027  <S**2>=0.000
      12 -> 18         0.15126
      12 -> 19        -0.27047
      12 -> 21        -0.13544
      12 -> 23        -0.14414
      13 -> 19         0.43032
      13 -> 21         0.25528
      13 -> 22         0.15881
      13 -> 23         0.18245
 
 Excited State   8:      Singlet-A      6.2412 eV  198.66 nm  f=0.3261  <S**2>=0.000
      12 -> 14        -0.37493
      12 -> 15         0.44391
      13 -> 14        -0.18893
      13 -> 15        -0.25289
 
 Excited State   9:      Singlet-A      6.3349 eV  195.72 nm  f=0.0091  <S**2>=0.000
      11 -> 14        -0.11531
      13 -> 17         0.62134
      13 -> 18        -0.14833
      13 -> 19         0.13387
      13 -> 20         0.10337
 
 Excited State  10:      Singlet-A      6.6348 eV  186.87 nm  f=0.0007  <S**2>=0.000
      12 -> 17         0.52220
      12 -> 18        -0.24021
      12 -> 20         0.29926
      12 -> 23        -0.12890
      13 -> 18         0.12189
      13 -> 19         0.13447
 
 Excited State  11:      Singlet-A      6.8617 eV  180.69 nm  f=0.0069  <S**2>=0.000
       9 -> 14         0.23443
      10 -> 15        -0.10135
      11 -> 14         0.54494
      11 -> 15         0.31752
      13 -> 17         0.10852
 
 Excited State  12:      Singlet-A      7.1863 eV  172.53 nm  f=0.0053  <S**2>=0.000
      10 -> 14         0.10763
      11 -> 15        -0.15339
      12 -> 19         0.19062
      12 -> 20        -0.25707
      12 -> 23         0.10648
      13 -> 16        -0.12245
      13 -> 18         0.22567
      13 -> 19         0.34207
      13 -> 21        -0.30812
      13 -> 22        -0.14144
 
 Excited State  13:      Singlet-A      7.3350 eV  169.03 nm  f=0.0009  <S**2>=0.000
       9 -> 15         0.15050
      10 -> 14         0.39019
      10 -> 15        -0.27896
      11 -> 14         0.11016
      11 -> 15        -0.38071
      13 -> 19        -0.13301
      13 -> 20         0.11945
      13 -> 21         0.11740
 
 Excited State  14:      Singlet-A      7.5472 eV  164.28 nm  f=0.0106  <S**2>=0.000
      11 -> 15         0.12127
      12 -> 19        -0.20737
      12 -> 20        -0.16517
      13 -> 17        -0.10539
      13 -> 19         0.10156
      13 -> 20         0.49088
      13 -> 22        -0.25531
      13 -> 23        -0.20653
 
 Excited State  15:      Singlet-A      7.5780 eV  163.61 nm  f=0.0002  <S**2>=0.000
      10 -> 15        -0.12637
      12 -> 17         0.10621
      12 -> 18         0.43406
      12 -> 20         0.14931
      12 -> 21         0.14904
      12 -> 22         0.13876
      12 -> 24        -0.10355
      13 -> 18        -0.16251
      13 -> 20        -0.20957
      13 -> 21        -0.16487
      13 -> 22        -0.21841
      13 -> 24         0.12955
 SavETr:  write IOETrn=   770 NScale= 10 NData=  16 NLR=1 NState=   15 LETran=     280.
 The selected state is a singlet
 CISAX will form     1 AO SS matrices at one time.
 NMat=     1 NSing=     1 JSym2X= 0.
 Leave Link  914 at Tue Dec 15 16:21:23 2015, MaxMem=    33554432 cpu:         0.1
 (Enter /home/Applications/g09/g09/l1002.exe)
 Minotr:  Closed shell wavefunction.
          Computing CIS/TD-HF/TD-KS derivatives.
          Using Z-Vector for PSCF gradient.
          Skipping F1 and S1 gradient terms here.
          IDoAtm=111111111
          Direct CPHF calculation.
          Differentiating once with respect to electric field.
                with respect to dipole field.
          Differentiating once with respect to nuclear coordinates.
          Electric field/nuclear overlap derivatives assumed to be zero.
          Requested convergence is 1.0D-10 RMS, and 1.0D-09 maximum.
          NewPWx=T KeepS1=F KeepF1=F KeepIn=T MapXYZ=F SortEE=F KeepMc=T.
          MDV=      33495423 using IRadAn=       0.
 Keep J ints in memory in canonical form, NReq=871704.
 FoFCou: FMM=F IPFlag=           0 FMFlag=           0 FMFlg1=           0
         NFxFlg=           0 DoJE=F BraDBF=F KetDBF=F FulRan=T
         wScrn=  0.000000 ICntrl=     600 IOpCl=  2 I1Cent=           0 NGrid=           0
         NMat0=    1 NMatS0=     54 NMatT0=    0 NMatD0=    1 NMtDS0=    0 NMtDT0=    0
 Symmetry not used in FoFCou.
          Solving linear equations separately, MaxMat=       0.
          There are     1 degrees of freedom in the 1st order CPHF.  IDoFFX=0 NUNeed=     1.
 LinEq1:  Iter=  0 NonCon=     1 RMS=1.08D-02 Max=5.70D-02 NDo=     1
 AX will form     1 AO Fock derivatives at one time.
 LinEq1:  Iter=  1 NonCon=     1 RMS=1.80D-03 Max=8.55D-03 NDo=     1
 LinEq1:  Iter=  2 NonCon=     1 RMS=2.64D-04 Max=1.86D-03 NDo=     1
 LinEq1:  Iter=  3 NonCon=     1 RMS=4.08D-05 Max=2.07D-04 NDo=     1
 LinEq1:  Iter=  4 NonCon=     1 RMS=6.74D-06 Max=3.41D-05 NDo=     1
 LinEq1:  Iter=  5 NonCon=     1 RMS=9.63D-07 Max=5.65D-06 NDo=     1
 LinEq1:  Iter=  6 NonCon=     1 RMS=1.02D-07 Max=3.75D-07 NDo=     1
 LinEq1:  Iter=  7 NonCon=     1 RMS=1.40D-08 Max=5.32D-08 NDo=     1
 LinEq1:  Iter=  8 NonCon=     1 RMS=1.72D-09 Max=4.94D-09 NDo=     1
 LinEq1:  Iter=  9 NonCon=     1 RMS=2.00D-10 Max=7.47D-10 NDo=     1
 LinEq1:  Iter= 10 NonCon=     0 RMS=2.57D-11 Max=1.06D-10 NDo=     1
 Linear equations converged to 1.000D-10 1.000D-09 after    10 iterations.
 End of Minotr F.D. properties file   721 does not exist.
 End of Minotr F.D. properties file   722 does not exist.
 End of Minotr F.D. properties file   788 does not exist.
 Leave Link 1002 at Tue Dec 15 16:21:23 2015, MaxMem=    33554432 cpu:         0.0
 (Enter /home/Applications/g09/g09/l601.exe)
 Copying SCF densities to generalized density rwf, IOpCl= 0 IROHF=0.

 **********************************************************************

            Population analysis using the SCF density.

 **********************************************************************

 Orbital symmetries:
       Occupied  (A) (A) (A) (A) (A) (A) (A) (A) (A) (A) (A) (A)
                 (A)
       Virtual   (A) (A) (A) (A) (A) (A) (A) (A) (A) (A) (A)
 The electronic state is 1-A.
 Alpha  occ. eigenvalues --   -1.61432  -1.23342  -1.10506  -0.84860  -0.79861
 Alpha  occ. eigenvalues --   -0.69236  -0.62993  -0.57477  -0.51537  -0.50243
 Alpha  occ. eigenvalues --   -0.47793  -0.38271  -0.34690
 Alpha virt. eigenvalues --    0.03881   0.06045   0.09237   0.13131   0.14950
 Alpha virt. eigenvalues --    0.15852   0.17917   0.18454   0.19468   0.21093
 Alpha virt. eigenvalues --    0.23667
     Molecular Orbital Coefficients:
                           1         2         3         4         5
                           O         O         O         O         O
     Eigenvalues --    -1.61432  -1.23342  -1.10506  -0.84860  -0.79861
   1 1   C  1S          0.22428  -0.48677   0.29147  -0.40873  -0.19332
   2        1PX        -0.08507   0.09854   0.08538  -0.18595   0.10536
   3        1PY        -0.07591   0.02077  -0.14318  -0.01438  -0.33315
   4        1PZ         0.00150  -0.00408   0.00234  -0.00648  -0.00760
   5 2   C  1S          0.33440  -0.15242   0.51805   0.13684   0.39060
   6        1PX        -0.18739  -0.10855  -0.01820  -0.20723   0.14582
   7        1PY         0.03268  -0.20397   0.00221  -0.29190   0.01599
   8        1PZ         0.00371   0.00005   0.00557   0.00437  -0.00057
   9 3   O  1S          0.67644   0.52652   0.04835  -0.03036  -0.30857
  10        1PX         0.04188  -0.03021   0.36776   0.48795  -0.00275
  11        1PY         0.20506  -0.04562  -0.11844  -0.11071   0.23310
  12        1PZ        -0.00532  -0.00245  -0.00084   0.00034  -0.00519
  13 4   C  1S          0.38740  -0.13987  -0.50911  -0.03167   0.36032
  14        1PX         0.18516  -0.02376   0.01265   0.00764  -0.09924
  15        1PY        -0.09321  -0.26026  -0.01327   0.37967  -0.01701
  16        1PZ         0.00598  -0.00048  -0.00877  -0.00364   0.00432
  17 5   C  1S          0.25104  -0.49337  -0.26766   0.31116  -0.30452
  18        1PX         0.02103  -0.07137   0.17735  -0.20289  -0.20835
  19        1PY        -0.12477   0.06481   0.08146   0.01603  -0.25445
  20        1PZ        -0.00353   0.00745   0.00400  -0.00798   0.00447
  21 6   H  1S          0.05180  -0.15994  -0.09670   0.17377  -0.23847
  22 7   H  1S          0.07713  -0.03157  -0.19586  -0.04497   0.21548
  23 8   H  1S          0.06276  -0.03428   0.18744   0.08638   0.22250
  24 9   H  1S          0.05075  -0.16639   0.12122  -0.27704  -0.15198
                           6         7         8         9        10
                           O         O         O         O         O
     Eigenvalues --    -0.69236  -0.62993  -0.57477  -0.51537  -0.50243
   1 1   C  1S         -0.05862  -0.00129   0.17192  -0.06248  -0.02990
   2        1PX        -0.22998  -0.00052   0.20911   0.41725   0.02466
   3        1PY        -0.10341  -0.00096   0.17420   0.34474  -0.00598
   4        1PZ        -0.00954   0.17845   0.00877   0.02348   0.00189
   5 2   C  1S         -0.13078  -0.01541  -0.18077  -0.01495   0.08952
   6        1PX        -0.29304  -0.00757  -0.38089   0.06619  -0.26717
   7        1PY         0.22216   0.00939   0.02545  -0.33367   0.07570
   8        1PZ        -0.01353   0.35793  -0.00814   0.01116   0.00996
   9 3   O  1S         -0.17473   0.00364   0.00443  -0.09536  -0.15172
  10        1PX         0.11903   0.01641   0.39603   0.05831   0.17735
  11        1PY         0.47902   0.02159  -0.08224   0.38070   0.40631
  12        1PZ        -0.02801   0.78699  -0.02777  -0.01492   0.01366
  13 4   C  1S         -0.13027  -0.01100   0.16398   0.04596   0.00570
  14        1PX         0.41325   0.00701  -0.25489   0.33909  -0.26837
  15        1PY        -0.03508   0.01788   0.22754   0.01019  -0.33525
  16        1PZ        -0.01330   0.41734  -0.01261  -0.00341   0.01015
  17 5   C  1S         -0.07131  -0.00141  -0.19107  -0.00627  -0.04862
  18        1PX         0.16220   0.00080  -0.06126  -0.23048   0.02643
  19        1PY        -0.21814  -0.02829  -0.24595   0.03617   0.52789
  20        1PZ        -0.00437   0.20818   0.00172   0.00268   0.00064
  21 6   H  1S         -0.19011  -0.02532  -0.26295   0.08075   0.36901
  22 7   H  1S         -0.30098  -0.00177   0.24334  -0.23483   0.27137
  23 8   H  1S         -0.27603  -0.00832  -0.30191   0.21410  -0.13174
  24 9   H  1S         -0.18536   0.00524   0.29895   0.38691  -0.00579
                          11        12        13        14        15
                           O         O         O         V         V
     Eigenvalues --    -0.47793  -0.38271  -0.34690   0.03881   0.06045
   1 1   C  1S          0.02989  -0.01763  -0.00744   0.02451   0.01587
   2        1PX        -0.37592   0.00260  -0.00933   0.00523   0.01377
   3        1PY         0.40332  -0.03503  -0.01970   0.01094   0.01405
   4        1PZ         0.02434   0.57567   0.41668  -0.48104  -0.47653
   5 2   C  1S          0.00689   0.00365  -0.01053  -0.02712  -0.00891
   6        1PX        -0.00485  -0.00394   0.00304   0.00165   0.00080
   7        1PY        -0.42891   0.01964   0.01673   0.01389   0.00829
   8        1PZ         0.01375   0.14686   0.62416   0.64536   0.20326
   9 3   O  1S         -0.13022  -0.00040   0.00135   0.00484   0.00149
  10        1PX         0.05175  -0.00853  -0.00056   0.00598   0.01059
  11        1PY         0.08386  -0.01549  -0.00775   0.00600   0.00408
  12        1PZ        -0.01730  -0.46623   0.01121  -0.38065   0.12420
  13 4   C  1S          0.07829  -0.01401   0.01821  -0.02207   0.02311
  14        1PX        -0.10337  -0.00179  -0.00209   0.00434  -0.01367
  15        1PY        -0.20290  -0.00646   0.00123   0.00634  -0.00820
  16        1PZ         0.00261   0.19770  -0.56082   0.43186  -0.53112
  17 5   C  1S         -0.00551   0.02752  -0.01372  -0.00570   0.02030
  18        1PX         0.50611  -0.01443   0.00725  -0.01643  -0.01020
  19        1PY        -0.11685   0.00650   0.00207  -0.00766   0.02342
  20        1PZ         0.01966   0.62203  -0.34706  -0.12841   0.65531
  21 6   H  1S         -0.22009   0.00005   0.00765   0.00212  -0.02649
  22 7   H  1S          0.17901  -0.00115  -0.00783   0.02000  -0.02664
  23 8   H  1S          0.27040  -0.01147   0.00245   0.02738   0.01006
  24 9   H  1S         -0.03908   0.00031  -0.00161  -0.01976  -0.01945
                          16        17        18        19        20
                           V         V         V         V         V
     Eigenvalues --     0.09237   0.13131   0.14950   0.15852   0.17917
   1 1   C  1S          0.05553  -0.24913  -0.16055   0.12565  -0.31441
   2        1PX         0.01105   0.25595  -0.21550   0.11487   0.27508
   3        1PY        -0.01962  -0.08262   0.46027   0.12123  -0.28124
   4        1PZ         0.02343  -0.02642   0.00456   0.01371  -0.01616
   5 2   C  1S         -0.34341   0.19469   0.39485   0.02235  -0.09606
   6        1PX         0.28947   0.26924   0.13415   0.43992  -0.01036
   7        1PY         0.24030  -0.14097   0.21384  -0.05930   0.10240
   8        1PZ        -0.03590   0.02191   0.01235   0.00305   0.00122
   9 3   O  1S          0.24376  -0.00368   0.08025   0.09291   0.03517
  10        1PX         0.17410   0.03566  -0.18767   0.23009   0.08550
  11        1PY         0.39738  -0.02516   0.18453   0.07547   0.06868
  12        1PZ        -0.00458   0.00077  -0.00945  -0.01514  -0.00873
  13 4   C  1S         -0.28390  -0.20829  -0.14899   0.38107   0.11567
  14        1PX        -0.04242   0.31838  -0.24224  -0.04622  -0.33749
  15        1PY         0.33438  -0.04293   0.14524   0.27079  -0.07035
  16        1PZ        -0.02886  -0.02196   0.00095   0.02935   0.02330
  17 5   C  1S          0.02004   0.22028   0.12917  -0.25339   0.39369
  18        1PX         0.01582   0.27857  -0.25780   0.29267   0.37069
  19        1PY         0.03389  -0.09646   0.15374   0.21305   0.11697
  20        1PZ         0.00537   0.00490  -0.01899   0.00644  -0.03258
  21 6   H  1S         -0.07971  -0.02657  -0.37154   0.10798  -0.31907
  22 7   H  1S          0.36703   0.48392  -0.07714  -0.27397  -0.33012
  23 8   H  1S          0.37405  -0.45417  -0.25015  -0.30797   0.12324
  24 9   H  1S         -0.09795   0.09247   0.06820  -0.30443   0.21695
                          21        22        23        24
                           V         V         V         V
     Eigenvalues --     0.18454   0.19468   0.21093   0.23667
   1 1   C  1S         -0.39765   0.12155  -0.02841  -0.06477
   2        1PX        -0.05032   0.26682  -0.46964  -0.14803
   3        1PY         0.24103   0.14177  -0.35049   0.15397
   4        1PZ        -0.01800   0.02564  -0.02196   0.00635
   5 2   C  1S          0.14088   0.00355  -0.10635  -0.11574
   6        1PX        -0.12932  -0.23467   0.10513   0.36192
   7        1PY         0.48816   0.11498  -0.18452   0.31130
   8        1PZ         0.00226  -0.00937   0.00713  -0.01179
   9 3   O  1S         -0.02336  -0.10109   0.00149  -0.02380
  10        1PX        -0.04612  -0.01790   0.04002   0.53278
  11        1PY        -0.17239  -0.22399  -0.02880  -0.19344
  12        1PZ         0.00004   0.00767  -0.00334   0.00287
  13 4   C  1S          0.15619   0.14313   0.15425   0.11434
  14        1PX         0.19508   0.37633   0.22152   0.12148
  15        1PY         0.21843   0.00351   0.16699  -0.53215
  16        1PZ         0.00342   0.01228   0.00868   0.00831
  17 5   C  1S         -0.24291   0.09816  -0.15900   0.09068
  18        1PX         0.33186  -0.00895  -0.07688  -0.23298
  19        1PY        -0.00747   0.47188   0.42916  -0.07319
  20        1PZ         0.02447  -0.02206   0.00697  -0.01131
  21 6   H  1S          0.27841  -0.44082  -0.21089  -0.05119
  22 7   H  1S          0.06264   0.16146   0.06891  -0.02823
  23 8   H  1S          0.21932   0.15984  -0.06940   0.02844
  24 9   H  1S          0.25328  -0.35076   0.47551   0.05978
     Density Matrix:
                           1         2         3         4         5
   1 1   C  1S          1.23136
   2        1PX         0.04977   0.96529
   3        1PY         0.05777   0.03246   0.92418
   4        1PZ        -0.01018   0.00462  -0.01208   1.07660
   5 2   C  1S          0.28766   0.00449  -0.51121  -0.01383   1.26630
   6        1PX         0.03495   0.13630  -0.08906  -0.00322   0.11072
   7        1PY         0.44021   0.02255  -0.63240   0.00516  -0.03126
   8        1PZ        -0.01627  -0.01039  -0.01884   0.81831  -0.00601
   9 3   O  1S         -0.00165   0.03625  -0.01952  -0.00297   0.11047
  10        1PX        -0.02755  -0.00300   0.06865   0.00198   0.40550
  11        1PY        -0.08296   0.04619   0.04765  -0.00535   0.14648
  12        1PZ         0.00923  -0.00190   0.00682  -0.24795  -0.01552
  13 4   C  1S         -0.02977   0.01517   0.02112   0.00134   0.02243
  14        1PX        -0.02283  -0.00698   0.01273  -0.00157  -0.00699
  15        1PY        -0.01081   0.07325  -0.05818  -0.00891  -0.04297
  16        1PZ        -0.00316   0.00725   0.00424  -0.09080   0.00782
  17 5   C  1S          0.24554  -0.41574   0.15060   0.02114  -0.03209
  18        1PX         0.44650  -0.62779   0.28257   0.00674  -0.00068
  19        1PY        -0.08856   0.12990   0.05070   0.00011   0.02548
  20        1PZ        -0.01711   0.00637  -0.01416   0.50242   0.00708
  21 6   H  1S         -0.04076   0.05669  -0.01175  -0.00674   0.05051
  22 7   H  1S          0.04753  -0.06748   0.02745  -0.00287   0.06333
  23 8   H  1S         -0.05962  -0.00120   0.10456   0.00540   0.59930
  24 9   H  1S          0.61482   0.61256   0.43775   0.03389  -0.05716
                           6         7         8         9        10
   6        1PX         0.83651
   7        1PY        -0.07265   0.95984
   8        1PZ         0.00379   0.00689   1.07996
   9 3   O  1S         -0.27829  -0.08744   0.00580   1.82579
  10        1PX        -0.68474  -0.25172   0.01381  -0.08389   1.16979
  11        1PY        -0.33465   0.04729   0.00747  -0.30492   0.07057
  12        1PZ         0.02120   0.01014   0.44106   0.01220   0.00586
  13 4   C  1S         -0.02399  -0.03651   0.01139   0.12320  -0.25223
  14        1PX         0.04436   0.00661  -0.00408   0.18455  -0.13535
  15        1PY        -0.04093  -0.00956   0.00013  -0.24696   0.40261
  16        1PZ         0.00117  -0.00534  -0.34259   0.00707  -0.00823
  17 5   C  1S          0.01726  -0.01417  -0.00437   0.00380  -0.02807
  18        1PX        -0.07331  -0.06465   0.01189  -0.04172  -0.03510
  19        1PY        -0.01168  -0.00537   0.00269   0.00057  -0.00582
  20        1PZ        -0.00492  -0.00214  -0.10086  -0.00302  -0.00612
  21 6   H  1S          0.00506   0.05184   0.00504   0.02281  -0.02308
  22 7   H  1S         -0.12026  -0.02725  -0.00436  -0.05496   0.02770
  23 8   H  1S          0.49429  -0.55772   0.01875  -0.05316  -0.07043
  24 9   H  1S          0.01869  -0.06405   0.00889   0.02139   0.06579
                          11        12        13        14        15
  11        1PY         1.35760
  12        1PZ         0.01857   1.67838
  13 4   C  1S          0.36790  -0.01592   1.22491
  14        1PX         0.48813  -0.01105  -0.11430   0.95681
  15        1PY        -0.47212   0.02380   0.02674   0.07078   0.85614
  16        1PZ         0.02340   0.46160  -0.01856  -0.00428  -0.00530
  17 5   C  1S         -0.08229  -0.01096   0.31858   0.23623   0.41606
  18        1PX         0.01763   0.00114  -0.28496  -0.05590  -0.38527
  19        1PY         0.06837  -0.00375  -0.41440  -0.28647  -0.39532
  20        1PZ        -0.00274  -0.26078  -0.03479  -0.00751  -0.01825
  21 6   H  1S          0.09342   0.00380  -0.05822  -0.04694  -0.04746
  22 7   H  1S         -0.06523   0.00709   0.59371  -0.73307  -0.16181
  23 8   H  1S         -0.04445   0.00747   0.05625   0.07246  -0.07602
  24 9   H  1S          0.05458  -0.00719   0.04600   0.02377   0.04559
                          16        17        18        19        20
  16        1PZ         1.05677
  17 5   C  1S          0.03411   1.22521
  18        1PX        -0.01430  -0.01930   0.92371
  19        1PY        -0.00680   0.06972  -0.03397   0.98793
  20        1PZ         0.80915   0.02387  -0.00399  -0.00782   1.10260
  21 6   H  1S         -0.01307   0.58196  -0.25032   0.73814  -0.03121
  22 7   H  1S          0.02335  -0.05982   0.04299   0.07300   0.01292
  23 8   H  1S         -0.00321   0.04445   0.06211  -0.01756  -0.00529
  24 9   H  1S          0.00008  -0.04668  -0.07037   0.01850   0.00806
                          21        22        23        24
  21 6   H  1S          0.84358
  22 7   H  1S          0.00757   0.80892
  23 8   H  1S         -0.01238  -0.02947   0.80216
  24 9   H  1S         -0.00037  -0.01151   0.01551   0.83965
    Full Mulliken population analysis:
                           1         2         3         4         5
   1 1   C  1S          1.23136
   2        1PX         0.00000   0.96529
   3        1PY         0.00000   0.00000   0.92418
   4        1PZ         0.00000   0.00000   0.00000   1.07660
   5 2   C  1S          0.00000   0.00000   0.00000   0.00000   1.26630
   6        1PX         0.00000   0.00000   0.00000   0.00000   0.00000
   7        1PY         0.00000   0.00000   0.00000   0.00000   0.00000
   8        1PZ         0.00000   0.00000   0.00000   0.00000   0.00000
   9 3   O  1S          0.00000   0.00000   0.00000   0.00000   0.00000
  10        1PX         0.00000   0.00000   0.00000   0.00000   0.00000
  11        1PY         0.00000   0.00000   0.00000   0.00000   0.00000
  12        1PZ         0.00000   0.00000   0.00000   0.00000   0.00000
  13 4   C  1S          0.00000   0.00000   0.00000   0.00000   0.00000
  14        1PX         0.00000   0.00000   0.00000   0.00000   0.00000
  15        1PY         0.00000   0.00000   0.00000   0.00000   0.00000
  16        1PZ         0.00000   0.00000   0.00000   0.00000   0.00000
  17 5   C  1S          0.00000   0.00000   0.00000   0.00000   0.00000
  18        1PX         0.00000   0.00000   0.00000   0.00000   0.00000
  19        1PY         0.00000   0.00000   0.00000   0.00000   0.00000
  20        1PZ         0.00000   0.00000   0.00000   0.00000   0.00000
  21 6   H  1S          0.00000   0.00000   0.00000   0.00000   0.00000
  22 7   H  1S          0.00000   0.00000   0.00000   0.00000   0.00000
  23 8   H  1S          0.00000   0.00000   0.00000   0.00000   0.00000
  24 9   H  1S          0.00000   0.00000   0.00000   0.00000   0.00000
                           6         7         8         9        10
   6        1PX         0.83651
   7        1PY         0.00000   0.95984
   8        1PZ         0.00000   0.00000   1.07996
   9 3   O  1S          0.00000   0.00000   0.00000   1.82579
  10        1PX         0.00000   0.00000   0.00000   0.00000   1.16979
  11        1PY         0.00000   0.00000   0.00000   0.00000   0.00000
  12        1PZ         0.00000   0.00000   0.00000   0.00000   0.00000
  13 4   C  1S          0.00000   0.00000   0.00000   0.00000   0.00000
  14        1PX         0.00000   0.00000   0.00000   0.00000   0.00000
  15        1PY         0.00000   0.00000   0.00000   0.00000   0.00000
  16        1PZ         0.00000   0.00000   0.00000   0.00000   0.00000
  17 5   C  1S          0.00000   0.00000   0.00000   0.00000   0.00000
  18        1PX         0.00000   0.00000   0.00000   0.00000   0.00000
  19        1PY         0.00000   0.00000   0.00000   0.00000   0.00000
  20        1PZ         0.00000   0.00000   0.00000   0.00000   0.00000
  21 6   H  1S          0.00000   0.00000   0.00000   0.00000   0.00000
  22 7   H  1S          0.00000   0.00000   0.00000   0.00000   0.00000
  23 8   H  1S          0.00000   0.00000   0.00000   0.00000   0.00000
  24 9   H  1S          0.00000   0.00000   0.00000   0.00000   0.00000
                          11        12        13        14        15
  11        1PY         1.35760
  12        1PZ         0.00000   1.67838
  13 4   C  1S          0.00000   0.00000   1.22491
  14        1PX         0.00000   0.00000   0.00000   0.95681
  15        1PY         0.00000   0.00000   0.00000   0.00000   0.85614
  16        1PZ         0.00000   0.00000   0.00000   0.00000   0.00000
  17 5   C  1S          0.00000   0.00000   0.00000   0.00000   0.00000
  18        1PX         0.00000   0.00000   0.00000   0.00000   0.00000
  19        1PY         0.00000   0.00000   0.00000   0.00000   0.00000
  20        1PZ         0.00000   0.00000   0.00000   0.00000   0.00000
  21 6   H  1S          0.00000   0.00000   0.00000   0.00000   0.00000
  22 7   H  1S          0.00000   0.00000   0.00000   0.00000   0.00000
  23 8   H  1S          0.00000   0.00000   0.00000   0.00000   0.00000
  24 9   H  1S          0.00000   0.00000   0.00000   0.00000   0.00000
                          16        17        18        19        20
  16        1PZ         1.05677
  17 5   C  1S          0.00000   1.22521
  18        1PX         0.00000   0.00000   0.92371
  19        1PY         0.00000   0.00000   0.00000   0.98793
  20        1PZ         0.00000   0.00000   0.00000   0.00000   1.10260
  21 6   H  1S          0.00000   0.00000   0.00000   0.00000   0.00000
  22 7   H  1S          0.00000   0.00000   0.00000   0.00000   0.00000
  23 8   H  1S          0.00000   0.00000   0.00000   0.00000   0.00000
  24 9   H  1S          0.00000   0.00000   0.00000   0.00000   0.00000
                          21        22        23        24
  21 6   H  1S          0.84358
  22 7   H  1S          0.00000   0.80892
  23 8   H  1S          0.00000   0.00000   0.80216
  24 9   H  1S          0.00000   0.00000   0.00000   0.83965
     Gross orbital populations:
                           1
   1 1   C  1S          1.23136
   2        1PX         0.96529
   3        1PY         0.92418
   4        1PZ         1.07660
   5 2   C  1S          1.26630
   6        1PX         0.83651
   7        1PY         0.95984
   8        1PZ         1.07996
   9 3   O  1S          1.82579
  10        1PX         1.16979
  11        1PY         1.35760
  12        1PZ         1.67838
  13 4   C  1S          1.22491
  14        1PX         0.95681
  15        1PY         0.85614
  16        1PZ         1.05677
  17 5   C  1S          1.22521
  18        1PX         0.92371
  19        1PY         0.98793
  20        1PZ         1.10260
  21 6   H  1S          0.84358
  22 7   H  1S          0.80892
  23 8   H  1S          0.80216
  24 9   H  1S          0.83965
          Condensed to atoms (all electrons):
               1          2          3          4          5          6
     1  C    4.197436   0.000000   0.000000   0.000000   0.000000   0.000000
     2  C    0.000000   4.142613   0.000000   0.000000   0.000000   0.000000
     3  O    0.000000   0.000000   6.031562   0.000000   0.000000   0.000000
     4  C    0.000000   0.000000   0.000000   4.094631   0.000000   0.000000
     5  C    0.000000   0.000000   0.000000   0.000000   4.239446   0.000000
     6  H    0.000000   0.000000   0.000000   0.000000   0.000000   0.843578
     7  H    0.000000   0.000000   0.000000   0.000000   0.000000   0.000000
     8  H    0.000000   0.000000   0.000000   0.000000   0.000000   0.000000
     9  H    0.000000   0.000000   0.000000   0.000000   0.000000   0.000000
               7          8          9
     1  C    0.000000   0.000000   0.000000
     2  C    0.000000   0.000000   0.000000
     3  O    0.000000   0.000000   0.000000
     4  C    0.000000   0.000000   0.000000
     5  C    0.000000   0.000000   0.000000
     6  H    0.000000   0.000000   0.000000
     7  H    0.808924   0.000000   0.000000
     8  H    0.000000   0.802155   0.000000
     9  H    0.000000   0.000000   0.839653
 Mulliken charges:
               1
     1  C   -0.197436
     2  C   -0.142613
     3  O   -0.031562
     4  C   -0.094631
     5  C   -0.239446
     6  H    0.156422
     7  H    0.191076
     8  H    0.197845
     9  H    0.160347
 Sum of Mulliken charges =   0.00000
 Mulliken charges with hydrogens summed into heavy atoms:
               1
     1  C   -0.037090
     2  C    0.055231
     3  O   -0.031562
     4  C    0.096445
     5  C   -0.083024
 Charge=              0.0000 electrons
 Dipole moment (field-independent basis, Debye):
    X=              0.0307    Y=             -0.0705    Z=              0.0876  Tot=              0.1166
 N-N= 1.039877058030D+02 E-N=-1.718111683619D+02  KE=-1.663116963602D+01
 Orbital energies and kinetic energies (alpha):
                                 1                 2
   1         O                -1.614318         -1.336301
   2         O                -1.233417         -1.058158
   3         O                -1.105059         -0.957738
   4         O                -0.848597         -0.718431
   5         O                -0.798607         -0.714226
   6         O                -0.692355         -0.605768
   7         O                -0.629926         -0.502887
   8         O                -0.574772         -0.516594
   9         O                -0.515367         -0.436543
  10         O                -0.502430         -0.417101
  11         O                -0.477928         -0.403221
  12         O                -0.382713         -0.335768
  13         O                -0.346904         -0.312850
  14         V                 0.038815         -0.187257
  15         V                 0.060446         -0.191408
  16         V                 0.092372         -0.207071
  17         V                 0.131314         -0.233128
  18         V                 0.149502         -0.170788
  19         V                 0.158518         -0.173036
  20         V                 0.179170         -0.180858
  21         V                 0.184540         -0.149960
  22         V                 0.194675         -0.159751
  23         V                 0.210929         -0.141839
  24         V                 0.236666         -0.021844
 Total kinetic energy from orbitals=-1.663116963602D+01
 Leave Link  601 at Tue Dec 15 16:21:23 2015, MaxMem=    33554432 cpu:         0.0
 (Enter /home/Applications/g09/g09/l701.exe)
 Compute integral first derivatives.
 ... and contract with generalized density number  6.
 Leave Link  701 at Tue Dec 15 16:21:23 2015, MaxMem=    33554432 cpu:         0.0
 (Enter /home/Applications/g09/g09/l702.exe)
 L702 exits ... SP integral derivatives will be done elsewhere.
 Leave Link  702 at Tue Dec 15 16:21:23 2015, MaxMem=    33554432 cpu:         0.0
 (Enter /home/Applications/g09/g09/l703.exe)
 Compute integral first derivatives, UseDBF=F ICtDFT=           0.
 Integral derivatives from FoFJK, PRISM(SPDF).
 Calling FoFJK, ICntrl=  10005127 FMM=F ISym2X=0 I1Cent= 0 IOpClX= 0 NMat=1 NMatS=1 NMatT=0.
 FoFJK:  IHMeth= 8 ICntrl=10005127 DoSepK=F KAlg= 0 I1Cent=   0 FoldK=F
 IRaf=         0 NMat=   1 IRICut=       1 DoRegI=T DoRafI=F ISym2E= 0.
 FoFCou: FMM=F IPFlag=           0 FMFlag=      100000 FMFlg1=         800
         NFxFlg=           0 DoJE=F BraDBF=F KetDBF=F FulRan=T
         wScrn=  0.000000 ICntrl=10005127 IOpCl=  0 I1Cent=           0 NGrid=           0
         NMat0=    1 NMatS0=      1 NMatT0=    0 NMatD0=    1 NMtDS0=    0 NMtDT0=    0
 Symmetry not used in FoFCou.
 Leave Link  703 at Tue Dec 15 16:21:23 2015, MaxMem=    33554432 cpu:         0.0
 (Enter /home/Applications/g09/g09/l716.exe)
 Dipole        =-1.19933114D-01 1.05258168D-01 8.27227458D-02
 ***** Axes restored to original set *****
 -------------------------------------------------------------------
 Center     Atomic                   Forces (Hartrees/Bohr)
 Number     Number              X              Y              Z
 -------------------------------------------------------------------
      1        6          -0.027796265    0.097869753    0.004889548
      2        6           0.010827118   -0.133375679   -0.001272467
      3        8          -0.197968254   -0.067658608   -0.000534415
      4        6          -0.005005307    0.186941106    0.007196672
      5        6           0.137172640   -0.074198049   -0.011269949
      6        1           0.010698505    0.013269643    0.003288019
      7        1           0.002862643   -0.013044873   -0.002958689
      8        1           0.009996870    0.029870361   -0.001230028
      9        1           0.059212050   -0.039673655    0.001891310
 -------------------------------------------------------------------
 Cartesian Forces:  Max     0.197968254 RMS     0.071515517
 Z-matrix is all fixed cartesians, so copy forces.
 Force constants in Cartesian coordinates: 
                1             2             3             4             5 
      1  0.906726D+00
      2 -0.119983D+00  0.759847D+00
      3  0.273437D-01 -0.468605D-02  0.178054D+00
      4 -0.430864D+00 -0.774081D-01 -0.580979D-02  0.848704D+00
      5 -0.559125D-01 -0.190939D+00 -0.874841D-03 -0.543342D-01  0.866755D+00
      6  0.199608D-03  0.325258D-03 -0.853887D-01 -0.902231D-02  0.588531D-02
      7 -0.737895D-02  0.297223D-01  0.140463D-02 -0.303665D+00  0.188866D+00
      8 -0.514250D-02  0.207695D-01  0.371921D-03  0.236436D+00 -0.427848D+00
      9  0.154047D-03 -0.168028D-03  0.723155D-02  0.115560D-01 -0.113495D-01
     10  0.810358D-02  0.470361D-03  0.339970D-03  0.273698D-01  0.191504D-01
     11  0.342488D-01  0.195279D-02  0.253618D-02 -0.196530D-01 -0.137551D-01
     12  0.197392D-02  0.149005D-03 -0.839879D-03 -0.133280D-02 -0.984280D-03
     13 -0.154705D+00  0.214570D-01 -0.155306D-02  0.806242D-02 -0.324776D-01
     14  0.141007D-02 -0.338318D+00 -0.129454D-01  0.469279D-03 -0.190781D-02
     15 -0.137604D-02 -0.114752D-01 -0.667260D-01 -0.875590D-04 -0.498831D-03
     16  0.156777D-01  0.945173D-03 -0.480324D-03  0.000000D+00 -0.554495D-05
     17 -0.232558D-01 -0.144188D-02  0.198861D-02  0.000000D+00  0.173300D-05
     18 -0.226641D-02 -0.546861D-03  0.132093D-01 -0.341004D-05 -0.660475D-04
     19  0.128148D-04  0.114574D-04 -0.342639D-03  0.147263D-04 -0.443547D-05
     20  0.223839D-04  0.200130D-04 -0.598495D-03 -0.744273D-05  0.224170D-05
     21 -0.254173D-03 -0.227251D-03  0.679603D-02  0.237055D-03 -0.713995D-04
     22  0.599806D-02 -0.242546D-01  0.100488D-02 -0.144900D+00 -0.844314D-01
     23 -0.308476D-02  0.124467D-01  0.203060D-03 -0.794802D-01 -0.256655D+00
     24 -0.288965D-03  0.310463D-03  0.226248D-01  0.470703D-02  0.779899D-02
     25 -0.343570D+00  0.169040D+00 -0.219074D-01 -0.472052D-02  0.191491D-01
     26  0.171698D+00 -0.264337D+00  0.140050D-01 -0.602252D-02  0.243451D-01
     27 -0.254857D-01  0.163187D-01 -0.749611D-01 -0.244219D-03  0.160573D-03
                6             7             8             9            10 
      6  0.168300D+00
      7  0.953587D-02  0.645673D+00
      8 -0.115182D-01  0.728106D-01  0.932837D+00
      9 -0.530474D-01 -0.166658D-01  0.581996D-02  0.742095D-01
     10 -0.130542D-02 -0.371043D+00 -0.308431D+00  0.972840D-02  0.105577D+01
     11  0.106959D-02 -0.259292D+00 -0.533053D+00  0.750694D-02  0.953373D-01
     12  0.163055D-02  0.676941D-02  0.582756D-02 -0.606215D-01  0.165527D-02
     13 -0.138530D-02 -0.778093D-02  0.556750D-02 -0.108920D-02 -0.566279D+00
     14 -0.381464D-03 -0.325104D-01  0.232838D-01 -0.263968D-02  0.103835D+00
     15 -0.236731D-02  0.115593D-02 -0.527250D-03  0.119034D-01 -0.169094D-01
     16  0.177066D-03  0.000000D+00 -0.121311D-05 -0.414325D-04 -0.416235D-02
     17 -0.553396D-04 -0.207631D-04  0.270732D-04  0.924655D-03  0.595904D-02
     18  0.210908D-02 -0.199718D-03  0.260414D-03  0.889416D-02 -0.161477D-02
     19  0.465398D-03  0.226847D-01 -0.163031D-01 -0.219979D-02 -0.149777D+00
     20 -0.235213D-03  0.114855D-01 -0.825632D-02 -0.125855D-02  0.836743D-01
     21  0.749168D-02 -0.100023D-02  0.749267D-03  0.240681D-02  0.802158D-02
     22  0.372562D-02  0.215100D-01  0.150587D-01 -0.128941D-02  0.986479D-05
     23  0.569856D-02 -0.110610D-01 -0.774680D-02  0.764876D-03  0.000000D+00
     24 -0.605399D-01 -0.992578D-03 -0.796300D-03  0.326666D-02  0.188501D-03
     25 -0.239054D-02  0.000000D+00  0.497410D-05 -0.152862D-03  0.115450D-04
     26 -0.788458D-03  0.000000D+00 -0.129932D-04  0.399301D-03  0.393512D-05
     27  0.218118D-01 -0.756259D-05 -0.187330D-03  0.575694D-02 -0.104105D-03
               11            12            13            14            15 
     11  0.100794D+01
     12  0.368734D-02  0.214768D+00
     13  0.779868D-01 -0.180072D-01  0.989739D+00
     14 -0.216754D+00  0.310188D-02  0.220145D-01  0.716092D+00
     15  0.479435D-02 -0.115511D+00  0.680724D-03 -0.174373D-02  0.206131D+00
     16 -0.172112D-01  0.207274D-02 -0.293487D+00 -0.122197D+00  0.141732D-01
     17  0.249859D-01 -0.171251D-03 -0.121198D+00 -0.196537D+00  0.777070D-02
     18 -0.312094D-02  0.295959D-01  0.186755D-01  0.115475D-01 -0.827603D-01
     19  0.885758D-01  0.686560D-02  0.612850D-02  0.259158D-01  0.160005D-02
     20 -0.271320D+00 -0.115343D-01  0.308964D-02  0.128308D-01 -0.109142D-02
     21 -0.163236D-01 -0.777628D-01 -0.583322D-04  0.349361D-02  0.302678D-01
     22 -0.297121D-05  0.311758D-03  0.000000D+00  0.279516D-05 -0.892573D-04
     23  0.000000D+00  0.292802D-04  0.000000D+00 -0.592785D-05  0.189293D-03
     24 -0.567754D-04  0.595723D-02 -0.730902D-05 -0.141565D-03  0.452057D-02
     25  0.103222D-04 -0.308689D-03  0.183218D-01  0.106044D-02  0.852360D-03
     26  0.351831D-05 -0.105216D-03  0.235604D-01  0.131725D-02  0.258210D-02
     27 -0.930780D-04  0.278353D-02  0.274415D-02 -0.291180D-03  0.145419D-01
               16            17            18            19            20 
     16  0.281938D+00
     17  0.138463D+00  0.172857D+00
     18 -0.156337D-01 -0.929264D-02  0.449935D-01
     19 -0.286030D-05  0.638337D-04  0.614010D-03  0.120939D+00
     20 -0.499615D-05  0.111500D-03  0.107251D-02 -0.982594D-01  0.266612D+00
     21  0.567323D-04 -0.126610D-02 -0.121785D-01 -0.700263D-02  0.136455D-01
     22  0.000000D+00  0.000000D+00  0.000000D+00  0.000000D+00  0.000000D+00
     23  0.000000D+00  0.000000D+00  0.000000D+00  0.000000D+00  0.000000D+00
     24  0.000000D+00  0.000000D+00  0.000000D+00  0.000000D+00  0.000000D+00
     25  0.359678D-04 -0.112413D-04  0.428422D-03  0.000000D+00  0.000000D+00
     26  0.122596D-04 -0.383157D-05  0.146027D-03  0.000000D+00  0.000000D+00
     27 -0.324332D-03  0.101366D-03 -0.386321D-02  0.000000D+00  0.000000D+00
               21            22            23            24            25 
     21  0.429791D-01
     22  0.000000D+00  0.117387D+00
     23  0.000000D+00  0.936161D-01  0.251985D+00
     24  0.000000D+00 -0.382863D-02 -0.653506D-02  0.325293D-01
     25  0.000000D+00 -0.438225D-05  0.929367D-05  0.221945D-03  0.329926D+00
     26  0.000000D+00  0.114472D-04 -0.242766D-04 -0.579758D-03 -0.189263D+00
     27  0.000000D+00  0.165040D-03 -0.350009D-03 -0.835869D-02  0.232567D-01
               26            27 
     26  0.238713D+00
     27 -0.156590D-01  0.422888D-01
 Leave Link  716 at Tue Dec 15 16:21:23 2015, MaxMem=    33554432 cpu:         0.0
 (Enter /home/Applications/g09/g09/l103.exe)

 GradGradGradGradGradGradGradGradGradGradGradGradGradGradGradGradGradGrad
 Berny optimization.
 Search for a local minimum.
 Step number   1 out of a maximum of    2
 All quantities printed in internal units (Hartrees-Bohrs-Radians)
 Second derivative matrix not updated -- first step.
 ITU=  0
     Eigenvalues ---    0.01561   0.03392   0.06998   0.07405   0.07859
     Eigenvalues ---    0.09643   0.12717   0.13274   0.15804   0.25115
     Eigenvalues ---    0.27873   0.29454   0.38256   0.41822   0.61149
     Eigenvalues ---    0.87098   1.17788   1.27583   1.51170   1.57398
     Eigenvalues ---    1.92371
 Quadratic step=4.950D-01 exceeds max=3.000D-01 adjusted using Lamda=-2.418D-01.
 Angle between NR and scaled steps=  19.97 degrees.
 Angle between quadratic step and forces=  27.36 degrees.
 Linear search not attempted -- first point.
 TrRot= -0.016086 -0.002802 -0.000276 -1.489959 -0.000277  1.490097
 Variable       Old X    -DE/DX   Delta X   Delta X   Delta X     New X
                                 (Linear)    (Quad)   (Total)
    X1        1.88701  -0.02780   0.00000   0.01882   0.00292   1.88993
    Y1       -1.38365   0.09787   0.00000   0.05435   0.05179  -1.33186
    Z1       -0.06885   0.00489   0.00000   0.01305   0.01319  -0.05567
    X2       -0.68995   0.01083   0.00000  -0.01674  -0.03253  -0.72248
    Y2       -2.02192  -0.13338   0.00000  -0.08700  -0.08992  -2.11184
    Z2       -0.09301  -0.00127   0.00000   0.00173   0.00202  -0.09099
    X3       -2.13187  -0.19797   0.00000  -0.18140  -0.19748  -2.32936
    Y3        0.04334  -0.06766   0.00000  -0.03638  -0.03952   0.00382
    Z3       -0.02770  -0.00053   0.00000  -0.01003  -0.01036  -0.03806
    X4       -0.72768  -0.00501   0.00000  -0.00971  -0.02609  -0.75377
    Y4        2.00065   0.18694   0.00000   0.08991   0.08699   2.08764
    Z4       -0.05348   0.00720   0.00000   0.01762   0.01675  -0.03672
    X5        1.72083   0.13717   0.00000   0.12579   0.10952   1.83035
    Y5        1.41718  -0.07420   0.00000  -0.02930  -0.03185   1.38533
    Z5        0.01859  -0.01127   0.00000  -0.02028  -0.02090  -0.00231
    X6        3.38394   0.01070   0.00000   0.08532   0.06888   3.45281
    Y6        2.54906   0.01327   0.00000   0.02366   0.02131   2.57038
    Z6       -0.09134   0.00329   0.00000   0.00332   0.00241  -0.08892
    X7       -1.67699   0.00286   0.00000   0.00622  -0.01040  -1.68739
    Y7        3.88589  -0.01304   0.00000   0.02976   0.02674   3.91263
    Z7        0.06469  -0.00296   0.00000   0.00142   0.00003   0.06471
    X8       -1.66884   0.01000   0.00000   0.02193   0.00639  -1.66245
    Y8       -3.93097   0.02987   0.00000   0.00338   0.00034  -3.93063
    Z8       -0.03240  -0.00123   0.00000  -0.00347  -0.00270  -0.03510
    X9        3.36566   0.05921   0.00000   0.09454   0.07881   3.44446
    Y9       -2.54750  -0.03967   0.00000  -0.02358  -0.02590  -2.57339
    Z9        0.05113   0.00189   0.00000  -0.00095  -0.00044   0.05070
         Item               Value     Threshold  Converged?
 Maximum Force            0.197968     0.000450     NO 
 RMS     Force            0.071516     0.000300     NO 
 Maximum Displacement     0.197485     0.001800     NO 
 RMS     Displacement     0.056964     0.001200     NO 
 Predicted change in Energy=-6.039348D-02
 GradGradGradGradGradGradGradGradGradGradGradGradGradGradGradGradGradGrad

 Leave Link  103 at Tue Dec 15 16:21:23 2015, MaxMem=    33554432 cpu:         0.0
 (Enter /home/Applications/g09/g09/l9999.exe)
 1\1\GINC-DUSTIN-DESKTOP\Force\RAM1-FC\STO-3G\C4H4O1\DUSTIN\15-Dec-2015
 \0\\#P AM1(Input,print) CIS(Singlets,NStates=15) pop(full) force\\AM1-
 Reparam Input\\0,1\C,0.998562,-0.732196,-0.036436\C,-0.365105,-1.06995
 5,-0.049218\O,-1.128138,0.022932,-0.014658\C,-0.385074,1.058698,-0.028
 299\C,0.910625,0.74994,0.009836\H,1.790703,1.348906,-0.048334\H,-0.887
 424,2.056323,0.03423\H,-0.883111,-2.08018,-0.017144\H,1.781028,-1.3480
 77,0.027058\\Version=ES64L-G09RevD.01\State=1-A\HF=0.0441433\RMSD=2.70
 8e-09\RMSF=7.152e-02\Dipole=0.0637531,0.1452801,0.084472\PG=C01 [X(C4H
 4O1)]\\@


 IT TAKES GREATER CHARACTER TO CARRY OFF GOOD FORTUNE THAN BAD.
                     FRENCH PROVERB.
 Job cpu time:       0 days  0 hours  0 minutes  0.5 seconds.
 File lengths (MBytes):  RWF=      7 Int=      0 D2E=      0 Chk=      2 Scr=      1
 Normal termination of Gaussian 09 at Tue Dec 15 16:21:23 2015.
