 Entering Gaussian System, Link 0=g09
 Input=FuranAM1Best6.com
 Output=FuranAM1Best6.log
 Initial command:
 /home/Applications/g09/g09/l1.exe "/home/Applications/g09/scratch/Gau-23893.inp" -scrdir="/home/Applications/g09/scratch/"
 Entering Link 1 = /home/Applications/g09/g09/l1.exe PID=     23895.
  
 Copyright (c) 1988,1990,1992,1993,1995,1998,2003,2009,2013,
            Gaussian, Inc.  All Rights Reserved.
  
 This is part of the Gaussian(R) 09 program.  It is based on
 the Gaussian(R) 03 system (copyright 2003, Gaussian, Inc.),
 the Gaussian(R) 98 system (copyright 1998, Gaussian, Inc.),
 the Gaussian(R) 94 system (copyright 1995, Gaussian, Inc.),
 the Gaussian 92(TM) system (copyright 1992, Gaussian, Inc.),
 the Gaussian 90(TM) system (copyright 1990, Gaussian, Inc.),
 the Gaussian 88(TM) system (copyright 1988, Gaussian, Inc.),
 the Gaussian 86(TM) system (copyright 1986, Carnegie Mellon
 University), and the Gaussian 82(TM) system (copyright 1983,
 Carnegie Mellon University). Gaussian is a federally registered
 trademark of Gaussian, Inc.
  
 This software contains proprietary and confidential information,
 including trade secrets, belonging to Gaussian, Inc.
  
 This software is provided under written license and may be
 used, copied, transmitted, or stored only in accord with that
 written license.
  
 The following legend is applicable only to US Government
 contracts under FAR:
  
                    RESTRICTED RIGHTS LEGEND
  
 Use, reproduction and disclosure by the US Government is
 subject to restrictions as set forth in subparagraphs (a)
 and (c) of the Commercial Computer Software - Restricted
 Rights clause in FAR 52.227-19.
  
 Gaussian, Inc.
 340 Quinnipiac St., Bldg. 40, Wallingford CT 06492
  
  
 ---------------------------------------------------------------
 Warning -- This program may not be used in any manner that
 competes with the business of Gaussian, Inc. or will provide
 assistance to any competitor of Gaussian, Inc.  The licensee
 of this program is prohibited from giving any competitor of
 Gaussian, Inc. access to this program.  By using this program,
 the user acknowledges that Gaussian, Inc. is engaged in the
 business of creating and licensing software in the field of
 computational chemistry and represents and warrants to the
 licensee that it is not a competitor of Gaussian, Inc. and that
 it will not use this program in any manner prohibited above.
 ---------------------------------------------------------------
  

 Cite this work as:
 Gaussian 09, Revision D.01,
 M. J. Frisch, G. W. Trucks, H. B. Schlegel, G. E. Scuseria, 
 M. A. Robb, J. R. Cheeseman, G. Scalmani, V. Barone, B. Mennucci, 
 G. A. Petersson, H. Nakatsuji, M. Caricato, X. Li, H. P. Hratchian, 
 A. F. Izmaylov, J. Bloino, G. Zheng, J. L. Sonnenberg, M. Hada, 
 M. Ehara, K. Toyota, R. Fukuda, J. Hasegawa, M. Ishida, T. Nakajima, 
 Y. Honda, O. Kitao, H. Nakai, T. Vreven, J. A. Montgomery, Jr., 
 J. E. Peralta, F. Ogliaro, M. Bearpark, J. J. Heyd, E. Brothers, 
 K. N. Kudin, V. N. Staroverov, T. Keith, R. Kobayashi, J. Normand, 
 K. Raghavachari, A. Rendell, J. C. Burant, S. S. Iyengar, J. Tomasi, 
 M. Cossi, N. Rega, J. M. Millam, M. Klene, J. E. Knox, J. B. Cross, 
 V. Bakken, C. Adamo, J. Jaramillo, R. Gomperts, R. E. Stratmann, 
 O. Yazyev, A. J. Austin, R. Cammi, C. Pomelli, J. W. Ochterski, 
 R. L. Martin, K. Morokuma, V. G. Zakrzewski, G. A. Voth, 
 P. Salvador, J. J. Dannenberg, S. Dapprich, A. D. Daniels, 
 O. Farkas, J. B. Foresman, J. V. Ortiz, J. Cioslowski, 
 and D. J. Fox, Gaussian, Inc., Wallingford CT, 2013.
 
 ******************************************
 Gaussian 09:  ES64L-G09RevD.01 24-Apr-2013
                 1-Dec-2015 
 ******************************************
 ----------------------------
 #P AM1(Input,print) Opt Freq
 ----------------------------
 1/14=-1,18=20,19=15,26=1,38=1/1,3;
 2/9=110,12=2,17=6,18=5,40=1/2;
 3/5=2,16=1,25=1,41=700000,71=1,135=100,136=1/1,2,3;
 4/35=1/1;
 5/5=2,35=1,38=5/2;
 6/7=2,8=2,9=2,10=2,28=1/1;
 7//1,2,3,16;
 1/14=-1,18=20,19=15,26=1/3(2);
 2/9=110/2;
 99//99;
 2/9=110/2;
 3/5=2,16=1,25=1,41=700000,71=1,135=20,136=1/1,2,3;
 4/5=5,16=3,35=1/1;
 5/5=2,35=1,38=5/2;
 7//1,2,3,16;
 1/14=-1,18=20,19=15,26=1/3(-5);
 2/9=110/2;
 6/7=2,8=2,9=2,10=2,19=2,28=1/1;
 99/9=1/99;
 Leave Link    1 at Tue Dec  1 17:37:53 2015, MaxMem=           0 cpu:         0.0
 (Enter /home/Applications/g09/g09/l101.exe)
 -----------------
 AM1-Reparam Input
 -----------------
 Symbolic Z-matrix:
 Charge =  0 Multiplicity = 1
 6                     0.96247  -0.70301   0.03983 
 6                    -0.33961  -1.11118  -0.0301 
 8                    -1.16758   0.03316  -0.03032 
 6                    -0.33414   1.04621   0.02157 
 6                     0.9644    0.67292  -0.01845 
 1                     1.78116   1.35345  -0.02061 
 1                    -0.87782   2.01505   0.03369 
 1                    -0.83381  -2.06053   0.0013 
 1                     1.81377  -1.35929  -0.00423 
 
 NAtoms=      9 NQM=        9 NQMF=       0 NMMI=      0 NMMIF=      0
                NMic=       0 NMicF=      0.
                    Isotopes and Nuclear Properties:
 (Nuclear quadrupole moments (NQMom) in fm**2, nuclear magnetic moments (NMagM)
  in nuclear magnetons)

  Atom         1           2           3           4           5           6           7           8           9
 IAtWgt=          12          12          16          12          12           1           1           1           1
 AtmWgt=  12.0000000  12.0000000  15.9949146  12.0000000  12.0000000   1.0078250   1.0078250   1.0078250   1.0078250
 NucSpn=           0           0           0           0           0           1           1           1           1
 AtZEff=   0.0000000   0.0000000   0.0000000   0.0000000   0.0000000   0.0000000   0.0000000   0.0000000   0.0000000
 NQMom=    0.0000000   0.0000000   0.0000000   0.0000000   0.0000000   0.0000000   0.0000000   0.0000000   0.0000000
 NMagM=    0.0000000   0.0000000   0.0000000   0.0000000   0.0000000   2.7928460   2.7928460   2.7928460   2.7928460
 AtZNuc=   6.0000000   6.0000000   8.0000000   6.0000000   6.0000000   1.0000000   1.0000000   1.0000000   1.0000000
 Leave Link  101 at Tue Dec  1 17:37:53 2015, MaxMem=    33554432 cpu:         0.0
 (Enter /home/Applications/g09/g09/l103.exe)

 GradGradGradGradGradGradGradGradGradGradGradGradGradGradGradGradGradGrad
 Berny optimization.
 Initialization pass.
                           ----------------------------
                           !    Initial Parameters    !
                           ! (Angstroms and Degrees)  !
 --------------------------                            --------------------------
 ! Name  Definition              Value          Derivative Info.                !
 --------------------------------------------------------------------------------
 ! R1    R(1,2)                  1.3664         estimate D2E/DX2                !
 ! R2    R(1,5)                  1.3772         estimate D2E/DX2                !
 ! R3    R(1,9)                  1.0758         estimate D2E/DX2                !
 ! R4    R(2,3)                  1.4125         estimate D2E/DX2                !
 ! R5    R(2,8)                  1.0707         estimate D2E/DX2                !
 ! R6    R(3,4)                  1.3129         estimate D2E/DX2                !
 ! R7    R(4,5)                  1.3517         estimate D2E/DX2                !
 ! R8    R(4,7)                  1.111          estimate D2E/DX2                !
 ! R9    R(5,6)                  1.0631         estimate D2E/DX2                !
 ! A1    A(2,1,5)              107.3152         estimate D2E/DX2                !
 ! A2    A(2,1,9)              124.734          estimate D2E/DX2                !
 ! A3    A(5,1,9)              127.3474         estimate D2E/DX2                !
 ! A4    A(1,2,3)              108.4574         estimate D2E/DX2                !
 ! A5    A(1,2,8)              134.6842         estimate D2E/DX2                !
 ! A6    A(3,2,8)              116.6014         estimate D2E/DX2                !
 ! A7    A(2,3,4)              104.6571         estimate D2E/DX2                !
 ! A8    A(3,4,5)              113.3026         estimate D2E/DX2                !
 ! A9    A(3,4,7)              111.2639         estimate D2E/DX2                !
 ! A10   A(5,4,7)              135.3355         estimate D2E/DX2                !
 ! A11   A(1,5,4)              105.8615         estimate D2E/DX2                !
 ! A12   A(1,5,6)              129.845          estimate D2E/DX2                !
 ! A13   A(4,5,6)              124.1475         estimate D2E/DX2                !
 ! D1    D(5,1,2,3)             -4.4309         estimate D2E/DX2                !
 ! D2    D(5,1,2,8)           -178.1832         estimate D2E/DX2                !
 ! D3    D(9,1,2,3)           -176.0701         estimate D2E/DX2                !
 ! D4    D(9,1,2,8)             10.1776         estimate D2E/DX2                !
 ! D5    D(2,1,5,4)              6.2885         estimate D2E/DX2                !
 ! D6    D(2,1,5,6)           -178.0398         estimate D2E/DX2                !
 ! D7    D(9,1,5,4)            177.6434         estimate D2E/DX2                !
 ! D8    D(9,1,5,6)             -6.6849         estimate D2E/DX2                !
 ! D9    D(1,2,3,4)              0.7462         estimate D2E/DX2                !
 ! D10   D(8,2,3,4)            175.7819         estimate D2E/DX2                !
 ! D11   D(2,3,4,5)              3.4273         estimate D2E/DX2                !
 ! D12   D(2,3,4,7)           -179.6085         estimate D2E/DX2                !
 ! D13   D(3,4,5,1)             -6.2041         estimate D2E/DX2                !
 ! D14   D(3,4,5,6)            177.8108         estimate D2E/DX2                !
 ! D15   D(7,4,5,1)            177.822          estimate D2E/DX2                !
 ! D16   D(7,4,5,6)              1.8369         estimate D2E/DX2                !
 --------------------------------------------------------------------------------
 Trust Radius=3.00D-01 FncErr=1.00D-07 GrdErr=1.00D-07
 Number of steps in this run=     48 maximum allowed number of steps=    100.
 GradGradGradGradGradGradGradGradGradGradGradGradGradGradGradGradGradGrad

 Leave Link  103 at Tue Dec  1 17:37:53 2015, MaxMem=    33554432 cpu:         0.0
 (Enter /home/Applications/g09/g09/l202.exe)
                          Input orientation:                          
 ---------------------------------------------------------------------
 Center     Atomic      Atomic             Coordinates (Angstroms)
 Number     Number       Type             X           Y           Z
 ---------------------------------------------------------------------
      1          6           0        0.962474   -0.703012    0.039828
      2          6           0       -0.339614   -1.111181   -0.030097
      3          8           0       -1.167576    0.033159   -0.030319
      4          6           0       -0.334141    1.046211    0.021565
      5          6           0        0.964401    0.672922   -0.018448
      6          1           0        1.781155    1.353447   -0.020613
      7          1           0       -0.877823    2.015049    0.033688
      8          1           0       -0.833807   -2.060527    0.001297
      9          1           0        1.813771   -1.359285   -0.004227
 ---------------------------------------------------------------------
                    Distance matrix (angstroms):
                    1          2          3          4          5
     1  C    0.000000
     2  C    1.366354   0.000000
     3  O    2.254769   1.412457   0.000000
     4  C    2.177458   2.158017   1.312852   0.000000
     5  C    1.377169   2.209890   2.225930   1.351724   0.000000
     6  H    2.214253   3.251483   3.230831   2.137908   1.063111
     7  H    3.282467   3.172862   2.003981   1.111028   2.279871
     8  H    2.251879   1.070733   2.120359   3.146728   3.271954
     9  H    1.075798   2.167785   3.290594   3.224996   2.202611
                    6          7          8          9
     6  H    0.000000
     7  H    2.740589   0.000000
     8  H    4.300433   4.075942   0.000000
     9  H    2.712978   4.316509   2.738876   0.000000
 Stoichiometry    C4H4O
 Framework group  C1[X(C4H4O)]
 Deg. of freedom    21
 Full point group                 C1      NOp   1
 Largest Abelian subgroup         C1      NOp   1
 Largest concise Abelian subgroup C1      NOp   1
                         Standard orientation:                         
 ---------------------------------------------------------------------
 Center     Atomic      Atomic             Coordinates (Angstroms)
 Number     Number       Type             X           Y           Z
 ---------------------------------------------------------------------
      1          6           0        1.116661    0.396464    0.036240
      2          6           0        0.711596   -0.907366   -0.017365
      3          8           0       -0.700534   -0.937460   -0.013056
      4          6           0       -1.059589    0.324757    0.025251
      5          6           0       -0.014118    1.179939   -0.027782
      6          1           0       -0.109318    2.238685   -0.041948
      7          1           0       -2.165645    0.428789    0.039443
      8          1           0        1.211446   -1.853383    0.023527
      9          1           0        2.140498    0.722825   -0.014636
 ---------------------------------------------------------------------
 Rotational constants (GHZ):      9.8523925      9.1954036      4.7601095
 Leave Link  202 at Tue Dec  1 17:37:53 2015, MaxMem=    33554432 cpu:         0.0
 (Enter /home/Applications/g09/g09/l301.exe)

 Semi-emprical parameters in input format:
 Method=8 CoreType=1 PeptideFC=0.0120930000 RIJScale=0.5388840000
 ****
 H       
 PQN=1 NValence=1 F0ss=0.5586300000 ZetaOverlap=1.0950750000 U=-0.4119510000
 Beta=-0.2338190000 CoreKO=1.1007910000 KON=0,0,0,0.9764370000 KON=1,0,1,1.1361190000
 KON=0,1,1,1.0139660000 KON=2,1,1,1.2635130000 EISol=-0.4188110042 EHeat=0.0830298228
 Alpha=1.4078420000
 GCore=0.0080140000,1.2229470000,2.2663690000
 GCore=0.0002960000,1.5853770000,2.7382840000
 GCore=-0.0012210000,0.6561060000,3.9519220000
 ****
 C       
 PQN=2,2 NValence=4 F0ss=0.4805700000 F0sp=0.4819370000 F0pp=0.3439950000 F2pp=0.1961420000
 G1sp=0.2678900000
 ZetaOverlap=1.8366850000,1.4875730000
 U=-1.4842670000,-1.3886060000
 Beta=-0.6376780000,-0.3536670000 DDN=0,1,0.9094820000 DDN=1,1,0.8346670000
 CoreKO=1.1045690000 KON=0,0,0,1.0182330000 KON=1,0,1,0.7342900000 KON=0,1,1,1.1944780000
 KON=2,1,1,0.7056720000 EISol=-4.4398989268 EHeat=0.2723305520 Alpha=1.4025920000
 DipHyp=1.8188593534
 GCore=0.0007870000,1.5590290000,2.8992300000
 GCore=0.0031100000,1.3744800000,3.7653660000
 GCore=-0.0013700000,1.3772400000,4.0631190000
 GCore=-0.0000820000,1.5210550000,5.3709760000
 ****
 O       
 PQN=2,2 NValence=6 F0ss=0.7455940000 F0sp=0.5814220000 F0pp=0.4393740000 F2pp=0.2294290000
 G1sp=0.3535640000
 ZetaOverlap=2.7714830000,2.5744810000
 U=-3.8069400000,-2.7329690000
 Beta=-1.1272460000,-1.1587550000 DDN=0,1,0.5172290000 DDN=1,1,0.4110560000
 CoreKO=0.8743200000 KON=0,0,0,0.8886000000 KON=1,0,1,0.5063100000 KON=0,1,1,0.8996480000
 KON=2,1,1,0.5582300000 EISol=-11.6164441184 EHeat=0.0949133088 Alpha=2.3820330000
 DipHyp=1.0343984867
 GCore=0.0192970000,1.5130470000,1.5620930000
 GCore=0.0058890000,1.6294880000,2.3818730000
 ****
 
 Standard basis: VSTO-6G (5D, 7F)
 Ernie: Thresh=  0.10000D-02 Tol=  0.10000D-05 Strict=F.
  NNHCO=     0 NNPyr=     0 NCTC=     0               EPep=         0.000000000
    EC=        69.064690630  ECS=         1.936189911   EG=         0.341925387
   EHC=         0.000000000  EAt=       -31.051283842  AtH=         1.516354808
 EPDDG=         0.000000000  ECC=        71.342805929 EAtT=        32.567638650
 There are    24 symmetry adapted cartesian basis functions of A   symmetry.
 There are    24 symmetry adapted basis functions of A   symmetry.
    24 basis functions,   144 primitive gaussians,    24 cartesian basis functions
    13 alpha electrons       13 beta electrons
       nuclear repulsion energy       103.9104445795 Hartrees.
 IExCor=    0 DFT=F Ex=HF Corr=None ExCW=0 ScaHFX=  1.000000
 ScaDFX=  1.000000  1.000000  1.000000  1.000000 ScalE2=  1.000000  1.000000
 IRadAn=      0 IRanWt=     -1 IRanGd=            0 ICorTp=0 IEmpDi=  4
 Integral buffers will be    131072 words long.
 Regular integral format.
 Two-electron integral symmetry is turned off.
 Leave Link  301 at Tue Dec  1 17:37:53 2015, MaxMem=    33554432 cpu:         0.0
 (Enter /home/Applications/g09/g09/l302.exe)
 Do NDO integrals.
 NPDir=0 NMtPBC=     1 NCelOv=     1 NCel=       1 NClECP=     1 NCelD=      1
         NCelK=      1 NCelE2=     1 NClLst=     1 CellRange=     0.0.
 One-electron integrals computed using PRISM.
 NBasis=    24 RedAO= F EigKep=  0.00D+00  NBF=    24
 NBsUse=    24 1.00D-04 EigRej=  0.00D+00 NBFU=    24
 Leave Link  302 at Tue Dec  1 17:37:53 2015, MaxMem=    33554432 cpu:         0.0
 (Enter /home/Applications/g09/g09/l303.exe)
 DipDrv:  MaxL=1.
 Leave Link  303 at Tue Dec  1 17:37:53 2015, MaxMem=    33554432 cpu:         0.0
 (Enter /home/Applications/g09/g09/l401.exe)
 Simple Huckel Guess.
 JPrj=0 DoOrth=F DoCkMO=F.
 Leave Link  401 at Tue Dec  1 17:37:53 2015, MaxMem=    33554432 cpu:         0.0
 (Enter /home/Applications/g09/g09/l502.exe)
 Closed shell SCF:
 Using DIIS extrapolation, IDIIS=  1040.
 Overlap will be assumed to be unity.
 Two-electron integral symmetry not used.
 Keep J ints in memory in canonical form, NReq=888082.
 IVT=       79475 IEndB=       79475 NGot=    33554432 MDV=    33473473
 LenX=    33473473 LenY=    33472456
 Requested convergence on RMS density matrix=1.00D-08 within 128 cycles.
 Requested convergence on MAX density matrix=1.00D-06.
 Requested convergence on             energy=1.00D-06.
 No special actions if energy rises.
 FoFCou: FMM=F IPFlag=           0 FMFlag=           0 FMFlg1=           0
         NFxFlg=           0 DoJE=F BraDBF=F KetDBF=F FulRan=T
         wScrn=  0.000000 ICntrl=     600 IOpCl=  2 I1Cent=           0 NGrid=           0
         NMat0=    1 NMatS0=     54 NMatT0=    0 NMatD0=    1 NMtDS0=    0 NMtDT0=    0
 Symmetry not used in FoFCou.

 Cycle   1  Pass 1  IDiag  1:
 E=  2.11410480993109    
 DIIS: error= 6.47D-02 at cycle   1 NSaved=   1.
 NSaved= 1 IEnMin= 1 EnMin=  2.11410480993109     IErMin= 1 ErrMin= 6.47D-02
 ErrMax= 6.47D-02  0.00D+00 EMaxC= 1.00D-01 BMatC= 1.67D-01 BMatP= 1.67D-01
 IDIUse=3 WtCom= 3.53D-01 WtEn= 6.47D-01
 Coeff-Com:  0.100D+01
 Coeff-En:   0.100D+01
 Coeff:      0.100D+01
 GapD=    2.000 DampG=2.000 DampE=0.500 DampFc=1.0000 IDamp=-1.
 RMSDP=1.79D-02 MaxDP=1.25D-01              OVMax= 0.00D+00

 Cycle   2  Pass 1  IDiag  1:
 E=  1.80836568420563     Delta-E=       -0.305739125725 Rises=F Damp=F
 DIIS: error= 1.60D-02 at cycle   2 NSaved=   2.
 NSaved= 2 IEnMin= 2 EnMin=  1.80836568420563     IErMin= 2 ErrMin= 1.60D-02
 ErrMax= 1.60D-02  0.00D+00 EMaxC= 1.00D-01 BMatC= 1.18D-02 BMatP= 1.67D-01
 IDIUse=3 WtCom= 8.40D-01 WtEn= 1.60D-01
 Coeff-Com: -0.312D+00 0.131D+01
 Coeff-En:   0.000D+00 0.100D+01
 Coeff:     -0.262D+00 0.126D+01
 RMSDP=6.83D-03 MaxDP=3.72D-02 DE=-3.06D-01 OVMax= 0.00D+00

 Cycle   3  Pass 1  IDiag  3:
 E=  1.78023797306534     Delta-E=       -0.028127711140 Rises=F Damp=F
 DIIS: error= 3.76D-03 at cycle   3 NSaved=   3.
 NSaved= 3 IEnMin= 3 EnMin=  1.78023797306534     IErMin= 3 ErrMin= 3.76D-03
 ErrMax= 3.76D-03  0.00D+00 EMaxC= 1.00D-01 BMatC= 4.44D-04 BMatP= 1.18D-02
 IDIUse=3 WtCom= 9.62D-01 WtEn= 3.76D-02
 Coeff-Com:  0.745D-01-0.453D+00 0.138D+01
 Coeff-En:   0.000D+00 0.000D+00 0.100D+01
 Coeff:      0.717D-01-0.436D+00 0.136D+01
 Gap=     0.413 Goal=   None    Shift=    0.000
 RMSDP=2.00D-03 MaxDP=1.13D-02 DE=-2.81D-02 OVMax= 1.48D-02

 Cycle   4  Pass 1  IDiag  3:
 E=  1.77854352733927     Delta-E=       -0.001694445726 Rises=F Damp=F
 DIIS: error= 1.22D-03 at cycle   4 NSaved=   4.
 NSaved= 4 IEnMin= 4 EnMin=  1.77854352733927     IErMin= 4 ErrMin= 1.22D-03
 ErrMax= 1.22D-03  0.00D+00 EMaxC= 1.00D-01 BMatC= 3.23D-05 BMatP= 4.44D-04
 IDIUse=3 WtCom= 9.88D-01 WtEn= 1.22D-02
 Coeff-Com: -0.772D-02 0.804D-01-0.498D+00 0.143D+01
 Coeff-En:   0.000D+00 0.000D+00 0.000D+00 0.100D+01
 Coeff:     -0.762D-02 0.794D-01-0.492D+00 0.142D+01
 Gap=     0.413 Goal=   None    Shift=    0.000
 RMSDP=7.16D-04 MaxDP=4.91D-03 DE=-1.69D-03 OVMax= 6.76D-03

 Cycle   5  Pass 1  IDiag  3:
 E=  1.77838076010296     Delta-E=       -0.000162767236 Rises=F Damp=F
 DIIS: error= 2.81D-04 at cycle   5 NSaved=   5.
 NSaved= 5 IEnMin= 5 EnMin=  1.77838076010296     IErMin= 5 ErrMin= 2.81D-04
 ErrMax= 2.81D-04  0.00D+00 EMaxC= 1.00D-01 BMatC= 2.08D-06 BMatP= 3.23D-05
 IDIUse=3 WtCom= 9.97D-01 WtEn= 2.81D-03
 Coeff-Com: -0.160D-02 0.353D-04 0.700D-01-0.481D+00 0.141D+01
 Coeff-En:   0.000D+00 0.000D+00 0.000D+00 0.000D+00 0.100D+01
 Coeff:     -0.160D-02 0.352D-04 0.698D-01-0.479D+00 0.141D+01
 Gap=     0.413 Goal=   None    Shift=    0.000
 RMSDP=2.18D-04 MaxDP=1.51D-03 DE=-1.63D-04 OVMax= 2.16D-03

 Cycle   6  Pass 1  IDiag  3:
 E=  1.77836910505661     Delta-E=       -0.000011655046 Rises=F Damp=F
 DIIS: error= 5.00D-05 at cycle   6 NSaved=   6.
 NSaved= 6 IEnMin= 6 EnMin=  1.77836910505661     IErMin= 6 ErrMin= 5.00D-05
 ErrMax= 5.00D-05  0.00D+00 EMaxC= 1.00D-01 BMatC= 1.04D-07 BMatP= 2.08D-06
 IDIUse=1 WtCom= 1.00D+00 WtEn= 0.00D+00
 Coeff-Com:  0.168D-02-0.716D-02 0.298D-02 0.127D+00-0.619D+00 0.149D+01
 Coeff:      0.168D-02-0.716D-02 0.298D-02 0.127D+00-0.619D+00 0.149D+01
 Gap=     0.413 Goal=   None    Shift=    0.000
 RMSDP=4.71D-05 MaxDP=2.65D-04 DE=-1.17D-05 OVMax= 4.63D-04

 Cycle   7  Pass 1  IDiag  3:
 E=  1.77836857852222     Delta-E=       -0.000000526534 Rises=F Damp=F
 DIIS: error= 1.00D-05 at cycle   7 NSaved=   7.
 NSaved= 7 IEnMin= 7 EnMin=  1.77836857852222     IErMin= 7 ErrMin= 1.00D-05
 ErrMax= 1.00D-05  0.00D+00 EMaxC= 1.00D-01 BMatC= 3.31D-09 BMatP= 1.04D-07
 IDIUse=1 WtCom= 1.00D+00 WtEn= 0.00D+00
 Coeff-Com: -0.247D-03 0.126D-02-0.209D-02-0.134D-01 0.934D-01-0.371D+00
 Coeff-Com:  0.129D+01
 Coeff:     -0.247D-03 0.126D-02-0.209D-02-0.134D-01 0.934D-01-0.371D+00
 Coeff:      0.129D+01
 Gap=     0.413 Goal=   None    Shift=    0.000
 RMSDP=7.16D-06 MaxDP=4.50D-05 DE=-5.27D-07 OVMax= 7.99D-05

 Cycle   8  Pass 1  IDiag  3:
 E=  1.77836856474890     Delta-E=       -0.000000013773 Rises=F Damp=F
 DIIS: error= 1.21D-06 at cycle   8 NSaved=   8.
 NSaved= 8 IEnMin= 8 EnMin=  1.77836856474890     IErMin= 8 ErrMin= 1.21D-06
 ErrMax= 1.21D-06  0.00D+00 EMaxC= 1.00D-01 BMatC= 1.08D-10 BMatP= 3.31D-09
 IDIUse=1 WtCom= 1.00D+00 WtEn= 0.00D+00
 Coeff-Com:  0.249D-04-0.226D-03 0.109D-02-0.262D-02-0.322D-03 0.421D-01
 Coeff-Com: -0.307D+00 0.127D+01
 Coeff:      0.249D-04-0.226D-03 0.109D-02-0.262D-02-0.322D-03 0.421D-01
 Coeff:     -0.307D+00 0.127D+01
 Gap=     0.413 Goal=   None    Shift=    0.000
 RMSDP=1.15D-06 MaxDP=8.93D-06 DE=-1.38D-08 OVMax= 1.19D-05

 Cycle   9  Pass 1  IDiag  3:
 E=  1.77836856430172     Delta-E=       -0.000000000447 Rises=F Damp=F
 DIIS: error= 4.21D-07 at cycle   9 NSaved=   9.
 NSaved= 9 IEnMin= 9 EnMin=  1.77836856430172     IErMin= 9 ErrMin= 4.21D-07
 ErrMax= 4.21D-07  0.00D+00 EMaxC= 1.00D-01 BMatC= 6.81D-12 BMatP= 1.08D-10
 IDIUse=1 WtCom= 1.00D+00 WtEn= 0.00D+00
 Coeff-Com: -0.331D-05 0.489D-04-0.300D-03 0.106D-02-0.142D-02-0.101D-01
 Coeff-Com:  0.105D+00-0.632D+00 0.154D+01
 Coeff:     -0.331D-05 0.489D-04-0.300D-03 0.106D-02-0.142D-02-0.101D-01
 Coeff:      0.105D+00-0.632D+00 0.154D+01
 Gap=     0.413 Goal=   None    Shift=    0.000
 RMSDP=4.11D-07 MaxDP=3.71D-06 DE=-4.47D-10 OVMax= 5.02D-06

 Cycle  10  Pass 1  IDiag  3:
 E=  1.77836856426357     Delta-E=       -0.000000000038 Rises=F Damp=F
 DIIS: error= 9.03D-08 at cycle  10 NSaved=  10.
 NSaved=10 IEnMin=10 EnMin=  1.77836856426357     IErMin=10 ErrMin= 9.03D-08
 ErrMax= 9.03D-08  0.00D+00 EMaxC= 1.00D-01 BMatC= 2.06D-13 BMatP= 6.81D-12
 IDIUse=1 WtCom= 1.00D+00 WtEn= 0.00D+00
 Coeff-Com:  0.118D-05-0.178D-04 0.108D-03-0.369D-03 0.453D-03 0.359D-02
 Coeff-Com: -0.363D-01 0.228D+00-0.664D+00 0.147D+01
 Coeff:      0.118D-05-0.178D-04 0.108D-03-0.369D-03 0.453D-03 0.359D-02
 Coeff:     -0.363D-01 0.228D+00-0.664D+00 0.147D+01
 Gap=     0.413 Goal=   None    Shift=    0.000
 RMSDP=7.81D-08 MaxDP=6.76D-07 DE=-3.81D-11 OVMax= 9.57D-07

 Cycle  11  Pass 1  IDiag  3:
 E=  1.77836856426247     Delta-E=       -0.000000000001 Rises=F Damp=F
 DIIS: error= 1.24D-08 at cycle  11 NSaved=  11.
 NSaved=11 IEnMin=11 EnMin=  1.77836856426247     IErMin=11 ErrMin= 1.24D-08
 ErrMax= 1.24D-08  0.00D+00 EMaxC= 1.00D-01 BMatC= 6.57D-15 BMatP= 2.06D-13
 IDIUse=1 WtCom= 1.00D+00 WtEn= 0.00D+00
 Coeff-Com: -0.609D-06 0.826D-05-0.482D-04 0.162D-03-0.200D-03-0.152D-02
 Coeff-Com:  0.154D-01-0.977D-01 0.290D+00-0.729D+00 0.152D+01
 Coeff:     -0.609D-06 0.826D-05-0.482D-04 0.162D-03-0.200D-03-0.152D-02
 Coeff:      0.154D-01-0.977D-01 0.290D+00-0.729D+00 0.152D+01
 Gap=     0.413 Goal=   None    Shift=    0.000
 RMSDP=1.30D-08 MaxDP=1.00D-07 DE=-1.11D-12 OVMax= 1.18D-07

 Cycle  12  Pass 1  IDiag  3:
 E=  1.77836856426251     Delta-E=        0.000000000000 Rises=F Damp=F
 DIIS: error= 3.09D-09 at cycle  12 NSaved=  12.
 NSaved=12 IEnMin=11 EnMin=  1.77836856426247     IErMin=12 ErrMin= 3.09D-09
 ErrMax= 3.09D-09  0.00D+00 EMaxC= 1.00D-01 BMatC= 2.53D-16 BMatP= 6.57D-15
 IDIUse=1 WtCom= 1.00D+00 WtEn= 0.00D+00
 Coeff-Com:  0.272D-06-0.327D-05 0.180D-04-0.562D-04 0.563D-04 0.602D-03
 Coeff-Com: -0.575D-02 0.362D-01-0.107D+00 0.273D+00-0.676D+00 0.148D+01
 Coeff:      0.272D-06-0.327D-05 0.180D-04-0.562D-04 0.563D-04 0.602D-03
 Coeff:     -0.575D-02 0.362D-01-0.107D+00 0.273D+00-0.676D+00 0.148D+01
 Gap=     0.413 Goal=   None    Shift=    0.000
 RMSDP=2.48D-09 MaxDP=2.29D-08 DE= 4.26D-14 OVMax= 2.69D-08

 Cycle  13  Pass 2  IDiag  1:
 SCF Done:  E(RAM1) =   1.77836856426     A.U. after   13 cycles
            NFock= 12  Conv=0.25D-08     -V/T= 1.1364
 KE=-1.303904513486D+01 PE=-1.717619523025D+02 EE= 8.266892142211D+01
 Leave Link  502 at Tue Dec  1 17:37:53 2015, MaxMem=    33554432 cpu:         0.0
 (Enter /home/Applications/g09/g09/l601.exe)
 Copying SCF densities to generalized density rwf, IOpCl= 0 IROHF=0.

 **********************************************************************

            Population analysis using the SCF density.

 **********************************************************************

 Orbital symmetries:
       Occupied  (A) (A) (A) (A) (A) (A) (A) (A) (A) (A) (A) (A)
                 (A)
       Virtual   (A) (A) (A) (A) (A) (A) (A) (A) (A) (A) (A)
 The electronic state is 1-A.
 Alpha  occ. eigenvalues --   -1.55402  -1.11417  -0.90089  -0.86317  -0.79188
 Alpha  occ. eigenvalues --   -0.72047  -0.70472  -0.57700  -0.57174  -0.53914
 Alpha  occ. eigenvalues --   -0.51823  -0.48137  -0.39477
 Alpha virt. eigenvalues --    0.01838   0.06938   0.12627   0.14551   0.19687
 Alpha virt. eigenvalues --    0.20258   0.20773   0.40055   0.48543   0.58503
 Alpha virt. eigenvalues --    0.68446
          Condensed to atoms (all electrons):
               1          2          3          4          5          6
     1  C    4.053713   0.000000   0.000000   0.000000   0.000000   0.000000
     2  C    0.000000   3.673114   0.000000   0.000000   0.000000   0.000000
     3  O    0.000000   0.000000   6.261538   0.000000   0.000000   0.000000
     4  C    0.000000   0.000000   0.000000   3.635924   0.000000   0.000000
     5  C    0.000000   0.000000   0.000000   0.000000   4.113795   0.000000
     6  H    0.000000   0.000000   0.000000   0.000000   0.000000   1.044586
     7  H    0.000000   0.000000   0.000000   0.000000   0.000000   0.000000
     8  H    0.000000   0.000000   0.000000   0.000000   0.000000   0.000000
     9  H    0.000000   0.000000   0.000000   0.000000   0.000000   0.000000
               7          8          9
     1  C    0.000000   0.000000   0.000000
     2  C    0.000000   0.000000   0.000000
     3  O    0.000000   0.000000   0.000000
     4  C    0.000000   0.000000   0.000000
     5  C    0.000000   0.000000   0.000000
     6  H    0.000000   0.000000   0.000000
     7  H    1.079794   0.000000   0.000000
     8  H    0.000000   1.099424   0.000000
     9  H    0.000000   0.000000   1.038112
 Mulliken charges:
               1
     1  C   -0.053713
     2  C    0.326886
     3  O   -0.261538
     4  C    0.364076
     5  C   -0.113795
     6  H   -0.044586
     7  H   -0.079794
     8  H   -0.099424
     9  H   -0.038112
 Sum of Mulliken charges =   0.00000
 Mulliken charges with hydrogens summed into heavy atoms:
               1
     1  C   -0.091825
     2  C    0.227462
     3  O   -0.261538
     4  C    0.284282
     5  C   -0.158381
 Charge=              0.0000 electrons
 Dipole moment (field-independent basis, Debye):
    X=              0.0813    Y=              0.2121    Z=              0.0293  Tot=              0.2291
 N-N= 1.039104445795D+02 E-N=-1.717619523002D+02  KE=-1.303904513486D+01
 Leave Link  601 at Tue Dec  1 17:37:53 2015, MaxMem=    33554432 cpu:         0.0
 (Enter /home/Applications/g09/g09/l701.exe)
 Compute integral first derivatives.
 ... and contract with generalized density number  0.
 Leave Link  701 at Tue Dec  1 17:37:53 2015, MaxMem=    33554432 cpu:         0.0
 (Enter /home/Applications/g09/g09/l702.exe)
 L702 exits ... SP integral derivatives will be done elsewhere.
 Leave Link  702 at Tue Dec  1 17:37:53 2015, MaxMem=    33554432 cpu:         0.0
 (Enter /home/Applications/g09/g09/l703.exe)
 Compute integral first derivatives, UseDBF=F ICtDFT=           0.
 Integral derivatives from FoFJK, PRISM(SPDF).
 Calling FoFJK, ICntrl=      2127 FMM=F ISym2X=0 I1Cent= 0 IOpClX= 0 NMat=1 NMatS=1 NMatT=0.
 FoFJK:  IHMeth= 8 ICntrl=    2127 DoSepK=F KAlg= 0 I1Cent=   0 FoldK=F
 IRaf=         0 NMat=   1 IRICut=       1 DoRegI=T DoRafI=F ISym2E= 0.
 FoFCou: FMM=F IPFlag=           0 FMFlag=      100000 FMFlg1=         800
         NFxFlg=           0 DoJE=F BraDBF=F KetDBF=F FulRan=T
         wScrn=  0.000000 ICntrl=    2127 IOpCl=  0 I1Cent=           0 NGrid=           0
         NMat0=    1 NMatS0=      1 NMatT0=    0 NMatD0=    1 NMtDS0=    0 NMtDT0=    0
 Symmetry not used in FoFCou.
 Leave Link  703 at Tue Dec  1 17:37:53 2015, MaxMem=    33554432 cpu:         0.0
 (Enter /home/Applications/g09/g09/l716.exe)
 Dipole        = 3.19952763D-02 8.34631384D-02 1.15114026D-02
 ***** Axes restored to original set *****
 -------------------------------------------------------------------
 Center     Atomic                   Forces (Hartrees/Bohr)
 Number     Number              X              Y              Z
 -------------------------------------------------------------------
      1        6          -0.110804996    0.008959388   -0.033112613
      2        6           0.051254504    0.076528003    0.019727235
      3        8           0.038836927   -0.100318140    0.002911264
      4        6           0.067504436    0.041890757   -0.015352672
      5        6          -0.095943130   -0.022751821    0.023858501
      6        1           0.009086506    0.001038552   -0.000547617
      7        1           0.029150347   -0.015357260    0.000660976
      8        1           0.010950020    0.007741096   -0.003370019
      9        1          -0.000034614    0.002269425    0.005224945
 -------------------------------------------------------------------
 Cartesian Forces:  Max     0.110804996 RMS     0.043944683
 Leave Link  716 at Tue Dec  1 17:37:53 2015, MaxMem=    33554432 cpu:         0.0
 (Enter /home/Applications/g09/g09/l103.exe)

 GradGradGradGradGradGradGradGradGradGradGradGradGradGradGradGradGradGrad
 Berny optimization.
 FormGI is forming the generalized inverse of G from B-inverse, IUseBI=4.
 Internal  Forces:  Max     0.108361910 RMS     0.029121950
 Search for a local minimum.
 Step number   1 out of a maximum of   48
 All quantities printed in internal units (Hartrees-Bohrs-Radians)
 RMS Force = .29122D-01 SwitMx=.10000D-02 MixMth= 1
 Mixed Optimization -- RFO/linear search
 Second derivative matrix not updated -- first step.
 ITU=  0
     Eigenvalues ---    0.02178   0.02366   0.02485   0.02566   0.02645
     Eigenvalues ---    0.02760   0.15729   0.15924   0.15938   0.15977
     Eigenvalues ---    0.21988   0.22832   0.32491   0.36507   0.37138
     Eigenvalues ---    0.38114   0.40760   0.46199   0.48365   0.53262
     Eigenvalues ---    0.61165
 RFO step:  Lambda=-6.36504941D-02 EMin= 2.17762045D-02
 Linear search not attempted -- first point.
 Maximum step size (   0.300) exceeded in Quadratic search.
    -- Step size scaled by   0.852
 Iteration  1 RMS(Cart)=  0.06008484 RMS(Int)=  0.00215220
 Iteration  2 RMS(Cart)=  0.00190173 RMS(Int)=  0.00114828
 Iteration  3 RMS(Cart)=  0.00000391 RMS(Int)=  0.00114827
 Iteration  4 RMS(Cart)=  0.00000000 RMS(Int)=  0.00114827
 ITry= 1 IFail=0 DXMaxC= 1.66D-01 DCOld= 1.00D+10 DXMaxT= 3.00D-01 DXLimC= 3.00D+00 Rises=F
 Variable       Old X    -DE/DX   Delta X   Delta X   Delta X     New X
                                 (Linear)    (Quad)   (Total)
    R1        2.58204  -0.10836   0.00000  -0.16639  -0.16616   2.41587
    R2        2.60247  -0.03798   0.00000  -0.06334  -0.06271   2.53976
    R3        2.03296  -0.00163   0.00000  -0.00323  -0.00323   2.02973
    R4        2.66916  -0.07200   0.00000  -0.12161  -0.12206   2.54710
    R5        2.02339  -0.01202   0.00000  -0.02352  -0.02352   1.99987
    R6        2.48093   0.03474   0.00000   0.04888   0.04839   2.52932
    R7        2.55439  -0.09388   0.00000  -0.12706  -0.12695   2.42744
    R8        2.09954  -0.02765   0.00000  -0.06060  -0.06060   2.03894
    R9        2.00899   0.00765   0.00000   0.01464   0.01464   2.02363
    A1        1.87300   0.01959   0.00000   0.03613   0.03597   1.90898
    A2        2.17702  -0.00759   0.00000  -0.00606  -0.00683   2.17019
    A3        2.22263  -0.01103   0.00000  -0.02069  -0.02180   2.20084
    A4        1.89294   0.00290   0.00000  -0.00345  -0.00415   1.88879
    A5        2.35068  -0.00723   0.00000  -0.01934  -0.01938   2.33130
    A6        2.03508   0.00475   0.00000   0.02628   0.02628   2.06136
    A7        1.82661  -0.00102   0.00000   0.02022   0.01853   1.84514
    A8        1.97750  -0.02710   0.00000  -0.06056  -0.06155   1.91595
    A9        1.94192   0.03254   0.00000   0.10317   0.10317   2.04510
   A10        2.36205  -0.00513   0.00000  -0.04000  -0.04001   2.32204
   A11        1.84763   0.00670   0.00000   0.01754   0.01761   1.86524
   A12        2.26622  -0.00802   0.00000  -0.02607  -0.02669   2.23954
   A13        2.16678   0.00165   0.00000   0.01178   0.01131   2.17809
    D1       -0.07733   0.00678   0.00000   0.05935   0.05832  -0.01901
    D2       -3.10988   0.00124   0.00000   0.01502   0.01601  -3.09387
    D3       -3.07300   0.00078   0.00000  -0.00381  -0.00634  -3.07934
    D4        0.17763  -0.00477   0.00000  -0.04815  -0.04865   0.12899
    D5        0.10976  -0.00631   0.00000  -0.07413  -0.07626   0.03349
    D6       -3.10738  -0.00126   0.00000  -0.02501  -0.02723  -3.13461
    D7        3.10046   0.00038   0.00000  -0.00703  -0.00843   3.09204
    D8       -0.11667   0.00543   0.00000   0.04210   0.04061  -0.07606
    D9        0.01302  -0.00194   0.00000  -0.01619  -0.01505  -0.00203
   D10        3.06797   0.00164   0.00000   0.01618   0.01679   3.08476
   D11        0.05982  -0.00364   0.00000  -0.03616  -0.03646   0.02336
   D12       -3.13476   0.00096   0.00000   0.00281   0.00341  -3.13135
   D13       -0.10828   0.00947   0.00000   0.07588   0.07367  -0.03462
   D14        3.10338   0.00534   0.00000   0.03241   0.02892   3.13230
   D15        3.10358   0.00210   0.00000   0.01848   0.01937   3.12295
   D16        0.03206  -0.00203   0.00000  -0.02499  -0.02538   0.00668
         Item               Value     Threshold  Converged?
 Maximum Force            0.108362     0.000450     NO 
 RMS     Force            0.029122     0.000300     NO 
 Maximum Displacement     0.165720     0.001800     NO 
 RMS     Displacement     0.060324     0.001200     NO 
 Predicted change in Energy=-3.473000D-02
 Lowest energy point so far.  Saving SCF results.
 GradGradGradGradGradGradGradGradGradGradGradGradGradGradGradGradGradGrad

 Leave Link  103 at Tue Dec  1 17:37:53 2015, MaxMem=    33554432 cpu:         0.0
 (Enter /home/Applications/g09/g09/l202.exe)
                          Input orientation:                          
 ---------------------------------------------------------------------
 Center     Atomic      Atomic             Coordinates (Angstroms)
 Number     Number       Type             X           Y           Z
 ---------------------------------------------------------------------
      1          6           0        0.890798   -0.679828    0.013047
      2          6           0       -0.318530   -1.093424   -0.015873
      3          8           0       -1.131515   -0.018372   -0.023729
      4          6           0       -0.322989    1.047896    0.004986
      5          6           0        0.902857    0.664043    0.000698
      6          1           0        1.748809    1.320538    0.011592
      7          1           0       -0.790128    2.020450    0.013779
      8          1           0       -0.762059   -2.053695    0.017738
      9          1           0        1.751597   -1.320824   -0.029565
 ---------------------------------------------------------------------
                    Distance matrix (angstroms):
                    1          2          3          4          5
     1  C    0.000000
     2  C    1.278425   0.000000
     3  O    2.128057   1.347866   0.000000
     4  C    2.111486   2.141426   1.338457   0.000000
     5  C    1.343982   2.140269   2.145916   1.284546   0.000000
     6  H    2.176614   3.178341   3.176506   2.089670   1.070859
     7  H    3.180726   3.149523   2.067546   1.078961   2.169380
     8  H    2.149294   1.058286   2.069000   3.132541   3.187214
     9  H    1.074089   2.082625   3.163661   3.148958   2.158929
                    6          7          8          9
     6  H    0.000000
     7  H    2.633644   0.000000
     8  H    4.205941   4.074244   0.000000
     9  H    2.641684   4.198376   2.618741   0.000000
 Stoichiometry    C4H4O
 Framework group  C1[X(C4H4O)]
 Deg. of freedom    21
 Full point group                 C1      NOp   1
 RotChk:  IX=0 Diff= 9.24D-01
 Largest Abelian subgroup         C1      NOp   1
 Largest concise Abelian subgroup C1      NOp   1
                         Standard orientation:                         
 ---------------------------------------------------------------------
 Center     Atomic      Atomic             Coordinates (Angstroms)
 Number     Number       Type             X           Y           Z
 ---------------------------------------------------------------------
      1          6           0        0.609314    0.934656    0.012346
      2          6           0        1.095144   -0.247744   -0.004136
      3          8           0        0.071070   -1.124094   -0.009337
      4          6           0       -1.042093   -0.381098    0.007732
      5          6           0       -0.732769    0.865576   -0.005776
      6          1           0       -1.439078    1.670477   -0.005129
      7          1           0       -1.984770   -0.905922    0.016553
      8          1           0        2.080221   -0.632275    0.037444
      9          1           0        1.197484    1.832133   -0.035171
 ---------------------------------------------------------------------
 Rotational constants (GHZ):     10.2190171     10.0353163      5.0639033
 Leave Link  202 at Tue Dec  1 17:37:53 2015, MaxMem=    33554432 cpu:         0.0
 (Enter /home/Applications/g09/g09/l301.exe)

 Semi-emprical parameters in input format:
 Method=8 CoreType=1 PeptideFC=0.0120930000 RIJScale=0.5388840000
 ****
 H       
 PQN=1 NValence=1 F0ss=0.5586300000 ZetaOverlap=1.0950750000 U=-0.4119510000
 Beta=-0.2338190000 CoreKO=1.1007910000 KON=0,0,0,0.9764370000 KON=1,0,1,1.1361190000
 KON=0,1,1,1.0139660000 KON=2,1,1,1.2635130000 EISol=-0.4188110042 EHeat=0.0830298228
 Alpha=1.4078420000
 GCore=0.0080140000,1.2229470000,2.2663690000
 GCore=0.0002960000,1.5853770000,2.7382840000
 GCore=-0.0012210000,0.6561060000,3.9519220000
 ****
 C       
 PQN=2,2 NValence=4 F0ss=0.4805700000 F0sp=0.4819370000 F0pp=0.3439950000 F2pp=0.1961420000
 G1sp=0.2678900000
 ZetaOverlap=1.8366850000,1.4875730000
 U=-1.4842670000,-1.3886060000
 Beta=-0.6376780000,-0.3536670000 DDN=0,1,0.9094820000 DDN=1,1,0.8346670000
 CoreKO=1.1045690000 KON=0,0,0,1.0182330000 KON=1,0,1,0.7342900000 KON=0,1,1,1.1944780000
 KON=2,1,1,0.7056720000 EISol=-4.4398989268 EHeat=0.2723305520 Alpha=1.4025920000
 DipHyp=1.8188593534
 GCore=0.0007870000,1.5590290000,2.8992300000
 GCore=0.0031100000,1.3744800000,3.7653660000
 GCore=-0.0013700000,1.3772400000,4.0631190000
 GCore=-0.0000820000,1.5210550000,5.3709760000
 ****
 O       
 PQN=2,2 NValence=6 F0ss=0.7455940000 F0sp=0.5814220000 F0pp=0.4393740000 F2pp=0.2294290000
 G1sp=0.3535640000
 ZetaOverlap=2.7714830000,2.5744810000
 U=-3.8069400000,-2.7329690000
 Beta=-1.1272460000,-1.1587550000 DDN=0,1,0.5172290000 DDN=1,1,0.4110560000
 CoreKO=0.8743200000 KON=0,0,0,0.8886000000 KON=1,0,1,0.5063100000 KON=0,1,1,0.8996480000
 KON=2,1,1,0.5582300000 EISol=-11.6164441184 EHeat=0.0949133088 Alpha=2.3820330000
 DipHyp=1.0343984867
 GCore=0.0192970000,1.5130470000,1.5620930000
 GCore=0.0058890000,1.6294880000,2.3818730000
 ****
 
 Standard basis: VSTO-6G (5D, 7F)
 Ernie: Thresh=  0.10000D-02 Tol=  0.10000D-05 Strict=F.
  NNHCO=     0 NNPyr=     0 NCTC=     0               EPep=         0.000000000
    EC=        70.444385219  ECS=         2.168436571   EG=         0.361939975
   EHC=         0.000000000  EAt=       -31.051283842  AtH=         1.516354808
 EPDDG=         0.000000000  ECC=        72.974761765 EAtT=        32.567638650
 There are    24 symmetry adapted cartesian basis functions of A   symmetry.
 There are    24 symmetry adapted basis functions of A   symmetry.
    24 basis functions,   144 primitive gaussians,    24 cartesian basis functions
    13 alpha electrons       13 beta electrons
       nuclear repulsion energy       105.5424004155 Hartrees.
 IExCor=    0 DFT=F Ex=HF Corr=None ExCW=0 ScaHFX=  1.000000
 ScaDFX=  1.000000  1.000000  1.000000  1.000000 ScalE2=  1.000000  1.000000
 IRadAn=      0 IRanWt=     -1 IRanGd=            0 ICorTp=0 IEmpDi=  4
 Integral buffers will be    131072 words long.
 Regular integral format.
 Two-electron integral symmetry is turned off.
 Leave Link  301 at Tue Dec  1 17:37:53 2015, MaxMem=    33554432 cpu:         0.0
 (Enter /home/Applications/g09/g09/l302.exe)
 Do NDO integrals.
 NPDir=0 NMtPBC=     1 NCelOv=     1 NCel=       1 NClECP=     1 NCelD=      1
         NCelK=      1 NCelE2=     1 NClLst=     1 CellRange=     0.0.
 One-electron integrals computed using PRISM.
 NBasis=    24 RedAO= F EigKep=  0.00D+00  NBF=    24
 NBsUse=    24 1.00D-04 EigRej=  0.00D+00 NBFU=    24
 Leave Link  302 at Tue Dec  1 17:37:53 2015, MaxMem=    33554432 cpu:         0.0
 (Enter /home/Applications/g09/g09/l303.exe)
 DipDrv:  MaxL=1.
 Leave Link  303 at Tue Dec  1 17:37:53 2015, MaxMem=    33554432 cpu:         0.0
 (Enter /home/Applications/g09/g09/l401.exe)
 Initial guess from the checkpoint file:  "/home/Applications/g09/scratch/Gau-23895.chk"
 B after Tr=     0.000000    0.000000    0.000000
         Rot=    0.943927    0.000041    0.000255   -0.330153 Ang=  38.56 deg.
 Guess basis will be translated and rotated to current coordinates.
 JPrj=0 DoOrth=T DoCkMO=T.
 Leave Link  401 at Tue Dec  1 17:37:53 2015, MaxMem=    33554432 cpu:         0.0
 (Enter /home/Applications/g09/g09/l502.exe)
 Closed shell SCF:
 Using DIIS extrapolation, IDIIS=  1040.
 Overlap will be assumed to be unity.
 Two-electron integral symmetry not used.
 Keep J ints in memory in canonical form, NReq=888082.
 IVT=       79475 IEndB=       79475 NGot=    33554432 MDV=    33473473
 LenX=    33473473 LenY=    33472456
 Requested convergence on RMS density matrix=1.00D-08 within 128 cycles.
 Requested convergence on MAX density matrix=1.00D-06.
 Requested convergence on             energy=1.00D-06.
 No special actions if energy rises.
 FoFCou: FMM=F IPFlag=           0 FMFlag=           0 FMFlg1=           0
         NFxFlg=           0 DoJE=F BraDBF=F KetDBF=F FulRan=T
         wScrn=  0.000000 ICntrl=     600 IOpCl=  2 I1Cent=           0 NGrid=           0
         NMat0=    1 NMatS0=     54 NMatT0=    0 NMatD0=    1 NMtDS0=    0 NMtDT0=    0
 Symmetry not used in FoFCou.

 Cycle   1  Pass 1  IDiag  1:
 E=  1.76632649666024    
 DIIS: error= 9.54D-03 at cycle   1 NSaved=   1.
 NSaved= 1 IEnMin= 1 EnMin=  1.76632649666024     IErMin= 1 ErrMin= 9.54D-03
 ErrMax= 9.54D-03  0.00D+00 EMaxC= 1.00D-01 BMatC= 4.62D-03 BMatP= 4.62D-03
 IDIUse=3 WtCom= 9.05D-01 WtEn= 9.54D-02
 Coeff-Com:  0.100D+01
 Coeff-En:   0.100D+01
 Coeff:      0.100D+01
 GapD=    2.000 DampG=2.000 DampE=1.000 DampFc=2.0000 IDamp=-1.
 RMSDP=3.61D-03 MaxDP=1.33D-02              OVMax= 0.00D+00

 Cycle   2  Pass 1  IDiag  3:
 E=  1.75655934811005     Delta-E=       -0.009767148550 Rises=F Damp=F
 DIIS: error= 1.83D-03 at cycle   2 NSaved=   2.
 NSaved= 2 IEnMin= 2 EnMin=  1.75655934811005     IErMin= 2 ErrMin= 1.83D-03
 ErrMax= 1.83D-03  0.00D+00 EMaxC= 1.00D-01 BMatC= 2.93D-04 BMatP= 4.62D-03
 IDIUse=3 WtCom= 9.82D-01 WtEn= 1.83D-02
 Coeff-Com: -0.285D+00 0.129D+01
 Coeff-En:   0.000D+00 0.100D+01
 Coeff:     -0.280D+00 0.128D+01
 Gap=     0.443 Goal=   None    Shift=    0.000
 RMSDP=1.46D-03 MaxDP=8.74D-03 DE=-9.77D-03 OVMax= 8.32D-03

 Cycle   3  Pass 1  IDiag  3:
 E=  1.75565078948651     Delta-E=       -0.000908558624 Rises=F Damp=F
 DIIS: error= 4.79D-04 at cycle   3 NSaved=   3.
 NSaved= 3 IEnMin= 3 EnMin=  1.75565078948651     IErMin= 3 ErrMin= 4.79D-04
 ErrMax= 4.79D-04  0.00D+00 EMaxC= 1.00D-01 BMatC= 1.06D-05 BMatP= 2.93D-04
 IDIUse=3 WtCom= 9.95D-01 WtEn= 4.79D-03
 Coeff-Com:  0.107D+00-0.552D+00 0.145D+01
 Coeff-En:   0.000D+00 0.000D+00 0.100D+01
 Coeff:      0.106D+00-0.550D+00 0.144D+01
 Gap=     0.443 Goal=   None    Shift=    0.000
 RMSDP=4.57D-04 MaxDP=3.81D-03 DE=-9.09D-04 OVMax= 3.47D-03

 Cycle   4  Pass 1  IDiag  3:
 E=  1.75559212130993     Delta-E=       -0.000058668177 Rises=F Damp=F
 DIIS: error= 1.64D-04 at cycle   4 NSaved=   4.
 NSaved= 4 IEnMin= 4 EnMin=  1.75559212130993     IErMin= 4 ErrMin= 1.64D-04
 ErrMax= 1.64D-04  0.00D+00 EMaxC= 1.00D-01 BMatC= 7.43D-07 BMatP= 1.06D-05
 IDIUse=3 WtCom= 9.98D-01 WtEn= 1.64D-03
 Coeff-Com: -0.312D-01 0.171D+00-0.630D+00 0.149D+01
 Coeff-En:   0.000D+00 0.000D+00 0.000D+00 0.100D+01
 Coeff:     -0.312D-01 0.171D+00-0.629D+00 0.149D+01
 Gap=     0.443 Goal=   None    Shift=    0.000
 RMSDP=1.44D-04 MaxDP=1.44D-03 DE=-5.87D-05 OVMax= 1.24D-03

 Cycle   5  Pass 1  IDiag  3:
 E=  1.75558751329578     Delta-E=       -0.000004608014 Rises=F Damp=F
 DIIS: error= 3.08D-05 at cycle   5 NSaved=   5.
 NSaved= 5 IEnMin= 5 EnMin=  1.75558751329578     IErMin= 5 ErrMin= 3.08D-05
 ErrMax= 3.08D-05  0.00D+00 EMaxC= 1.00D-01 BMatC= 4.04D-08 BMatP= 7.43D-07
 IDIUse=1 WtCom= 1.00D+00 WtEn= 0.00D+00
 Coeff-Com:  0.547D-03-0.510D-02 0.608D-01-0.384D+00 0.133D+01
 Coeff:      0.547D-03-0.510D-02 0.608D-01-0.384D+00 0.133D+01
 Gap=     0.443 Goal=   None    Shift=    0.000
 RMSDP=3.13D-05 MaxDP=3.13D-04 DE=-4.61D-06 OVMax= 2.80D-04

 Cycle   6  Pass 1  IDiag  3:
 E=  1.75558729272697     Delta-E=       -0.000000220569 Rises=F Damp=F
 DIIS: error= 5.71D-06 at cycle   6 NSaved=   6.
 NSaved= 6 IEnMin= 6 EnMin=  1.75558729272697     IErMin= 6 ErrMin= 5.71D-06
 ErrMax= 5.71D-06  0.00D+00 EMaxC= 1.00D-01 BMatC= 2.13D-09 BMatP= 4.04D-08
 IDIUse=1 WtCom= 1.00D+00 WtEn= 0.00D+00
 Coeff-Com:  0.132D-02-0.677D-02 0.135D-01 0.517D-01-0.471D+00 0.141D+01
 Coeff:      0.132D-02-0.677D-02 0.135D-01 0.517D-01-0.471D+00 0.141D+01
 Gap=     0.443 Goal=   None    Shift=    0.000
 RMSDP=6.54D-06 MaxDP=4.67D-05 DE=-2.21D-07 OVMax= 4.10D-05

 Cycle   7  Pass 1  IDiag  3:
 E=  1.75558728203519     Delta-E=       -0.000000010692 Rises=F Damp=F
 DIIS: error= 1.11D-06 at cycle   7 NSaved=   7.
 NSaved= 7 IEnMin= 7 EnMin=  1.75558728203519     IErMin= 7 ErrMin= 1.11D-06
 ErrMax= 1.11D-06  0.00D+00 EMaxC= 1.00D-01 BMatC= 5.89D-11 BMatP= 2.13D-09
 IDIUse=1 WtCom= 1.00D+00 WtEn= 0.00D+00
 Coeff-Com: -0.527D-03 0.276D-02-0.740D-02-0.574D-02 0.127D+00-0.505D+00
 Coeff-Com:  0.139D+01
 Coeff:     -0.527D-03 0.276D-02-0.740D-02-0.574D-02 0.127D+00-0.505D+00
 Coeff:      0.139D+01
 Gap=     0.443 Goal=   None    Shift=    0.000
 RMSDP=1.02D-06 MaxDP=6.99D-06 DE=-1.07D-08 OVMax= 6.68D-06

 Cycle   8  Pass 1  IDiag  3:
 E=  1.75558728174988     Delta-E=       -0.000000000285 Rises=F Damp=F
 DIIS: error= 2.30D-07 at cycle   8 NSaved=   8.
 NSaved= 8 IEnMin= 8 EnMin=  1.75558728174988     IErMin= 8 ErrMin= 2.30D-07
 ErrMax= 2.30D-07  0.00D+00 EMaxC= 1.00D-01 BMatC= 1.92D-12 BMatP= 5.89D-11
 IDIUse=1 WtCom= 1.00D+00 WtEn= 0.00D+00
 Coeff-Com:  0.141D-03-0.741D-03 0.212D-02 0.313D-03-0.274D-01 0.121D+00
 Coeff-Com: -0.447D+00 0.135D+01
 Coeff:      0.141D-03-0.741D-03 0.212D-02 0.313D-03-0.274D-01 0.121D+00
 Coeff:     -0.447D+00 0.135D+01
 Gap=     0.443 Goal=   None    Shift=    0.000
 RMSDP=1.81D-07 MaxDP=1.34D-06 DE=-2.85D-10 OVMax= 0.00D+00

 Cycle   9  Pass 1  IDiag  3:
 E=  1.75558728174038     Delta-E=       -0.000000000010 Rises=F Damp=F
 DIIS: error= 5.23D-08 at cycle   9 NSaved=   9.
 NSaved= 9 IEnMin= 9 EnMin=  1.75558728174038     IErMin= 9 ErrMin= 5.23D-08
 ErrMax= 5.23D-08  0.00D+00 EMaxC= 1.00D-01 BMatC= 1.14D-13 BMatP= 1.92D-12
 IDIUse=1 WtCom= 1.00D+00 WtEn= 0.00D+00
 Coeff-Com: -0.485D-04 0.254D-03-0.740D-03-0.766D-05 0.889D-02-0.406D-01
 Coeff-Com:  0.167D+00-0.672D+00 0.154D+01
 Coeff:     -0.485D-04 0.254D-03-0.740D-03-0.766D-05 0.889D-02-0.406D-01
 Coeff:      0.167D+00-0.672D+00 0.154D+01
 Gap=     0.443 Goal=   None    Shift=    0.000
 RMSDP=4.83D-08 MaxDP=3.63D-07 DE=-9.51D-12 OVMax= 3.75D-07

 Cycle  10  Pass 1  IDiag  3:
 E=  1.75558728173976     Delta-E=       -0.000000000001 Rises=F Damp=F
 DIIS: error= 9.36D-09 at cycle  10 NSaved=  10.
 NSaved=10 IEnMin=10 EnMin=  1.75558728173976     IErMin=10 ErrMin= 9.36D-09
 ErrMax= 9.36D-09  0.00D+00 EMaxC= 1.00D-01 BMatC= 5.04D-15 BMatP= 1.14D-13
 IDIUse=1 WtCom= 1.00D+00 WtEn= 0.00D+00
 Coeff-Com:  0.175D-04-0.910D-04 0.262D-03 0.102D-04-0.313D-02 0.141D-01
 Coeff-Com: -0.586D-01 0.253D+00-0.713D+00 0.151D+01
 Coeff:      0.175D-04-0.910D-04 0.262D-03 0.102D-04-0.313D-02 0.141D-01
 Coeff:     -0.586D-01 0.253D+00-0.713D+00 0.151D+01
 Gap=     0.443 Goal=   None    Shift=    0.000
 RMSDP=1.05D-08 MaxDP=7.85D-08 DE=-6.11D-13 OVMax= 1.01D-07

 Cycle  11  Pass 1  IDiag  3:
 E=  1.75558728173998     Delta-E=        0.000000000000 Rises=F Damp=F
 DIIS: error= 2.23D-09 at cycle  11 NSaved=  11.
 NSaved=11 IEnMin=10 EnMin=  1.75558728173976     IErMin=11 ErrMin= 2.23D-09
 ErrMax= 2.23D-09  0.00D+00 EMaxC= 1.00D-01 BMatC= 1.59D-16 BMatP= 5.04D-15
 IDIUse=1 WtCom= 1.00D+00 WtEn= 0.00D+00
 Coeff-Com: -0.349D-05 0.180D-04-0.514D-04 0.272D-05 0.568D-03-0.256D-02
 Coeff-Com:  0.111D-01-0.535D-01 0.172D+00-0.509D+00 0.138D+01
 Coeff:     -0.349D-05 0.180D-04-0.514D-04 0.272D-05 0.568D-03-0.256D-02
 Coeff:      0.111D-01-0.535D-01 0.172D+00-0.509D+00 0.138D+01
 Gap=     0.443 Goal=   None    Shift=    0.000
 RMSDP=1.92D-09 MaxDP=1.85D-08 DE= 2.13D-13 OVMax= 2.03D-08

 Cycle  12  Pass 2  IDiag  1:
 SCF Done:  E(RAM1) =   1.75558728174     A.U. after   12 cycles
            NFock= 11  Conv=0.19D-08     -V/T= 1.1324
 KE=-1.325741515175D+01 PE=-1.744385912164D+02 EE= 8.390919323442D+01
 Leave Link  502 at Tue Dec  1 17:37:53 2015, MaxMem=    33554432 cpu:         0.0
 (Enter /home/Applications/g09/g09/l701.exe)
 Compute integral first derivatives.
 ... and contract with generalized density number  0.
 Leave Link  701 at Tue Dec  1 17:37:53 2015, MaxMem=    33554432 cpu:         0.0
 (Enter /home/Applications/g09/g09/l702.exe)
 L702 exits ... SP integral derivatives will be done elsewhere.
 Leave Link  702 at Tue Dec  1 17:37:53 2015, MaxMem=    33554432 cpu:         0.0
 (Enter /home/Applications/g09/g09/l703.exe)
 Compute integral first derivatives, UseDBF=F ICtDFT=           0.
 Integral derivatives from FoFJK, PRISM(SPDF).
 Calling FoFJK, ICntrl=      2127 FMM=F ISym2X=0 I1Cent= 0 IOpClX= 0 NMat=1 NMatS=1 NMatT=0.
 FoFJK:  IHMeth= 8 ICntrl=    2127 DoSepK=F KAlg= 0 I1Cent=   0 FoldK=F
 IRaf=         0 NMat=   1 IRICut=       1 DoRegI=T DoRafI=F ISym2E= 0.
 FoFCou: FMM=F IPFlag=           0 FMFlag=      100000 FMFlg1=         800
         NFxFlg=           0 DoJE=F BraDBF=F KetDBF=F FulRan=T
         wScrn=  0.000000 ICntrl=    2127 IOpCl=  0 I1Cent=           0 NGrid=           0
         NMat0=    1 NMatS0=      1 NMatT0=    0 NMatD0=    1 NMtDS0=    0 NMtDT0=    0
 Symmetry not used in FoFCou.
 Leave Link  703 at Tue Dec  1 17:37:53 2015, MaxMem=    33554432 cpu:         0.0
 (Enter /home/Applications/g09/g09/l716.exe)
 Dipole        =-8.91973845D-03 1.69597236D-01-1.54408114D-03
 ***** Axes restored to original set *****
 -------------------------------------------------------------------
 Center     Atomic                   Forces (Hartrees/Bohr)
 Number     Number              X              Y              Z
 -------------------------------------------------------------------
      1        6           0.037421245   -0.015549400   -0.010671727
      2        6          -0.031126475   -0.012982703    0.006410645
      3        8          -0.025554193   -0.007860483    0.001759649
      4        6          -0.023029781    0.033766482   -0.004335135
      5        6           0.015946155    0.015926907    0.006245081
      6        1           0.010278289    0.002362771   -0.000204103
      7        1           0.006722322   -0.004339549   -0.000050997
      8        1          -0.000275711   -0.008020119   -0.002682163
      9        1           0.009618149   -0.003303907    0.003528750
 -------------------------------------------------------------------
 Cartesian Forces:  Max     0.037421245 RMS     0.015216306
 Leave Link  716 at Tue Dec  1 17:37:53 2015, MaxMem=    33554432 cpu:         0.0
 (Enter /home/Applications/g09/g09/l103.exe)

 GradGradGradGradGradGradGradGradGradGradGradGradGradGradGradGradGradGrad
 Berny optimization.
 Using GEDIIS/GDIIS optimizer.
 FormGI is forming the generalized inverse of G from B-inverse, IUseBI=4.
 Internal  Forces:  Max     0.041976671 RMS     0.011406326
 Search for a local minimum.
 Step number   2 out of a maximum of   48
 All quantities printed in internal units (Hartrees-Bohrs-Radians)
 RMS Force = .11406D-01 SwitMx=.10000D-02 MixMth= 1
 Mixed Optimization -- RFO/linear search
 Update second derivatives using D2CorX and points    1    2
 DE= -2.28D-02 DEPred=-3.47D-02 R= 6.56D-01
 TightC=F SS=  1.41D+00  RLast= 3.37D-01 DXNew= 5.0454D-01 1.0096D+00
 Trust test= 6.56D-01 RLast= 3.37D-01 DXMaxT set to 5.05D-01
 ITU=  1  0
 Use linear search instead of GDIIS.
     Eigenvalues ---    0.02163   0.02352   0.02468   0.02561   0.02655
     Eigenvalues ---    0.02758   0.15652   0.15937   0.15981   0.16059
     Eigenvalues ---    0.21923   0.23024   0.32071   0.36433   0.37204
     Eigenvalues ---    0.37904   0.41001   0.47329   0.48968   0.57774
     Eigenvalues ---    0.91324
 RFO step:  Lambda=-7.24780525D-03 EMin= 2.16301597D-02
 Quartic linear search produced a step of -0.15755.
 Iteration  1 RMS(Cart)=  0.03436235 RMS(Int)=  0.00173189
 Iteration  2 RMS(Cart)=  0.00121782 RMS(Int)=  0.00113574
 Iteration  3 RMS(Cart)=  0.00000196 RMS(Int)=  0.00113574
 Iteration  4 RMS(Cart)=  0.00000000 RMS(Int)=  0.00113574
 ITry= 1 IFail=0 DXMaxC= 8.06D-02 DCOld= 1.00D+10 DXMaxT= 5.05D-01 DXLimC= 3.00D+00 Rises=F
 Variable       Old X    -DE/DX   Delta X   Delta X   Delta X     New X
                                 (Linear)    (Quad)   (Total)
    R1        2.41587   0.04198   0.02618   0.01947   0.04596   2.46183
    R2        2.53976   0.02496   0.00988   0.02416   0.03387   2.57363
    R3        2.02973   0.00954   0.00051   0.02046   0.02097   2.05071
    R4        2.54710   0.01842   0.01923  -0.00182   0.01778   2.56488
    R5        1.99987   0.00731   0.00371   0.00911   0.01281   2.01268
    R6        2.52932   0.02685  -0.00762   0.04812   0.04040   2.56972
    R7        2.42744   0.03151   0.02000   0.01252   0.03210   2.45954
    R8        2.03894  -0.00682   0.00955  -0.03577  -0.02623   2.01271
    R9        2.02363   0.00957  -0.00231   0.02496   0.02265   2.04628
    A1        1.90898  -0.00583  -0.00567  -0.00660  -0.01518   1.89380
    A2        2.17019   0.00624   0.00108   0.02745   0.02634   2.19652
    A3        2.20084  -0.00019   0.00343  -0.01027  -0.00888   2.19195
    A4        1.88879   0.00258   0.00065   0.00672   0.00644   1.89523
    A5        2.33130  -0.00422   0.00305  -0.02421  -0.02208   2.30922
    A6        2.06136   0.00174  -0.00414   0.02231   0.01723   2.07859
    A7        1.84514   0.00141  -0.00292   0.00766   0.00417   1.84931
    A8        1.91595   0.00033   0.00970  -0.01787  -0.01004   1.90591
    A9        2.04510   0.00411  -0.01625   0.05722   0.04067   2.08576
   A10        2.32204  -0.00442   0.00630  -0.03827  -0.03211   2.28993
   A11        1.86524   0.00162  -0.00277   0.01541   0.01048   1.87572
   A12        2.23954  -0.00526   0.00420  -0.03599  -0.03196   2.20758
   A13        2.17809   0.00369  -0.00178   0.02264   0.02057   2.19866
    D1       -0.01901   0.00184  -0.00919   0.09962   0.08986   0.07085
    D2       -3.09387  -0.00032  -0.00252   0.00590   0.00434  -3.08953
    D3       -3.07934  -0.00090   0.00100  -0.03421  -0.03517  -3.11451
    D4        0.12899  -0.00305   0.00766  -0.12793  -0.12069   0.00830
    D5        0.03349  -0.00287   0.01202  -0.14150  -0.12874  -0.09525
    D6       -3.13461  -0.00116   0.00429  -0.05561  -0.05131   3.09727
    D7        3.09204   0.00029   0.00133  -0.00253  -0.00207   3.08996
    D8       -0.07606   0.00200  -0.00640   0.08336   0.07536  -0.00070
    D9       -0.00203  -0.00023   0.00237  -0.02141  -0.01911  -0.02114
   D10        3.08476   0.00127  -0.00265   0.05360   0.05158   3.13634
   D11        0.02336  -0.00157   0.00574  -0.06848  -0.06238  -0.03902
   D12       -3.13135  -0.00013  -0.00054   0.00305   0.00454  -3.12681
   D13       -0.03462   0.00256  -0.01161   0.12720   0.11616   0.08154
   D14        3.13230   0.00109  -0.00456   0.04625   0.04024  -3.11065
   D15        3.12295   0.00071  -0.00305   0.03909   0.03794  -3.12230
   D16        0.00668  -0.00076   0.00400  -0.04185  -0.03798  -0.03130
         Item               Value     Threshold  Converged?
 Maximum Force            0.041977     0.000450     NO 
 RMS     Force            0.011406     0.000300     NO 
 Maximum Displacement     0.080603     0.001800     NO 
 RMS     Displacement     0.034095     0.001200     NO 
 Predicted change in Energy=-4.435517D-03
 Lowest energy point so far.  Saving SCF results.
 GradGradGradGradGradGradGradGradGradGradGradGradGradGradGradGradGradGrad

 Leave Link  103 at Tue Dec  1 17:37:53 2015, MaxMem=    33554432 cpu:         0.0
 (Enter /home/Applications/g09/g09/l202.exe)
                          Input orientation:                          
 ---------------------------------------------------------------------
 Center     Atomic      Atomic             Coordinates (Angstroms)
 Number     Number       Type             X           Y           Z
 ---------------------------------------------------------------------
      1          6           0        0.897789   -0.687058   -0.029606
      2          6           0       -0.335937   -1.103718    0.008571
      3          8           0       -1.157869   -0.023657   -0.001176
      4          6           0       -0.343848    1.065462   -0.019807
      5          6           0        0.896451    0.673686    0.026635
      6          1           0        1.766440    1.317884    0.052825
      7          1           0       -0.772190    2.040610   -0.016585
      8          1           0       -0.762883   -2.079262    0.028525
      9          1           0        1.780888   -1.317164   -0.056708
 ---------------------------------------------------------------------
                    Distance matrix (angstroms):
                    1          2          3          4          5
     1  C    0.000000
     2  C    1.302744   0.000000
     3  O    2.160241   1.357277   0.000000
     4  C    2.147809   2.169380   1.359837   0.000000
     5  C    1.361906   2.162931   2.169629   1.301533   0.000000
     6  H    2.186582   3.207195   3.217799   2.126572   1.082847
     7  H    3.198307   3.174547   2.100044   1.065083   2.157478
     8  H    2.167820   1.065067   2.093421   3.172888   3.214361
     9  H    1.085188   2.128560   3.211314   3.192612   2.180059
                    6          7          8          9
     6  H    0.000000
     7  H    2.640415   0.000000
     8  H    4.235407   4.120130   0.000000
     9  H    2.637363   4.218348   2.656846   0.000000
 Stoichiometry    C4H4O
 Framework group  C1[X(C4H4O)]
 Deg. of freedom    21
 Full point group                 C1      NOp   1
 RotChk:  IX=0 Diff= 1.33D-02
 Largest Abelian subgroup         C1      NOp   1
 Largest concise Abelian subgroup C1      NOp   1
                         Standard orientation:                         
 ---------------------------------------------------------------------
 Center     Atomic      Atomic             Coordinates (Angstroms)
 Number     Number       Type             X           Y           Z
 ---------------------------------------------------------------------
      1          6           0        0.613184    0.954090   -0.025145
      2          6           0        1.106819   -0.250863    0.014295
      3          8           0        0.080864   -1.139371    0.001248
      4          6           0       -1.057433   -0.395762   -0.020699
      5          6           0       -0.744923    0.866796    0.026946
      6          1           0       -1.442862    1.694354    0.051177
      7          1           0       -2.003585   -0.884842   -0.020454
      8          1           0        2.107317   -0.615343    0.037221
      9          1           0        1.186333    1.875230   -0.050319
 ---------------------------------------------------------------------
 Rotational constants (GHZ):      9.9446596      9.8019836      4.9393864
 Leave Link  202 at Tue Dec  1 17:37:53 2015, MaxMem=    33554432 cpu:         0.0
 (Enter /home/Applications/g09/g09/l301.exe)

 Semi-emprical parameters in input format:
 Method=8 CoreType=1 PeptideFC=0.0120930000 RIJScale=0.5388840000
 ****
 H       
 PQN=1 NValence=1 F0ss=0.5586300000 ZetaOverlap=1.0950750000 U=-0.4119510000
 Beta=-0.2338190000 CoreKO=1.1007910000 KON=0,0,0,0.9764370000 KON=1,0,1,1.1361190000
 KON=0,1,1,1.0139660000 KON=2,1,1,1.2635130000 EISol=-0.4188110042 EHeat=0.0830298228
 Alpha=1.4078420000
 GCore=0.0080140000,1.2229470000,2.2663690000
 GCore=0.0002960000,1.5853770000,2.7382840000
 GCore=-0.0012210000,0.6561060000,3.9519220000
 ****
 C       
 PQN=2,2 NValence=4 F0ss=0.4805700000 F0sp=0.4819370000 F0pp=0.3439950000 F2pp=0.1961420000
 G1sp=0.2678900000
 ZetaOverlap=1.8366850000,1.4875730000
 U=-1.4842670000,-1.3886060000
 Beta=-0.6376780000,-0.3536670000 DDN=0,1,0.9094820000 DDN=1,1,0.8346670000
 CoreKO=1.1045690000 KON=0,0,0,1.0182330000 KON=1,0,1,0.7342900000 KON=0,1,1,1.1944780000
 KON=2,1,1,0.7056720000 EISol=-4.4398989268 EHeat=0.2723305520 Alpha=1.4025920000
 DipHyp=1.8188593534
 GCore=0.0007870000,1.5590290000,2.8992300000
 GCore=0.0031100000,1.3744800000,3.7653660000
 GCore=-0.0013700000,1.3772400000,4.0631190000
 GCore=-0.0000820000,1.5210550000,5.3709760000
 ****
 O       
 PQN=2,2 NValence=6 F0ss=0.7455940000 F0sp=0.5814220000 F0pp=0.4393740000 F2pp=0.2294290000
 G1sp=0.3535640000
 ZetaOverlap=2.7714830000,2.5744810000
 U=-3.8069400000,-2.7329690000
 Beta=-1.1272460000,-1.1587550000 DDN=0,1,0.5172290000 DDN=1,1,0.4110560000
 CoreKO=0.8743200000 KON=0,0,0,0.8886000000 KON=1,0,1,0.5063100000 KON=0,1,1,0.8996480000
 KON=2,1,1,0.5582300000 EISol=-11.6164441184 EHeat=0.0949133088 Alpha=2.3820330000
 DipHyp=1.0343984867
 GCore=0.0192970000,1.5130470000,1.5620930000
 GCore=0.0058890000,1.6294880000,2.3818730000
 ****
 
 Standard basis: VSTO-6G (5D, 7F)
 Ernie: Thresh=  0.10000D-02 Tol=  0.10000D-05 Strict=F.
  NNHCO=     0 NNPyr=     0 NCTC=     0               EPep=         0.000000000
    EC=        69.859837971  ECS=         2.070898370   EG=         0.346882911
   EHC=         0.000000000  EAt=       -31.051283842  AtH=         1.516354808
 EPDDG=         0.000000000  ECC=        72.277619253 EAtT=        32.567638650
 There are    24 symmetry adapted cartesian basis functions of A   symmetry.
 There are    24 symmetry adapted basis functions of A   symmetry.
    24 basis functions,   144 primitive gaussians,    24 cartesian basis functions
    13 alpha electrons       13 beta electrons
       nuclear repulsion energy       104.8452579032 Hartrees.
 IExCor=    0 DFT=F Ex=HF Corr=None ExCW=0 ScaHFX=  1.000000
 ScaDFX=  1.000000  1.000000  1.000000  1.000000 ScalE2=  1.000000  1.000000
 IRadAn=      0 IRanWt=     -1 IRanGd=            0 ICorTp=0 IEmpDi=  4
 Integral buffers will be    131072 words long.
 Regular integral format.
 Two-electron integral symmetry is turned off.
 Leave Link  301 at Tue Dec  1 17:37:53 2015, MaxMem=    33554432 cpu:         0.0
 (Enter /home/Applications/g09/g09/l302.exe)
 Do NDO integrals.
 NPDir=0 NMtPBC=     1 NCelOv=     1 NCel=       1 NClECP=     1 NCelD=      1
         NCelK=      1 NCelE2=     1 NClLst=     1 CellRange=     0.0.
 One-electron integrals computed using PRISM.
 NBasis=    24 RedAO= F EigKep=  0.00D+00  NBF=    24
 NBsUse=    24 1.00D-04 EigRej=  0.00D+00 NBFU=    24
 Leave Link  302 at Tue Dec  1 17:37:53 2015, MaxMem=    33554432 cpu:         0.0
 (Enter /home/Applications/g09/g09/l303.exe)
 DipDrv:  MaxL=1.
 Leave Link  303 at Tue Dec  1 17:37:53 2015, MaxMem=    33554432 cpu:         0.0
 (Enter /home/Applications/g09/g09/l401.exe)
 Initial guess from the checkpoint file:  "/home/Applications/g09/scratch/Gau-23895.chk"
 B after Tr=     0.000000    0.000000    0.000000
         Rot=    0.999997   -0.000014   -0.000037   -0.002307 Ang=  -0.26 deg.
 Guess basis will be translated and rotated to current coordinates.
 JPrj=0 DoOrth=T DoCkMO=T.
 Leave Link  401 at Tue Dec  1 17:37:53 2015, MaxMem=    33554432 cpu:         0.0
 (Enter /home/Applications/g09/g09/l502.exe)
 Closed shell SCF:
 Using DIIS extrapolation, IDIIS=  1040.
 Overlap will be assumed to be unity.
 Two-electron integral symmetry not used.
 Keep J ints in memory in canonical form, NReq=888082.
 IVT=       79475 IEndB=       79475 NGot=    33554432 MDV=    33473473
 LenX=    33473473 LenY=    33472456
 Requested convergence on RMS density matrix=1.00D-08 within 128 cycles.
 Requested convergence on MAX density matrix=1.00D-06.
 Requested convergence on             energy=1.00D-06.
 No special actions if energy rises.
 FoFCou: FMM=F IPFlag=           0 FMFlag=           0 FMFlg1=           0
         NFxFlg=           0 DoJE=F BraDBF=F KetDBF=F FulRan=T
         wScrn=  0.000000 ICntrl=     600 IOpCl=  2 I1Cent=           0 NGrid=           0
         NMat0=    1 NMatS0=     54 NMatT0=    0 NMatD0=    1 NMtDS0=    0 NMtDT0=    0
 Symmetry not used in FoFCou.

 Cycle   1  Pass 1  IDiag  1:
 E=  1.75959804500000    
 DIIS: error= 9.13D-03 at cycle   1 NSaved=   1.
 NSaved= 1 IEnMin= 1 EnMin=  1.75959804500000     IErMin= 1 ErrMin= 9.13D-03
 ErrMax= 9.13D-03  0.00D+00 EMaxC= 1.00D-01 BMatC= 2.48D-03 BMatP= 2.48D-03
 IDIUse=3 WtCom= 9.09D-01 WtEn= 9.13D-02
 Coeff-Com:  0.100D+01
 Coeff-En:   0.100D+01
 Coeff:      0.100D+01
 GapD=    2.000 DampG=2.000 DampE=1.000 DampFc=2.0000 IDamp=-1.
 RMSDP=2.74D-03 MaxDP=1.38D-02              OVMax= 0.00D+00

 Cycle   2  Pass 1  IDiag  3:
 E=  1.75398251792831     Delta-E=       -0.005615527072 Rises=F Damp=F
 DIIS: error= 2.14D-03 at cycle   2 NSaved=   2.
 NSaved= 2 IEnMin= 2 EnMin=  1.75398251792831     IErMin= 2 ErrMin= 2.14D-03
 ErrMax= 2.14D-03  0.00D+00 EMaxC= 1.00D-01 BMatC= 1.78D-04 BMatP= 2.48D-03
 IDIUse=3 WtCom= 9.79D-01 WtEn= 2.14D-02
 Coeff-Com: -0.320D+00 0.132D+01
 Coeff-En:   0.000D+00 0.100D+01
 Coeff:     -0.313D+00 0.131D+01
 Gap=     0.436 Goal=   None    Shift=    0.000
 RMSDP=1.19D-03 MaxDP=6.91D-03 DE=-5.62D-03 OVMax= 7.82D-03

 Cycle   3  Pass 1  IDiag  3:
 E=  1.75339828660860     Delta-E=       -0.000584231320 Rises=F Damp=F
 DIIS: error= 3.33D-04 at cycle   3 NSaved=   3.
 NSaved= 3 IEnMin= 3 EnMin=  1.75339828660860     IErMin= 3 ErrMin= 3.33D-04
 ErrMax= 3.33D-04  0.00D+00 EMaxC= 1.00D-01 BMatC= 5.05D-06 BMatP= 1.78D-04
 IDIUse=3 WtCom= 9.97D-01 WtEn= 3.33D-03
 Coeff-Com:  0.133D+00-0.619D+00 0.149D+01
 Coeff-En:   0.000D+00 0.000D+00 0.100D+01
 Coeff:      0.133D+00-0.617D+00 0.148D+01
 Gap=     0.436 Goal=   None    Shift=    0.000
 RMSDP=3.20D-04 MaxDP=1.83D-03 DE=-5.84D-04 OVMax= 2.44D-03

 Cycle   4  Pass 1  IDiag  3:
 E=  1.75337151756676     Delta-E=       -0.000026769042 Rises=F Damp=F
 DIIS: error= 4.36D-05 at cycle   4 NSaved=   4.
 NSaved= 4 IEnMin= 4 EnMin=  1.75337151756676     IErMin= 4 ErrMin= 4.36D-05
 ErrMax= 4.36D-05  0.00D+00 EMaxC= 1.00D-01 BMatC= 1.14D-07 BMatP= 5.05D-06
 IDIUse=1 WtCom= 1.00D+00 WtEn= 0.00D+00
 Coeff-Com: -0.159D-01 0.797D-01-0.305D+00 0.124D+01
 Coeff:     -0.159D-01 0.797D-01-0.305D+00 0.124D+01
 Gap=     0.436 Goal=   None    Shift=    0.000
 RMSDP=4.84D-05 MaxDP=2.46D-04 DE=-2.68D-05 OVMax= 3.61D-04

 Cycle   5  Pass 1  IDiag  3:
 E=  1.75337092370953     Delta-E=       -0.000000593857 Rises=F Damp=F
 DIIS: error= 6.92D-06 at cycle   5 NSaved=   5.
 NSaved= 5 IEnMin= 5 EnMin=  1.75337092370953     IErMin= 5 ErrMin= 6.92D-06
 ErrMax= 6.92D-06  0.00D+00 EMaxC= 1.00D-01 BMatC= 3.48D-09 BMatP= 1.14D-07
 IDIUse=1 WtCom= 1.00D+00 WtEn= 0.00D+00
 Coeff-Com: -0.200D-02 0.835D-02-0.204D-02-0.203D+00 0.120D+01
 Coeff:     -0.200D-02 0.835D-02-0.204D-02-0.203D+00 0.120D+01
 Gap=     0.436 Goal=   None    Shift=    0.000
 RMSDP=7.52D-06 MaxDP=3.54D-05 DE=-5.94D-07 OVMax= 5.90D-05

 Cycle   6  Pass 1  IDiag  3:
 E=  1.75337090723629     Delta-E=       -0.000000016473 Rises=F Damp=F
 DIIS: error= 1.81D-06 at cycle   6 NSaved=   6.
 NSaved= 6 IEnMin= 6 EnMin=  1.75337090723629     IErMin= 6 ErrMin= 1.81D-06
 ErrMax= 1.81D-06  0.00D+00 EMaxC= 1.00D-01 BMatC= 2.21D-10 BMatP= 3.48D-09
 IDIUse=1 WtCom= 1.00D+00 WtEn= 0.00D+00
 Coeff-Com:  0.144D-02-0.643D-02 0.108D-01 0.544D-01-0.548D+00 0.149D+01
 Coeff:      0.144D-02-0.643D-02 0.108D-01 0.544D-01-0.548D+00 0.149D+01
 Gap=     0.436 Goal=   None    Shift=    0.000
 RMSDP=2.10D-06 MaxDP=1.37D-05 DE=-1.65D-08 OVMax= 1.78D-05

 Cycle   7  Pass 1  IDiag  3:
 E=  1.75337090607387     Delta-E=       -0.000000001162 Rises=F Damp=F
 DIIS: error= 4.81D-07 at cycle   7 NSaved=   7.
 NSaved= 7 IEnMin= 7 EnMin=  1.75337090607387     IErMin= 7 ErrMin= 4.81D-07
 ErrMax= 4.81D-07  0.00D+00 EMaxC= 1.00D-01 BMatC= 1.19D-11 BMatP= 2.21D-10
 IDIUse=1 WtCom= 1.00D+00 WtEn= 0.00D+00
 Coeff-Com: -0.654D-03 0.294D-02-0.565D-02-0.173D-01 0.220D+00-0.754D+00
 Coeff-Com:  0.155D+01
 Coeff:     -0.654D-03 0.294D-02-0.565D-02-0.173D-01 0.220D+00-0.754D+00
 Coeff:      0.155D+01
 Gap=     0.436 Goal=   None    Shift=    0.000
 RMSDP=5.50D-07 MaxDP=4.38D-06 DE=-1.16D-09 OVMax= 5.79D-06

 Cycle   8  Pass 1  IDiag  3:
 E=  1.75337090600694     Delta-E=       -0.000000000067 Rises=F Damp=F
 DIIS: error= 8.24D-08 at cycle   8 NSaved=   8.
 NSaved= 8 IEnMin= 8 EnMin=  1.75337090600694     IErMin= 8 ErrMin= 8.24D-08
 ErrMax= 8.24D-08  0.00D+00 EMaxC= 1.00D-01 BMatC= 4.28D-13 BMatP= 1.19D-11
 IDIUse=1 WtCom= 1.00D+00 WtEn= 0.00D+00
 Coeff-Com:  0.247D-03-0.112D-02 0.221D-02 0.593D-02-0.808D-01 0.289D+00
 Coeff-Com: -0.719D+00 0.150D+01
 Coeff:      0.247D-03-0.112D-02 0.221D-02 0.593D-02-0.808D-01 0.289D+00
 Coeff:     -0.719D+00 0.150D+01
 Gap=     0.436 Goal=   None    Shift=    0.000
 RMSDP=1.07D-07 MaxDP=8.67D-07 DE=-6.69D-11 OVMax= 1.08D-06

 Cycle   9  Pass 1  IDiag  3:
 E=  1.75337090600445     Delta-E=       -0.000000000002 Rises=F Damp=F
 DIIS: error= 1.63D-08 at cycle   9 NSaved=   9.
 NSaved= 9 IEnMin= 9 EnMin=  1.75337090600445     IErMin= 9 ErrMin= 1.63D-08
 ErrMax= 1.63D-08  0.00D+00 EMaxC= 1.00D-01 BMatC= 1.27D-14 BMatP= 4.28D-13
 IDIUse=1 WtCom= 1.00D+00 WtEn= 0.00D+00
 Coeff-Com: -0.715D-04 0.322D-03-0.640D-03-0.168D-02 0.230D-01-0.828D-01
 Coeff-Com:  0.217D+00-0.566D+00 0.141D+01
 Coeff:     -0.715D-04 0.322D-03-0.640D-03-0.168D-02 0.230D-01-0.828D-01
 Coeff:      0.217D+00-0.566D+00 0.141D+01
 Gap=     0.436 Goal=   None    Shift=    0.000
 RMSDP=1.79D-08 MaxDP=1.50D-07 DE=-2.49D-12 OVMax= 1.24D-07

 Cycle  10  Pass 1  IDiag  3:
 E=  1.75337090600428     Delta-E=        0.000000000000 Rises=F Damp=F
 DIIS: error= 2.78D-09 at cycle  10 NSaved=  10.
 NSaved=10 IEnMin=10 EnMin=  1.75337090600428     IErMin=10 ErrMin= 2.78D-09
 ErrMax= 2.78D-09  0.00D+00 EMaxC= 1.00D-01 BMatC= 4.73D-16 BMatP= 1.27D-14
 IDIUse=1 WtCom= 1.00D+00 WtEn= 0.00D+00
 Coeff-Com:  0.125D-04-0.566D-04 0.117D-03 0.245D-03-0.374D-02 0.135D-01
 Coeff-Com: -0.361D-01 0.102D+00-0.373D+00 0.130D+01
 Coeff:      0.125D-04-0.566D-04 0.117D-03 0.245D-03-0.374D-02 0.135D-01
 Coeff:     -0.361D-01 0.102D+00-0.373D+00 0.130D+01
 Gap=     0.436 Goal=   None    Shift=    0.000
 RMSDP=3.13D-09 MaxDP=2.46D-08 DE=-1.71D-13 OVMax= 2.73D-08

 Cycle  11  Pass 2  IDiag  1:
 SCF Done:  E(RAM1) =   1.75337090600     A.U. after   11 cycles
            NFock= 10  Conv=0.31D-08     -V/T= 1.1332
 KE=-1.316532710068D+01 PE=-1.733383645665D+02 EE= 8.341180467000D+01
 Leave Link  502 at Tue Dec  1 17:37:53 2015, MaxMem=    33554432 cpu:         0.0
 (Enter /home/Applications/g09/g09/l701.exe)
 Compute integral first derivatives.
 ... and contract with generalized density number  0.
 Leave Link  701 at Tue Dec  1 17:37:53 2015, MaxMem=    33554432 cpu:         0.0
 (Enter /home/Applications/g09/g09/l702.exe)
 L702 exits ... SP integral derivatives will be done elsewhere.
 Leave Link  702 at Tue Dec  1 17:37:53 2015, MaxMem=    33554432 cpu:         0.0
 (Enter /home/Applications/g09/g09/l703.exe)
 Compute integral first derivatives, UseDBF=F ICtDFT=           0.
 Integral derivatives from FoFJK, PRISM(SPDF).
 Calling FoFJK, ICntrl=      2127 FMM=F ISym2X=0 I1Cent= 0 IOpClX= 0 NMat=1 NMatS=1 NMatT=0.
 FoFJK:  IHMeth= 8 ICntrl=    2127 DoSepK=F KAlg= 0 I1Cent=   0 FoldK=F
 IRaf=         0 NMat=   1 IRICut=       1 DoRegI=T DoRafI=F ISym2E= 0.
 FoFCou: FMM=F IPFlag=           0 FMFlag=      100000 FMFlg1=         800
         NFxFlg=           0 DoJE=F BraDBF=F KetDBF=F FulRan=T
         wScrn=  0.000000 ICntrl=    2127 IOpCl=  0 I1Cent=           0 NGrid=           0
         NMat0=    1 NMatS0=      1 NMatT0=    0 NMatD0=    1 NMtDS0=    0 NMtDT0=    0
 Symmetry not used in FoFCou.
 Leave Link  703 at Tue Dec  1 17:37:53 2015, MaxMem=    33554432 cpu:         0.0
 (Enter /home/Applications/g09/g09/l716.exe)
 Dipole        =-9.12289817D-03 1.79113878D-01-8.04831060D-03
 ***** Axes restored to original set *****
 -------------------------------------------------------------------
 Center     Atomic                   Forces (Hartrees/Bohr)
 Number     Number              X              Y              Z
 -------------------------------------------------------------------
      1        6          -0.003204965   -0.002275819    0.014479703
      2        6           0.003068815    0.009930564   -0.007242243
      3        8           0.007190189    0.003237036   -0.002026779
      4        6           0.000345101   -0.008705420    0.013211422
      5        6          -0.007225674   -0.001894701   -0.016837094
      6        1           0.000125076   -0.002295777    0.000027063
      7        1          -0.000424213   -0.000453354   -0.001057731
      8        1           0.001304368    0.000217979   -0.000790454
      9        1          -0.001178696    0.002239492    0.000236113
 -------------------------------------------------------------------
 Cartesian Forces:  Max     0.016837094 RMS     0.006257559
 Leave Link  716 at Tue Dec  1 17:37:53 2015, MaxMem=    33554432 cpu:         0.0
 (Enter /home/Applications/g09/g09/l103.exe)

 GradGradGradGradGradGradGradGradGradGradGradGradGradGradGradGradGradGrad
 Berny optimization.
 Using GEDIIS/GDIIS optimizer.
 FormGI is forming the generalized inverse of G from B-inverse, IUseBI=4.
 Internal  Forces:  Max     0.009130280 RMS     0.003389601
 Search for a local minimum.
 Step number   3 out of a maximum of   48
 All quantities printed in internal units (Hartrees-Bohrs-Radians)
 RMS Force = .33896D-02 SwitMx=.10000D-02 MixMth= 1
 Mixed Optimization -- RFO/linear search
 Update second derivatives using D2CorX and points    1    2    3
 DE= -2.22D-03 DEPred=-4.44D-03 R= 5.00D-01
 Trust test= 5.00D-01 RLast= 2.97D-01 DXMaxT set to 5.05D-01
 ITU=  0  1  0
 Use linear search instead of GDIIS.
     Eigenvalues ---    0.02114   0.02363   0.02387   0.02565   0.02764
     Eigenvalues ---    0.05075   0.13208   0.15983   0.15992   0.16283
     Eigenvalues ---    0.21400   0.23192   0.31228   0.36414   0.37151
     Eigenvalues ---    0.37704   0.40922   0.47462   0.49042   0.57738
     Eigenvalues ---    0.98877
 RFO step:  Lambda=-1.88426517D-03 EMin= 2.11388302D-02
 Quartic linear search produced a step of -0.32514.
 Iteration  1 RMS(Cart)=  0.03593694 RMS(Int)=  0.00122763
 Iteration  2 RMS(Cart)=  0.00119519 RMS(Int)=  0.00077862
 Iteration  3 RMS(Cart)=  0.00000046 RMS(Int)=  0.00077862
 ITry= 1 IFail=0 DXMaxC= 1.11D-01 DCOld= 1.00D+10 DXMaxT= 5.05D-01 DXLimC= 3.00D+00 Rises=F
 Variable       Old X    -DE/DX   Delta X   Delta X   Delta X     New X
                                 (Linear)    (Quad)   (Total)
    R1        2.46183  -0.00819  -0.01494   0.00925  -0.00601   2.45582
    R2        2.57363  -0.00616  -0.01101   0.00965  -0.00169   2.57194
    R3        2.05071  -0.00227  -0.00682   0.00840   0.00158   2.05229
    R4        2.56488  -0.00470  -0.00578  -0.00250  -0.00816   2.55672
    R5        2.01268  -0.00074  -0.00417   0.00521   0.00104   2.01373
    R6        2.56972  -0.00913  -0.01314   0.01706   0.00433   2.57405
    R7        2.45954  -0.00556  -0.01044   0.00609  -0.00422   2.45532
    R8        2.01271  -0.00025   0.00853  -0.01877  -0.01025   2.00247
    R9        2.04628  -0.00126  -0.00737   0.01203   0.00466   2.05095
    A1        1.89380  -0.00178   0.00493  -0.00930  -0.00571   1.88809
    A2        2.19652   0.00217  -0.00856   0.02030   0.01254   2.20906
    A3        2.19195  -0.00021   0.00289  -0.00994  -0.00618   2.18578
    A4        1.89523   0.00191  -0.00210   0.01082   0.00786   1.90309
    A5        2.30922  -0.00208   0.00718  -0.02218  -0.01431   2.29491
    A6        2.07859   0.00020  -0.00560   0.01144   0.00652   2.08511
    A7        1.84931  -0.00086  -0.00136   0.00099  -0.00097   1.84834
    A8        1.90591   0.00010   0.00326  -0.00737  -0.00503   1.90089
    A9        2.08576  -0.00054  -0.01322   0.02672   0.01320   2.09897
   A10        2.28993   0.00066   0.01044  -0.01682  -0.00666   2.28327
   A11        1.87572   0.00133  -0.00341   0.01333   0.00815   1.88387
   A12        2.20758  -0.00255   0.01039  -0.02914  -0.01886   2.18872
   A13        2.19866   0.00144  -0.00669   0.01843   0.01154   2.21020
    D1        0.07085  -0.00499  -0.02922  -0.06794  -0.09655  -0.02570
    D2       -3.08953  -0.00288  -0.00141  -0.06236  -0.06437   3.12928
[...]
     17 -0.560697D-01  0.112152D+00
     18  0.270930D-01 -0.617785D-01  0.945857D-01
     19  0.289767D-01 -0.503732D-01 -0.328073D-01  0.831805D-01
     20 -0.107276D-01 -0.258277D-01  0.193254D-01  0.650224D-02  0.938352D-01
     21  0.963840D-02  0.148972D-01 -0.959738D-02 -0.529977D-02 -0.470661D-01
     22  0.108921D-02  0.109305D-01 -0.972803D-02 -0.120247D-02 -0.467691D-01
     23 -0.108047D-04  0.117990D-05  0.337191D-05 -0.558103D-05 -0.826937D-05
     24 -0.122103D-04  0.284203D-05  0.000000D+00  0.000000D+00 -0.222101D-05
     25 -0.397971D-05 -0.221166D-05  0.188480D-05 -0.280830D-05 -0.103031D-04
     26 -0.538529D-05  0.000000D+00 -0.230179D-05  0.304727D-05 -0.425470D-05
     27 -0.441077D-05  0.291132D-05 -0.373824D-05 -0.253897D-05 -0.859499D-05
     28  0.139525D-05  0.153985D-05 -0.546372D-05  0.140932D-05 -0.177545D-05
     29 -0.804894D-05  0.305840D-05  0.000000D+00 -0.342076D-05 -0.857176D-05
     30 -0.224291D-05  0.168693D-05 -0.266523D-05  0.000000D+00 -0.175223D-05
     31 -0.895751D-05  0.605853D-05 -0.766102D-05  0.641965D-05  0.000000D+00
     32 -0.117750D-04  0.237053D-05 -0.333125D-05  0.290953D-05 -0.429150D-05
     33  0.421712D-05  0.000000D+00  0.487206D-05 -0.116769D-04  0.392565D-05
     34  0.469126D-05  0.440813D-05 -0.254505D-04  0.235960D-04  0.113809D-05
     35  0.459670D-05  0.663938D-05 -0.572910D-05  0.551945D-05  0.301962D-05
     36 -0.309850D-05  0.734873D-05 -0.411803D-05  0.233026D-05 -0.446619D-05
     37  0.820086D-05 -0.252738D-05 -0.375452D-05  0.167205D-05  0.417157D-05
     38  0.000000D+00 -0.181803D-05 -0.214345D-05 -0.151713D-05 -0.331424D-05
               21            22            23            24            25 
     21  0.738990D-01
     22 -0.268329D-01  0.736020D-01
     23  0.208652D-05  0.897342D-05  0.228183D-01
     24  0.203940D-05  0.120721D-05  0.325094D-02  0.172849D-01
     25  0.000000D+00  0.111589D-04  0.917156D-02 -0.775366D-02  0.154799D-01
     26  0.000000D+00  0.339265D-05 -0.103958D-01  0.628033D-02 -0.144535D-02
     27  0.334231D-05  0.116971D-05 -0.178005D-01 -0.755954D-02 -0.297950D-02
     28 -0.902372D-05  0.121031D-04 -0.787541D-02 -0.391183D-02  0.211079D-02
     29  0.660885D-05  0.000000D+00 -0.442703D-02  0.322472D-02 -0.916150D-02
     30 -0.575719D-05  0.101454D-04  0.549807D-02  0.687243D-02 -0.407121D-02
     31  0.124223D-05 -0.218670D-05 -0.191175D-01  0.204202D-02 -0.116450D-01
     32  0.000000D+00  0.471313D-05 -0.226847D-02 -0.100423D-01  0.292891D-02
     33 -0.414562D-05 -0.183859D-05  0.783012D-02 -0.683366D-02  0.975415D-02
     34 -0.655283D-05  0.398352D-05  0.513274D-02 -0.800930D-03  0.153756D-02
     35  0.000000D+00  0.000000D+00  0.574054D-02  0.887784D-02 -0.439163D-02
     36 -0.842591D-05  0.111552D-04 -0.438765D-02  0.515549D-02 -0.958607D-02
     37  0.340809D-05 -0.454816D-05  0.887387D-02  0.187011D-02  0.515291D-02
     38 -0.533171D-05  0.618037D-05 -0.125432D-02 -0.185224D-02 -0.415311D-04
               26            27            28            29            30 
     26  0.152308D-01
     27  0.726147D-02  0.221916D-01
     28  0.607437D-02  0.766993D-02  0.123074D-01
     29 -0.150975D-02  0.766736D-02 -0.211633D-02  0.123070D-01
     30 -0.269685D-02 -0.685434D-02  0.252109D-02  0.252336D-02  0.118988D-01
     31  0.951446D-02  0.703428D-02  0.515013D-02 -0.288559D-03 -0.217270D-02
     32 -0.484496D-02 -0.178400D-02  0.173718D-02 -0.687731D-02 -0.335613D-02
     33 -0.490963D-02  0.703437D-02 -0.287183D-03  0.514886D-02 -0.217269D-02
     34 -0.439611D-02 -0.178690D-02 -0.687726D-02  0.173630D-02 -0.335407D-02
     35 -0.125433D-02 -0.178040D-01 -0.443020D-02 -0.787466D-02  0.549911D-02
     36 -0.429338D-04 -0.298512D-02 -0.916252D-02  0.210923D-02 -0.406817D-02
     37 -0.185084D-02 -0.755701D-02  0.322497D-02 -0.391056D-02  0.687142D-02
     38 -0.639450D-03  0.726184D-02 -0.150735D-02  0.607333D-02 -0.269586D-02
               31            32            33            34            35 
     31  0.234918D-01
     32  0.527182D-02  0.119657D-01
     33 -0.190284D-01 -0.640172D-02  0.234840D-01
     34 -0.640365D-02 -0.129430D-02  0.526975D-02  0.119624D-01
     35  0.783242D-02  0.513095D-02 -0.191170D-01 -0.226604D-02  0.228249D-01
     36  0.975511D-02  0.153773D-02 -0.116456D-01  0.292849D-02  0.917742D-02
     37 -0.683270D-02 -0.801925D-03  0.204103D-02 -0.100404D-01  0.325051D-02
     38 -0.491001D-02 -0.439515D-02  0.951240D-02 -0.484585D-02 -0.103969D-01
               36            37            38 
     36  0.154812D-01
     37 -0.775210D-02  0.172845D-01
     38 -0.144829D-02  0.628189D-02  0.152305D-01
 Leave Link  716 at Tue Dec  1 17:37:54 2015, MaxMem=    33554432 cpu:         0.0
 (Enter /home/Applications/g09/g09/l103.exe)

 GradGradGradGradGradGradGradGradGradGradGradGradGradGradGradGradGradGrad
 Berny optimization.
 Red2BG is reusing G-inverse.
 Internal  Forces:  Max     0.000246091 RMS     0.000071809
 Search for a local minimum.
 Step number   1 out of a maximum of    2
 All quantities printed in internal units (Hartrees-Bohrs-Radians)
 Second derivative matrix not updated -- analytic derivatives used.
 ITU=  0
     Eigenvalues ---    0.01639   0.02071   0.03753   0.04041   0.07369
     Eigenvalues ---    0.08251   0.09709   0.09908   0.11459   0.11681
     Eigenvalues ---    0.16706   0.24981   0.37610   0.38140   0.40473
     Eigenvalues ---    0.41259   0.61540   0.62093   0.66451   0.78794
     Eigenvalues ---    1.04172
 Angle between quadratic step and forces=  55.49 degrees.
 Linear search not attempted -- first point.
 Iteration  1 RMS(Cart)=  0.00028752 RMS(Int)=  0.00000008
 Iteration  2 RMS(Cart)=  0.00000008 RMS(Int)=  0.00000005
 ITry= 1 IFail=0 DXMaxC= 8.84D-04 DCOld= 1.00D+10 DXMaxT= 3.00D-01 DXLimC= 3.00D+00 Rises=F
 Variable       Old X    -DE/DX   Delta X   Delta X   Delta X     New X
                                 (Linear)    (Quad)   (Total)
    R1        2.45406   0.00019   0.00000   0.00017   0.00017   2.45423
    R2        2.56938  -0.00017   0.00000  -0.00025  -0.00025   2.56912
    R3        2.04463   0.00007   0.00000   0.00020   0.00020   2.04483
    R4        2.55835   0.00001   0.00000   0.00003   0.00003   2.55838
    R5        2.01346  -0.00004   0.00000  -0.00012  -0.00012   2.01335
    R6        2.55799   0.00025   0.00000   0.00039   0.00039   2.55838
    R7        2.45423   0.00004   0.00000   0.00001   0.00001   2.45423
    R8        2.01371  -0.00015   0.00000  -0.00036  -0.00036   2.01335
    R9        2.04485  -0.00001   0.00000  -0.00002  -0.00002   2.04483
    A1        1.88376   0.00006   0.00000   0.00024   0.00023   1.88399
    A2        2.21361   0.00002   0.00000   0.00027   0.00027   2.21389
    A3        2.18582  -0.00008   0.00000  -0.00051  -0.00051   2.18531
    A4        1.90502   0.00001   0.00000  -0.00002  -0.00002   1.90500
    A5        2.29364   0.00002   0.00000   0.00022   0.00022   2.29386
    A6        2.08453  -0.00003   0.00000  -0.00020  -0.00020   2.08433
    A7        1.84705  -0.00012   0.00000  -0.00025  -0.00025   1.84680
    A8        1.90479   0.00006   0.00000   0.00020   0.00020   1.90500
    A9        2.08449  -0.00003   0.00000  -0.00017  -0.00017   2.08433
   A10        2.29390  -0.00003   0.00000  -0.00004  -0.00004   2.29386
   A11        1.88416  -0.00001   0.00000  -0.00017  -0.00017   1.88399
   A12        2.18558  -0.00004   0.00000  -0.00028  -0.00028   2.18531
   A13        2.21344   0.00005   0.00000   0.00045   0.00045   2.21389
    D1        0.00035  -0.00003   0.00000  -0.00035  -0.00035   0.00000
    D2        3.14149   0.00000   0.00000   0.00010   0.00010   3.14159
    D3        3.14143   0.00000   0.00000   0.00017   0.00017   3.14159
    D4       -0.00062   0.00002   0.00000   0.00062   0.00062   0.00000
    D5       -0.00028   0.00002   0.00000   0.00028   0.00028   0.00000
    D6        3.14103   0.00002   0.00000   0.00057   0.00057   3.14159
    D7       -3.14136   0.00000   0.00000  -0.00023  -0.00023  -3.14159
    D8       -0.00006   0.00000   0.00000   0.00006   0.00006   0.00000
    D9       -0.00029   0.00003   0.00000   0.00029   0.00029   0.00000
   D10       -3.14149   0.00000   0.00000  -0.00010  -0.00010  -3.14159
   D11        0.00012  -0.00001   0.00000  -0.00012  -0.00012   0.00000
   D12        3.14136   0.00000   0.00000   0.00023   0.00023   3.14159
   D13        0.00009   0.00000   0.00000  -0.00009  -0.00009   0.00000
   D14       -3.14120   0.00000   0.00000  -0.00039  -0.00039  -3.14159
   D15       -3.14110  -0.00002   0.00000  -0.00050  -0.00050  -3.14159
   D16        0.00079  -0.00002   0.00000  -0.00079  -0.00079   0.00000
         Item               Value     Threshold  Converged?
 Maximum Force            0.000246     0.000450     YES
 RMS     Force            0.000072     0.000300     YES
 Maximum Displacement     0.000884     0.001800     YES
 RMS     Displacement     0.000288     0.001200     YES
 Predicted change in Energy=-2.362751D-07
 Optimization completed.
    -- Stationary point found.
                           ----------------------------
                           !   Optimized Parameters   !
                           ! (Angstroms and Degrees)  !
 --------------------------                            --------------------------
 ! Name  Definition              Value          Derivative Info.                !
 --------------------------------------------------------------------------------
 ! R1    R(1,2)                  1.2986         -DE/DX =    0.0002              !
 ! R2    R(1,5)                  1.3597         -DE/DX =   -0.0002              !
 ! R3    R(1,9)                  1.082          -DE/DX =    0.0001              !
 ! R4    R(2,3)                  1.3538         -DE/DX =    0.0                 !
 ! R5    R(2,8)                  1.0655         -DE/DX =    0.0                 !
 ! R6    R(3,4)                  1.3536         -DE/DX =    0.0002              !
 ! R7    R(4,5)                  1.2987         -DE/DX =    0.0                 !
 ! R8    R(4,7)                  1.0656         -DE/DX =   -0.0001              !
 ! R9    R(5,6)                  1.0821         -DE/DX =    0.0                 !
 ! A1    A(2,1,5)              107.9313         -DE/DX =    0.0001              !
 ! A2    A(2,1,9)              126.8308         -DE/DX =    0.0                 !
 ! A3    A(5,1,9)              125.238          -DE/DX =   -0.0001              !
 ! A4    A(1,2,3)              109.1496         -DE/DX =    0.0                 !
 ! A5    A(1,2,8)              131.4159         -DE/DX =    0.0                 !
 ! A6    A(3,2,8)              119.4346         -DE/DX =    0.0                 !
 ! A7    A(2,3,4)              105.8281         -DE/DX =   -0.0001              !
 ! A8    A(3,4,5)              109.1366         -DE/DX =    0.0001              !
 ! A9    A(3,4,7)              119.4328         -DE/DX =    0.0                 !
 ! A10   A(5,4,7)              131.4306         -DE/DX =    0.0                 !
 ! A11   A(1,5,4)              107.9545         -DE/DX =    0.0                 !
 ! A12   A(1,5,6)              125.2248         -DE/DX =    0.0                 !
 ! A13   A(4,5,6)              126.8207         -DE/DX =    0.0                 !
 ! D1    D(5,1,2,3)              0.0202         -DE/DX =    0.0                 !
 ! D2    D(5,1,2,8)            179.9941         -DE/DX =    0.0                 !
 ! D3    D(9,1,2,3)            179.9904         -DE/DX =    0.0                 !
 ! D4    D(9,1,2,8)             -0.0357         -DE/DX =    0.0                 !
 ! D5    D(2,1,5,4)             -0.0159         -DE/DX =    0.0                 !
 ! D6    D(2,1,5,6)            179.9675         -DE/DX =    0.0                 !
 ! D7    D(9,1,5,4)           -179.9868         -DE/DX =    0.0                 !
 ! D8    D(9,1,5,6)             -0.0034         -DE/DX =    0.0                 !
 ! D9    D(1,2,3,4)             -0.0167         -DE/DX =    0.0                 !
 ! D10   D(8,2,3,4)           -179.9943         -DE/DX =    0.0                 !
 ! D11   D(2,3,4,5)              0.0066         -DE/DX =    0.0                 !
 ! D12   D(2,3,4,7)            179.9867         -DE/DX =    0.0                 !
 ! D13   D(3,4,5,1)              0.0054         -DE/DX =    0.0                 !
 ! D14   D(3,4,5,6)           -179.9777         -DE/DX =    0.0                 !
 ! D15   D(7,4,5,1)           -179.9715         -DE/DX =    0.0                 !
 ! D16   D(7,4,5,6)              0.0454         -DE/DX =    0.0                 !
 --------------------------------------------------------------------------------
 GradGradGradGradGradGradGradGradGradGradGradGradGradGradGradGradGradGrad

 Leave Link  103 at Tue Dec  1 17:37:54 2015, MaxMem=    33554432 cpu:         0.0
 (Enter /home/Applications/g09/g09/l9999.exe)
 1\1\GINC-DUSTIN-DESKTOP\Freq\RAM1\ZDO\C4H4O1\DUSTIN\01-Dec-2015\0\\#P 
 Geom=AllCheck Guess=TCheck SCRF=Check GenChk RAM1/ZDO Freq\\AM1-Repara
 m Input\\0,1\C,0.8973743344,-0.688994476,-0.0044350629\C,-0.3360526699
 ,-1.0953312213,-0.0041474566\O,-1.1580127896,-0.0196080476,0.000904955
 6\C,-0.3473702312,1.0644417584,0.0040455875\C,0.890199334,0.6706311819
 ,0.0009388935\H,1.7708453,1.2994183445,0.0025711197\H,-0.7770254185,2.
 0395824545,0.0080349328\H,-0.7554861603,-2.0747747853,-0.0074503757\H,
 1.784368301,-1.3085822091,-0.0077885939\\Version=ES64L-G09RevD.01\Stat
 e=1-A\HF=1.7520188\RMSD=2.872e-10\RMSF=1.103e-04\ZeroPoint=0.0787224\T
 hermal=0.0821463\Dipole=0.1732338,0.0010338,-0.0000496\DipoleDeriv=-0.
 5454289,0.3179606,0.001743,0.1314216,-0.2440809,-0.0006228,0.0009655,-
 0.0008242,-0.1201226,0.6276977,-0.17387,-0.0010086,-0.3455701,-0.05407
 67,-0.0010866,-0.0016205,-0.0013941,0.3539617,-0.6152298,-0.0028692,0.
 0003586,-0.0032489,-0.0357185,0.0010558,0.0003007,0.0012227,-0.3444336
 ,0.6225389,0.1806887,0.0004566,0.3528396,-0.0487166,-0.0018001,0.00094
 56,-0.0016834,0.3540709,-0.5411754,-0.3209218,-0.0008799,-0.1345185,-0
 .249065,-0.0004335,0.0000155,-0.000181,-0.1202901,0.2067225,0.1175429,
 0.000259,0.1091301,0.1770609,0.0005558,0.0002309,0.0005537,0.0108997,0
 .0187921,-0.0735417,-0.0003905,-0.0900239,0.1390997,0.0008645,-0.00043
 52,0.0008209,-0.0724615,0.0170818,0.0721917,0.000151,0.0887705,0.14080
 28,0.0007212,0.0002189,0.0007502,-0.0724402,0.2090012,-0.117181,-0.000
 6893,-0.1087988,0.1746922,0.0007458,-0.0006211,0.0007351,0.0108165\Pol
 ar=36.4979419,0.000507,35.6112765,-0.0396239,0.1106676,6.3863754\Hyper
 Polar=2.4347322,0.1763813,-13.1458425,-0.2278537,0.0110048,-0.0608945,
 0.0244964,4.2366509,0.0200711,-0.0151383\PG=C01 [X(C4H4O1)]\NImag=0\\1
 .13782029,0.01917168,0.92620833,-0.00119962,0.00263842,0.23154565,-0.6
 9468259,-0.15016135,0.00029968,1.05592245,-0.25157160,-0.15333228,0.00
 024899,0.11279833,0.95299995,-0.00009814,0.00011743,-0.12161653,-0.000
 71573,0.00251108,0.24320984,-0.11748222,0.01456974,0.00024633,-0.24037
 756,0.26333660,0.00115872,0.70164876,0.07161229,0.00771908,-0.00018148
 ,0.21302720,-0.38567024,-0.00129963,-0.00050301,0.86097917,0.00046872,
 -0.00012109,0.03087096,0.00096833,-0.00136269,-0.11023280,-0.00072691,
 0.00278513,0.12638565,0.01051265,0.08760491,0.00033785,-0.00139831,-0.
 01086888,-0.00001003,-0.23562701,-0.21177926,-0.00064158,1.05807662,0.
 01206574,-0.02232229,-0.00014105,0.01192234,-0.10307933,-0.00050230,-0
 .26209631,-0.39096593,-0.00074590,-0.11136350,0.95104317,0.00004384,-0
 .00023223,0.00910072,0.00007785,-0.00047826,0.02571487,-0.00084324,-0.
 00080935,-0.11016007,-0.00143996,0.00279521,0.24324057,-0.08259484,-0.
 05476122,-0.00025157,0.01159188,-0.01166248,-0.00004264,-0.11663272,-0
 .07290938,-0.00009847,-0.69839269,0.24592175,0.00168865,1.13769292,0.0
 6001958,-0.58075316,-0.00191913,-0.08723580,-0.02329169,-0.00001005,-0
 .01586276,0.00682868,-0.00005857,0.14453820,-0.14932885,-0.00029503,-0
 .01719870,0.92580513,0.00019153,-0.00176448,-0.11593206,-0.00034171,-0
 .00010737,0.00910119,0.00013297,-0.00000079,0.03089252,0.00129752,-0.0
 0042012,-0.12167507,-0.00116485,0.00277908,0.23160249,-0.00108198,-0.0
 1483005,-0.00005115,0.00004158,-0.00163687,0.00000075,-0.00372920,-0.0
 0042755,0.00001090,-0.03985884,-0.01226382,0.00000596,-0.22491183,-0.1
 3049424,-0.00035587,0.27188453,-0.02404912,-0.02940345,-0.00011504,-0.
 00145647,-0.00443290,-0.00004308,0.00134012,0.00042882,-0.00003289,-0.
 00375429,0.00877106,0.00001928,-0.13074142,-0.13402298,-0.00016854,0.1
 5921562,0.16139490,-0.00008517,-0.00012459,0.00673291,0.00000018,-0.00
 004179,0.00688858,0.00001995,-0.00002906,0.00799582,0.00003471,0.00002
 776,0.00470237,-0.00035475,-0.00017055,-0.05868125,0.00038625,0.000344
 89,0.03362111,-0.00318734,0.00178585,0.00002451,0.00118027,-0.00187690
 ,-0.00000167,0.00807530,-0.01981610,-0.00007515,-0.09449396,0.11218545
 ,0.00043713,-0.02211998,0.03291532,0.00015976,-0.00251437,-0.00014533,
 0.00000249,0.11378473,0.00197556,-0.00181716,-0.00005057,0.00099219,-0
 .00552988,-0.00004381,-0.00177949,-0.04999298,-0.00021403,0.10504584,-
 0.28419640,-0.00091158,0.01899873,-0.01438122,-0.00010130,0.00112845,0
 .00019009,-0.00000104,-0.12627272,0.35669537,0.00002569,-0.00005063,0.
 01132479,0.00000978,-0.00004026,0.00591973,-0.00000610,-0.00018981,0.0
 0812787,0.00040591,-0.00092149,-0.06372856,0.00011036,-0.00011920,0.00
 662936,0.00000713,0.00000001,0.00017947,-0.00054872,0.00131330,0.03497
 692,-0.02159338,-0.03299920,-0.00008740,-0.09224846,-0.11028233,-0.000
 39619,0.00784146,0.02041485,0.00007759,0.00117004,0.00194789,0.0000142
 5,-0.00314938,-0.00180174,0.00001310,-0.00042555,-0.00109350,-0.000005
 35,-0.00028765,-0.00012759,-0.00000359,0.11119918,-0.01908214,-0.01492
 166,-0.00005671,-0.10313898,-0.28660005,-0.00074178,0.00237879,-0.0497
 4446,-0.00022318,-0.00092481,-0.00552118,-0.00004286,-0.00199137,-0.00
 186128,-0.00004728,-0.00003681,-0.00067985,0.00000115,0.00012816,-0.00
 029999,0.00000784,0.12382398,0.35944880,-0.00003413,-0.00003750,0.0066
 3502,-0.00036775,-0.00073179,-0.06368929,0.00000883,-0.00024544,0.0081
 2392,0.00000148,-0.00004750,0.00591759,0.00001097,-0.00005002,0.011330
 82,-0.00000040,0.00000319,-0.00100976,-0.00000190,0.00000795,-0.002420
 07,0.00038372,0.00110127,0.03493126,-0.22771072,0.12961940,0.00068138,
 -0.04002911,0.01176422,0.00010493,-0.00371688,0.00038095,0.00001658,0.
 00001165,0.00168036,0.00001554,-0.00148352,0.01512038,0.00006755,0.000
 59570,0.00068439,0.00000169,-0.00043702,0.00003904,-0.00000046,-0.0025
 0628,-0.00115683,-0.00000082,0.27527621,0.12985800,-0.13137753,-0.0004
 2344,0.00325255,0.00893660,0.00001214,-0.00138365,0.00041780,-0.000026
 79,0.00150173,-0.00440009,-0.00004517,0.02434413,-0.02899479,-0.000169
 20,-0.00065479,-0.00224565,-0.00000679,0.00109630,-0.00066787,0.000000
 24,0.00011759,0.00017964,-0.00000016,-0.15813185,0.15815193,0.00068729
 ,-0.00042532,-0.05866138,0.00006939,0.00000210,0.00470443,0.00000945,-
 0.00002957,0.00799610,0.00001411,-0.00004461,0.00688758,0.00010230,-0.
 00015655,0.00673206,-0.00000358,-0.00000782,-0.00042926,0.00000355,0.0
 0000107,-0.00100952,0.00000388,0.00000155,0.00018049,-0.00088639,0.000
 65916,0.03359949\\-0.00004567,-0.00025112,-0.00009600,0.00010717,0.000
 10167,0.00008822,0.00026926,0.00017888,-0.00003588,-0.00009456,-0.0002
 4019,0.00004796,-0.00008955,0.00008947,-0.00000929,-0.00001861,0.00003
 769,0.00002170,-0.00005744,0.00013451,-0.00002202,0.00001153,-0.000048
 23,-0.00001328,-0.00008214,-0.00000267,0.00001860\\\@


 ALL OUR THINKING ABOUT NATURE MUST NECESSARILY MOVE IN CIRCLES OR SPIRALS;
 FOR WE CAN ONLY UNDERSTAND NATURE IF WE THINK ABOUT HER, AND WE CAN ONLY
 THINK BECAUSE OUR BRAIN IS BUILT IN ACCORDANCE WITH NATURE'S LAWS.

                                             -- TIMOTHY FERRIS, "GALAXIES"
 Job cpu time:       0 days  0 hours  0 minutes  0.3 seconds.
 File lengths (MBytes):  RWF=      5 Int=      0 D2E=      0 Chk=      2 Scr=      1
 Normal termination of Gaussian 09 at Tue Dec  1 17:37:54 2015.
