 Entering Gaussian System, Link 0=g09
 Input=FuranDFT_64.com
 Output=FuranDFT_64.log
 Initial command:
 /home/Applications/g09/g09/l1.exe "/home/Applications/g09/scratch/Gau-6116.inp" -scrdir="/home/Applications/g09/scratch/"
 Entering Link 1 = /home/Applications/g09/g09/l1.exe PID=      6118.
  
 Copyright (c) 1988,1990,1992,1993,1995,1998,2003,2009,2013,
            Gaussian, Inc.  All Rights Reserved.
  
 This is part of the Gaussian(R) 09 program.  It is based on
 the Gaussian(R) 03 system (copyright 2003, Gaussian, Inc.),
 the Gaussian(R) 98 system (copyright 1998, Gaussian, Inc.),
 the Gaussian(R) 94 system (copyright 1995, Gaussian, Inc.),
 the Gaussian 92(TM) system (copyright 1992, Gaussian, Inc.),
 the Gaussian 90(TM) system (copyright 1990, Gaussian, Inc.),
 the Gaussian 88(TM) system (copyright 1988, Gaussian, Inc.),
 the Gaussian 86(TM) system (copyright 1986, Carnegie Mellon
 University), and the Gaussian 82(TM) system (copyright 1983,
 Carnegie Mellon University). Gaussian is a federally registered
 trademark of Gaussian, Inc.
  
 This software contains proprietary and confidential information,
 including trade secrets, belonging to Gaussian, Inc.
  
 This software is provided under written license and may be
 used, copied, transmitted, or stored only in accord with that
 written license.
  
 The following legend is applicable only to US Government
 contracts under FAR:
  
                    RESTRICTED RIGHTS LEGEND
  
 Use, reproduction and disclosure by the US Government is
 subject to restrictions as set forth in subparagraphs (a)
 and (c) of the Commercial Computer Software - Restricted
 Rights clause in FAR 52.227-19.
  
 Gaussian, Inc.
 340 Quinnipiac St., Bldg. 40, Wallingford CT 06492
  
  
 ---------------------------------------------------------------
 Warning -- This program may not be used in any manner that
 competes with the business of Gaussian, Inc. or will provide
 assistance to any competitor of Gaussian, Inc.  The licensee
 of this program is prohibited from giving any competitor of
 Gaussian, Inc. access to this program.  By using this program,
 the user acknowledges that Gaussian, Inc. is engaged in the
 business of creating and licensing software in the field of
 computational chemistry and represents and warrants to the
 licensee that it is not a competitor of Gaussian, Inc. and that
 it will not use this program in any manner prohibited above.
 ---------------------------------------------------------------
  

 Cite this work as:
 Gaussian 09, Revision D.01,
 M. J. Frisch, G. W. Trucks, H. B. Schlegel, G. E. Scuseria, 
 M. A. Robb, J. R. Cheeseman, G. Scalmani, V. Barone, B. Mennucci, 
 G. A. Petersson, H. Nakatsuji, M. Caricato, X. Li, H. P. Hratchian, 
 A. F. Izmaylov, J. Bloino, G. Zheng, J. L. Sonnenberg, M. Hada, 
 M. Ehara, K. Toyota, R. Fukuda, J. Hasegawa, M. Ishida, T. Nakajima, 
 Y. Honda, O. Kitao, H. Nakai, T. Vreven, J. A. Montgomery, Jr., 
 J. E. Peralta, F. Ogliaro, M. Bearpark, J. J. Heyd, E. Brothers, 
 K. N. Kudin, V. N. Staroverov, T. Keith, R. Kobayashi, J. Normand, 
 K. Raghavachari, A. Rendell, J. C. Burant, S. S. Iyengar, J. Tomasi, 
 M. Cossi, N. Rega, J. M. Millam, M. Klene, J. E. Knox, J. B. Cross, 
 V. Bakken, C. Adamo, J. Jaramillo, R. Gomperts, R. E. Stratmann, 
 O. Yazyev, A. J. Austin, R. Cammi, C. Pomelli, J. W. Ochterski, 
 R. L. Martin, K. Morokuma, V. G. Zakrzewski, G. A. Voth, 
 P. Salvador, J. J. Dannenberg, S. Dapprich, A. D. Daniels, 
 O. Farkas, J. B. Foresman, J. V. Ortiz, J. Cioslowski, 
 and D. J. Fox, Gaussian, Inc., Wallingford CT, 2013.
 
 ******************************************
 Gaussian 09:  ES64L-G09RevD.01 24-Apr-2013
                15-Dec-2015 
 ******************************************
 -------------------------------------------------------
 #P B3LYP/3-21G CIS(Singlets,NStates=15) pop(full) force
 -------------------------------------------------------
 1/10=7,30=1,38=1/1,3;
 2/12=2,17=6,18=5,40=1/2;
 3/5=5,11=9,16=1,25=1,30=1,71=1,74=-5/1,2,8,3;
 4//1;
 5/5=2,38=5/2;
 8/6=1,10=1,108=15/1;
 9/15=2,41=15,42=1,48=1/14;
 10/5=4/2;
 6/7=3,18=1/1;
 7/12=6,13=5,29=1/1,2,3,16;
 1/10=7,30=1/3;
 99//99;
 Leave Link    1 at Tue Dec 15 16:23:54 2015, MaxMem=           0 cpu:         0.0
 (Enter /home/Applications/g09/g09/l101.exe)
 --------
 FuranDFT
 --------
 Symbolic Z-matrix:
 Charge =  0 Multiplicity = 1
 6                     0.92955  -0.68988  -0.02558 
 6                    -0.37738  -1.13998  -0.03167 
 8                    -1.16711   0.03678   0.03146 
 6                    -0.35244   1.11859  -0.01154 
 6                     0.92217   0.68269   0.02075 
 1                     1.85942   1.36572  -0.02728 
 1                    -0.83576   2.06236   0.04521 
 1                    -0.81728  -2.04629  -0.03237 
 1                     1.77121  -1.38968   0.01909 
 
 NAtoms=      9 NQM=        9 NQMF=       0 NMMI=      0 NMMIF=      0
                NMic=       0 NMicF=      0.
                    Isotopes and Nuclear Properties:
 (Nuclear quadrupole moments (NQMom) in fm**2, nuclear magnetic moments (NMagM)
  in nuclear magnetons)

  Atom         1           2           3           4           5           6           7           8           9
 IAtWgt=          12          12          16          12          12           1           1           1           1
 AtmWgt=  12.0000000  12.0000000  15.9949146  12.0000000  12.0000000   1.0078250   1.0078250   1.0078250   1.0078250
 NucSpn=           0           0           0           0           0           1           1           1           1
 AtZEff=   0.0000000   0.0000000   0.0000000   0.0000000   0.0000000   0.0000000   0.0000000   0.0000000   0.0000000
 NQMom=    0.0000000   0.0000000   0.0000000   0.0000000   0.0000000   0.0000000   0.0000000   0.0000000   0.0000000
 NMagM=    0.0000000   0.0000000   0.0000000   0.0000000   0.0000000   2.7928460   2.7928460   2.7928460   2.7928460
 AtZNuc=   6.0000000   6.0000000   8.0000000   6.0000000   6.0000000   1.0000000   1.0000000   1.0000000   1.0000000
 Leave Link  101 at Tue Dec 15 16:23:54 2015, MaxMem=    33554432 cpu:         0.0
 (Enter /home/Applications/g09/g09/l103.exe)

 GradGradGradGradGradGradGradGradGradGradGradGradGradGradGradGradGradGrad
 Berny optimization.
 Initialization pass.
 Trust Radius=3.00D-01 FncErr=1.00D-07 GrdErr=1.00D-07
 Number of steps in this run=      2 maximum allowed number of steps=      2.
 GradGradGradGradGradGradGradGradGradGradGradGradGradGradGradGradGradGrad

 Leave Link  103 at Tue Dec 15 16:23:54 2015, MaxMem=    33554432 cpu:         0.0
 (Enter /home/Applications/g09/g09/l202.exe)
                          Input orientation:                          
 ---------------------------------------------------------------------
 Center     Atomic      Atomic             Coordinates (Angstroms)
 Number     Number       Type             X           Y           Z
 ---------------------------------------------------------------------
      1          6           0        0.929547   -0.689877   -0.025582
      2          6           0       -0.377380   -1.139976   -0.031673
      3          8           0       -1.167110    0.036777    0.031460
      4          6           0       -0.352437    1.118591   -0.011535
      5          6           0        0.922174    0.682693    0.020748
      6          1           0        1.859422    1.365722   -0.027280
      7          1           0       -0.835758    2.062364    0.045205
      8          1           0       -0.817278   -2.046291   -0.032368
      9          1           0        1.771207   -1.389682    0.019091
 ---------------------------------------------------------------------
                    Distance matrix (angstroms):
                    1          2          3          4          5
     1  C    0.000000
     2  C    1.382275   0.000000
     3  O    2.219741   1.418593   0.000000
     4  C    2.216808   2.258794   1.354940   0.000000
     5  C    1.373371   2.239132   2.186877   1.347473   0.000000
     6  H    2.256138   3.358843   3.305971   2.225678   1.160719
     7  H    3.270496   3.235893   2.052556   1.061850   2.234819
     8  H    2.211629   1.007431   2.113203   3.198904   3.236645
     9  H    1.095497   2.163644   3.266289   3.286675   2.239553
                    6          7          8          9
     6  H    0.000000
     7  H    2.784701   0.000000
     8  H    4.336656   4.109429   0.000000
     9  H    2.757206   4.325918   2.670962   0.000000
 Stoichiometry    C4H4O
 Framework group  C1[X(C4H4O)]
 Deg. of freedom    21
 Full point group                 C1      NOp   1
 Largest Abelian subgroup         C1      NOp   1
 Largest concise Abelian subgroup C1      NOp   1
                         Standard orientation:                         
 ---------------------------------------------------------------------
 Center     Atomic      Atomic             Coordinates (Angstroms)
 Number     Number       Type             X           Y           Z
 ---------------------------------------------------------------------
      1          6           0        0.757171    0.896867   -0.007864
      2          6           0        1.115852   -0.438017   -0.018797
      3          8           0       -0.113448   -1.144788    0.022470
      4          6           0       -1.135647   -0.256853   -0.027972
      5          6           0       -0.613125    0.984238    0.020463
      6          1           0       -1.228986    1.966866   -0.028794
      7          1           0       -2.111270   -0.674049    0.012461
      8          1           0        1.989501   -0.939612   -0.011258
      9          1           0        1.512834    1.687690    0.052856
 ---------------------------------------------------------------------
 Rotational constants (GHZ):      9.4760687      9.2823580      4.6918313
 Leave Link  202 at Tue Dec 15 16:23:54 2015, MaxMem=    33554432 cpu:         0.0
 (Enter /home/Applications/g09/g09/l301.exe)
 Standard basis: 3-21G (6D, 7F)
 Ernie: Thresh=  0.10000D-02 Tol=  0.10000D-05 Strict=F.
 There are    53 symmetry adapted cartesian basis functions of A   symmetry.
 There are    53 symmetry adapted basis functions of A   symmetry.
    53 basis functions,    87 primitive gaussians,    53 cartesian basis functions
    18 alpha electrons       18 beta electrons
       nuclear repulsion energy       160.8198033478 Hartrees.
 IExCor=  402 DFT=T Ex+Corr=B3LYP ExCW=0 ScaHFX=  0.200000
 ScaDFX=  0.800000  0.720000  1.000000  0.810000 ScalE2=  1.000000  1.000000
 IRadAn=      0 IRanWt=     -1 IRanGd=            0 ICorTp=0 IEmpDi=  4
 NAtoms=    9 NActive=    9 NUniq=    9 SFac= 1.00D+00 NAtFMM=   60 NAOKFM=F Big=F
 Integral buffers will be    131072 words long.
 Regular integral format.
 Two-electron integral symmetry is turned on.
 Leave Link  301 at Tue Dec 15 16:23:54 2015, MaxMem=    33554432 cpu:         0.0
 (Enter /home/Applications/g09/g09/l302.exe)
 NPDir=0 NMtPBC=     1 NCelOv=     1 NCel=       1 NClECP=     1 NCelD=      1
         NCelK=      1 NCelE2=     1 NClLst=     1 CellRange=     0.0.
 One-electron integrals computed using PRISM.
 NBasis=    53 RedAO= T EigKep=  3.11D-03  NBF=    53
 NBsUse=    53 1.00D-06 EigRej= -1.00D+00 NBFU=    53
 Precomputing XC quadrature grid using
 IXCGrd= 4 IRadAn=           0 IRanWt=          -1 IRanGd=           0 AccXCQ= 0.00D+00.
 Generated NRdTot=       0 NPtTot=           0 NUsed=           0 NTot=          32
 NSgBfM=    53    53    53    53    53 MxSgAt=     9 MxSgA2=     9.
 Leave Link  302 at Tue Dec 15 16:23:54 2015, MaxMem=    33554432 cpu:         0.1
 (Enter /home/Applications/g09/g09/l308.exe)
 Leave Link  308 at Tue Dec 15 16:23:54 2015, MaxMem=    33554432 cpu:         0.0
 (Enter /home/Applications/g09/g09/l303.exe)
 DipDrv:  MaxL=1.
 Leave Link  303 at Tue Dec 15 16:23:54 2015, MaxMem=    33554432 cpu:         0.0
 (Enter /home/Applications/g09/g09/l401.exe)
 ExpMin= 1.83D-01 ExpMax= 3.22D+02 ExpMxC= 3.22D+02 IAcc=1 IRadAn=         1 AccDes= 0.00D+00
 Harris functional with IExCor=  402 and IRadAn=       1 diagonalized for initial guess.
 HarFok:  IExCor=  402 AccDes= 0.00D+00 IRadAn=         1 IDoV= 1 UseB2=F ITyADJ=14
 ICtDFT=  3500011 ScaDFX=  1.000000  1.000000  1.000000  1.000000
 FoFCou: FMM=F IPFlag=           0 FMFlag=      100000 FMFlg1=           0
         NFxFlg=           0 DoJE=T BraDBF=F KetDBF=T FulRan=T
         wScrn=  0.000000 ICntrl=     500 IOpCl=  0 I1Cent=   200000004 NGrid=           0
         NMat0=    1 NMatS0=      1 NMatT0=    0 NMatD0=    1 NMtDS0=    0 NMtDT0=    0
 Petite list used in FoFCou.
 Harris En= -228.727998367534    
 JPrj=0 DoOrth=F DoCkMO=F.
 Leave Link  401 at Tue Dec 15 16:23:54 2015, MaxMem=    33554432 cpu:         0.2
 (Enter /home/Applications/g09/g09/l502.exe)
 Closed shell SCF:
 Using DIIS extrapolation, IDIIS=  1040.
 Integral symmetry usage will be decided dynamically.
 Keep R1 ints in memory in canonical form, NReq=1925595.
 IVT=       27707 IEndB=       27707 NGot=    33554432 MDV=    32502130
 LenX=    32502130 LenY=    32498880
 Requested convergence on RMS density matrix=1.00D-08 within 128 cycles.
 Requested convergence on MAX density matrix=1.00D-06.
 Requested convergence on             energy=1.00D-06.
 No special actions if energy rises.
 FoFCou: FMM=F IPFlag=           0 FMFlag=           0 FMFlg1=           0
         NFxFlg=           0 DoJE=F BraDBF=F KetDBF=F FulRan=T
         wScrn=  0.000000 ICntrl=     600 IOpCl=  0 I1Cent=           0 NGrid=           0
         NMat0=    1 NMatS0=   1431 NMatT0=    0 NMatD0=    1 NMtDS0=    0 NMtDT0=    0
 Symmetry not used in FoFCou.
 Integral accuracy reduced to 1.0D-05 until final iterations.

 Cycle   1  Pass 0  IDiag  1:
 E= -228.655854721766    
 DIIS: error= 3.37D-02 at cycle   1 NSaved=   1.
 NSaved= 1 IEnMin= 1 EnMin= -228.655854721766     IErMin= 1 ErrMin= 3.37D-02
 ErrMax= 3.37D-02  0.00D+00 EMaxC= 1.00D-01 BMatC= 7.70D-02 BMatP= 7.70D-02
 IDIUse=3 WtCom= 6.63D-01 WtEn= 3.37D-01
 Coeff-Com:  0.100D+01
 Coeff-En:   0.100D+01
 Coeff:      0.100D+01
 Gap=     0.222 Goal=   None    Shift=    0.000
 GapD=    0.222 DampG=1.000 DampE=0.500 DampFc=0.5000 IDamp=-1.
 Damping current iteration by 5.00D-01
 RMSDP=1.20D-02 MaxDP=1.17D-01              OVMax= 1.99D-01

 Cycle   2  Pass 0  IDiag  1:
 E= -228.686625941513     Delta-E=       -0.030771219747 Rises=F Damp=T
 DIIS: error= 1.34D-02 at cycle   2 NSaved=   2.
 NSaved= 2 IEnMin= 2 EnMin= -228.686625941513     IErMin= 2 ErrMin= 1.34D-02
 ErrMax= 1.34D-02  0.00D+00 EMaxC= 1.00D-01 BMatC= 9.04D-03 BMatP= 7.70D-02
 IDIUse=3 WtCom= 8.66D-01 WtEn= 1.34D-01
 Coeff-Com:  0.120D+00 0.880D+00
 Coeff-En:   0.210D+00 0.790D+00
 Coeff:      0.132D+00 0.868D+00
 Gap=     0.236 Goal=   None    Shift=    0.000
 RMSDP=4.30D-03 MaxDP=3.64D-02 DE=-3.08D-02 OVMax= 1.69D-01

 Cycle   3  Pass 0  IDiag  1:
 E= -228.726748188690     Delta-E=       -0.040122247178 Rises=F Damp=F
 DIIS: error= 1.85D-02 at cycle   3 NSaved=   3.
 NSaved= 3 IEnMin= 3 EnMin= -228.726748188690     IErMin= 2 ErrMin= 1.34D-02
 ErrMax= 1.85D-02  0.00D+00 EMaxC= 1.00D-01 BMatC= 1.11D-02 BMatP= 9.04D-03
 IDIUse=2 WtCom= 0.00D+00 WtEn= 1.00D+00
 Coeff-En:   0.000D+00 0.000D+00 0.100D+01
 Coeff:      0.000D+00 0.000D+00 0.100D+01
 Gap=     0.229 Goal=   None    Shift=    0.000
 RMSDP=5.68D-03 MaxDP=4.58D-02 DE=-4.01D-02 OVMax= 1.24D-01

 Cycle   4  Pass 0  IDiag  1:
 E= -228.698542003588     Delta-E=        0.028206185102 Rises=F Damp=F
 DIIS: error= 3.80D-02 at cycle   4 NSaved=   4.
 NSaved= 4 IEnMin= 3 EnMin= -228.726748188690     IErMin= 2 ErrMin= 1.34D-02
 ErrMax= 3.80D-02  0.00D+00 EMaxC= 1.00D-01 BMatC= 4.28D-02 BMatP= 9.04D-03
 IDIUse=2 WtCom= 0.00D+00 WtEn= 1.00D+00
 Coeff-En:   0.000D+00 0.000D+00 0.746D+00 0.254D+00
 Coeff:      0.000D+00 0.000D+00 0.746D+00 0.254D+00
 Gap=     0.239 Goal=   None    Shift=    0.000
 RMSDP=2.85D-03 MaxDP=2.33D-02 DE= 2.82D-02 OVMax= 6.84D-02

 Cycle   5  Pass 0  IDiag  1:
 E= -228.734702772203     Delta-E=       -0.036160768615 Rises=F Damp=F
 DIIS: error= 8.54D-03 at cycle   5 NSaved=   5.
 NSaved= 5 IEnMin= 5 EnMin= -228.734702772203     IErMin= 5 ErrMin= 8.54D-03
 ErrMax= 8.54D-03  0.00D+00 EMaxC= 1.00D-01 BMatC= 2.27D-03 BMatP= 9.04D-03
 IDIUse=3 WtCom= 9.15D-01 WtEn= 8.54D-02
 Coeff-Com: -0.484D-02 0.204D-01 0.253D+00-0.645D-01 0.796D+00
 Coeff-En:   0.000D+00 0.000D+00 0.210D+00 0.000D+00 0.790D+00
 Coeff:     -0.443D-02 0.187D-01 0.249D+00-0.590D-01 0.796D+00
 Gap=     0.243 Goal=   None    Shift=    0.000
 RMSDP=9.60D-04 MaxDP=7.34D-03 DE=-3.62D-02 OVMax= 2.11D-02

 Cycle   6  Pass 0  IDiag  1:
 E= -228.736762161321     Delta-E=       -0.002059389117 Rises=F Damp=F
 DIIS: error= 4.50D-04 at cycle   6 NSaved=   6.
 NSaved= 6 IEnMin= 6 EnMin= -228.736762161321     IErMin= 6 ErrMin= 4.50D-04
 ErrMax= 4.50D-04  0.00D+00 EMaxC= 1.00D-01 BMatC= 9.41D-06 BMatP= 2.27D-03
 IDIUse=3 WtCom= 9.96D-01 WtEn= 4.50D-03
 Coeff-Com: -0.483D-02 0.101D-01 0.378D-01-0.365D-01 0.262D+00 0.732D+00
 Coeff-En:   0.000D+00 0.000D+00 0.000D+00 0.000D+00 0.000D+00 0.100D+01
 Coeff:     -0.481D-02 0.100D-01 0.376D-01-0.364D-01 0.261D+00 0.733D+00
 Gap=     0.243 Goal=   None    Shift=    0.000
 RMSDP=6.95D-05 MaxDP=5.67D-04 DE=-2.06D-03 OVMax= 1.38D-03

 Cycle   7  Pass 0  IDiag  1:
 E= -228.736771998480     Delta-E=       -0.000009837159 Rises=F Damp=F
 DIIS: error= 7.36D-05 at cycle   7 NSaved=   7.
 NSaved= 7 IEnMin= 7 EnMin= -228.736771998480     IErMin= 7 ErrMin= 7.36D-05
 ErrMax= 7.36D-05  0.00D+00 EMaxC= 1.00D-01 BMatC= 1.50D-07 BMatP= 9.41D-06
 IDIUse=1 WtCom= 1.00D+00 WtEn= 0.00D+00
 Coeff-Com: -0.243D-02 0.471D-02 0.170D-01-0.182D-01 0.131D+00 0.438D+00
 Coeff-Com:  0.430D+00
 Coeff:     -0.243D-02 0.471D-02 0.170D-01-0.182D-01 0.131D+00 0.438D+00
 Coeff:      0.430D+00
 Gap=     0.243 Goal=   None    Shift=    0.000
 RMSDP=7.99D-06 MaxDP=8.85D-05 DE=-9.84D-06 OVMax= 2.56D-04

 Initial convergence to 1.0D-05 achieved.  Increase integral accuracy.
 Cycle   8  Pass 1  IDiag  1:
 E= -228.736809891362     Delta-E=       -0.000037892882 Rises=F Damp=F
 DIIS: error= 1.35D-05 at cycle   1 NSaved=   1.
 NSaved= 1 IEnMin= 1 EnMin= -228.736809891362     IErMin= 1 ErrMin= 1.35D-05
 ErrMax= 1.35D-05  0.00D+00 EMaxC= 1.00D-01 BMatC= 1.75D-08 BMatP= 1.75D-08
 IDIUse=1 WtCom= 1.00D+00 WtEn= 0.00D+00
 Coeff-Com:  0.100D+01
 Coeff:      0.100D+01
 Gap=     0.243 Goal=   None    Shift=    0.000
 RMSDP=7.99D-06 MaxDP=8.85D-05 DE=-3.79D-05 OVMax= 1.27D-04

 Cycle   9  Pass 1  IDiag  1:
 E= -228.736809894565     Delta-E=       -0.000000003203 Rises=F Damp=F
 DIIS: error= 2.23D-05 at cycle   2 NSaved=   2.
 NSaved= 2 IEnMin= 2 EnMin= -228.736809894565     IErMin= 1 ErrMin= 1.35D-05
 ErrMax= 2.23D-05  0.00D+00 EMaxC= 1.00D-01 BMatC= 2.10D-08 BMatP= 1.75D-08
 IDIUse=1 WtCom= 1.00D+00 WtEn= 0.00D+00
 Coeff-Com:  0.529D+00 0.471D+00
 Coeff:      0.529D+00 0.471D+00
 Gap=     0.243 Goal=   None    Shift=    0.000
 RMSDP=3.13D-06 MaxDP=4.20D-05 DE=-3.20D-09 OVMax= 9.26D-05

 Cycle  10  Pass 1  IDiag  1:
 E= -228.736809914031     Delta-E=       -0.000000019466 Rises=F Damp=F
 DIIS: error= 6.73D-06 at cycle   3 NSaved=   3.
 NSaved= 3 IEnMin= 3 EnMin= -228.736809914031     IErMin= 3 ErrMin= 6.73D-06
 ErrMax= 6.73D-06  0.00D+00 EMaxC= 1.00D-01 BMatC= 1.39D-09 BMatP= 1.75D-08
 IDIUse=1 WtCom= 1.00D+00 WtEn= 0.00D+00
 Coeff-Com:  0.546D-02 0.200D+00 0.794D+00
 Coeff:      0.546D-02 0.200D+00 0.794D+00
 Gap=     0.243 Goal=   None    Shift=    0.000
 RMSDP=8.50D-07 MaxDP=8.80D-06 DE=-1.95D-08 OVMax= 2.69D-05

 Cycle  11  Pass 1  IDiag  1:
 E= -228.736809915294     Delta-E=       -0.000000001263 Rises=F Damp=F
 DIIS: error= 1.86D-06 at cycle   4 NSaved=   4.
 NSaved= 4 IEnMin= 4 EnMin= -228.736809915294     IErMin= 4 ErrMin= 1.86D-06
 ErrMax= 1.86D-06  0.00D+00 EMaxC= 1.00D-01 BMatC= 2.17D-10 BMatP= 1.39D-09
 IDIUse=1 WtCom= 1.00D+00 WtEn= 0.00D+00
 Coeff-Com: -0.188D-01 0.108D+00 0.492D+00 0.418D+00
 Coeff:     -0.188D-01 0.108D+00 0.492D+00 0.418D+00
 Gap=     0.243 Goal=   None    Shift=    0.000
 RMSDP=2.84D-07 MaxDP=3.32D-06 DE=-1.26D-09 OVMax= 7.34D-06

 Cycle  12  Pass 1  IDiag  1:
 E= -228.736809915503     Delta-E=       -0.000000000210 Rises=F Damp=F
 DIIS: error= 2.57D-07 at cycle   5 NSaved=   5.
 NSaved= 5 IEnMin= 5 EnMin= -228.736809915503     IErMin= 5 ErrMin= 2.57D-07
 ErrMax= 2.57D-07  0.00D+00 EMaxC= 1.00D-01 BMatC= 2.93D-12 BMatP= 2.17D-10
 IDIUse=1 WtCom= 1.00D+00 WtEn= 0.00D+00
 Coeff-Com: -0.569D-02 0.274D-01 0.120D+00 0.150D+00 0.709D+00
 Coeff:     -0.569D-02 0.274D-01 0.120D+00 0.150D+00 0.709D+00
 Gap=     0.243 Goal=   None    Shift=    0.000
 RMSDP=4.13D-08 MaxDP=4.44D-07 DE=-2.10D-10 OVMax= 8.44D-07

 Cycle  13  Pass 1  IDiag  1:
 E= -228.736809915504     Delta-E=       -0.000000000001 Rises=F Damp=F
 DIIS: error= 8.58D-08 at cycle   6 NSaved=   6.
 NSaved= 6 IEnMin= 6 EnMin= -228.736809915504     IErMin= 6 ErrMin= 8.58D-08
 ErrMax= 8.58D-08  0.00D+00 EMaxC= 1.00D-01 BMatC= 6.14D-13 BMatP= 2.93D-12
 IDIUse=1 WtCom= 1.00D+00 WtEn= 0.00D+00
 Coeff-Com: -0.121D-02 0.338D-02 0.116D-01 0.331D-01 0.365D+00 0.588D+00
 Coeff:     -0.121D-02 0.338D-02 0.116D-01 0.331D-01 0.365D+00 0.588D+00
 Gap=     0.243 Goal=   None    Shift=    0.000
 RMSDP=1.80D-08 MaxDP=1.93D-07 DE=-6.82D-13 OVMax= 2.53D-07

 Cycle  14  Pass 1  IDiag  1:
 E= -228.736809915506     Delta-E=       -0.000000000002 Rises=F Damp=F
 DIIS: error= 4.20D-08 at cycle   7 NSaved=   7.
 NSaved= 7 IEnMin= 7 EnMin= -228.736809915506     IErMin= 7 ErrMin= 4.20D-08
 ErrMax= 4.20D-08  0.00D+00 EMaxC= 1.00D-01 BMatC= 6.56D-14 BMatP= 6.14D-13
 IDIUse=1 WtCom= 1.00D+00 WtEn= 0.00D+00
 Coeff-Com: -0.106D-03-0.486D-03-0.404D-02 0.410D-02 0.143D+00 0.315D+00
 Coeff-Com:  0.542D+00
 Coeff:     -0.106D-03-0.486D-03-0.404D-02 0.410D-02 0.143D+00 0.315D+00
 Coeff:      0.542D+00
 Gap=     0.243 Goal=   None    Shift=    0.000
 RMSDP=7.04D-09 MaxDP=9.39D-08 DE=-1.88D-12 OVMax= 1.73D-07

 SCF Done:  E(RB3LYP) =  -228.736809916     A.U. after   14 cycles
            NFock= 14  Conv=0.70D-08     -V/T= 2.0081
 KE= 2.269044202802D+02 PE=-8.542878022024D+02 EE= 2.378267686589D+02
 Leave Link  502 at Tue Dec 15 16:23:59 2015, MaxMem=    33554432 cpu:         4.1
 (Enter /home/Applications/g09/g09/l801.exe)
 DoSCS=F DFT=T ScalE2(SS,OS)=  1.000000  1.000000
 ExpMin= 1.83D-01 ExpMax= 3.22D+02 ExpMxC= 3.22D+02 IAcc=3 IRadAn=         5 AccDes= 0.00D+00
 HarFok:  IExCor=  205 AccDes= 0.00D+00 IRadAn=         5 IDoV=-2 UseB2=F ITyADJ=14
 ICtDFT= 12500011 ScaDFX=  1.000000  1.000000  1.000000  1.000000
 Largest valence mixing into a core orbital is  2.09D-04
 Largest core mixing into a valence orbital is  4.78D-05
 Range of M.O.s used for correlation:     6    53
 NBasis=    53 NAE=    18 NBE=    18 NFC=     5 NFV=     0
 NROrb=     48 NOA=    13 NOB=    13 NVA=    35 NVB=    35
 Leave Link  801 at Tue Dec 15 16:23:59 2015, MaxMem=    33554432 cpu:         0.4
 (Enter /home/Applications/g09/g09/l914.exe)
 RHF ground state
 MDV=    33554432 DFT=T DoStab=F Mixed=T DoRPA=F DoScal=F NonHer=F
 Keep R1, R2, and R3 ints in memory in canonical form, NReq=5596273.
 FoFCou: FMM=F IPFlag=           0 FMFlag=           0 FMFlg1=           0
         NFxFlg=           0 DoJE=F BraDBF=F KetDBF=F FulRan=T
         wScrn=  0.000000 ICntrl=     600 IOpCl=  0 I1Cent=           0 NGrid=           0
         NMat0=    1 NMatS0=   1431 NMatT0=    0 NMatD0=    1 NMtDS0=    0 NMtDT0=    0
 Symmetry not used in FoFCou.
 Making orbital integer symmetry assigments:
 Orbital symmetries:
       Occupied  (A) (A) (A) (A) (A) (A) (A) (A) (A) (A) (A) (A)
                 (A) (A) (A) (A) (A) (A)
       Virtual   (A) (A) (A) (A) (A) (A) (A) (A) (A) (A) (A) (A)
                 (A) (A) (A) (A) (A) (A) (A) (A) (A) (A) (A) (A)
                 (A) (A) (A) (A) (A) (A) (A) (A) (A) (A) (A)
    60 initial guesses have been made.
 Convergence on wavefunction:    0.000001000000000
 Davidson Disk Diagonalization:  ConvIn= 1.00D-06 SkipCon=T Conv= 1.00D-06.
 Max sub-space:   240 roots to seek:    60 dimension of matrix:          910
 Iteration     1 Dimension    60 NMult     0 NNew     60
 CISAX will form    60 AO SS matrices at one time.
 NMat=    60 NSing=    60 JSym2X= 0.
 New state      1 was old state      2
 New state      2 was old state      1
 New state      3 was old state      4
 New state      4 was old state      5
 New state      5 was old state      7
 New state      6 was old state      8
 New state      7 was old state      9
 New state      8 was old state     11
 New state      9 was old state     10
 New state     10 was old state     13
 New state     11 was old state     12
 New state     12 was old state      6
 New state     13 was old state     14
 New state     14 was old state     15
 New state     15 was old state      3
 Excitation Energies [eV] at current iteration:
 Root      1 :     7.389324989333627
 Root      2 :     7.955358774940937
 Root      3 :     8.193337975489507
 Root      4 :     8.279454877462340
 Root      5 :     9.036295863427281
 Root      6 :     9.516371891964871
 Root      7 :     9.690877918414738
 Root      8 :    10.033970900808580
 Root      9 :    10.086716875930130
 Root     10 :    10.280872838897450
 Root     11 :    10.314388186922490
 Root     12 :    10.459146493088710
 Root     13 :    10.682038086789020
 Root     14 :    10.767386796111410
 Root     15 :    10.880130279779590
 Root     16 :    11.321241821546150
 Root     17 :    11.385371467932740
 Root     18 :    11.418684365884140
 Root     19 :    11.491532720967650
 Root     20 :    11.563461859256020
 Root     21 :    11.727677738809080
 Root     22 :    12.053486421109550
 Root     23 :    12.203098945684280
 Root     24 :    12.258497293827770
 Root     25 :    12.575633191072460
 Root     26 :    13.317849783828540
 Root     27 :    13.379316020830840
 Root     28 :    13.443285343103230
 Root     29 :    13.466872532444150
 Root     30 :    13.617316854029570
 Root     31 :    13.684269400672680
 Root     32 :    13.791389637915280
 Root     33 :    13.851938239016750
 Root     34 :    13.915898316973210
 Root     35 :    14.121471797268840
 Root     36 :    14.295567415114720
 Root     37 :    14.462926178934160
 Root     38 :    14.500148927981640
 Root     39 :    14.583314498525120
 Root     40 :    14.657825271731370
 Root     41 :    14.822965055537710
 Root     42 :    14.832692934533320
 Root     43 :    14.889828953370770
 Root     44 :    15.277289533794300
 Root     45 :    15.320533626793950
 Root     46 :    15.540159441822990
 Root     47 :    15.603467259649610
 Root     48 :    15.662132372652420
 Root     49 :    15.701537180634630
 Root     50 :    15.807593166094390
 Root     51 :    15.855780239965850
 Root     52 :    15.885323730553470
 Root     53 :    15.967965431107920
 Root     54 :    16.371913047127830
 Root     55 :    16.402764824033770
 Root     56 :    16.525970946571690
 Root     57 :    16.957926530326600
 Root     58 :    17.385603437497210
 Root     59 :    17.926745276306810
 Root     60 :    18.154202196319660
 Iteration     2 Dimension   120 NMult    60 NNew     60
 CISAX will form    60 AO SS matrices at one time.
 NMat=    60 NSing=    60 JSym2X= 0.
 New state      1 was old state      2
 Root      1 not converged, maximum delta is    0.336234455330419
 New state      2 was old state      1
 Root      2 not converged, maximum delta is    0.445209987196640
 Root      3 not converged, maximum delta is    0.034576145665109
 Root      4 not converged, maximum delta is    0.037852798771705
 Root      5 not converged, maximum delta is    0.022685432791626
 Root      6 not converged, maximum delta is    0.103955814211440
 Root      7 not converged, maximum delta is    0.318268946912133
 New state      8 was old state     15
 Root      8 not converged, maximum delta is    0.490083424148971
 New state      9 was old state     12
 Root      9 not converged, maximum delta is    0.319307277652991
 New state     10 was old state      8
 Root     10 not converged, maximum delta is    0.241834398869643
 New state     11 was old state      9
 Root     11 not converged, maximum delta is    0.140361870603013
 New state     12 was old state     10
 Root     12 not converged, maximum delta is    0.210564789659131
 New state     13 was old state     11
 Root     13 not converged, maximum delta is    0.173659261763923
 New state     14 was old state     13
 Root     14 not converged, maximum delta is    0.250570166019896
 New state     15 was old state     14
 Root     15 not converged, maximum delta is    0.041862944111626
 Excitation Energies [eV] at current iteration:
 Root      1 :     7.087257434491693   Change is   -0.868101340449244
 Root      2 :     7.293311561508386   Change is   -0.096013427825241
 Root      3 :     8.179692453413114   Change is   -0.013645522076393
 Root      4 :     8.254168022947610   Change is   -0.025286854514731
 Root      5 :     9.005904707591174   Change is   -0.030391155836108
 Root      6 :     9.472043404339134   Change is   -0.044328487625737
 Root      7 :     9.641614800994422   Change is   -0.049263117420316
 Root      8 :     9.709443734552167   Change is   -1.170686545227421
 Root      9 :     9.957308758573136   Change is   -0.501837734515577
 Root     10 :    10.036386203370080   Change is    0.002415302561502
 Root     11 :    10.082059526240250   Change is   -0.004657349689875
 Root     12 :    10.266577193684490   Change is   -0.014295645212957
 Root     13 :    10.332322421374900   Change is    0.017934234452407
 Root     14 :    10.610284664770840   Change is   -0.071753422018181
 Root     15 :    10.746853630999720   Change is   -0.020533165111692
 Root     16 :    11.296574335072380   Change is   -0.024667486473768
 Root     17 :    11.348552413564180   Change is   -0.036819054368560
 Root     18 :    11.356683414845210   Change is   -0.134849306122432
 Root     19 :    11.389992939766800   Change is   -0.028691426117344
 Root     20 :    11.554456837899570   Change is   -0.009005021356452
 Root     21 :    11.671076411317810   Change is   -0.056601327491271
 Root     22 :    12.025902761484790   Change is   -0.027583659624761
 Root     23 :    12.136974074829470   Change is   -0.066124870854805
 Root     24 :    12.183632198171370   Change is   -0.074865095656405
 Root     25 :    12.453976616149790   Change is   -1.230292784522889
 Root     26 :    12.542616250849260   Change is   -0.033016940223200
 Root     27 :    13.259170372195180   Change is   -0.058679411633356
 Root     28 :    13.363885444798920   Change is   -0.015430576031914
 Root     29 :    13.407361566776400   Change is   -0.059510965667747
 Root     30 :    13.445122550960280   Change is    0.001837207857055
 Root     31 :    13.528021959732540   Change is   -0.089294894297032
 Root     32 :    13.581119930653770   Change is   -0.210269707261506
 Root     33 :    13.674916153461940   Change is   -0.240982163511277
 Root     34 :    13.793649012045250   Change is   -0.058289226971498
 Root     35 :    14.003617033829840   Change is   -0.117854763439000
 Root     36 :    14.139652891581300   Change is   -0.155914523533425
 Root     37 :    14.309296626110370   Change is   -0.190852301871261
 Root     38 :    14.421870681539540   Change is   -0.041055497394620
 Root     39 :    14.545915937207220   Change is   -0.111909334524152
 Root     40 :    14.562919449712990   Change is   -0.020395048812131
 Root     41 :    14.709220887914150   Change is   -0.113744167623565
 Root     42 :    14.805972472673040   Change is   -0.026720461860285
 Root     43 :    14.815697872795620   Change is   -0.074131080575146
 Root     44 :    14.910015019149520   Change is   -0.410518607644423
 Root     45 :    15.206991759719700   Change is   -0.070297774074597
 Root     46 :    15.371609587033510   Change is   -0.231857672616091
 Root     47 :    15.468246039242620   Change is   -0.071913402580369
 Root     48 :    15.526206408731320   Change is   -0.175330771903318
 Root     49 :    15.581438523578410   Change is   -0.080693849074005
 Root     50 :    15.652975443470190   Change is   -0.154617722624194
 Root     51 :    15.752842024316420   Change is   -0.132481706237050
 Root     52 :    15.820711599566550   Change is   -0.147253831541376
 Root     53 :    15.831318389024770   Change is   -0.024461850941087
 Root     54 :    16.070660692397360   Change is   -0.332104131636406
 Root     55 :    16.275257214857510   Change is   -1.110346222639697
 Root     56 :    16.310685065159230   Change is   -0.061227981968598
 Root     57 :    16.428842871142660   Change is   -0.097128075429036
 Root     58 :    16.490332373038950   Change is   -0.467594157287649
 Root     59 :    16.744696847435340   Change is   -1.182048428871471
 Root     60 :    16.931963089956890   Change is   -1.222239106362768
 Iteration     3 Dimension   135 NMult   120 NNew     15
 CISAX will form    15 AO SS matrices at one time.
 NMat=    15 NSing=    15 JSym2X= 0.
 Root      1 not converged, maximum delta is    0.002490176606108
 Root      2 not converged, maximum delta is    0.001481670670351
 Root      3 not converged, maximum delta is    0.000286338170699
 Root      4 not converged, maximum delta is    0.000161692217193
 Root      5 not converged, maximum delta is    0.000330738770222
 Root      6 not converged, maximum delta is    0.002068818309110
 Root      7 not converged, maximum delta is    0.017595889407494
 Root      8 not converged, maximum delta is    0.015501094417199
 Root      9 not converged, maximum delta is    0.003377384001663
 Root     10 not converged, maximum delta is    0.003578992539140
 Root     11 not converged, maximum delta is    0.002247851436242
 Root     12 not converged, maximum delta is    0.000685929073005
 Root     13 not converged, maximum delta is    0.000655882600231
 Root     14 not converged, maximum delta is    0.000588753097378
 Root     15 not converged, maximum delta is    0.000348766185586
 Excitation Energies [eV] at current iteration:
 Root      1 :     7.085201990675069   Change is   -0.002055443816625
 Root      2 :     7.291992712672295   Change is   -0.001318848836090
 Root      3 :     8.179638535165463   Change is   -0.000053918247652
 Root      4 :     8.254147750070935   Change is   -0.000020272876675
 Root      5 :     9.005853807045678   Change is   -0.000050900545496
 Root      6 :     9.471698468841605   Change is   -0.000344935497528
 Root      7 :     9.639165358210020   Change is   -0.002449442784402
 Root      8 :     9.707086422504915   Change is   -0.002357312047252
 Root      9 :     9.955650517589802   Change is   -0.001658240983334
 Root     10 :    10.036178193309540   Change is   -0.000208010060543
 Root     11 :    10.081940165912070   Change is   -0.000119360328185
 Root     12 :    10.266483415061110   Change is   -0.000093778623377
 Root     13 :    10.332196502572540   Change is   -0.000125918802354
 Root     14 :    10.610200390017170   Change is   -0.000084274753670
 Root     15 :    10.746823795852820   Change is   -0.000029835146895
 Iteration     4 Dimension   150 NMult   135 NNew     15
 CISAX will form    15 AO SS matrices at one time.
 NMat=    15 NSing=    15 JSym2X= 0.
 Root      1 not converged, maximum delta is    0.000081950739048
 Root      2 not converged, maximum delta is    0.000047030442574
 Root      3 not converged, maximum delta is    0.000010110900386
 Root      4 not converged, maximum delta is    0.000004269326946
 Root      5 not converged, maximum delta is    0.000009114151052
 Root      6 not converged, maximum delta is    0.000021743227862
 Root      7 not converged, maximum delta is    0.000088373727083
 Root      8 not converged, maximum delta is    0.000086005692887
 Root      9 not converged, maximum delta is    0.000070178975480
 Root     10 not converged, maximum delta is    0.000025594536819
 Root     11 not converged, maximum delta is    0.000019433456750
 Root     12 not converged, maximum delta is    0.000011911389284
 Root     13 not converged, maximum delta is    0.000016923487214
 Root     14 not converged, maximum delta is    0.000014502364818
 Root     15 not converged, maximum delta is    0.000006383862564
 Excitation Energies [eV] at current iteration:
 Root      1 :     7.085199627990463   Change is   -0.000002362684605
 Root      2 :     7.291990839727172   Change is   -0.000001872945123
 Root      3 :     8.179638454090288   Change is   -0.000000081075176
 Root      4 :     8.254147739319441   Change is   -0.000000010751494
 Root      5 :     9.005853744377076   Change is   -0.000000062668601
 Root      6 :     9.471697985287429   Change is   -0.000000483554175
 Root      7 :     9.639161349532110   Change is   -0.000004008677911
 Root      8 :     9.707082685048825   Change is   -0.000003737456090
 Root      9 :     9.955647996510445   Change is   -0.000002521079358
 Root     10 :    10.036177881341970   Change is   -0.000000311967565
 Root     11 :    10.081939978779670   Change is   -0.000000187132394
 Root     12 :    10.266483334561400   Change is   -0.000000080499712
 Root     13 :    10.332196308774810   Change is   -0.000000193797734
 Root     14 :    10.610200242048540   Change is   -0.000000147968637
 Root     15 :    10.746823777580850   Change is   -0.000000018271977
 Iteration     5 Dimension   165 NMult   150 NNew     15
 CISAX will form    15 AO SS matrices at one time.
 NMat=    15 NSing=    15 JSym2X= 0.
 Root      1 not converged, maximum delta is    0.000001832723521
 Root      2 not converged, maximum delta is    0.000001505477794
 Root      3 has converged.
 Root      4 has converged.
 Root      5 has converged.
 Root      6 has converged.
 Root      7 not converged, maximum delta is    0.000002128113444
 Root      8 not converged, maximum delta is    0.000002130276513
 Root      9 not converged, maximum delta is    0.000003138046908
 Root     10 not converged, maximum delta is    0.000001205164884
 Root     11 has converged.
 Root     12 has converged.
 Root     13 has converged.
 Root     14 has converged.
 Root     15 has converged.
 Excitation Energies [eV] at current iteration:
 Root      1 :     7.085199625933938   Change is   -0.000000002056526
 Root      2 :     7.291990837714525   Change is   -0.000000002012646
 Root      3 :     8.179638454015370   Change is   -0.000000000074917
 Root      4 :     8.254147739313417   Change is   -0.000000000006023
 Root      5 :     9.005853744327311   Change is   -0.000000000049766
 Root      6 :     9.471697984882361   Change is   -0.000000000405068
 Root      7 :     9.639161346233392   Change is   -0.000000003298717
 Root      8 :     9.707082681674590   Change is   -0.000000003374234
 Root      9 :     9.955647993667997   Change is   -0.000000002842448
 Root     10 :    10.036177880973710   Change is   -0.000000000368258
 Root     11 :    10.081939978554030   Change is   -0.000000000225638
 Root     12 :    10.266483334468030   Change is   -0.000000000093366
 Root     13 :    10.332196308574340   Change is   -0.000000000200466
 Root     14 :    10.610200241858640   Change is   -0.000000000189894
 Root     15 :    10.746823777562040   Change is   -0.000000000018803
 Iteration     6 Dimension   171 NMult   165 NNew      6
 CISAX will form     6 AO SS matrices at one time.
 NMat=     6 NSing=     6 JSym2X= 0.
 Root      1 has converged.
 Root      2 has converged.
 Root      3 has converged.
 Root      4 has converged.
 Root      5 has converged.
 Root      6 has converged.
 Root      7 has converged.
 Root      8 has converged.
 Root      9 has converged.
 Root     10 has converged.
 Root     11 has converged.
 Root     12 has converged.
 Root     13 has converged.
 Root     14 has converged.
 Root     15 has converged.
 Excitation Energies [eV] at current iteration:
 Root      1 :     7.085199625933287   Change is   -0.000000000000651
 Root      2 :     7.291990837713699   Change is   -0.000000000000826
 Root      3 :     8.179638454015331   Change is   -0.000000000000039
 Root      4 :     8.254147739313415   Change is   -0.000000000000003
 Root      5 :     9.005853744327300   Change is   -0.000000000000011
 Root      6 :     9.471697984882086   Change is   -0.000000000000275
 Root      7 :     9.639161346231232   Change is   -0.000000000002160
 Root      8 :     9.707082681672295   Change is   -0.000000000002296
 Root      9 :     9.955647993665821   Change is   -0.000000000002175
 Root     10 :    10.036177880973420   Change is   -0.000000000000289
 Root     11 :    10.081939978553870   Change is   -0.000000000000159
 Root     12 :    10.266483334467990   Change is   -0.000000000000047
 Root     13 :    10.332196308574190   Change is   -0.000000000000150
 Root     14 :    10.610200241858510   Change is   -0.000000000000130
 Root     15 :    10.746823777562030   Change is   -0.000000000000009
 Convergence achieved on expansion vectors.
 ***********************************************************************
 Excited states from <AA,BB:AA,BB> singles matrix:
 ***********************************************************************
 
 1PDM for each excited state written to RWF  633
 Ground to excited state transition densities written to RWF  633
 Ground to excited state transition electric dipole moments (Au):
       state          X           Y           Z        Dip. S.      Osc.
         1        -1.0428      0.0440     -0.0211      1.0899      0.1892
         2         0.5153     -0.1742      0.0361      0.2972      0.0531
         3        -0.0056     -0.1376     -0.0470      0.0212      0.0042
         4        -0.0150     -0.0407     -0.1212      0.0166      0.0034
         5        -0.0065     -0.0976      0.0695      0.0144      0.0032
         6         0.2863      0.2256     -0.0385      0.1343      0.0312
         7         0.1833      1.0396      0.0308      1.1154      0.2634
         8        -0.0654     -0.9636     -0.0277      0.9336      0.2220
         9        -0.7213      0.3017      0.0797      0.6176      0.1506
        10        -0.2930      0.0742     -0.0314      0.0923      0.0227
        11        -0.2127      0.1211      0.0518      0.0626      0.0155
        12         0.0999      0.0024      0.0844      0.0171      0.0043
        13        -0.1048      0.1979     -0.0615      0.0539      0.0137
        14         0.1458      0.0855     -0.0284      0.0294      0.0076
        15        -0.0223     -0.0082     -0.0856      0.0079      0.0021
 Ground to excited state transition velocity dipole moments (Au):
       state          X           Y           Z        Dip. S.      Osc.
         1        -0.0176     -0.0266      0.0007      0.0010      0.0026
         2         0.0051     -0.0509      0.0052      0.0026      0.0066
         3         0.0014     -0.0047      0.0047      0.0000      0.0001
         4        -0.0015      0.0040      0.0696      0.0049      0.0107
         5         0.0058      0.0031     -0.0190      0.0004      0.0008
         6        -0.0293      0.0021     -0.0060      0.0009      0.0017
         7        -0.0158     -0.0342      0.0085      0.0015      0.0028
         8         0.0030      0.0315     -0.0058      0.0010      0.0019
         9         0.0860     -0.0190     -0.0229      0.0083      0.0151
        10         0.0371     -0.0101      0.0627      0.0054      0.0098
        11         0.0318     -0.0099     -0.0134      0.0013      0.0023
        12        -0.0172      0.0038     -0.0422      0.0021      0.0037
        13         0.0123     -0.0195     -0.0466      0.0027      0.0047
        14        -0.0212     -0.0149     -0.0018      0.0007      0.0012
        15         0.0114      0.0038      0.0027      0.0002      0.0003
 Ground to excited state transition magnetic dipole moments (Au):
       state          X           Y           Z
         1        -0.0280      0.0179     -0.4165
         2        -0.1103      0.0410      0.1992
         3        -0.2143     -0.4892     -0.0116
         4        -1.5007      0.2724     -0.0186
         5        -0.0604      0.1343      0.0351
         6        -0.2974     -0.0313     -0.0206
         7         0.1682     -0.1118      0.0726
         8         0.1996     -0.0919     -0.0242
         9        -0.1366     -0.0372      0.1010
        10        -0.0457     -0.0507      0.0201
        11         0.1744     -0.1308      0.0070
        12         0.2566      0.0023     -0.0242
        13        -0.0019     -0.0255      0.0045
        14         0.1032     -0.2069     -0.0483
        15        -0.0256     -0.4641      0.0341
 Ground to excited state transition velocity quadrupole moments (Au):
       state          XX          YY          ZZ          XY          XZ          YZ
         1        -0.0671      0.0201      0.0189     -0.1689      0.0013     -0.0003
         2         0.0016     -0.0234      0.0240      0.1322     -0.0075     -0.0092
         3        -0.0212      0.0256      0.0087     -0.0026      0.0137     -0.0421
         4        -0.0110     -0.0046      0.0038     -0.0080     -0.0199     -0.1727
         5        -0.0234      0.0236      0.0001     -0.0114      0.2019      0.0262
         6         0.0310     -0.0181     -0.0138     -0.1108     -0.0168     -0.1013
         7         0.1915     -0.2107     -0.0376     -0.0626      0.0640      0.0172
         8        -0.1838      0.1932      0.0407      0.0451      0.0403     -0.0063
         9         0.0851     -0.1170     -0.0093      0.3230     -0.0122     -0.0568
        10         0.0598     -0.0528      0.0017      0.1286      0.0814     -0.0879
        11        -0.0045     -0.0395     -0.0011      0.0760     -0.0073      0.0973
        12        -0.0036      0.0105      0.0027     -0.0754     -0.0013     -0.0559
        13         0.0828     -0.0532     -0.0111      0.0659     -0.0113      0.0358
        14        -0.0162     -0.0114      0.0091     -0.0525      0.0264      0.0156
        15        -0.0169      0.0001     -0.0025      0.0174      0.0472     -0.0929
 <0|del|b> * <b|rxdel|0> + <0|del|b> * <b|delr+rdel|0>
 Rotatory Strengths (R) in cgs (10**-40 erg-esu-cm/Gauss)
       state          XX          YY          ZZ    R(velocity)    E-M Angle
         1        -1.1368      0.4477     -0.0311     -0.2401       91.14
         2        -1.0015     -0.3481     -2.9313     -1.4270       97.84
         3         2.7227     -0.4711      2.3643      1.5386       57.23
         4        -0.7787      2.0089      3.4724      1.5676       88.91
         5        -0.7048     -1.1587      0.5657     -0.4326      101.49
         6         0.7748     11.3206      5.7391      5.9448       12.55
         7         6.0817     -1.7836     -0.7542      1.1813       77.63
         8        -4.2505      0.9637     -1.0081     -1.4316      107.73
         9        -8.9360    -11.1556     -5.7327     -8.6081      147.59
        10        10.2210    -11.2761      1.2049      0.0499       90.00
        11         0.1068      9.1154      3.6401      4.2874       30.50
        12         3.9520     -5.2566     -5.0251     -2.1099      106.65
        13        -2.7959      3.0536      0.2402      0.1660       78.59
        14         3.3071     -2.2934      0.7471      0.5869       80.90
        15        -1.6357     -1.1692     -0.7492     -1.1847      110.17
 1/2[<0|r|b>*<b|rxdel|0> + (<0|rxdel|b>*<b|r|0>)*]
 Rotatory Strengths (R) in cgs (10**-40 erg-esu-cm/Gauss)
       state          XX          YY          ZZ     R(length)
         1       -20.6731     -0.5563     -6.2114     -9.1469
         2        40.1938      5.0555     -5.0793     13.3900
         3        -0.8454    -47.6023     -0.3851    -16.2776
         4       -15.8777      7.8459     -1.5979     -3.2099
         5        -0.2783      9.2708     -1.7249      2.4225
         6        60.1946      4.9897     -0.5610     21.5411
         7       -21.8043     82.1977     -1.5840     19.6032
         8         9.2265    -62.6370     -0.4739    -17.9615
         9       -69.7001      7.9299     -5.6905    -22.4869
        10        -9.4683      2.6602      0.4472     -2.1203
        11        26.2260     11.2016     -0.2582     12.3898
        12       -18.1282     -0.0038      1.4432     -5.5630
        13        -0.1390      3.5742      0.1942      1.2098
        14       -10.6429     12.5122     -0.9685      0.3003
        15        -0.4040     -2.7052      2.0669     -0.3474
  1/2[<0|del|b>*<b|r|0> + (<0|r|b>*<b|del|0>)*] (Au)
       state          X           Y           Z        Dip. S.   Osc.(frdel)
         1         0.0183     -0.0012      0.0000     -0.0171     -0.0114
         2         0.0026      0.0089      0.0002     -0.0117     -0.0078
         3         0.0000      0.0007     -0.0002     -0.0004     -0.0003
         4         0.0000     -0.0002     -0.0084      0.0086      0.0057
         5         0.0000     -0.0003     -0.0013      0.0017      0.0011
         6        -0.0084      0.0005      0.0002      0.0077      0.0051
         7        -0.0029     -0.0355      0.0003      0.0382      0.0254
         8        -0.0002     -0.0304      0.0002      0.0304      0.0203
         9        -0.0620     -0.0057     -0.0018      0.0696      0.0464
        10        -0.0109     -0.0007     -0.0020      0.0136      0.0091
        11        -0.0068     -0.0012     -0.0007      0.0086      0.0058
        12        -0.0017      0.0000     -0.0036      0.0053      0.0035
        13        -0.0013     -0.0039      0.0029      0.0023      0.0015
        14        -0.0031     -0.0013      0.0000      0.0043      0.0029
        15        -0.0003      0.0000     -0.0002      0.0005      0.0003

 Excitation energies and oscillator strengths:
 
 Excited State   1:      Singlet-A      7.0852 eV  174.99 nm  f=0.1892  <S**2>=0.000
      17 -> 19         0.24390
      18 -> 19         0.61048
      18 -> 20         0.18553
 This state for optimization and/or second-order correction.
 Total Energy, E(CIS) =  -228.476433609    
 Copying the excited state density for this state as the 1-particle RhoCI density.
 
 Excited State   2:      Singlet-A      7.2920 eV  170.03 nm  f=0.0531  <S**2>=0.000
      17 -> 19         0.47868
      18 -> 19        -0.29916
      18 -> 20         0.40493
 
 Excited State   3:      Singlet-A      8.1796 eV  151.58 nm  f=0.0042  <S**2>=0.000
      18 -> 20        -0.13114
      18 -> 21         0.67746
 
 Excited State   4:      Singlet-A      8.2541 eV  150.21 nm  f=0.0034  <S**2>=0.000
      16 -> 19         0.69624
 
 Excited State   5:      Singlet-A      9.0059 eV  137.67 nm  f=0.0032  <S**2>=0.000
      18 -> 22         0.68463
 
 Excited State   6:      Singlet-A      9.4717 eV  130.90 nm  f=0.0312  <S**2>=0.000
      17 -> 20        -0.32550
      17 -> 21         0.59738
 
 Excited State   7:      Singlet-A      9.6392 eV  128.63 nm  f=0.2634  <S**2>=0.000
      15 -> 19         0.44063
      16 -> 20        -0.11746
      17 -> 19        -0.28937
      17 -> 21        -0.15135
      18 -> 20         0.35909
 
 Excited State   8:      Singlet-A      9.7071 eV  127.73 nm  f=0.2220  <S**2>=0.000
      15 -> 19         0.51411
      17 -> 19         0.26170
      18 -> 20        -0.31019
      18 -> 21        -0.11387
 
 Excited State   9:      Singlet-A      9.9556 eV  124.54 nm  f=0.1506  <S**2>=0.000
      17 -> 20         0.54491
      17 -> 21         0.24211
      18 -> 23        -0.23813
      18 -> 24        -0.18286
 
 Excited State  10:      Singlet-A     10.0362 eV  123.54 nm  f=0.0227  <S**2>=0.000
      14 -> 19        -0.15274
      17 -> 20         0.18028
      17 -> 21         0.17896
      17 -> 22        -0.15310
      18 -> 23         0.17057
      18 -> 24         0.58761
 
 Excited State  11:      Singlet-A     10.0819 eV  122.98 nm  f=0.0155  <S**2>=0.000
      14 -> 19         0.27063
      17 -> 20         0.11394
      18 -> 23         0.60070
      18 -> 24        -0.17359
 
 Excited State  12:      Singlet-A     10.2665 eV  120.77 nm  f=0.0043  <S**2>=0.000
      14 -> 19         0.59903
      16 -> 20         0.13259
      17 -> 22         0.10722
      18 -> 23        -0.19317
      18 -> 24         0.24918
 
 Excited State  13:      Singlet-A     10.3322 eV  120.00 nm  f=0.0137  <S**2>=0.000
      14 -> 19        -0.12074
      17 -> 22         0.66909
 
 Excited State  14:      Singlet-A     10.6102 eV  116.85 nm  f=0.0076  <S**2>=0.000
      14 -> 19        -0.14977
      15 -> 19         0.13037
      16 -> 20         0.66292
 
 Excited State  15:      Singlet-A     10.7468 eV  115.37 nm  f=0.0021  <S**2>=0.000
      18 -> 25         0.68405
 SavETr:  write IOETrn=   770 NScale= 10 NData=  16 NLR=1 NState=   15 LETran=     280.
 The selected state is a singlet
 CISAX will form     1 AO SS matrices at one time.
 NMat=     1 NSing=     1 JSym2X= 0.
 CISAX will form     1 AO SS matrices at one time.
 NMat=     1 NSing=     1 JSym2X= 0.
 Leave Link  914 at Tue Dec 15 16:24:33 2015, MaxMem=    33554432 cpu:        34.2
 (Enter /home/Applications/g09/g09/l1002.exe)
 Minotr:  Closed shell wavefunction.
          Computing CIS/TD-HF/TD-KS derivatives.
          Using Z-Vector for PSCF gradient.
          Skipping F1 and S1 gradient terms here.
          IDoAtm=111111111
          Frozen-core window.
          Direct CPHF calculation.
          Differentiating once with respect to electric field.
                with respect to dipole field.
          Differentiating once with respect to nuclear coordinates.
          Requested convergence is 1.0D-10 RMS, and 1.0D-09 maximum.
          NewPWx=F KeepS1=T KeepF1=T KeepIn=T MapXYZ=F SortEE=F KeepMc=T.
          MDV=      33554290 using IRadAn=       0.
 Using stored XC quadrature information.
 Keep R1 ints in memory in canonical form, NReq=1898913.
 FoFCou: FMM=F IPFlag=           0 FMFlag=           0 FMFlg1=           0
         NFxFlg=           0 DoJE=F BraDBF=F KetDBF=F FulRan=T
         wScrn=  0.000000 ICntrl=     600 IOpCl=  0 I1Cent=           0 NGrid=           0
         NMat0=    1 NMatS0=   1431 NMatT0=    0 NMatD0=    1 NMtDS0=    0 NMtDT0=    0
 Symmetry not used in FoFCou.
          Solving linear equations separately, MaxMat=       0.
          There are     1 degrees of freedom in the 1st order CPHF.  IDoFFX=0 NUNeed=     1.
 LinEq1:  Iter=  0 NonCon=     1 RMS=4.01D-02 Max=6.00D-01 NDo=     1
 AX will form     1 AO Fock derivatives at one time.
 LinEq1:  Iter=  1 NonCon=     1 RMS=2.23D-02 Max=3.86D-01 NDo=     1
 LinEq1:  Iter=  2 NonCon=     1 RMS=1.62D-02 Max=2.41D-01 NDo=     1
 LinEq1:  Iter=  3 NonCon=     1 RMS=5.82D-03 Max=7.35D-02 NDo=     1
 LinEq1:  Iter=  4 NonCon=     1 RMS=4.46D-03 Max=4.68D-02 NDo=     1
 LinEq1:  Iter=  5 NonCon=     1 RMS=1.42D-03 Max=2.31D-02 NDo=     1
 LinEq1:  Iter=  6 NonCon=     1 RMS=8.61D-04 Max=6.13D-03 NDo=     1
 LinEq1:  Iter=  7 NonCon=     1 RMS=1.98D-04 Max=1.34D-03 NDo=     1
 LinEq1:  Iter=  8 NonCon=     1 RMS=3.91D-05 Max=2.49D-04 NDo=     1
 LinEq1:  Iter=  9 NonCon=     1 RMS=1.52D-05 Max=1.17D-04 NDo=     1
 LinEq1:  Iter= 10 NonCon=     1 RMS=1.52D-06 Max=1.04D-05 NDo=     1
 LinEq1:  Iter= 11 NonCon=     1 RMS=1.81D-07 Max=1.02D-06 NDo=     1
 LinEq1:  Iter= 12 NonCon=     1 RMS=2.13D-08 Max=1.49D-07 NDo=     1
 LinEq1:  Iter= 13 NonCon=     1 RMS=2.91D-09 Max=1.53D-08 NDo=     1
 LinEq1:  Iter= 14 NonCon=     1 RMS=3.64D-10 Max=1.81D-09 NDo=     1
 LinEq1:  Iter= 15 NonCon=     0 RMS=3.88D-11 Max=2.92D-10 NDo=     1
 Linear equations converged to 1.000D-10 1.000D-09 after    15 iterations.
 End of Minotr F.D. properties file   721 does not exist.
 End of Minotr F.D. properties file   722 does not exist.
 End of Minotr F.D. properties file   788 does not exist.
 Leave Link 1002 at Tue Dec 15 16:24:43 2015, MaxMem=    33554432 cpu:         9.9
 (Enter /home/Applications/g09/g09/l601.exe)
 Copying SCF densities to generalized density rwf, IOpCl= 0 IROHF=0.

 **********************************************************************

            Population analysis using the SCF density.

 **********************************************************************

 Orbital symmetries:
       Occupied  (A) (A) (A) (A) (A) (A) (A) (A) (A) (A) (A) (A)
                 (A) (A) (A) (A) (A) (A)
       Virtual   (A) (A) (A) (A) (A) (A) (A) (A) (A) (A) (A) (A)
                 (A) (A) (A) (A) (A) (A) (A) (A) (A) (A) (A) (A)
                 (A) (A) (A) (A) (A) (A) (A) (A) (A) (A) (A)
 The electronic state is 1-A.
 Alpha  occ. eigenvalues --  -19.10634 -10.17394 -10.17145 -10.12621 -10.12494
 Alpha  occ. eigenvalues --   -1.11080  -0.80741  -0.74877  -0.59092  -0.58669
 Alpha  occ. eigenvalues --   -0.53380  -0.46119  -0.44029  -0.41715  -0.39569
 Alpha  occ. eigenvalues --   -0.35052  -0.28034  -0.23032
 Alpha virt. eigenvalues --    0.01279   0.08849   0.11956   0.14403   0.17889
 Alpha virt. eigenvalues --    0.18576   0.21185   0.23397   0.35075   0.42190
 Alpha virt. eigenvalues --    0.48807   0.67177   0.69930   0.72298   0.74880
 Alpha virt. eigenvalues --    0.77116   0.78721   0.79514   0.81868   0.84278
 Alpha virt. eigenvalues --    0.91974   0.97284   1.01176   1.03905   1.18461
 Alpha virt. eigenvalues --    1.24761   1.33669   1.35625   1.50482   1.57064
 Alpha virt. eigenvalues --    1.60713   1.73712   1.97559   2.10462   3.15670
     Molecular Orbital Coefficients:
                           1         2         3         4         5
                           O         O         O         O         O
     Eigenvalues --   -19.10634 -10.17394 -10.17145 -10.12621 -10.12494
   1 1   C  1S          0.00019   0.00017  -0.01247   0.75841   0.63006
   2        2S          0.00073   0.00005  -0.00528   0.08774   0.06682
   3        2PX        -0.00103   0.00037  -0.00105  -0.00231   0.00065
   4        2PY         0.00101   0.00038   0.00234  -0.00140  -0.00072
   5        2PZ        -0.00006  -0.00001   0.00002   0.00008   0.00006
   6        3S         -0.00689  -0.01698   0.03251  -0.10793  -0.03524
   7        3PX         0.00490   0.00068   0.00299   0.03162  -0.00511
   8        3PY         0.00651   0.01080  -0.01763   0.02429   0.00865
   9        3PZ         0.00036   0.00018  -0.00010  -0.00038  -0.00033
  10 2   C  1S         -0.00055  -0.09386   0.98093   0.00871   0.00845
  11        2S         -0.00124  -0.01313   0.10565  -0.00187  -0.00223
  12        2PX        -0.00161   0.00147  -0.00153   0.00067   0.00066
  13        2PY        -0.00144  -0.00065  -0.00029  -0.00066  -0.00193
  14        2PZ         0.00003   0.00005   0.00008   0.00006  -0.00004
  15        3S          0.01536   0.01911  -0.07200   0.03249   0.01710
  16        3PX        -0.01623  -0.01578   0.00666  -0.01515  -0.00689
  17        3PY         0.00282   0.01302  -0.01431   0.01578   0.01132
  18        3PZ         0.00035  -0.00021  -0.00026   0.00005   0.00034
  19 3   O  1S          0.98276   0.00024   0.00016   0.00002   0.00009
  20        2S          0.10749   0.00155   0.00151   0.00010   0.00031
  21        2PX         0.00011  -0.00049   0.00082   0.00008   0.00002
  22        2PY         0.00418   0.00056   0.00084  -0.00003  -0.00017
  23        2PZ        -0.00024  -0.00007  -0.00008   0.00003  -0.00004
  24        3S         -0.05982   0.00017   0.00118  -0.00038  -0.00495
  25        3PX        -0.00009   0.00066  -0.00005  -0.00338  -0.00001
  26        3PY        -0.01354  -0.00303  -0.00315   0.00018  -0.00201
  27        3PZ         0.00072   0.00040   0.00032  -0.00010   0.00022
  28 4   C  1S         -0.00045   0.98098   0.09288  -0.00617   0.00887
  29        2S         -0.00075   0.10622   0.00696   0.00173  -0.00318
  30        2PX         0.00180   0.00246  -0.00110   0.00057  -0.00110
  31        2PY        -0.00187  -0.00043  -0.00047   0.00056  -0.00230
  32        2PZ         0.00008   0.00029   0.00010   0.00003  -0.00003
  33        3S          0.01822  -0.07479   0.00782  -0.03194   0.02662
  34        3PX         0.01581  -0.01154   0.01530  -0.01488   0.01231
  35        3PY        -0.00179  -0.01599   0.00784  -0.01184   0.01401
  36        3PZ         0.00067  -0.00117  -0.00016  -0.00061   0.00025
  37 5   C  1S          0.00015  -0.01094  -0.00201  -0.63048   0.75812
  38        2S          0.00054  -0.00546  -0.00087  -0.07419   0.08184
  39        2PX         0.00118   0.00167  -0.00004  -0.00219  -0.00020
  40        2PY         0.00082   0.00251   0.00085   0.00168  -0.00122
  41        2PZ         0.00003   0.00007   0.00001   0.00016  -0.00019
  42        3S         -0.00590   0.03659  -0.01254   0.10208  -0.05765
  43        3PX        -0.00390  -0.00655  -0.00097   0.02792   0.00037
  44        3PY         0.00656  -0.01922   0.00813  -0.02671   0.01499
  45        3PZ        -0.00015  -0.00059   0.00051  -0.00142   0.00118
  46 6   H  1S         -0.00081  -0.00096  -0.00048   0.00135  -0.00198
  47        2S         -0.00205   0.00164  -0.00059   0.00070   0.00546
  48 7   H  1S          0.00014  -0.00389   0.00092   0.00005  -0.00016
  49        2S          0.00390   0.00866   0.00820  -0.00357   0.00476
  50 8   H  1S          0.00061   0.00181  -0.00454   0.00001  -0.00023
  51        2S          0.00550   0.00746   0.01135   0.00528   0.00397
  52 9   H  1S         -0.00080  -0.00018  -0.00110  -0.00244  -0.00220
  53        2S         -0.00232  -0.00079   0.00180   0.00042   0.00688
                           6         7         8         9        10
                           O         O         O         O         O
     Eigenvalues --    -1.11080  -0.80741  -0.74877  -0.59092  -0.58669
   1 1   C  1S         -0.02990   0.15034  -0.06350  -0.12023  -0.01346
   2        2S          0.02907  -0.16210   0.06768   0.12211   0.01295
   3        2PX        -0.01462   0.07750   0.06205   0.04179   0.17433
   4        2PY        -0.03271   0.04786  -0.06977   0.04302  -0.07069
   5        2PZ         0.00050  -0.00230   0.00082   0.00566  -0.00117
   6        3S          0.05482  -0.30099   0.13643   0.41761   0.06172
   7        3PX        -0.02276   0.02381  -0.01794   0.00111   0.06843
   8        3PY        -0.03509   0.03076   0.00611  -0.01501  -0.02686
   9        3PZ        -0.00113  -0.00224   0.00143   0.00357  -0.00029
  10 2   C  1S         -0.06653   0.05497  -0.14866   0.06893  -0.08814
  11        2S          0.07579  -0.06398   0.15855  -0.07178   0.09943
  12        2PX        -0.07605   0.00477  -0.01814  -0.03315   0.17763
  13        2PY        -0.01633  -0.10882  -0.00396   0.18242   0.06866
  14        2PZ         0.00212  -0.00032   0.00375  -0.00159  -0.00190
  15        3S          0.06326  -0.07798   0.36714  -0.24790   0.24780
  16        3PX         0.03828   0.00885  -0.02232  -0.00095   0.10051
  17        3PY        -0.02132  -0.03190   0.03306   0.04703   0.02380
  18        3PZ        -0.00019   0.00030   0.00132  -0.00120  -0.00039
  19 3   O  1S         -0.20946  -0.09249  -0.01059  -0.02376   0.04234
  20        2S          0.19079   0.08881   0.00917   0.02476  -0.04147
  21        2PX        -0.00394  -0.01550   0.19874  -0.20903  -0.13974
  22        2PY         0.10865  -0.01987  -0.02176   0.01582  -0.01102
  23        2PZ        -0.00553  -0.00196  -0.00002  -0.00130   0.00014
  24        3S          0.66655   0.33296   0.03985   0.10089  -0.18204
  25        3PX         0.00056  -0.01191   0.16419  -0.18509  -0.12452
  26        3PY         0.13907  -0.00155  -0.01364   0.01475  -0.01615
  27        3PZ        -0.00740  -0.00181   0.00015  -0.00060  -0.00025
  28 4   C  1S         -0.08125   0.04490   0.14452   0.03941  -0.10358
  29        2S          0.09147  -0.05437  -0.15682  -0.04754   0.11296
  30        2PX         0.08633  -0.02041  -0.02500   0.06068  -0.12489
  31        2PY        -0.03983  -0.12706  -0.00634  -0.20787  -0.10061
  32        2PZ         0.00425  -0.00117  -0.00837   0.00014   0.00621
  33        3S          0.06756  -0.05774  -0.35293  -0.08100   0.34164
  34        3PX        -0.04350  -0.01385  -0.02651   0.04376  -0.06366
  35        3PY        -0.00895  -0.02967  -0.03768  -0.07185  -0.02394
  36        3PZ        -0.00014  -0.00119  -0.00461  -0.00015   0.00505
  37 5   C  1S         -0.03247   0.14917   0.07397   0.06782   0.07579
  38        2S          0.03233  -0.16097  -0.07992  -0.06900  -0.07637
  39        2PX         0.00864  -0.07300   0.06311   0.16682  -0.08425
  40        2PY        -0.03913   0.06277   0.06998   0.07201  -0.04617
  41        2PZ        -0.00101   0.00627   0.00344   0.00633   0.00434
  42        3S          0.06134  -0.29974  -0.15156  -0.24561  -0.25658
  43        3PX         0.02314  -0.01873  -0.02280   0.04770  -0.03721
  44        3PY        -0.03800   0.03323  -0.00386   0.04867   0.01230
  45        3PZ        -0.00044   0.00468   0.00134   0.00480   0.00295
  46 6   H  1S          0.00668  -0.04673  -0.03127  -0.05911  -0.05074
  47        2S          0.01127  -0.01035  -0.00948  -0.03717  -0.03427
  48 7   H  1S          0.01575  -0.00992  -0.08560  -0.02521   0.16343
  49        2S         -0.02451  -0.00297  -0.03236  -0.00197   0.08183
  50 8   H  1S          0.01318  -0.02083   0.09974  -0.12227   0.14529
  51        2S         -0.02882  -0.00711   0.03510  -0.06918   0.06022
  52 9   H  1S          0.00714  -0.05578   0.03495   0.11951   0.04174
  53        2S          0.01150  -0.01147   0.01066   0.06868   0.02216
                          11        12        13        14        15
                           O         O         O         O         O
     Eigenvalues --    -0.53380  -0.46119  -0.44029  -0.41715  -0.39569
   1 1   C  1S         -0.03307   0.03292   0.00236   0.00619   0.02404
   2        2S          0.03115  -0.03665  -0.00253  -0.01245  -0.02340
   3        2PX         0.00651  -0.06026   0.00897   0.33364   0.08006
   4        2PY         0.22476   0.04503   0.00986   0.09813  -0.23828
   5        2PZ         0.00731  -0.00737   0.12215  -0.00224  -0.00828
   6        3S          0.14509  -0.10778  -0.01793  -0.01306  -0.09269
   7        3PX         0.04304  -0.03167   0.01555   0.22536   0.00821
   8        3PY         0.12323   0.00109   0.01049   0.08360  -0.13820
   9        3PZ         0.00613  -0.00653   0.09200  -0.00075  -0.00432
  10 2   C  1S          0.02146  -0.01309   0.00355   0.02125  -0.04109
  11        2S         -0.02781   0.01481  -0.00431  -0.02403   0.04804
  12        2PX         0.11343   0.27235   0.02135  -0.01943  -0.05390
  13        2PY        -0.14168  -0.07975  -0.00627   0.03258   0.22766
  14        2PZ         0.00254  -0.01367   0.17445  -0.00684   0.00549
  15        3S         -0.03373   0.02724  -0.00787  -0.05844   0.15085
  16        3PX         0.07291   0.17693   0.01189  -0.01285  -0.04146
  17        3PY        -0.11706  -0.04861  -0.00239   0.03628   0.16405
  18        3PZ         0.00142  -0.01087   0.16794  -0.00755   0.00768
  19 3   O  1S         -0.05738   0.00373  -0.00350  -0.01539  -0.00429
  20        2S          0.05673  -0.00234   0.00336   0.01208   0.00343
  21        2PX         0.01357  -0.25118  -0.00819   0.03121  -0.10304
  22        2PY        -0.18332   0.04327   0.00852   0.06554   0.04614
  23        2PZ         0.00556  -0.02049   0.36637  -0.01905   0.02333
  24        3S          0.22414  -0.01298   0.01577   0.08369   0.02699
  25        3PX         0.01249  -0.23506  -0.00801   0.03312  -0.10925
  26        3PY        -0.16907   0.03944   0.00909   0.06428   0.04670
  27        3PZ         0.00561  -0.01996   0.36995  -0.02008   0.02403
  28 4   C  1S          0.02291   0.02256   0.00326  -0.01468   0.04006
  29        2S         -0.02858  -0.02095  -0.00303   0.01938  -0.04688
  30        2PX        -0.13919   0.28183   0.01775   0.13896  -0.00951
  31        2PY        -0.06296  -0.01730   0.02027   0.19355  -0.11556
  32        2PZ        -0.00102  -0.00754   0.20380  -0.00839   0.00969
  33        3S         -0.05278  -0.07984  -0.01562   0.06394  -0.13155
  34        3PX        -0.10037   0.18014   0.00000   0.10443  -0.00621
  35        3PY        -0.08887   0.00773   0.00871   0.14610  -0.06131
  36        3PZ         0.00152  -0.00822   0.18935  -0.00905   0.01126
  37 5   C  1S         -0.06108  -0.03696  -0.00328   0.01126  -0.01659
  38        2S          0.05787   0.04226   0.00257  -0.01368   0.00968
  39        2PX        -0.00607   0.03809  -0.00541  -0.29597  -0.16452
  40        2PY         0.21576  -0.01242  -0.02359  -0.08470   0.25060
  41        2PZ         0.00029  -0.00849   0.13146  -0.00883   0.00211
  42        3S          0.26437   0.10874   0.02066  -0.04580   0.07384
  43        3PX        -0.03132   0.03010   0.01157  -0.15211  -0.14406
  44        3PY         0.11138   0.01262  -0.02648  -0.01863   0.18341
  45        3PZ        -0.00425  -0.00491   0.09511  -0.00554   0.00060
  46 6   H  1S          0.13587   0.01915  -0.01025   0.04255   0.22866
  47        2S          0.08483   0.00727  -0.00236   0.04007   0.22189
  48 7   H  1S          0.05604  -0.18886  -0.01559  -0.12822  -0.02224
  49        2S          0.02116  -0.13884  -0.01932  -0.10823  -0.01349
  50 8   H  1S          0.06764   0.20151   0.01120  -0.05914  -0.06163
  51        2S          0.02860   0.14319   0.00925  -0.04430  -0.05777
  52 9   H  1S          0.11272  -0.03895   0.00989   0.19682  -0.11947
  53        2S          0.06046  -0.01894   0.00435   0.17257  -0.10713
                          16        17        18        19        20
                           O         O         O         V         V
     Eigenvalues --    -0.35052  -0.28034  -0.23032   0.01279   0.08849
   1 1   C  1S          0.02305  -0.00256   0.00159  -0.00523  -0.00862
   2        2S         -0.02385   0.00347  -0.00083   0.00623   0.00418
   3        2PX        -0.01048  -0.00304  -0.00106  -0.00106   0.02447
   4        2PY         0.16561   0.02331  -0.00895   0.00397   0.03380
   5        2PZ         0.02062  -0.29399   0.17150  -0.19749  -0.32217
   6        3S         -0.14656  -0.00775  -0.01732   0.03301   0.08505
   7        3PX        -0.05788   0.00179   0.00358   0.00746   0.06305
   8        3PY         0.12516   0.02129  -0.00584   0.01823   0.09438
   9        3PZ         0.01572  -0.29798   0.18861  -0.32836  -0.66053
  10 2   C  1S         -0.01553   0.00108   0.00196   0.00354   0.00188
  11        2S          0.02032  -0.00182  -0.00236  -0.00143  -0.00495
  12        2PX        -0.06760   0.00017   0.00762   0.00399   0.02499
  13        2PY        -0.17371  -0.01273   0.00685   0.00134   0.01535
  14        2PZ         0.01081  -0.07203   0.33558   0.33380   0.17869
  15        3S          0.06640   0.00157  -0.00767  -0.02538   0.02842
  16        3PX        -0.03532  -0.00222   0.00258   0.00649   0.02871
  17        3PY        -0.00112   0.00090   0.00759   0.00528   0.04977
  18        3PZ         0.00720  -0.03104   0.36711   0.50054   0.36161
  19 3   O  1S          0.06390   0.00012   0.00014  -0.00071  -0.00633
  20        2S         -0.06501  -0.00040  -0.00060   0.00179   0.00459
  21        2PX         0.06250   0.00488  -0.00142   0.00101   0.01745
  22        2PY         0.43442   0.03061  -0.00210  -0.00167   0.02066
  23        2PZ        -0.01681   0.31962   0.02398  -0.28637   0.02761
  24        3S         -0.23512   0.00288   0.00116   0.00113   0.04863
  25        3PX         0.06644   0.00439  -0.00483   0.00313   0.02850
  26        3PY         0.47142   0.03373  -0.00086  -0.00394   0.03211
  27        3PZ        -0.01954   0.35896   0.03087  -0.39656   0.04302
  28 4   C  1S         -0.01856  -0.00225  -0.00603   0.00644  -0.01000
  29        2S          0.02414   0.00229   0.00765  -0.00188   0.00368
  30        2PX         0.01215  -0.00074   0.00473   0.00340  -0.02148
  31        2PY        -0.17451  -0.00246  -0.00193   0.00243  -0.00856
  32        2PZ         0.00613  -0.04167  -0.32028   0.31220  -0.22894
  33        3S          0.08127   0.01003   0.01432  -0.06361   0.13684
  34        3PX         0.00505  -0.00393  -0.00703   0.01200  -0.04589
  35        3PY         0.01951   0.00837  -0.00927  -0.00073  -0.00267
  36        3PZ         0.00301   0.00156  -0.33743   0.46330  -0.44802
  37 5   C  1S          0.02629   0.00743   0.00333   0.00042  -0.01431
  38        2S         -0.02765  -0.00921  -0.00502   0.00166   0.00486
  39        2PX         0.03475   0.00632   0.00486  -0.00388  -0.02163
  40        2PY         0.16011   0.00708   0.00441  -0.01018   0.04388
  41        2PZ         0.01750  -0.28265  -0.19505  -0.13503   0.34773
  42        3S         -0.17112  -0.02621   0.00262  -0.00272   0.16604
  43        3PX         0.07097   0.02072   0.00703  -0.00945  -0.03935
  44        3PY         0.12064   0.00195  -0.00920  -0.01250   0.09855
  45        3PZ         0.01973  -0.28595  -0.21111  -0.22383   0.71321
  46 6   H  1S          0.06208   0.00023   0.00416   0.00234  -0.03442
  47        2S          0.09151   0.00354   0.00884   0.00259  -0.21173
  48 7   H  1S          0.07313   0.00532  -0.00471   0.01114  -0.01807
  49        2S          0.07700   0.00559  -0.00910   0.03436  -0.12388
  50 8   H  1S          0.04724   0.00418   0.00293   0.00375  -0.00221
  51        2S          0.05377   0.00731   0.00543   0.01013  -0.02658
  52 9   H  1S          0.06521   0.00480  -0.00066  -0.00630  -0.02981
  53        2S          0.09441   0.00791  -0.00292  -0.02298  -0.17690
                          21        22        23        24        25
                           V         V         V         V         V
     Eigenvalues --     0.11956   0.14403   0.17889   0.18576   0.21185
   1 1   C  1S          0.03468   0.01144   0.10308  -0.00662  -0.09272
   2        2S         -0.02260   0.00988  -0.08671   0.02441   0.03933
   3        2PX        -0.06747  -0.01681  -0.07384  -0.11184   0.11572
   4        2PY        -0.13957  -0.02746  -0.13749  -0.11234   0.04239
   5        2PZ        -0.07092  -0.00614  -0.01793  -0.00383   0.00682
   6        3S         -0.41394  -0.34568  -0.89137  -0.27142   1.49967
   7        3PX        -0.21125   0.08119  -0.55469  -0.25186   0.24301
   8        3PY        -0.35945  -0.02970  -0.72751  -0.16306   0.18688
   9        3PZ        -0.17463  -0.01803  -0.04564  -0.00533   0.04136
  10 2   C  1S          0.00221   0.10853  -0.04236   0.07115   0.01744
  11        2S          0.00012  -0.08539   0.04760  -0.04810  -0.00157
  12        2PX        -0.12669   0.13025  -0.07665  -0.21200  -0.25514
  13        2PY        -0.08893   0.18886  -0.00175   0.11109  -0.12952
  14        2PZ         0.03594  -0.00791   0.00817  -0.00216   0.00232
  15        3S         -0.18910  -1.01094   0.17374  -1.08225  -0.56687
  16        3PX        -0.22724   0.07524   0.14802  -0.84258  -0.86576
  17        3PY        -0.24611   0.58646  -0.05739   0.46700  -0.44740
  18        3PZ         0.08469  -0.01320   0.02434  -0.00560  -0.00252
  19 3   O  1S          0.06033  -0.09461   0.01595  -0.01956   0.04728
  20        2S         -0.04203   0.06714  -0.00923   0.01206  -0.01810
  21        2PX        -0.02042   0.10117  -0.07502  -0.02217  -0.17099
  22        2PY        -0.13732   0.11296  -0.01336   0.02115  -0.00613
  23        2PZ         0.01274  -0.00336   0.00279  -0.00610   0.01143
  24        3S         -0.48877   0.76526  -0.14995   0.17779  -0.50721
  25        3PX        -0.03407   0.16754  -0.06026  -0.06218  -0.35816
  26        3PY        -0.23603   0.17949  -0.04481   0.04999  -0.09413
  27        3PZ         0.02242  -0.00652   0.00360  -0.01297   0.02496
  28 4   C  1S          0.00130   0.09444   0.05689  -0.03318   0.07575
  29        2S          0.00672  -0.07075  -0.05679   0.01860  -0.04555
  30        2PX         0.14450   0.06248   0.02578  -0.24967   0.11586
  31        2PY        -0.06386   0.15024  -0.04547  -0.02119  -0.00723
  32        2PZ        -0.04112  -0.02647  -0.00636   0.01129  -0.01364
  33        3S         -0.25344  -0.94424  -0.42025   0.59463  -1.13869
  34        3PX         0.23394   0.40852   0.38450  -0.85216   0.38211
  35        3PY        -0.22348   0.53819  -0.13533  -0.08655  -0.18026
  36        3PZ        -0.10122  -0.06108  -0.00194   0.03299  -0.03994
  37 5   C  1S          0.05748  -0.00825  -0.10713   0.02257  -0.01522
  38        2S         -0.03727   0.02123   0.08766  -0.02670   0.00390
  39        2PX         0.08332   0.07204  -0.08375  -0.03092  -0.20426
  40        2PY        -0.21050  -0.05045   0.12736   0.07379   0.00532
  41        2PZ         0.07515   0.01562  -0.01104  -0.00206  -0.00066
  42        3S         -0.58225  -0.12644   0.89237  -0.06277   0.31262
  43        3PX         0.22886   0.18513  -0.49587  -0.07543  -0.82533
  44        3PY        -0.57564  -0.00487   0.69274   0.05430  -0.08107
  45        3PZ         0.17625   0.05313  -0.01600  -0.01630  -0.01461
  46 6   H  1S          0.11882   0.00090  -0.05381  -0.01444   0.00393
  47        2S          1.13205   0.16797  -1.26244  -0.11882  -0.48285
  48 7   H  1S          0.01735   0.10097   0.02504  -0.04170  -0.01666
  49        2S          0.32487   1.25047   0.53151  -1.23518   0.85286
  50 8   H  1S          0.00765   0.06752  -0.02497   0.05876   0.02454
  51        2S          0.21696   0.87721  -0.23781   1.72411   0.87124
  52 9   H  1S          0.09223  -0.02352   0.07225   0.01356   0.03858
  53        2S          0.85058   0.06631   1.44356   0.50304  -0.88162
                          26        27        28        29        30
                           V         V         V         V         V
     Eigenvalues --     0.23397   0.35075   0.42190   0.48807   0.67177
   1 1   C  1S          0.01600  -0.08730  -0.00130   0.12030   0.02001
   2        2S          0.00167   0.03532  -0.01723  -0.01506  -0.05371
   3        2PX         0.20654  -0.05283   0.18710   0.11571  -0.32463
   4        2PY        -0.05324  -0.13729  -0.20084   0.17891   0.37955
   5        2PZ         0.01451  -0.00859  -0.01284   0.00795   0.01282
   6        3S         -0.37771   1.69580   0.25879  -3.29194   0.14145
   7        3PX         1.21127   0.19259   1.20990   2.12813   0.27153
   8        3PY        -0.28567  -1.53229  -1.54031   1.36884  -0.27654
   9        3PZ         0.03091  -0.02227  -0.05758  -0.01939  -0.01115
  10 2   C  1S          0.08293   0.08711   0.03593  -0.07913  -0.04350
  11        2S         -0.06036  -0.00542  -0.01328   0.02261  -0.02865
  12        2PX         0.00141   0.16687  -0.02552  -0.26621  -0.30982
  13        2PY         0.04080  -0.24116  -0.09960  -0.14942  -0.16629
  14        2PZ        -0.01057  -0.00578   0.00729  -0.00101  -0.00268
  15        3S         -1.13824  -1.49145  -1.13789   1.28897   0.01965
  16        3PX        -0.13066   1.00378  -0.04919  -1.12797   0.33915
  17        3PY        -0.07736  -1.36228  -1.50855   1.04102   0.28029
  18        3PZ        -0.03132  -0.01922   0.02060   0.01558   0.00675
  19 3   O  1S          0.05241  -0.05380  -0.00382  -0.01365   0.02697
  20        2S         -0.02409   0.02209   0.00055   0.00255  -0.09178
  21        2PX         0.29497   0.00663  -0.17716  -0.23148   0.00608
  22        2PY        -0.05972   0.15628  -0.00379   0.03223  -0.16962
  23        2PZ         0.00507  -0.00182  -0.00556  -0.00527   0.00151
  24        3S         -0.55232   0.67436   0.06629   0.20089   0.22363
  25        3PX         0.59533   0.01397  -0.45980  -0.42035   0.04466
  26        3PY        -0.17602   0.46750  -0.00907   0.13005  -0.05873
  27        3PZ         0.01340  -0.00776  -0.01212  -0.00447  -0.00746
  28 4   C  1S         -0.07154   0.07268  -0.05581   0.09223  -0.04848
  29        2S          0.05857  -0.00572   0.01759  -0.00308  -0.02050
  30        2PX         0.16075  -0.16492   0.02481  -0.23867   0.32099
  31        2PY        -0.21697  -0.18689   0.15649   0.16497  -0.33575
  32        2PZ         0.01771  -0.00560  -0.00256   0.00498  -0.01184
[...]
     1  C    5.232638   0.466373  -0.077718  -0.139029   0.448805  -0.027074
     2  C    0.466373   5.101752   0.290169  -0.141673  -0.138613   0.004687
     3  O   -0.077718   0.290169   8.108253   0.294566  -0.085387   0.001949
     4  C   -0.139029  -0.141673   0.294566   5.051889   0.459687  -0.026062
     5  C    0.448805  -0.138613  -0.085387   0.459687   5.249326   0.368600
     6  H   -0.027074   0.004687   0.001949  -0.026062   0.368600   0.504145
     7  H    0.002793   0.003637  -0.028882   0.387696  -0.038003  -0.000523
     8  H   -0.039008   0.393063  -0.022488   0.002926   0.002853  -0.000027
     9  H    0.376714  -0.032516   0.002136   0.005112  -0.024825  -0.001431
               7          8          9
     1  C    0.002793  -0.039008   0.376714
     2  C    0.003637   0.393063  -0.032516
     3  O   -0.028882  -0.022488   0.002136
     4  C    0.387696   0.002926   0.005112
     5  C   -0.038003   0.002853  -0.024825
     6  H   -0.000523  -0.000027  -0.001431
     7  H    0.449793  -0.000041  -0.000022
     8  H   -0.000041   0.439207  -0.000311
     9  H   -0.000022  -0.000311   0.486734
 Mulliken charges:
               1
     1  C   -0.244493
     2  C    0.053121
     3  O   -0.482598
     4  C    0.104887
     5  C   -0.242443
     6  H    0.175736
     7  H    0.223553
     8  H    0.223827
     9  H    0.188410
 Sum of Mulliken charges =   0.00000
 Mulliken charges with hydrogens summed into heavy atoms:
               1
     1  C   -0.056083
     2  C    0.276949
     3  O   -0.482598
     4  C    0.328439
     5  C   -0.066706
 Electronic spatial extent (au):  <R**2>=            290.3164
 Charge=              0.0000 electrons
 Dipole moment (field-independent basis, Debye):
    X=              0.1237    Y=              0.6711    Z=              0.0104  Tot=              0.6824
 Quadrupole moment (field-independent basis, Debye-Ang):
   XX=            -23.1294   YY=            -28.3475   ZZ=            -31.7789
   XY=             -0.2862   XZ=              0.0792   YZ=              0.0436
 Traceless Quadrupole moment (field-independent basis, Debye-Ang):
   XX=              4.6225   YY=             -0.5956   ZZ=             -4.0270
   XY=             -0.2862   XZ=              0.0792   YZ=              0.0436
 Octapole moment (field-independent basis, Debye-Ang**2):
  XXX=             -0.3730  YYY=              1.3179  ZZZ=              0.2476  XYY=              0.7668
  XXY=             -4.5611  XXZ=              0.2391  XZZ=             -0.3094  YZZ=             -3.4813
  YYZ=              0.0495  XYZ=              0.3173
 Hexadecapole moment (field-independent basis, Debye-Ang**3):
 XXXX=           -155.1530 YYYY=           -157.6841 ZZZZ=            -30.8903 XXXY=              1.8463
 XXXZ=             -0.0287 YYYX=             -2.0907 YYYZ=             -0.0436 ZZZX=              0.0612
 ZZZY=             -0.1781 XXYY=            -46.0925 XXZZ=            -39.4241 YYZZ=            -34.3569
 XXYZ=             -0.0571 YYXZ=              0.4994 ZZXY=              0.4685
 N-N= 1.608198033478D+02 E-N=-8.542878028721D+02  KE= 2.269044202802D+02
 Orbital energies and kinetic energies (alpha):
                                 1                 2
   1         O               -19.106337         28.829669
   2         O               -10.173945         15.799948
   3         O               -10.171446         15.799810
   4         O               -10.126210         15.801660
   5         O               -10.124944         15.810129
   6         O                -1.110802          2.485342
   7         O                -0.807415          1.847760
   8         O                -0.748774          1.766506
   9         O                -0.590920          1.599693
  10         O                -0.586688          1.465446
  11         O                -0.533800          1.341454
  12         O                -0.461189          1.527149
  13         O                -0.440295          1.543206
  14         O                -0.417155          1.362125
  15         O                -0.395687          1.338339
  16         O                -0.350516          2.327873
  17         O                -0.280337          1.592748
  18         O                -0.230322          1.213352
  19         V                 0.012787          1.824079
  20         V                 0.088491          1.486054
  21         V                 0.119561          1.353035
  22         V                 0.144027          1.819902
  23         V                 0.178887          1.370892
  24         V                 0.185764          1.126410
  25         V                 0.211855          1.604744
  26         V                 0.233967          2.095312
  27         V                 0.350750          1.962346
  28         V                 0.421901          1.661953
  29         V                 0.488070          2.701855
  30         V                 0.671770          2.491336
  31         V                 0.699297          2.499379
  32         V                 0.722982          2.789551
  33         V                 0.748799          2.683793
  34         V                 0.771163          2.528450
  35         V                 0.787215          2.554165
  36         V                 0.795138          2.612283
  37         V                 0.818677          2.584479
  38         V                 0.842781          2.593236
  39         V                 0.919737          2.702356
  40         V                 0.972843          3.357935
  41         V                 1.011756          3.145044
  42         V                 1.039051          3.193125
  43         V                 1.184610          2.718369
  44         V                 1.247614          2.932018
  45         V                 1.336686          2.603661
  46         V                 1.356251          2.818262
  47         V                 1.504824          4.925588
  48         V                 1.570636          3.415656
  49         V                 1.607131          3.627847
  50         V                 1.737121          4.424347
  51         V                 1.975589          4.219216
  52         V                 2.104620          4.155118
  53         V                 3.156704          6.811235
 Total kinetic energy from orbitals= 2.269044202802D+02
 No NMR shielding tensors so no spin-rotation constants.
 Leave Link  601 at Tue Dec 15 16:24:44 2015, MaxMem=    33554432 cpu:         0.1
 (Enter /home/Applications/g09/g09/l701.exe)
 Compute integral first derivatives.
 ... and contract with generalized density number  6.
 Leave Link  701 at Tue Dec 15 16:24:44 2015, MaxMem=    33554432 cpu:         0.1
 (Enter /home/Applications/g09/g09/l702.exe)
 L702 exits ... SP integral derivatives will be done elsewhere.
 Leave Link  702 at Tue Dec 15 16:24:44 2015, MaxMem=    33554432 cpu:         0.0
 (Enter /home/Applications/g09/g09/l703.exe)
 Compute integral first derivatives, UseDBF=F ICtDFT=           0.
 Integral derivatives from FoFJK, PRISM(SPDF).
 Calling FoFJK, ICntrl=  10005127 FMM=F ISym2X=0 I1Cent= 0 IOpClX= 0 NMat=1 NMatS=1 NMatT=0.
 FoFJK:  IHMeth= 1 ICntrl=10005127 DoSepK=F KAlg= 0 I1Cent=   0 FoldK=F
 IRaf=         0 NMat=   1 IRICut=       1 DoRegI=T DoRafI=F ISym2E= 0.
 FoFCou: FMM=F IPFlag=           0 FMFlag=      100000 FMFlg1=         800
         NFxFlg=           0 DoJE=F BraDBF=F KetDBF=F FulRan=T
         wScrn=  0.000000 ICntrl=10005127 IOpCl=  0 I1Cent=           0 NGrid=           0
         NMat0=    1 NMatS0=      1 NMatT0=    0 NMatD0=    1 NMtDS0=    0 NMtDT0=    0
 Symmetry not used in FoFCou.
 Leave Link  703 at Tue Dec 15 16:24:45 2015, MaxMem=    33554432 cpu:         1.2
 (Enter /home/Applications/g09/g09/l716.exe)
 Dipole        =-4.94261854D-01 3.33918490D-01 4.13070194D-02
 ***** Axes restored to original set *****
 -------------------------------------------------------------------
 Center     Atomic                   Forces (Hartrees/Bohr)
 Number     Number              X              Y              Z
 -------------------------------------------------------------------
      1        6           0.073450874   -0.061341017    0.002561107
      2        6           0.032137741    0.017701174   -0.002420975
      3        8          -0.103330873    0.021710559    0.003329132
      4        6          -0.052072241    0.028574216    0.003450632
      5        6           0.123288785    0.043561111   -0.010088056
      6        1          -0.037111600   -0.026336511    0.004777651
      7        1          -0.001326774    0.010705246   -0.000609310
      8        1          -0.030501689   -0.049515295   -0.000905277
      9        1          -0.004534223    0.014940516   -0.000094904
 -------------------------------------------------------------------
 Cartesian Forces:  Max     0.123288785 RMS     0.042274491
 Z-matrix is all fixed cartesians, so copy forces.
 Force constants in Cartesian coordinates: 
                1             2             3             4             5 
      1  0.851194D+00
      2 -0.216695D-01  0.888111D+00
      3  0.105841D-01  0.101557D-01  0.214728D+00
      4 -0.453621D+00 -0.106220D+00 -0.320139D-02  0.849607D+00
      5 -0.849248D-01 -0.212316D+00 -0.234860D-02  0.999202D-01  0.922433D+00
      6  0.188956D-02 -0.138027D-02 -0.945819D-01 -0.108958D-01  0.164395D-01
      7 -0.964775D-02  0.279837D-01  0.180090D-02 -0.233199D+00  0.121754D+00
      8 -0.646982D-02  0.188077D-01  0.449383D-03  0.163519D+00 -0.321132D+00
      9  0.250762D-03 -0.200543D-03  0.490139D-02  0.134879D-01 -0.132224D-01
     10  0.121340D-01  0.423583D-04  0.733028D-03  0.239884D-01  0.161928D-01
     11  0.356761D-01  0.985993D-04  0.274806D-02 -0.181345D-01 -0.122513D-01
     12  0.253444D-02  0.633584D-04 -0.605812D-03 -0.182878D-02 -0.108605D-02
     13 -0.180852D+00  0.139485D-01 -0.122296D-02  0.120041D-01 -0.348189D-01
     14 -0.111767D-01 -0.502651D+00 -0.178208D-01  0.524173D-04 -0.182216D-03
     15 -0.735309D-03 -0.162251D-01 -0.966204D-01 -0.224348D-03 -0.572734D-04
     16  0.163593D-01  0.863851D-04  0.441888D-04  0.289395D-05 -0.140368D-04
     17 -0.226220D-01 -0.169220D-03  0.141322D-02 -0.127747D-05  0.619623D-05
     18 -0.247322D-02 -0.720788D-03  0.209604D-01  0.383068D-04 -0.185803D-03
     19  0.165611D-04  0.152222D-04 -0.448336D-03  0.257122D-04 -0.377992D-05
     20  0.263787D-04  0.242461D-04 -0.714116D-03 -0.641650D-05  0.000000D+00
     21 -0.297695D-03 -0.273628D-03  0.805910D-02  0.325748D-03 -0.478880D-04
     22  0.942811D-02 -0.273790D-01  0.229228D-03 -0.192660D+00 -0.135978D+00
     23 -0.457591D-02  0.132886D-01 -0.131676D-03 -0.131728D+00 -0.398054D+00
     24 -0.278026D-03  0.447015D-03  0.266227D-01  0.240197D-02  0.513968D-03
     25 -0.245011D+00  0.113192D+00 -0.851878D-02 -0.614837D-02  0.178731D-01
     26  0.115736D+00 -0.205194D+00  0.624885D-02 -0.740130D-02  0.214957D-01
     27 -0.114746D-01  0.813421D-02 -0.834637D-01 -0.103568D-03 -0.546018D-05
                6             7             8             9            10 
      6  0.184851D+00
      7  0.121651D-01  0.502660D+00
      8 -0.146743D-01  0.543402D-01  0.678283D+00
      9 -0.417626D-01 -0.261320D-01  0.255978D-02  0.510275D-01
     10 -0.170836D-02 -0.295181D+00 -0.217937D+00  0.162199D-01  0.953554D+00
     11  0.155105D-02 -0.175141D+00 -0.381472D+00  0.128818D-01 -0.392035D-01
     12 -0.379795D-02  0.133106D-01  0.121653D-01 -0.447166D-01 -0.962758D-02
     13 -0.221332D-02 -0.993936D-02  0.744975D-02 -0.934951D-03 -0.516044D+00
     14 -0.277858D-03 -0.289307D-01  0.217133D-01 -0.160687D-02  0.126665D+00
     15 -0.992047D-03  0.172468D-02 -0.662449D-03  0.892043D-02 -0.143495D-01
     16  0.416314D-03  0.000000D+00  0.000000D+00 -0.552078D-05 -0.548744D-02
     17 -0.183773D-03 -0.422726D-05  0.211854D-04  0.452957D-03  0.741717D-02
     18  0.551069D-02 -0.591124D-04  0.296249D-03  0.633397D-02 -0.160224D-02
     19  0.392088D-03  0.219493D-01 -0.166155D-01 -0.217093D-02 -0.172994D+00
     20 -0.978461D-04  0.113323D-01 -0.858833D-02 -0.136908D-02  0.106821D+00
     21  0.496738D-02 -0.152568D-02  0.131903D-02  0.428000D-02  0.103322D-01
     22  0.146270D-02  0.233590D-01  0.157097D-01 -0.619851D-03  0.108500D-04
     23 -0.100690D-02 -0.113367D-01 -0.762408D-02  0.296285D-03 -0.544820D-05
     24 -0.768201D-01 -0.134119D-02 -0.121994D-02  0.596181D-02  0.237272D-03
     25 -0.150825D-02 -0.106865D-05  0.439159D-05 -0.952238D-04  0.191298D-04
     26 -0.369636D-03  0.233542D-05 -0.959740D-05  0.208102D-03  0.802498D-05
     27  0.226258D-01  0.567183D-04 -0.233083D-03  0.505399D-02 -0.234703D-03
               11            12            13            14            15 
     11  0.923578D+00
     12 -0.981650D-03  0.208815D+00
     13  0.996511D-01 -0.142435D-01  0.882144D+00
     14 -0.227867D+00  0.375937D-02 -0.283713D-01  0.856795D+00
     15  0.540753D-02 -0.110880D+00  0.495710D-02  0.646529D-02  0.220386D+00
     16 -0.159413D-01  0.141130D-02 -0.215046D+00 -0.845522D-01  0.681825D-02
     17  0.216766D-01 -0.162229D-03 -0.852103D-01 -0.161138D+00  0.449595D-02
     18 -0.281628D-02  0.252339D-01  0.108363D-01  0.767838D-02 -0.807052D-01
     19  0.113077D+00  0.879592D-02  0.891690D-02  0.262110D-01  0.185099D-02
     20 -0.323771D+00 -0.134578D-01  0.455530D-02  0.132555D-01 -0.873206D-03
     21 -0.185399D-01 -0.840211D-01  0.186069D-03  0.278749D-02  0.302913D-01
     22 -0.159504D-05  0.165453D-03  0.000000D+00  0.124641D-05 -0.369669D-04
     23  0.000000D+00 -0.830802D-04  0.000000D+00  0.000000D+00  0.125726D-04
     24 -0.348812D-04  0.361820D-02  0.486791D-04 -0.236113D-03  0.700282D-02
     25  0.175833D-04 -0.517876D-03  0.188164D-01  0.101241D-03 -0.490635D-05
     26  0.737619D-05 -0.217249D-03  0.227957D-01  0.739587D-04  0.143664D-02
     27 -0.215728D-03  0.635380D-02  0.258652D-02 -0.748865D-03  0.225975D-01
               16            17            18            19            20 
     16  0.204120D+00
     17  0.100400D+00  0.139543D+00
     18 -0.804782D-02 -0.551665D-02  0.421947D-01
     19  0.000000D+00  0.436571D-04  0.610485D-03  0.142086D+00
     20  0.000000D+00  0.695377D-04  0.972389D-03 -0.122727D+00  0.319009D+00
     21  0.956493D-05 -0.784763D-03 -0.109738D-01 -0.903022D-02  0.155397D-01
     22  0.000000D+00  0.000000D+00  0.000000D+00  0.000000D+00  0.000000D+00
     23  0.000000D+00  0.000000D+00  0.000000D+00  0.000000D+00  0.000000D+00
     24  0.000000D+00  0.000000D+00  0.000000D+00  0.000000D+00  0.000000D+00
     25  0.526755D-04 -0.232525D-04  0.697259D-03  0.000000D+00  0.000000D+00
     26  0.220974D-04 -0.975442D-05  0.292501D-03  0.000000D+00  0.000000D+00
     27 -0.646274D-03  0.285284D-03 -0.855464D-02  0.000000D+00  0.000000D+00
               21            22            23            24            25 
     21  0.473971D-01
     22  0.000000D+00  0.159863D+00
     23  0.000000D+00  0.147646D+00  0.392390D+00
     24  0.000000D+00 -0.125188D-02  0.930249D-03  0.433363D-01
     25  0.000000D+00  0.000000D+00  0.000000D+00  0.183171D-03  0.232273D+00
     26  0.000000D+00  0.211314D-05  0.000000D+00 -0.400302D-03 -0.131165D+00
     27  0.000000D+00  0.513199D-04 -0.174541D-04 -0.972177D-02  0.976461D-02
               26            27 
     26  0.183637D+00
     27 -0.719890D-02  0.451091D-01
 Leave Link  716 at Tue Dec 15 16:24:45 2015, MaxMem=    33554432 cpu:         0.0
 (Enter /home/Applications/g09/g09/l103.exe)

 GradGradGradGradGradGradGradGradGradGradGradGradGradGradGradGradGradGrad
 Berny optimization.
 Search for a local minimum.
 Step number   1 out of a maximum of    2
 All quantities printed in internal units (Hartrees-Bohrs-Radians)
 Second derivative matrix not updated -- first step.
 ITU=  0
     Eigenvalues ---    0.02071   0.03016   0.06644   0.07426   0.07659
     Eigenvalues ---    0.07899   0.13092   0.14425   0.16765   0.22934
     Eigenvalues ---    0.23719   0.30124   0.41246   0.43564   0.62572
     Eigenvalues ---    0.78631   1.10794   1.33548   1.45664   1.54185
     Eigenvalues ---    1.65114
 Quadratic step=4.294D-01 exceeds max=3.000D-01 adjusted using Lamda=-1.088D-01.
 Angle between NR and scaled steps=  16.98 degrees.
 Angle between quadratic step and forces=  28.98 degrees.
 Linear search not attempted -- first point.
 TrRot= -0.002808  0.005036 -0.000898  0.475168  0.000819 -0.475616
 Variable       Old X    -DE/DX   Delta X   Delta X   Delta X     New X
                                 (Linear)    (Quad)   (Total)
    X1        1.75659   0.07345   0.00000   0.12906   0.12561   1.88220
    Y1       -1.30368  -0.06134   0.00000  -0.05767  -0.05350  -1.35718
    Z1       -0.04834   0.00256   0.00000   0.00680   0.00504  -0.04330
    X2       -0.71314   0.03214   0.00000   0.01813   0.01433  -0.69882
    Y2       -2.15424   0.01770   0.00000   0.01662   0.02195  -2.13230
    Z2       -0.05985  -0.00242   0.00000  -0.00099  -0.00058  -0.06044
    X3       -2.20552  -0.10333   0.00000  -0.18028  -0.18300  -2.38851
    Y3        0.06950   0.02171   0.00000   0.03616   0.04228   0.11178
    Z3        0.05945   0.00333   0.00000  -0.00134  -0.00054   0.05891
    X4       -0.66601  -0.05207   0.00000  -0.04735  -0.04922  -0.71523
    Y4        2.11383   0.02857   0.00000   0.01241   0.01777   2.13160
    Z4       -0.02180   0.00345   0.00000   0.01454   0.01336  -0.00844
    X5        1.74266   0.12329   0.00000   0.11011   0.10790   1.85055
    Y5        1.29010   0.04356   0.00000   0.01316   0.01737   1.30748
    Z5        0.03921  -0.01009   0.00000  -0.02607  -0.02881   0.01040
    X6        3.51380  -0.03711   0.00000  -0.03439  -0.03609   3.47771
    Y6        2.58084  -0.02634   0.00000  -0.03395  -0.03049   2.55035
    Z6       -0.05155   0.00478   0.00000   0.00706   0.00268  -0.04887
    X7       -1.57935  -0.00133   0.00000  -0.00733  -0.00830  -1.58766
    Y7        3.89730   0.01071   0.00000   0.04742   0.05320   3.95051
    Z7        0.08543  -0.00061   0.00000   0.00677   0.00554   0.09097
    X8       -1.54443  -0.03050   0.00000  -0.05103  -0.05565  -1.60008
    Y8       -3.86693  -0.04952   0.00000  -0.06725  -0.06153  -3.92846
    Z8       -0.06117  -0.00091   0.00000  -0.00829  -0.00655  -0.06771
    X9        3.34710  -0.00453   0.00000   0.08838   0.08442   3.43152
    Y9       -2.62612   0.01494   0.00000  -0.01057  -0.00705  -2.63317
    Z9        0.03608  -0.00009   0.00000   0.01226   0.00985   0.04593
         Item               Value     Threshold  Converged?
 Maximum Force            0.123289     0.000450     NO 
 RMS     Force            0.042274     0.000300     NO 
 Maximum Displacement     0.182996     0.001800     NO 
 RMS     Displacement     0.057635     0.001200     NO 
 Predicted change in Energy=-3.372805D-02
 GradGradGradGradGradGradGradGradGradGradGradGradGradGradGradGradGradGrad

 Leave Link  103 at Tue Dec 15 16:24:45 2015, MaxMem=    33554432 cpu:         0.0
 (Enter /home/Applications/g09/g09/l9999.exe)
 1\1\GINC-DUSTIN-DESKTOP\Force\RB3LYP-FC\3-21G\C4H4O1\DUSTIN\15-Dec-201
 5\0\\#P B3LYP/3-21G CIS(Singlets,NStates=15) pop(full) force\\FuranDFT
 \\0,1\C,0.929547,-0.689877,-0.025582\C,-0.37738,-1.139976,-0.031673\O,
 -1.16711,0.036777,0.03146\C,-0.352437,1.118591,-0.011535\C,0.922174,0.
 682693,0.020748\H,1.859422,1.365722,-0.02728\H,-0.835758,2.062364,0.04
 5205\H,-0.817278,-2.046291,-0.032368\H,1.771207,-1.389682,0.019091\\Ve
 rsion=ES64L-G09RevD.01\State=1-A\HF=-228.7368099\RMSD=7.040e-09\RMSF=4
 .227e-02\Dipole=0.2992655,0.5156199,0.0455949\PG=C01 [X(C4H4O1)]\\@


 Time has a wonderful way of weeding out the trivial.
                                -- Richard Ben Sapir
 Job cpu time:       0 days  0 hours  0 minutes 50.3 seconds.
 File lengths (MBytes):  RWF=     14 Int=      0 D2E=      0 Chk=      3 Scr=      1
 Normal termination of Gaussian 09 at Tue Dec 15 16:24:45 2015.
