 Entering Gaussian System, Link 0=g09
 Input=FuranAM1_77P5.com
 Output=FuranAM1_77P5.log
 Initial command:
 /home/Applications/g09/g09/l1.exe "/home/Applications/g09/scratch/Gau-7976.inp" -scrdir="/home/Applications/g09/scratch/"
 Entering Link 1 = /home/Applications/g09/g09/l1.exe PID=      7978.
  
 Copyright (c) 1988,1990,1992,1993,1995,1998,2003,2009,2013,
            Gaussian, Inc.  All Rights Reserved.
  
 This is part of the Gaussian(R) 09 program.  It is based on
 the Gaussian(R) 03 system (copyright 2003, Gaussian, Inc.),
 the Gaussian(R) 98 system (copyright 1998, Gaussian, Inc.),
 the Gaussian(R) 94 system (copyright 1995, Gaussian, Inc.),
 the Gaussian 92(TM) system (copyright 1992, Gaussian, Inc.),
 the Gaussian 90(TM) system (copyright 1990, Gaussian, Inc.),
 the Gaussian 88(TM) system (copyright 1988, Gaussian, Inc.),
 the Gaussian 86(TM) system (copyright 1986, Carnegie Mellon
 University), and the Gaussian 82(TM) system (copyright 1983,
 Carnegie Mellon University). Gaussian is a federally registered
 trademark of Gaussian, Inc.
  
 This software contains proprietary and confidential information,
 including trade secrets, belonging to Gaussian, Inc.
  
 This software is provided under written license and may be
 used, copied, transmitted, or stored only in accord with that
 written license.
  
 The following legend is applicable only to US Government
 contracts under FAR:
  
                    RESTRICTED RIGHTS LEGEND
  
 Use, reproduction and disclosure by the US Government is
 subject to restrictions as set forth in subparagraphs (a)
 and (c) of the Commercial Computer Software - Restricted
 Rights clause in FAR 52.227-19.
  
 Gaussian, Inc.
 340 Quinnipiac St., Bldg. 40, Wallingford CT 06492
  
  
 ---------------------------------------------------------------
 Warning -- This program may not be used in any manner that
 competes with the business of Gaussian, Inc. or will provide
 assistance to any competitor of Gaussian, Inc.  The licensee
 of this program is prohibited from giving any competitor of
 Gaussian, Inc. access to this program.  By using this program,
 the user acknowledges that Gaussian, Inc. is engaged in the
 business of creating and licensing software in the field of
 computational chemistry and represents and warrants to the
 licensee that it is not a competitor of Gaussian, Inc. and that
 it will not use this program in any manner prohibited above.
 ---------------------------------------------------------------
  

 Cite this work as:
 Gaussian 09, Revision D.01,
 M. J. Frisch, G. W. Trucks, H. B. Schlegel, G. E. Scuseria, 
 M. A. Robb, J. R. Cheeseman, G. Scalmani, V. Barone, B. Mennucci, 
 G. A. Petersson, H. Nakatsuji, M. Caricato, X. Li, H. P. Hratchian, 
 A. F. Izmaylov, J. Bloino, G. Zheng, J. L. Sonnenberg, M. Hada, 
 M. Ehara, K. Toyota, R. Fukuda, J. Hasegawa, M. Ishida, T. Nakajima, 
 Y. Honda, O. Kitao, H. Nakai, T. Vreven, J. A. Montgomery, Jr., 
 J. E. Peralta, F. Ogliaro, M. Bearpark, J. J. Heyd, E. Brothers, 
 K. N. Kudin, V. N. Staroverov, T. Keith, R. Kobayashi, J. Normand, 
 K. Raghavachari, A. Rendell, J. C. Burant, S. S. Iyengar, J. Tomasi, 
 M. Cossi, N. Rega, J. M. Millam, M. Klene, J. E. Knox, J. B. Cross, 
 V. Bakken, C. Adamo, J. Jaramillo, R. Gomperts, R. E. Stratmann, 
 O. Yazyev, A. J. Austin, R. Cammi, C. Pomelli, J. W. Ochterski, 
 R. L. Martin, K. Morokuma, V. G. Zakrzewski, G. A. Voth, 
 P. Salvador, J. J. Dannenberg, S. Dapprich, A. D. Daniels, 
 O. Farkas, J. B. Foresman, J. V. Ortiz, J. Cioslowski, 
 and D. J. Fox, Gaussian, Inc., Wallingford CT, 2013.
 
 ******************************************
 Gaussian 09:  ES64L-G09RevD.01 24-Apr-2013
                15-Dec-2015 
 ******************************************
 ------------------------------------------------------------
 #P AM1(Input,print) CIS(Singlets,NStates=15) pop(full) force
 ------------------------------------------------------------
 1/10=7,30=1,38=1/1,3;
 2/12=2,17=6,18=5,40=1/2;
 3/5=2,16=1,25=1,41=700000,71=1,135=100,136=1/1,2,8,3;
 4/35=1/1;
 5/5=2,35=1,38=5/2;
 8/6=1,10=1,108=15/1;
 9/15=2,41=15,42=1,48=1,49=10/14;
 10/5=4/2;
 6/7=3,18=1/1;
 7/12=6,13=5,29=1/1,2,3,16;
 1/10=7,30=1/3;
 99//99;
 Leave Link    1 at Tue Dec 15 17:06:03 2015, MaxMem=           0 cpu:         0.0
 (Enter /home/Applications/g09/g09/l101.exe)
 -----------------
 AM1-Reparam Input
 -----------------
 Symbolic Z-matrix:
 Charge =  0 Multiplicity = 1
 6                     0.97326  -0.66797  -0.01514 
 6                    -0.31347  -1.11187  -0.04096 
 8                    -1.16924   0.01906   0.00383 
 6                    -0.36416   1.1346   -0.03596 
 6                     0.97597   0.68091   0.02498 
 1                     1.78333   1.32461  -0.03862 
 1                    -0.81283   2.08305  -0.00394 
 1                    -0.86468  -2.0213    0.00004 
 1                     1.84765  -1.41142  -0.03519 
 
 NAtoms=      9 NQM=        9 NQMF=       0 NMMI=      0 NMMIF=      0
                NMic=       0 NMicF=      0.
                    Isotopes and Nuclear Properties:
 (Nuclear quadrupole moments (NQMom) in fm**2, nuclear magnetic moments (NMagM)
  in nuclear magnetons)

  Atom         1           2           3           4           5           6           7           8           9
 IAtWgt=          12          12          16          12          12           1           1           1           1
 AtmWgt=  12.0000000  12.0000000  15.9949146  12.0000000  12.0000000   1.0078250   1.0078250   1.0078250   1.0078250
 NucSpn=           0           0           0           0           0           1           1           1           1
 AtZEff=   0.0000000   0.0000000   0.0000000   0.0000000   0.0000000   0.0000000   0.0000000   0.0000000   0.0000000
 NQMom=    0.0000000   0.0000000   0.0000000   0.0000000   0.0000000   0.0000000   0.0000000   0.0000000   0.0000000
 NMagM=    0.0000000   0.0000000   0.0000000   0.0000000   0.0000000   2.7928460   2.7928460   2.7928460   2.7928460
 AtZNuc=   6.0000000   6.0000000   8.0000000   6.0000000   6.0000000   1.0000000   1.0000000   1.0000000   1.0000000
 Leave Link  101 at Tue Dec 15 17:06:03 2015, MaxMem=    33554432 cpu:         0.0
 (Enter /home/Applications/g09/g09/l103.exe)

 GradGradGradGradGradGradGradGradGradGradGradGradGradGradGradGradGradGrad
 Berny optimization.
 Initialization pass.
 Trust Radius=3.00D-01 FncErr=1.00D-07 GrdErr=1.00D-07
 Number of steps in this run=      2 maximum allowed number of steps=      2.
 GradGradGradGradGradGradGradGradGradGradGradGradGradGradGradGradGradGrad

 Leave Link  103 at Tue Dec 15 17:06:03 2015, MaxMem=    33554432 cpu:         0.0
 (Enter /home/Applications/g09/g09/l202.exe)
                          Input orientation:                          
 ---------------------------------------------------------------------
 Center     Atomic      Atomic             Coordinates (Angstroms)
 Number     Number       Type             X           Y           Z
 ---------------------------------------------------------------------
      1          6           0        0.973261   -0.667966   -0.015144
      2          6           0       -0.313467   -1.111873   -0.040963
      3          8           0       -1.169240    0.019059    0.003834
      4          6           0       -0.364161    1.134602   -0.035962
      5          6           0        0.975967    0.680905    0.024984
      6          1           0        1.783334    1.324613   -0.038617
      7          1           0       -0.812828    2.083048   -0.003940
      8          1           0       -0.864676   -2.021305    0.000039
      9          1           0        1.847647   -1.411418   -0.035194
 ---------------------------------------------------------------------
                    Distance matrix (angstroms):
                    1          2          3          4          5
     1  C    0.000000
     2  C    1.361392   0.000000
     3  O    2.250039   1.418930   0.000000
     4  C    2.244634   2.247052   1.376289   0.000000
     5  C    1.349470   2.209308   2.245084   1.416156   0.000000
     6  H    2.151079   3.214505   3.228617   2.155886   1.034527
     7  H    3.279987   3.233922   2.094550   1.049703   2.273022
     8  H    2.282492   1.064227   2.062973   3.195553   3.269637
     9  H    1.147900   2.181782   3.339071   3.372583   2.267435
                    6          7          8          9
     6  H    0.000000
     7  H    2.704900   0.000000
     8  H    4.267156   4.104682   0.000000
     9  H    2.736789   4.392083   2.780270   0.000000
 Stoichiometry    C4H4O
 Framework group  C1[X(C4H4O)]
 Deg. of freedom    21
 Full point group                 C1      NOp   1
 Largest Abelian subgroup         C1      NOp   1
 Largest concise Abelian subgroup C1      NOp   1
                         Standard orientation:                         
 ---------------------------------------------------------------------
 Center     Atomic      Atomic             Coordinates (Angstroms)
 Number     Number       Type             X           Y           Z
 ---------------------------------------------------------------------
      1          6           0       -1.032729    0.572104    0.000414
      2          6           0       -0.867807   -0.779098    0.021517
      3          8           0        0.523989   -1.052383   -0.018254
      4          6           0        1.173568    0.160036    0.029286
      5          6           0        0.178627    1.165936   -0.031989
      6          1           0        0.403013    2.173500    0.036660
      7          1           0        2.222840    0.172623    0.001934
      8          1           0       -1.443409   -1.672987   -0.025621
      9          1           0       -2.084308    1.032058    0.017688
 ---------------------------------------------------------------------
 Rotational constants (GHZ):      9.5369559      9.0220151      4.6391844
 Leave Link  202 at Tue Dec 15 17:06:03 2015, MaxMem=    33554432 cpu:         0.0
 (Enter /home/Applications/g09/g09/l301.exe)

 Semi-emprical parameters in input format:
 Method=8 CoreType=1 PeptideFC=0.0111590000 RIJScale=0.5404210000
 ****
 H       
 PQN=1 NValence=1 F0ss=0.4980120000 ZetaOverlap=1.0856700000 U=-0.4186260000
 Beta=-0.2268830000 CoreKO=1.0354420000 KON=0,0,0,1.0458670000 KON=1,0,1,1.0879310000
 KON=0,1,1,1.0589200000 KON=2,1,1,1.0697690000 EISol=-0.4188110042 EHeat=0.0830298228
 Alpha=1.4609850000
 GCore=0.0085280000,1.5127750000,2.2676710000
 GCore=0.0003530000,1.4551640000,3.4779940000
 GCore=-0.0013010000,0.5600570000,3.5861320000
 ****
 C       
 PQN=2,2 NValence=4 F0ss=0.4494440000 F0sp=0.4215150000 F0pp=0.3497590000 F2pp=0.1898720000
 G1sp=0.2701540000
 ZetaOverlap=1.8086650000,1.3781170000
 U=-1.7687090000,-1.4557970000
 Beta=-0.5012330000,-0.3063130000 DDN=0,1,0.7474020000 DDN=1,1,0.7268010000
 CoreKO=1.1356210000 KON=0,0,0,1.0966100000 KON=1,0,1,0.8998210000 KON=0,1,1,1.1124280000
 KON=2,1,1,0.7957910000 EISol=-4.4398989268 EHeat=0.2723305520 Alpha=1.2756240000
 DipHyp=1.4947180026
 GCore=0.0007890000,1.4001430000,2.6678360000
 GCore=0.0028980000,1.4001430000,3.2840710000
 GCore=-0.0013930000,1.3017660000,3.7634120000
 GCore=-0.0000850000,1.4001430000,4.6744780000
 ****
 O       
 PQN=2,2 NValence=6 F0ss=0.5596260000 F0sp=0.5321300000 F0pp=0.4958710000 F2pp=0.2543430000
 G1sp=0.4216980000
 ZetaOverlap=2.6354490000,2.4967270000
 U=-3.3169990000,-2.0345890000
 Beta=-1.1573400000,-1.1944970000 DDN=0,1,0.4953610000 DDN=1,1,0.5082060000
 CoreKO=0.8822960000 KON=0,0,0,0.8822960000 KON=1,0,1,0.5019540000 KON=0,1,1,0.7875880000
 KON=2,1,1,0.5515580000 EISol=-11.6164441184 EHeat=0.0949133088 Alpha=2.3677360000
 DipHyp=0.9906650029
 GCore=0.0205230000,1.2640290000,1.6023330000
 GCore=0.0056550000,1.9602000000,2.7307880000
 ****
 
 Standard basis: VSTO-6G (5D, 7F)
 Ernie: Thresh=  0.10000D-02 Tol=  0.10000D-05 Strict=F.
  NNHCO=     0 NNPyr=     0 NCTC=     0               EPep=         0.000000000
    EC=        68.206654063  ECS=         2.411409408   EG=         0.359644830
   EHC=         0.000000000  EAt=       -31.051283842  AtH=         1.516354808
 EPDDG=         0.000000000  ECC=        70.977708301 EAtT=        32.567638650
 There are    24 symmetry adapted cartesian basis functions of A   symmetry.
 There are    24 symmetry adapted basis functions of A   symmetry.
    24 basis functions,   144 primitive gaussians,    24 cartesian basis functions
    13 alpha electrons       13 beta electrons
       nuclear repulsion energy       103.5453469512 Hartrees.
 IExCor=    0 DFT=F Ex=HF Corr=None ExCW=0 ScaHFX=  1.000000
 ScaDFX=  1.000000  1.000000  1.000000  1.000000 ScalE2=  1.000000  1.000000
 IRadAn=      0 IRanWt=     -1 IRanGd=            0 ICorTp=0 IEmpDi=  4
 Integral buffers will be    131072 words long.
 Regular integral format.
 Two-electron integral symmetry is turned off.
 Leave Link  301 at Tue Dec 15 17:06:03 2015, MaxMem=    33554432 cpu:         0.0
 (Enter /home/Applications/g09/g09/l302.exe)
 Do NDO integrals.
 NPDir=0 NMtPBC=     1 NCelOv=     1 NCel=       1 NClECP=     1 NCelD=      1
         NCelK=      1 NCelE2=     1 NClLst=     1 CellRange=     0.0.
 One-electron integrals computed using PRISM.
 NBasis=    24 RedAO= F EigKep=  0.00D+00  NBF=    24
 NBsUse=    24 1.00D-04 EigRej=  0.00D+00 NBFU=    24
 Leave Link  302 at Tue Dec 15 17:06:03 2015, MaxMem=    33554432 cpu:         0.0
 (Enter /home/Applications/g09/g09/l308.exe)
 Leave Link  308 at Tue Dec 15 17:06:03 2015, MaxMem=    33554432 cpu:         0.0
 (Enter /home/Applications/g09/g09/l303.exe)
 DipDrv:  MaxL=1.
 Leave Link  303 at Tue Dec 15 17:06:03 2015, MaxMem=    33554432 cpu:         0.0
 (Enter /home/Applications/g09/g09/l401.exe)
 Simple Huckel Guess.
 JPrj=0 DoOrth=F DoCkMO=F.
 Leave Link  401 at Tue Dec 15 17:06:03 2015, MaxMem=    33554432 cpu:         0.0
 (Enter /home/Applications/g09/g09/l502.exe)
 Closed shell SCF:
 Using DIIS extrapolation, IDIIS=  1040.
 Overlap will be assumed to be unity.
 Two-electron integral symmetry not used.
 Keep J ints in memory in canonical form, NReq=888082.
 IVT=       79475 IEndB=       79475 NGot=    33554432 MDV=    33473473
 LenX=    33473473 LenY=    33472456
 Requested convergence on RMS density matrix=1.00D-08 within 128 cycles.
 Requested convergence on MAX density matrix=1.00D-06.
 Requested convergence on             energy=1.00D-06.
 No special actions if energy rises.
 FoFCou: FMM=F IPFlag=           0 FMFlag=           0 FMFlg1=           0
         NFxFlg=           0 DoJE=F BraDBF=F KetDBF=F FulRan=T
         wScrn=  0.000000 ICntrl=     600 IOpCl=  2 I1Cent=           0 NGrid=           0
         NMat0=    1 NMatS0=     54 NMatT0=    0 NMatD0=    1 NMtDS0=    0 NMtDT0=    0
 Symmetry not used in FoFCou.

 Cycle   1  Pass 1  IDiag  1:
 E=  4.97694620272209    
 DIIS: error= 1.53D-01 at cycle   1 NSaved=   1.
 NSaved= 1 IEnMin= 1 EnMin=  4.97694620272209     IErMin= 1 ErrMin= 1.53D-01
 ErrMax= 1.53D-01  0.00D+00 EMaxC= 1.00D-01 BMatC= 4.25D-01 BMatP= 4.25D-01
 IDIUse=3 WtCom= 0.00D+00 WtEn= 1.00D+00
 Coeff-Com:  0.100D+01
 Coeff-En:   0.100D+01
 Coeff:      0.100D+01
 GapD=    2.000 DampG=2.000 DampE=0.250 DampFc=0.5000 IDamp=-1.
 Damping current iteration by 5.00D-01
 RMSDP=6.42D-02 MaxDP=7.19D-01              OVMax= 0.00D+00

 Cycle   2  Pass 1  IDiag  1:
 E=  4.05705696925472     Delta-E=       -0.919889233467 Rises=F Damp=T
 DIIS: error= 8.71D-02 at cycle   2 NSaved=   2.
 NSaved= 2 IEnMin= 2 EnMin=  4.05705696925472     IErMin= 2 ErrMin= 8.71D-02
 ErrMax= 8.71D-02  0.00D+00 EMaxC= 1.00D-01 BMatC= 1.48D-01 BMatP= 4.25D-01
 IDIUse=3 WtCom= 1.29D-01 WtEn= 8.71D-01
 Coeff-Com: -0.112D+01 0.212D+01
 Coeff-En:   0.000D+00 0.100D+01
 Coeff:     -0.144D+00 0.114D+01
 RMSDP=3.63D-02 MaxDP=3.68D-01 DE=-9.20D-01 OVMax= 0.00D+00

 Cycle   3  Pass 1  IDiag  1:
 E=  2.88250301486558     Delta-E=       -1.174553954389 Rises=F Damp=F
 DIIS: error= 2.12D-02 at cycle   3 NSaved=   3.
 NSaved= 3 IEnMin= 3 EnMin=  2.88250301486558     IErMin= 3 ErrMin= 2.12D-02
 ErrMax= 2.12D-02  0.00D+00 EMaxC= 1.00D-01 BMatC= 1.41D-02 BMatP= 1.48D-01
 IDIUse=3 WtCom= 7.88D-01 WtEn= 2.12D-01
 Coeff-Com:  0.422D+00-0.970D+00 0.155D+01
 Coeff-En:   0.000D+00 0.000D+00 0.100D+01
 Coeff:      0.333D+00-0.764D+00 0.143D+01
 RMSDP=1.17D-02 MaxDP=5.85D-02 DE=-1.17D+00 OVMax= 0.00D+00

 Cycle   4  Pass 1  IDiag  1:
 E=  2.82527256664714     Delta-E=       -0.057230448218 Rises=F Damp=F
 DIIS: error= 5.57D-03 at cycle   4 NSaved=   4.
 NSaved= 4 IEnMin= 4 EnMin=  2.82527256664714     IErMin= 4 ErrMin= 5.57D-03
 ErrMax= 5.57D-03  0.00D+00 EMaxC= 1.00D-01 BMatC= 1.04D-03 BMatP= 1.41D-02
 IDIUse=3 WtCom= 9.44D-01 WtEn= 5.57D-02
 Coeff-Com: -0.720D-01 0.137D+00-0.406D+00 0.134D+01
 Coeff-En:   0.000D+00 0.000D+00 0.000D+00 0.100D+01
 Coeff:     -0.679D-01 0.130D+00-0.383D+00 0.132D+01
 RMSDP=3.83D-03 MaxDP=2.15D-02 DE=-5.72D-02 OVMax= 0.00D+00

 Cycle   5  Pass 1  IDiag  3:
 E=  2.82063869364667     Delta-E=       -0.004633873000 Rises=F Damp=F
 DIIS: error= 1.13D-03 at cycle   5 NSaved=   5.
 NSaved= 5 IEnMin= 5 EnMin=  2.82063869364667     IErMin= 5 ErrMin= 1.13D-03
 ErrMax= 1.13D-03  0.00D+00 EMaxC= 1.00D-01 BMatC= 3.67D-05 BMatP= 1.04D-03
 IDIUse=3 WtCom= 9.89D-01 WtEn= 1.13D-02
 Coeff-Com:  0.144D-01-0.251D-01 0.958D-01-0.471D+00 0.139D+01
 Coeff-En:   0.000D+00 0.000D+00 0.000D+00 0.000D+00 0.100D+01
 Coeff:      0.142D-01-0.248D-01 0.947D-01-0.465D+00 0.138D+01
 Gap=     0.422 Goal=   None    Shift=    0.000
 RMSDP=7.91D-04 MaxDP=4.58D-03 DE=-4.63D-03 OVMax= 6.03D-03

 Cycle   6  Pass 1  IDiag  3:
 E=  2.82045680539981     Delta-E=       -0.000181888247 Rises=F Damp=F
 DIIS: error= 2.05D-04 at cycle   6 NSaved=   6.
 NSaved= 6 IEnMin= 6 EnMin=  2.82045680539981     IErMin= 6 ErrMin= 2.05D-04
 ErrMax= 2.05D-04  0.00D+00 EMaxC= 1.00D-01 BMatC= 1.50D-06 BMatP= 3.67D-05
 IDIUse=3 WtCom= 9.98D-01 WtEn= 2.05D-03
 Coeff-Com: -0.152D-02 0.286D-02-0.249D-01 0.146D+00-0.587D+00 0.146D+01
 Coeff-En:   0.000D+00 0.000D+00 0.000D+00 0.000D+00 0.000D+00 0.100D+01
 Coeff:     -0.151D-02 0.286D-02-0.248D-01 0.146D+00-0.586D+00 0.146D+01
 Gap=     0.423 Goal=   None    Shift=    0.000
 RMSDP=1.66D-04 MaxDP=1.13D-03 DE=-1.82D-04 OVMax= 1.10D-03

 Cycle   7  Pass 1  IDiag  3:
 E=  2.82044977019969     Delta-E=       -0.000007035200 Rises=F Damp=F
 DIIS: error= 2.40D-05 at cycle   7 NSaved=   7.
 NSaved= 7 IEnMin= 7 EnMin=  2.82044977019969     IErMin= 7 ErrMin= 2.40D-05
 ErrMax= 2.40D-05  0.00D+00 EMaxC= 1.00D-01 BMatC= 2.73D-08 BMatP= 1.50D-06
 IDIUse=1 WtCom= 1.00D+00 WtEn= 0.00D+00
 Coeff-Com:  0.959D-04-0.123D-03 0.837D-02-0.546D-01 0.232D+00-0.634D+00
 Coeff-Com:  0.145D+01
 Coeff:      0.959D-04-0.123D-03 0.837D-02-0.546D-01 0.232D+00-0.634D+00
 Coeff:      0.145D+01
 Gap=     0.423 Goal=   None    Shift=    0.000
 RMSDP=2.02D-05 MaxDP=1.11D-04 DE=-7.04D-06 OVMax= 1.58D-04

 Cycle   8  Pass 1  IDiag  3:
 E=  2.82044965138826     Delta-E=       -0.000000118811 Rises=F Damp=F
 DIIS: error= 4.40D-06 at cycle   8 NSaved=   8.
 NSaved= 8 IEnMin= 8 EnMin=  2.82044965138826     IErMin= 8 ErrMin= 4.40D-06
 ErrMax= 4.40D-06  0.00D+00 EMaxC= 1.00D-01 BMatC= 5.86D-10 BMatP= 2.73D-08
 IDIUse=1 WtCom= 1.00D+00 WtEn= 0.00D+00
 Coeff-Com: -0.303D-05-0.404D-04-0.106D-02 0.773D-02-0.346D-01 0.944D-01
 Coeff-Com: -0.268D+00 0.120D+01
 Coeff:     -0.303D-05-0.404D-04-0.106D-02 0.773D-02-0.346D-01 0.944D-01
 Coeff:     -0.268D+00 0.120D+01
 Gap=     0.423 Goal=   None    Shift=    0.000
 RMSDP=2.57D-06 MaxDP=1.69D-05 DE=-1.19D-07 OVMax= 1.56D-05

 Cycle   9  Pass 1  IDiag  3:
 E=  2.82044964901971     Delta-E=       -0.000000002369 Rises=F Damp=F
 DIIS: error= 1.25D-06 at cycle   9 NSaved=   9.
 NSaved= 9 IEnMin= 9 EnMin=  2.82044964901971     IErMin= 9 ErrMin= 1.25D-06
 ErrMax= 1.25D-06  0.00D+00 EMaxC= 1.00D-01 BMatC= 3.47D-11 BMatP= 5.86D-10
 IDIUse=1 WtCom= 1.00D+00 WtEn= 0.00D+00
 Coeff-Com:  0.890D-06 0.700D-05 0.126D-04-0.179D-03 0.107D-02-0.175D-02
 Coeff-Com:  0.126D-01-0.321D+00 0.131D+01
 Coeff:      0.890D-06 0.700D-05 0.126D-04-0.179D-03 0.107D-02-0.175D-02
 Coeff:      0.126D-01-0.321D+00 0.131D+01
 Gap=     0.423 Goal=   None    Shift=    0.000
 RMSDP=7.62D-07 MaxDP=5.09D-06 DE=-2.37D-09 OVMax= 4.24D-06

 Cycle  10  Pass 1  IDiag  3:
 E=  2.82044964885024     Delta-E=       -0.000000000169 Rises=F Damp=F
 DIIS: error= 2.78D-07 at cycle  10 NSaved=  10.
 NSaved=10 IEnMin=10 EnMin=  2.82044964885024     IErMin=10 ErrMin= 2.78D-07
 ErrMax= 2.78D-07  0.00D+00 EMaxC= 1.00D-01 BMatC= 1.96D-12 BMatP= 3.47D-11
 IDIUse=1 WtCom= 1.00D+00 WtEn= 0.00D+00
 Coeff-Com:  0.181D-05-0.420D-05 0.106D-04-0.729D-04 0.302D-03-0.144D-02
 Coeff-Com:  0.847D-03 0.987D-01-0.532D+00 0.143D+01
 Coeff:      0.181D-05-0.420D-05 0.106D-04-0.729D-04 0.302D-03-0.144D-02
 Coeff:      0.847D-03 0.987D-01-0.532D+00 0.143D+01
 Gap=     0.423 Goal=   None    Shift=    0.000
 RMSDP=1.98D-07 MaxDP=1.44D-06 DE=-1.69D-10 OVMax= 1.63D-06

 Cycle  11  Pass 1  IDiag  3:
 E=  2.82044964883953     Delta-E=       -0.000000000011 Rises=F Damp=F
 DIIS: error= 7.37D-08 at cycle  11 NSaved=  11.
 NSaved=11 IEnMin=11 EnMin=  2.82044964883953     IErMin=11 ErrMin= 7.37D-08
 ErrMax= 7.37D-08  0.00D+00 EMaxC= 1.00D-01 BMatC= 1.64D-13 BMatP= 1.96D-12
 IDIUse=1 WtCom= 1.00D+00 WtEn= 0.00D+00
 Coeff-Com: -0.731D-06 0.131D-05-0.399D-05 0.445D-04-0.226D-03 0.103D-02
 Coeff-Com: -0.120D-02-0.496D-01 0.283D+00-0.956D+00 0.172D+01
 Coeff:     -0.731D-06 0.131D-05-0.399D-05 0.445D-04-0.226D-03 0.103D-02
 Coeff:     -0.120D-02-0.496D-01 0.283D+00-0.956D+00 0.172D+01
 Gap=     0.423 Goal=   None    Shift=    0.000
 RMSDP=7.53D-08 MaxDP=6.43D-07 DE=-1.07D-11 OVMax= 7.21D-07

 Cycle  12  Pass 1  IDiag  3:
 E=  2.82044964883835     Delta-E=       -0.000000000001 Rises=F Damp=F
 DIIS: error= 1.35D-08 at cycle  12 NSaved=  12.
 NSaved=12 IEnMin=12 EnMin=  2.82044964883835     IErMin=12 ErrMin= 1.35D-08
 ErrMax= 1.35D-08  0.00D+00 EMaxC= 1.00D-01 BMatC= 6.81D-15 BMatP= 1.64D-13
 IDIUse=1 WtCom= 1.00D+00 WtEn= 0.00D+00
 Coeff-Com: -0.102D-07 0.472D-07 0.587D-06-0.159D-04 0.912D-04-0.452D-03
 Coeff-Com:  0.604D-03 0.219D-01-0.126D+00 0.436D+00-0.907D+00 0.158D+01
 Coeff:     -0.102D-07 0.472D-07 0.587D-06-0.159D-04 0.912D-04-0.452D-03
 Coeff:      0.604D-03 0.219D-01-0.126D+00 0.436D+00-0.907D+00 0.158D+01
 Gap=     0.423 Goal=   None    Shift=    0.000
 RMSDP=1.44D-08 MaxDP=1.24D-07 DE=-1.18D-12 OVMax= 1.37D-07

 Cycle  13  Pass 1  IDiag  3:
 E=  2.82044964883804     Delta-E=        0.000000000000 Rises=F Damp=F
 DIIS: error= 1.81D-09 at cycle  13 NSaved=  13.
 NSaved=13 IEnMin=13 EnMin=  2.82044964883804     IErMin=13 ErrMin= 1.81D-09
 ErrMax= 1.81D-09  0.00D+00 EMaxC= 1.00D-01 BMatC= 2.01D-16 BMatP= 6.81D-15
 IDIUse=1 WtCom= 1.00D+00 WtEn= 0.00D+00
 Coeff-Com:  0.957D-08-0.188D-07-0.288D-06 0.622D-05-0.345D-04 0.171D-03
 Coeff-Com: -0.230D-03-0.833D-02 0.480D-01-0.166D+00 0.348D+00-0.687D+00
 Coeff-Com:  0.147D+01
 Coeff:      0.957D-08-0.188D-07-0.288D-06 0.622D-05-0.345D-04 0.171D-03
 Coeff:     -0.230D-03-0.833D-02 0.480D-01-0.166D+00 0.348D+00-0.687D+00
 Coeff:      0.147D+01
 Gap=     0.423 Goal=   None    Shift=    0.000
 RMSDP=2.17D-09 MaxDP=1.47D-08 DE=-3.13D-13 OVMax= 1.60D-08

 Cycle  14  Pass 2  IDiag  1:
 SCF Done:  E(RAM1) =   2.82044964884     A.U. after   14 cycles
            NFock= 13  Conv=0.22D-08     -V/T= 1.1912
 KE=-1.474933695989D+01 PE=-1.683903388914D+02 EE= 8.241477854890D+01
 Leave Link  502 at Tue Dec 15 17:06:03 2015, MaxMem=    33554432 cpu:         0.0
 (Enter /home/Applications/g09/g09/l801.exe)
 Range of M.O.s used for correlation:     1    24
 NBasis=    24 NAE=    13 NBE=    13 NFC=     0 NFV=     0
 NROrb=     24 NOA=    13 NOB=    13 NVA=    11 NVB=    11
 Leave Link  801 at Tue Dec 15 17:06:03 2015, MaxMem=    33554432 cpu:         0.0
 (Enter /home/Applications/g09/g09/l914.exe)
 RHF ground state
 MDV=    33554432 DFT=F DoStab=F Mixed=F DoRPA=F DoScal=F NonHer=F
 Making orbital integer symmetry assigments:
 Orbital symmetries:
       Occupied  (A) (A) (A) (A) (A) (A) (A) (A) (A) (A) (A) (A)
                 (A)
       Virtual   (A) (A) (A) (A) (A) (A) (A) (A) (A) (A) (A)
    60 initial guesses have been made.
 Convergence on wavefunction:    0.000001000000000
 Davidson Disk Diagonalization:  ConvIn= 1.00D-06 SkipCon=T Conv= 1.00D-06.
 Max sub-space:   240 roots to seek:    60 dimension of matrix:          286
 Iteration     1 Dimension    60 NMult     0 NNew     60
 CISAX will form    60 AO SS matrices at one time.
 NMat=    60 NSing=    60 JSym2X= 0.
 FoFJK:  IHMeth= 8 ICntrl=       0 DoSepK=F KAlg= 0 I1Cent=   0 FoldK=F
 IRaf=         1 NMat= 120 IRICut=       1 DoRegI=T DoRafI=F ISym2E= 0.
 FoFCou: FMM=F IPFlag=           0 FMFlag=      100000 FMFlg1=           0
         NFxFlg=           0 DoJE=F BraDBF=F KetDBF=F FulRan=T
         wScrn=  0.000000 ICntrl=       0 IOpCl=  0 I1Cent=           0 NGrid=           0
         NMat0=  120 NMatS0=     60 NMatT0=    0 NMatD0=  120 NMtDS0=    0 NMtDT0=    0
 Symmetry not used in FoFCou.
 New state      5 was old state      6
 New state      6 was old state      5
 New state      7 was old state     13
 New state      8 was old state      7
 New state     10 was old state      8
 New state     11 was old state     14
 New state     12 was old state     10
 New state     13 was old state     11
 New state     14 was old state     12
 Excitation Energies [eV] at current iteration:
 Root      1 :     5.722377972461343
 Root      2 :     6.873830660706969
 Root      3 :     7.173681840662608
 Root      4 :     7.254319917727937
 Root      5 :     7.583369499811795
 Root      6 :     8.244133539339716
 Root      7 :     8.410374586799042
 Root      8 :     8.712080815935877
 Root      9 :     8.907468081158813
 Root     10 :     9.381291163647800
 Root     11 :     9.746338924094474
 Root     12 :     9.882270788153194
 Root     13 :     9.925591588483631
 Root     14 :    10.015964417965630
 Root     15 :    10.077036723885130
 Root     16 :    10.475471001994570
 Root     17 :    10.518319742788730
 Root     18 :    10.649681739595420
 Root     19 :    10.892600580583420
 Root     20 :    11.039943048513140
 Root     21 :    11.264688009788310
 Root     22 :    11.474909862939090
 Root     23 :    11.581840078058680
 Root     24 :    11.602712265188050
 Root     25 :    11.776045968273250
 Root     26 :    11.811431845897640
 Root     27 :    11.842524867615510
 Root     28 :    12.196408992431570
 Root     29 :    12.385098826658350
 Root     30 :    12.476657132519140
 Root     31 :    12.738894609160730
 Root     32 :    12.775535298493840
 Root     33 :    12.876568448874150
 Root     34 :    12.977452614865080
 Root     35 :    13.214228672446750
 Root     36 :    13.271751043342800
 Root     37 :    13.469083921399810
 Root     38 :    13.494945622859960
 Root     39 :    13.567925930201390
 Root     40 :    13.779776523340380
 Root     41 :    13.889800109705630
 Root     42 :    14.107336900058690
 Root     43 :    14.154809410770970
 Root     44 :    14.182048010644490
 Root     45 :    14.521597777015470
 Root     46 :    14.573260054130720
 Root     47 :    14.832343350165780
 Root     48 :    15.020920497894110
 Root     49 :    15.141536908993360
 Root     50 :    15.246451548336760
 Root     51 :    15.523538178364570
 Root     52 :    15.625262099097130
 Root     53 :    15.946308542885320
 Root     54 :    16.217658933083660
 Root     55 :    16.260772921111380
 Root     56 :    16.363130918397640
 Root     57 :    16.415667559140570
 Root     58 :    16.687293258057020
 Root     59 :    17.025854385490800
 Root     60 :    17.578762058908070
 Iteration     2 Dimension   120 NMult    60 NNew     60
 CISAX will form    60 AO SS matrices at one time.
 NMat=    60 NSing=    60 JSym2X= 0.
 Root      1 not converged, maximum delta is    0.022027193611804
 Root      2 not converged, maximum delta is    0.040659787840095
 Root      3 not converged, maximum delta is    0.053327357873744
 Root      4 not converged, maximum delta is    0.052022042396162
 Root      5 not converged, maximum delta is    0.016961929555835
 Root      6 not converged, maximum delta is    0.046053788632025
 Root      7 not converged, maximum delta is    0.064033767673534
 Root      8 not converged, maximum delta is    0.024620461649817
 Root      9 not converged, maximum delta is    0.031827220682868
 Root     10 not converged, maximum delta is    0.045888386001836
 Root     11 not converged, maximum delta is    0.064726153646545
 Root     12 not converged, maximum delta is    0.070365271122942
 Root     13 not converged, maximum delta is    0.084375972318906
 Root     14 not converged, maximum delta is    0.177783685886996
 Root     15 not converged, maximum delta is    0.148873744782658
 Excitation Energies [eV] at current iteration:
 Root      1 :     5.651847902653977   Change is   -0.070530069807365
 Root      2 :     6.828019298401942   Change is   -0.045811362305027
 Root      3 :     7.130883929012876   Change is   -0.042797911649732
 Root      4 :     7.221143055490527   Change is   -0.033176862237409
 Root      5 :     7.568697674675015   Change is   -0.014671825136780
 Root      6 :     8.221628422287676   Change is   -0.022505117052041
 Root      7 :     8.350662542480466   Change is   -0.059712044318577
 Root      8 :     8.680237328808833   Change is   -0.031843487127045
 Root      9 :     8.887467788661445   Change is   -0.020000292497367
 Root     10 :     9.317455562405394   Change is   -0.063835601242405
 Root     11 :     9.404008382175924   Change is   -0.342330541918551
 Root     12 :     9.801095298643840   Change is   -0.081175489509354
 Root     13 :     9.858696995617334   Change is   -0.066894592866296
 Root     14 :     9.894785776716608   Change is   -0.121178641249022
 Root     15 :    10.005214361315910   Change is   -0.071822362569229
 Root     16 :    10.280126649148290   Change is   -0.369555090447129
 Root     17 :    10.412320834005710   Change is   -0.105998908783019
 Root     18 :    10.452604756014750   Change is   -0.022866245979817
 Root     19 :    10.553446690827850   Change is   -0.339153889755576
 Root     20 :    10.817085206774880   Change is   -0.222857841738257
 Root     21 :    11.148359853095220   Change is   -0.116328156693088
 Root     22 :    11.153966997601980   Change is   -0.320942865337104
 Root     23 :    11.472759096360840   Change is   -0.109080981697840
 Root     24 :    11.502229547998710   Change is   -0.100482717189341
 Root     25 :    11.607014830089670   Change is   -0.169031138183581
 Root     26 :    11.707950239907740   Change is   -0.134574627707762
 Root     27 :    11.763919719640060   Change is   -0.047512126257579
 Root     28 :    11.882137329231160   Change is   -0.314271663200403
 Root     29 :    12.057486886787490   Change is   -0.419170245731650
 Root     30 :    12.117145385397190   Change is   -0.267953441261156
 Root     31 :    12.610828538728220   Change is   -0.128066070432508
 Root     32 :    12.630465411601210   Change is   -0.145069886892633
 Root     33 :    12.778192426647420   Change is   -0.199260188217656
 Root     34 :    12.813178175221810   Change is   -0.063390273652340
 Root     35 :    13.090295393436970   Change is   -0.123933279009789
 Root     36 :    13.158980216079590   Change is   -0.112770827263206
 Root     37 :    13.214876555695630   Change is   -0.254207365704177
 Root     38 :    13.265867528490470   Change is   -0.229078094369487
 Root     39 :    13.383520563772040   Change is   -0.184405366429348
 Root     40 :    13.521002325473650   Change is   -0.368797784231974
 Root     41 :    13.688164388134880   Change is   -0.091612135205496
 Root     42 :    13.926974349854060   Change is   -0.180362550204629
 Root     43 :    14.032014956408810   Change is   -0.122794454362159
 Root     44 :    14.078513018723840   Change is   -0.103534991920649
 Root     45 :    14.350175092577250   Change is   -0.171422684438228
 Root     46 :    14.389120099034690   Change is   -0.184139955096022
 Root     47 :    14.609007511319660   Change is   -0.223335838846113
 Root     48 :    14.710473702006690   Change is   -0.310446795887425
 Root     49 :    14.989387099540850   Change is   -0.152149809452514
 Root     50 :    15.101280618101430   Change is   -0.145170930235335
 Root     51 :    15.209127312164510   Change is   -0.314410866200063
 Root     52 :    15.345075162737340   Change is   -0.280186936359789
 Root     53 :    15.606171262998190   Change is   -0.340137279887130
 Root     54 :    15.660262765610490   Change is   -1.027030492446527
 Root     55 :    15.978584709901570   Change is   -0.282188211209806
 Root     56 :    16.066684930263700   Change is   -0.296445988133945
 Root     57 :    16.089706612755060   Change is   -0.127952320328604
 Root     58 :    16.347506721143580   Change is   -0.068160837996995
 Root     59 :    16.577727248898650   Change is   -0.448127136592147
 Root     60 :    16.663689711453480
 Iteration     3 Dimension   135 NMult   120 NNew     15
 CISAX will form    15 AO SS matrices at one time.
 NMat=    15 NSing=    15 JSym2X= 0.
 Root      1 not converged, maximum delta is    0.001887425523728
 Root      2 not converged, maximum delta is    0.000167626509698
 Root      3 not converged, maximum delta is    0.000134217672278
 Root      4 not converged, maximum delta is    0.000150218184017
 Root      5 not converged, maximum delta is    0.000069426132822
 Root      6 not converged, maximum delta is    0.000155638908330
 Root      7 not converged, maximum delta is    0.000123283847884
 Root      8 not converged, maximum delta is    0.000913306885179
 Root      9 not converged, maximum delta is    0.000141454566511
 Root     10 not converged, maximum delta is    0.000186050814010
 Root     11 not converged, maximum delta is    0.003140346206983
 Root     12 not converged, maximum delta is    0.000289345978939
 Root     13 not converged, maximum delta is    0.001744820020411
 Root     14 not converged, maximum delta is    0.003576466591290
 Root     15 not converged, maximum delta is    0.001522928997102
 Excitation Energies [eV] at current iteration:
 Root      1 :     5.651353879318666   Change is   -0.000494023335311
 Root      2 :     6.828015108903990   Change is   -0.000004189497951
 Root      3 :     7.130880896355849   Change is   -0.000003032657027
 Root      4 :     7.221138326242866   Change is   -0.000004729247661
 Root      5 :     7.568696527839564   Change is   -0.000001146835450
 Root      6 :     8.221625410449203   Change is   -0.000003011838473
 Root      7 :     8.350658473810132   Change is   -0.000004068670333
 Root      8 :     8.680073012189178   Change is   -0.000164316619654
 Root      9 :     8.887463751679414   Change is   -0.000004036982030
 Root     10 :     9.317449361684432   Change is   -0.000006200720964
 Root     11 :     9.402827532954078   Change is   -0.001180849221847
 Root     12 :     9.801078682883908   Change is   -0.000016615759932
 Root     13 :     9.858343441569916   Change is   -0.000353554047418
 Root     14 :     9.893755694649510   Change is   -0.001030082067098
 Root     15 :    10.005092558307360   Change is   -0.000121803008546
 Iteration     4 Dimension   143 NMult   135 NNew      8
 CISAX will form     8 AO SS matrices at one time.
 NMat=     8 NSing=     8 JSym2X= 0.
 Root      1 not converged, maximum delta is    0.000121130945736
 Root      2 not converged, maximum delta is    0.000006576469632
 Root      3 not converged, maximum delta is    0.000003424592672
 Root      4 not converged, maximum delta is    0.000007554797890
 Root      5 not converged, maximum delta is    0.000002925044943
 Root      6 not converged, maximum delta is    0.000005067870594
 Root      7 not converged, maximum delta is    0.000007900252697
 Root      8 not converged, maximum delta is    0.000038525137011
 Root      9 not converged, maximum delta is    0.000007254170610
 Root     10 not converged, maximum delta is    0.000012045136219
 Root     11 not converged, maximum delta is    0.000085764514522
 Root     12 not converged, maximum delta is    0.000018314787022
 Root     13 not converged, maximum delta is    0.000093127660523
 Root     14 not converged, maximum delta is    0.000275620664782
 Root     15 not converged, maximum delta is    0.000113790811921
 Excitation Energies [eV] at current iteration:
 Root      1 :     5.651351873594575   Change is   -0.000002005724091
 Root      2 :     6.828015104577998   Change is   -0.000000004325993
 Root      3 :     7.130880890290048   Change is   -0.000000006065800
 Root      4 :     7.221138307791728   Change is   -0.000000018451138
 Root      5 :     7.568696524268290   Change is   -0.000000003571274
 Root      6 :     8.221625404195589   Change is   -0.000000006253614
 Root      7 :     8.350658466274204   Change is   -0.000000007535927
 Root      8 :     8.680072707387520   Change is   -0.000000304801658
 Root      9 :     8.887463738142447   Change is   -0.000000013536967
 Root     10 :     9.317449339580884   Change is   -0.000000022103547
 Root     11 :     9.402824977626778   Change is   -0.000002555327298
 Root     12 :     9.801078590897342   Change is   -0.000000091986566
 Root     13 :     9.858342056805171   Change is   -0.000001384764746
 Root     14 :     9.893748047538372   Change is   -0.000007647111139
 Root     15 :    10.005091091328090   Change is   -0.000001466979271
 Convergence achieved on expansion vectors.
 ***********************************************************************
 Excited states from <AA,BB:AA,BB> singles matrix:
 ***********************************************************************
 
 1PDM for each excited state written to RWF  633
 Ground to excited state transition densities written to RWF  633
 Ground to excited state transition electric dipole moments (Au):
       state          X           Y           Z        Dip. S.      Osc.
         1         1.2632      0.7415     -0.0636      2.1495      0.2976
         2        -0.0217     -0.0083      0.2266      0.0519      0.0087
         3        -0.0166     -0.0101     -0.0254      0.0010      0.0002
         4        -0.0372     -0.0463      0.0342      0.0047      0.0008
         5         0.0002      0.0110      0.1639      0.0270      0.0050
         6        -0.0093      0.0147     -0.2740      0.0754      0.0152
         7         0.0119      0.0095      0.0042      0.0002      0.0001
         8        -0.2529      0.5577     -0.0448      0.3769      0.0802
         9         0.0478     -0.0330     -0.0688      0.0081      0.0018
        10         0.0157     -0.0013      0.2607      0.0682      0.0156
        11         0.8451     -0.0054     -0.0231      0.7147      0.1646
        12         0.0855      0.0363      0.5667      0.3298      0.0792
        13        -0.0316      0.1623     -0.0701      0.0322      0.0078
        14         0.4392      0.5635      0.0197      0.5109      0.1238
        15         0.2510      0.2044     -0.0613      0.1086      0.0266
 Ground to excited state transition velocity dipole moments (Au):
       state          X           Y           Z        Dip. S.      Osc.
         1        -0.1683     -0.1026      0.0059      0.0389      0.1248
         2         0.0091     -0.0073     -0.1960      0.0385      0.1024
         3         0.0001      0.0067     -0.0454      0.0021      0.0054
         4         0.0068      0.0125      0.0135      0.0004      0.0010
         5        -0.0039     -0.0012      0.0179      0.0003      0.0008
         6         0.0005      0.0006     -0.0008      0.0000      0.0000
         7        -0.0052     -0.0032      0.0111      0.0002      0.0003
         8         0.1022     -0.1867      0.0050      0.0453      0.0947
         9        -0.0135      0.0094     -0.0233      0.0008      0.0017
        10         0.0061      0.0057     -0.0093      0.0002      0.0003
        11        -0.0983      0.0171     -0.0116      0.0101      0.0195
        12        -0.0176     -0.0062      0.0534      0.0032      0.0059
        13        -0.0227      0.0300      0.0169      0.0017      0.0031
        14        -0.0903     -0.0602     -0.0116      0.0119      0.0219
        15        -0.0439     -0.0253      0.0501      0.0051      0.0092
 Ground to excited state transition magnetic dipole moments (Au):
       state          X           Y           Z
         1         0.0369     -0.0367      0.6113
         2        -0.2806     -0.1403     -0.0170
         3         0.2392     -0.4792     -0.0131
         4         0.1723     -0.6622     -0.0531
         5        -0.7943     -0.2351      0.0049
         6         0.5172      0.1428     -0.0078
         7         0.2835     -0.6392      0.0258
         8         0.0089      0.0067      0.0610
         9        -0.0528      0.2628      0.0332
        10        -0.1214      0.0789     -0.0334
        11        -0.0029      0.0057      0.3019
        12         0.1774     -0.0565      0.0549
        13         0.0215     -0.0216     -0.1079
        14        -0.0550      0.1390      0.1097
        15         0.0339     -0.2162      0.0581
 Ground to excited state transition velocity quadrupole moments (Au):
       state          XX          YY          ZZ          XY          XZ          YZ
         1         0.2699     -0.2750      0.0017     -0.1795     -0.0121      0.0126
         2         0.0191     -0.0038     -0.0046      0.0045      0.0401     -0.1150
         3        -0.0205      0.0217      0.0085      0.0004      0.2162      0.1129
         4        -0.0008      0.0263      0.0072      0.0014     -0.2526     -0.1105
         5        -0.0141     -0.0347     -0.0109     -0.0014     -0.0141      0.1740
         6        -0.0237     -0.0127     -0.0028     -0.0112     -0.0779      0.1715
         7         0.0111      0.0012     -0.0097      0.0130      0.4346      0.2098
         8         0.1255     -0.1530      0.0192      0.2389     -0.0073      0.0066
         9         0.0075      0.0046     -0.0063     -0.0347     -0.0055      0.0025
        10        -0.0181      0.0171     -0.0044      0.0046     -0.1237     -0.0955
        11         0.1365     -0.0303      0.0316     -0.1913     -0.0359     -0.0200
        12         0.0325     -0.0220      0.0106     -0.0417      0.0688      0.1332
        13         0.4189      0.1952      0.0861      0.1267      0.0327     -0.0261
        14         0.3067     -0.1020      0.0089     -0.0276     -0.1025     -0.0381
        15         0.0702     -0.0842      0.0207     -0.0285      0.2731      0.0542
 <0|del|b> * <b|rxdel|0> + <0|del|b> * <b|delr+rdel|0>
 Rotatory Strengths (R) in cgs (10**-40 erg-esu-cm/Gauss)
       state          XX          YY          ZZ    R(velocity)    E-M Angle
         1         8.6662     -6.1897      1.5651      1.3472       89.44
         2         5.3153      0.8982     -1.0802      1.7111       88.31
         3        -5.5389      0.8625     -2.3770     -2.3511       96.10
         4        -7.7645     -0.4163    -12.6941     -6.9583      125.57
         5         0.4082      3.2544      5.2237      2.9621       76.74
         6         0.1635      0.4208      0.2557      0.2800       52.09
         7         4.4052     -2.7661      0.3069      0.6487       84.53
         8        -1.2489      0.7717      0.3806     -0.0322       90.00
         9         2.7721     -0.9793      3.4313      1.7414       71.77
        10         1.4771     -1.0107     -0.4303      0.0120       90.00
        11        -0.5837     -3.5475     -2.2531     -2.1281       95.91
        12         1.4493     -0.2926     -0.8377      0.1063       89.15
        13        -1.2813     -3.7730     -0.7307     -1.9284      129.81
        14       -15.0666      6.6250     -0.6512     -3.0309      103.35
        15        13.3511      0.4440     -0.5306      4.4215       64.70
 1/2[<0|r|b>*<b|rxdel|0> + (<0|rxdel|b>*<b|r|0>)*]
 Rotatory Strengths (R) in cgs (10**-40 erg-esu-cm/Gauss)
       state          XX          YY          ZZ     R(length)
         1       -32.9731     19.2346     27.4764      4.5793
         2        -4.2977     -0.8213      2.7285     -0.7969
         3         2.7998     -3.4340     -0.2357     -0.2900
         4         4.5392    -21.6983      1.2860     -5.2910
         5         0.1246      1.8294     -0.5712      0.4609
         6         3.3926     -1.4808     -1.5199      0.1306
         7        -2.3821      4.2730     -0.0757      0.6051
         8         1.5927     -2.6584      1.9341      0.2894
         9         1.7854      6.1326      1.6150      3.1777
        10         1.3490      0.0745      6.1634      2.5290
        11         1.7282      0.0218      4.9251      2.2250
        12       -10.7237      1.4512    -21.9881    -10.4202
        13         0.4819      2.4799     -5.3455     -0.7946
        14        17.0699    -55.3821     -1.5279    -13.2800
        15        -6.0242     31.2507      2.5183      9.2483
  1/2[<0|del|b>*<b|r|0> + (<0|r|b>*<b|del|0>)*] (Au)
       state          X           Y           Z        Dip. S.   Osc.(frdel)
         1        -0.2126     -0.0761     -0.0004      0.2891      0.1927
         2        -0.0002      0.0001     -0.0444      0.0446      0.0297
         3         0.0000     -0.0001      0.0012     -0.0011     -0.0007
         4        -0.0003     -0.0006      0.0005      0.0004      0.0002
         5         0.0000      0.0000      0.0029     -0.0029     -0.0019
         6         0.0000      0.0000      0.0002     -0.0002     -0.0001
         7        -0.0001      0.0000      0.0000      0.0000      0.0000
         8        -0.0258     -0.1041     -0.0002      0.1302      0.0868
         9        -0.0006     -0.0003      0.0016     -0.0007     -0.0004
        10         0.0001      0.0000     -0.0024      0.0023      0.0016
        11        -0.0831     -0.0001      0.0003      0.0829      0.0553
        12        -0.0015     -0.0002      0.0303     -0.0286     -0.0190
        13         0.0007      0.0049     -0.0012     -0.0044     -0.0029
        14        -0.0397     -0.0339     -0.0002      0.0738      0.0492
        15        -0.0110     -0.0052     -0.0031      0.0193      0.0129

 Excitation energies and oscillator strengths:
 
 Excited State   1:      Singlet-A      5.6514 eV  219.39 nm  f=0.2976  <S**2>=0.000
      13 -> 14         0.68858
 This state for optimization and/or second-order correction.
 Total Energy, E(CIS) =   3.02813301778    
 Copying the excited state density for this state as the 1-particle RhoCI density.
 
 Excited State   2:      Singlet-A      6.8280 eV  181.58 nm  f=0.0087  <S**2>=0.000
      10 -> 16         0.10894
      13 -> 15         0.62956
      13 -> 16        -0.11787
      13 -> 17        -0.24522
 
 Excited State   3:      Singlet-A      7.1309 eV  173.87 nm  f=0.0002  <S**2>=0.000
      10 -> 15         0.14770
      12 -> 14         0.14807
      13 -> 15         0.10946
      13 -> 16         0.61235
      13 -> 18         0.15747
      13 -> 19         0.15689
 
 Excited State   4:      Singlet-A      7.2211 eV  171.70 nm  f=0.0008  <S**2>=0.000
       9 -> 14        -0.12775
      11 -> 14        -0.11743
      12 -> 14         0.66249
      13 -> 16        -0.13765
 
 Excited State   5:      Singlet-A      7.5687 eV  163.81 nm  f=0.0050  <S**2>=0.000
      10 -> 14         0.24170
      11 -> 14         0.64240
      12 -> 14         0.12234
 
 Excited State   6:      Singlet-A      8.2216 eV  150.80 nm  f=0.0152  <S**2>=0.000
      10 -> 16         0.16433
      13 -> 15         0.19637
      13 -> 17         0.60940
      13 -> 18        -0.16163
 
 Excited State   7:      Singlet-A      8.3507 eV  148.47 nm  f=0.0001  <S**2>=0.000
      10 -> 15         0.12994
      13 -> 17        -0.17710
      13 -> 18        -0.39885
      13 -> 19         0.10577
      13 -> 20         0.24530
      13 -> 21         0.44439
 
 Excited State   8:      Singlet-A      8.6801 eV  142.84 nm  f=0.0802  <S**2>=0.000
      10 -> 14         0.64055
      11 -> 14        -0.23669
 
 Excited State   9:      Singlet-A      8.8875 eV  139.50 nm  f=0.0018  <S**2>=0.000
      10 -> 15        -0.12128
      13 -> 16        -0.15872
      13 -> 18         0.14493
      13 -> 19         0.62240
      13 -> 20         0.14799
 
 Excited State  10:      Singlet-A      9.3174 eV  133.07 nm  f=0.0156  <S**2>=0.000
      13 -> 18         0.50409
      13 -> 19        -0.17902
      13 -> 20         0.18941
      13 -> 21         0.38875
 
 Excited State  11:      Singlet-A      9.4028 eV  131.86 nm  f=0.1646  <S**2>=0.000
       8 -> 15         0.10733
       9 -> 16         0.13224
      10 -> 15         0.11068
      10 -> 17        -0.11614
      11 -> 15         0.36649
      11 -> 17        -0.30185
      11 -> 18         0.10606
      12 -> 15         0.10293
      12 -> 16        -0.14341
      12 -> 17        -0.16431
      12 -> 18        -0.19664
      12 -> 19         0.11811
      12 -> 21         0.10980
      13 -> 14         0.12516
 
 Excited State  12:      Singlet-A      9.8011 eV  126.50 nm  f=0.0792  <S**2>=0.000
      13 -> 19        -0.11834
      13 -> 20         0.59196
      13 -> 21        -0.32740
 
 Excited State  13:      Singlet-A      9.8583 eV  125.77 nm  f=0.0078  <S**2>=0.000
       9 -> 15         0.10168
      11 -> 15        -0.18876
      11 -> 16         0.32330
      11 -> 19         0.16485
      12 -> 15         0.47350
      12 -> 17        -0.23372
 
 Excited State  14:      Singlet-A      9.8937 eV  125.32 nm  f=0.1238  <S**2>=0.000
      11 -> 15         0.24643
      11 -> 16        -0.16269
      11 -> 19        -0.12688
      12 -> 15         0.25430
      12 -> 16         0.48475
      12 -> 18         0.15218
 
 Excited State  15:      Singlet-A     10.0051 eV  123.92 nm  f=0.0266  <S**2>=0.000
      10 -> 15         0.55454
      10 -> 16        -0.17211
      10 -> 17        -0.13221
      12 -> 16         0.19455
      13 -> 16        -0.17229
 SavETr:  write IOETrn=   770 NScale= 10 NData=  16 NLR=1 NState=   15 LETran=     280.
 The selected state is a singlet
 CISAX will form     1 AO SS matrices at one time.
 NMat=     1 NSing=     1 JSym2X= 0.
 Leave Link  914 at Tue Dec 15 17:06:03 2015, MaxMem=    33554432 cpu:         0.1
 (Enter /home/Applications/g09/g09/l1002.exe)
 Minotr:  Closed shell wavefunction.
          Computing CIS/TD-HF/TD-KS derivatives.
          Using Z-Vector for PSCF gradient.
          Skipping F1 and S1 gradient terms here.
          IDoAtm=111111111
          Direct CPHF calculation.
          Differentiating once with respect to electric field.
                with respect to dipole field.
          Differentiating once with respect to nuclear coordinates.
          Electric field/nuclear overlap derivatives assumed to be zero.
          Requested convergence is 1.0D-10 RMS, and 1.0D-09 maximum.
          NewPWx=T KeepS1=F KeepF1=F KeepIn=T MapXYZ=F SortEE=F KeepMc=T.
          MDV=      33495423 using IRadAn=       0.
 Keep J ints in memory in canonical form, NReq=871704.
 FoFCou: FMM=F IPFlag=           0 FMFlag=           0 FMFlg1=           0
         NFxFlg=           0 DoJE=F BraDBF=F KetDBF=F FulRan=T
         wScrn=  0.000000 ICntrl=     600 IOpCl=  2 I1Cent=           0 NGrid=           0
         NMat0=    1 NMatS0=     54 NMatT0=    0 NMatD0=    1 NMtDS0=    0 NMtDT0=    0
 Symmetry not used in FoFCou.
          Solving linear equations separately, MaxMat=       0.
          There are     1 degrees of freedom in the 1st order CPHF.  IDoFFX=0 NUNeed=     1.
 LinEq1:  Iter=  0 NonCon=     1 RMS=8.19D-03 Max=5.62D-02 NDo=     1
 AX will form     1 AO Fock derivatives at one time.
 LinEq1:  Iter=  1 NonCon=     1 RMS=6.80D-04 Max=2.52D-03 NDo=     1
 LinEq1:  Iter=  2 NonCon=     1 RMS=8.14D-05 Max=6.21D-04 NDo=     1
 LinEq1:  Iter=  3 NonCon=     1 RMS=9.28D-06 Max=2.70D-05 NDo=     1
 LinEq1:  Iter=  4 NonCon=     1 RMS=1.50D-06 Max=9.37D-06 NDo=     1
 LinEq1:  Iter=  5 NonCon=     1 RMS=1.89D-07 Max=7.78D-07 NDo=     1
 LinEq1:  Iter=  6 NonCon=     1 RMS=2.75D-08 Max=9.09D-08 NDo=     1
 LinEq1:  Iter=  7 NonCon=     1 RMS=3.12D-09 Max=1.13D-08 NDo=     1
 LinEq1:  Iter=  8 NonCon=     1 RMS=3.49D-10 Max=1.14D-09 NDo=     1
 LinEq1:  Iter=  9 NonCon=     0 RMS=4.25D-11 Max=1.58D-10 NDo=     1
 Linear equations converged to 1.000D-10 1.000D-09 after     9 iterations.
 End of Minotr F.D. properties file   721 does not exist.
 End of Minotr F.D. properties file   722 does not exist.
 End of Minotr F.D. properties file   788 does not exist.
 Leave Link 1002 at Tue Dec 15 17:06:04 2015, MaxMem=    33554432 cpu:         0.0
 (Enter /home/Applications/g09/g09/l601.exe)
 Copying SCF densities to generalized density rwf, IOpCl= 0 IROHF=0.

 **********************************************************************

            Population analysis using the SCF density.

 **********************************************************************

 Orbital symmetries:
       Occupied  (A) (A) (A) (A) (A) (A) (A) (A) (A) (A) (A) (A)
                 (A)
       Virtual   (A) (A) (A) (A) (A) (A) (A) (A) (A) (A) (A)
 The electronic state is 1-A.
 Alpha  occ. eigenvalues --   -1.69766  -1.12523  -0.91165  -0.78393  -0.75720
 Alpha  occ. eigenvalues --   -0.66385  -0.62569  -0.53952  -0.50501  -0.42198
 Alpha  occ. eigenvalues --   -0.41932  -0.40670  -0.29731
 Alpha virt. eigenvalues --    0.12567   0.19371   0.19994   0.23919   0.27517
 Alpha virt. eigenvalues --    0.27788   0.30178   0.31412   0.35109   0.44118
 Alpha virt. eigenvalues --    0.48118
     Molecular Orbital Coefficients:
                           1         2         3         4         5
                           O         O         O         O         O
     Eigenvalues --    -1.69766  -1.12523  -0.91165  -0.78393  -0.75720
   1 1   C  1S          0.10612   0.49470   0.22776  -0.26075  -0.17096
   2        1PX         0.11017   0.19756  -0.14065   0.22717  -0.01023
   3        1PY        -0.08157  -0.00744  -0.21605   0.10726  -0.37584
   4        1PZ        -0.00128  -0.00117  -0.00215  -0.00235   0.00031
   5 2   C  1S          0.25407   0.20664   0.52024   0.10058   0.39907
   6        1PX         0.27411  -0.01739  -0.02175   0.33312  -0.06364
   7        1PY        -0.00046   0.31789  -0.05964  -0.38901  -0.14524
   8        1PZ        -0.00879  -0.00349  -0.01794  -0.01004  -0.01326
   9 3   O  1S          0.79479  -0.30999   0.00579   0.03343  -0.27405
  10        1PX        -0.02588  -0.06559  -0.20434  -0.24566  -0.06984
  11        1PY         0.06508   0.12302  -0.10114  -0.13067   0.11371
  12        1PZ         0.00220   0.00113  -0.00048  -0.00212   0.00163
  13 4   C  1S          0.26952   0.17524  -0.51301  -0.17249   0.40942
  14        1PX        -0.18074  -0.22696  -0.05611  -0.10376   0.14656
  15        1PY        -0.22732   0.22300   0.01201   0.48932   0.05899
  16        1PZ        -0.01172  -0.00466   0.02059   0.00875  -0.01716
  17 5   C  1S          0.10633   0.49147  -0.24845   0.27831  -0.13222
  18        1PX        -0.00251  -0.12198  -0.23414   0.17664   0.34046
  19        1PY        -0.13685  -0.15071  -0.00178   0.15315  -0.21269
  20        1PZ         0.00190   0.01258  -0.00615   0.00974  -0.00509
  21 6   H  1S          0.00933   0.16089  -0.14294   0.22564  -0.12403
  22 7   H  1S          0.05424   0.00965  -0.25821  -0.09754   0.27220
  23 8   H  1S          0.05793   0.00936   0.26506   0.08600   0.26662
  24 9   H  1S          0.00568   0.13877   0.11745  -0.19434  -0.14078
                           6         7         8         9        10
                           O         O         O         O         O
     Eigenvalues --    -0.66385  -0.62569  -0.53952  -0.50501  -0.42198
   1 1   C  1S          0.20177   0.00977   0.12070  -0.03991  -0.04979
   2        1PX        -0.24162  -0.01716  -0.00732  -0.24199   0.08462
   3        1PY         0.18112   0.00339  -0.09353  -0.32254  -0.14607
   4        1PZ        -0.02139   0.41978  -0.00592   0.03148  -0.22109
   5 2   C  1S          0.11096   0.02841   0.04380  -0.10990   0.03290
   6        1PX        -0.32681  -0.00074   0.46331  -0.34490  -0.05844
   7        1PY        -0.22025  -0.00980   0.33985   0.34936   0.12585
   8        1PZ        -0.03630   0.54090  -0.01890   0.02119  -0.61439
   9 3   O  1S          0.19202   0.00416   0.05847   0.30424  -0.00010
  10        1PX         0.08758   0.00211  -0.15161   0.07338   0.02789
  11        1PY        -0.18203  -0.00977  -0.11000  -0.12656   0.01860
  12        1PZ        -0.01993   0.22229  -0.00541  -0.02002   0.02029
  13 4   C  1S          0.09391   0.02524  -0.09319  -0.09295  -0.02237
  14        1PX         0.40853   0.01820   0.54836  -0.19083   0.02079
  15        1PY         0.09222  -0.00630   0.27091   0.45826  -0.11005
  16        1PZ        -0.02873   0.55132   0.01703  -0.02895   0.64247
  17 5   C  1S          0.18931  -0.00618  -0.13184  -0.01273   0.02617
  18        1PX        -0.01864   0.00513  -0.04321   0.42643   0.00803
  19        1PY         0.31764   0.03252  -0.01391  -0.03042   0.17847
  20        1PZ        -0.01502   0.41538  -0.00429   0.01423   0.14821
  21 6   H  1S          0.27540   0.02916  -0.08204   0.03745   0.14978
  22 7   H  1S          0.27746   0.02033   0.30090  -0.13067  -0.01470
  23 8   H  1S          0.27290   0.01146  -0.32339  -0.08741  -0.00934
  24 9   H  1S          0.26640   0.01874   0.03541   0.04210  -0.13298
                          11        12        13        14        15
                           O         O         O         V         V
     Eigenvalues --    -0.41932  -0.40670  -0.29731   0.12567   0.19371
   1 1   C  1S         -0.10623   0.00725  -0.00089  -0.00884  -0.13125
   2        1PX         0.12693   0.54198   0.02310   0.01251  -0.07848
   3        1PY        -0.32443  -0.10619   0.02038   0.01836   0.22044
   4        1PZ         0.08150   0.01551   0.53254   0.69330  -0.00813
   5 2   C  1S          0.17314  -0.08352  -0.00548  -0.00106  -0.10205
   6        1PX         0.00922  -0.39635   0.00144   0.00080   0.08886
   7        1PY         0.27465   0.02582  -0.00156   0.01549   0.36174
   8        1PZ         0.22182   0.07814  -0.42634  -0.21659   0.01122
   9 3   O  1S         -0.06373   0.17278  -0.00633  -0.00039   0.02700
  10        1PX         0.03057   0.12534  -0.00191  -0.00048  -0.07177
  11        1PY         0.08843  -0.17261   0.00822  -0.00149   0.13965
  12        1PZ        -0.00786  -0.00677  -0.20920  -0.00705   0.00020
  13 4   C  1S         -0.09164  -0.15240  -0.00730  -0.00476  -0.05149
  14        1PX         0.06569   0.24199   0.00838   0.00741  -0.33882
  15        1PY        -0.32339   0.11186  -0.00756  -0.01187   0.17205
  16        1PZ        -0.26321  -0.02865  -0.35497   0.18547  -0.00128
  17 5   C  1S          0.05912   0.08719  -0.02599   0.03397  -0.18966
  18        1PX         0.03668  -0.28558  -0.02299   0.02055  -0.17775
  19        1PY         0.51631  -0.21426  -0.00507   0.00156   0.22511
  20        1PZ        -0.06608  -0.01068   0.60186  -0.65915  -0.00930
  21 6   H  1S          0.40638  -0.15349  -0.00098  -0.02233  -0.09092
  22 7   H  1S         -0.04082   0.09423   0.00263  -0.00542   0.46761
  23 8   H  1S         -0.05896   0.13582   0.00754   0.01660   0.49229
  24 9   H  1S         -0.24594  -0.40898  -0.00821   0.00927  -0.13650
                          16        17        18        19        20
                           V         V         V         V         V
     Eigenvalues --     0.19994   0.23919   0.27517   0.27788   0.30178
   1 1   C  1S         -0.00379  -0.05529  -0.21265   0.13389  -0.46211
   2        1PX         0.10513   0.22586   0.44000  -0.21627   0.01805
   3        1PY         0.16837  -0.33260   0.29340   0.40122   0.22360
   4        1PZ        -0.02289  -0.00123  -0.02629  -0.00799  -0.00091
   5 2   C  1S         -0.15288  -0.29860   0.33115   0.21467   0.25259
   6        1PX         0.20998   0.10362  -0.18054  -0.03960  -0.15387
   7        1PY         0.31698  -0.09875   0.14196   0.08688   0.18503
   8        1PZ         0.01299   0.00170   0.00140  -0.00410   0.00991
   9 3   O  1S         -0.00692  -0.03577   0.01884  -0.01931   0.04028
  10        1PX         0.04626  -0.00673   0.03303   0.05013  -0.04328
  11        1PY         0.00480   0.01880   0.04131  -0.01891   0.10668
  12        1PZ         0.00369   0.00254  -0.00091   0.01577  -0.03855
  13 4   C  1S          0.05769  -0.39724  -0.09521  -0.38447   0.04511
  14        1PX         0.35959  -0.06360  -0.02161   0.00830   0.06985
  15        1PY        -0.07968  -0.20599  -0.04586  -0.25530   0.10251
  16        1PZ        -0.00305   0.00425   0.00004   0.00342   0.01262
  17 5   C  1S          0.03149   0.07831   0.02338   0.14636  -0.20997
  18        1PX         0.26716   0.16297   0.28749   0.40417  -0.27164
  19        1PY        -0.09386  -0.25316   0.26475  -0.31322  -0.38125
  20        1PZ         0.01961   0.00810   0.01981   0.01494  -0.02213
  21 6   H  1S         -0.00489   0.22784  -0.38895   0.10018   0.51939
  22 7   H  1S         -0.49555   0.35640   0.06497   0.21714  -0.07303
  23 8   H  1S          0.56479   0.18038  -0.16889  -0.07392  -0.08692
  24 9   H  1S          0.06779   0.45973   0.39939  -0.39587   0.18440
                          21        22        23        24
                           V         V         V         V
     Eigenvalues --     0.31412   0.35109   0.44118   0.48118
   1 1   C  1S         -0.47096  -0.01759   0.06688   0.02194
   2        1PX        -0.36254   0.01238  -0.03625  -0.02309
   3        1PY        -0.15021   0.00617  -0.00098  -0.04908
   4        1PZ        -0.00239   0.02996   0.00228   0.00256
   5 2   C  1S          0.06409   0.00518  -0.14659   0.13938
   6        1PX         0.03979  -0.01083  -0.21255   0.20152
   7        1PY         0.12815   0.01455  -0.09549  -0.12589
   8        1PZ        -0.00166  -0.20655  -0.00063  -0.00854
   9 3   O  1S         -0.00811   0.00270   0.15626   0.01551
  10        1PX         0.00966   0.01412  -0.43330   0.79607
  11        1PY        -0.03082  -0.04094   0.78440   0.43565
  12        1PZ         0.01219   0.94939   0.04597   0.00692
  13 4   C  1S         -0.08803   0.00619  -0.13363  -0.16961
  14        1PX         0.09275  -0.00333   0.21946   0.04814
  15        1PY        -0.10160   0.01983   0.07095   0.24955
  16        1PZ        -0.00484  -0.22262  -0.00002   0.00926
  17 5   C  1S          0.63853  -0.02367   0.07662  -0.01274
  18        1PX        -0.24908  -0.01685   0.03461  -0.04828
  19        1PY        -0.06118  -0.01265   0.03421   0.01526
  20        1PZ         0.03541   0.02476   0.00466  -0.00263
  21 6   H  1S         -0.30924   0.02368  -0.05755  -0.00645
  22 7   H  1S          0.00041  -0.00279  -0.05081  -0.01790
  23 8   H  1S          0.03722  -0.00236  -0.03984   0.01619
  24 9   H  1S          0.04853   0.01268  -0.04552   0.00187
     Density Matrix:
                           1         2         3         4         5
   1 1   C  1S          0.95174
   2        1PX        -0.06806   1.11497
   3        1PY         0.10771  -0.05513   0.98006
   4        1PZ        -0.00169   0.00426   0.00643   1.03415
   5 2   C  1S          0.32986  -0.01449  -0.54907   0.01333   1.22491
   6        1PX        -0.11531   0.09329   0.19700   0.00057   0.23504
   7        1PY         0.43435   0.02015  -0.54247   0.00868  -0.12246
   8        1PZ         0.00188   0.00378  -0.00099   0.31354   0.00719
   9 3   O  1S          0.02435   0.00157  -0.04757   0.00034   0.00000
  10        1PX        -0.02599  -0.01176   0.05138   0.00115  -0.37638
  11        1PY         0.00547   0.01973  -0.07185   0.00317   0.08097
  12        1PZ        -0.00156  -0.00372  -0.00155  -0.04699   0.01613
  13 4   C  1S         -0.01031  -0.00630   0.03998  -0.00295  -0.00545
  14        1PX         0.01581   0.00531  -0.00644  -0.00095   0.01736
  15        1PY         0.04973   0.00584  -0.00581   0.00552  -0.06004
  16        1PZ         0.00135  -0.00270  -0.00860  -0.24397  -0.00579
  17 5   C  1S          0.32733   0.44623   0.27761  -0.04118  -0.01008
  18        1PX        -0.50098  -0.40647  -0.35477   0.00223  -0.02822
  19        1PY        -0.18880  -0.22617   0.01372   0.00503   0.03156
  20        1PZ         0.00464   0.02236   0.02345   0.91466  -0.00352
  21 6   H  1S          0.00623   0.02197   0.01575   0.00931   0.09248
  22 7   H  1S          0.06817   0.05198   0.01658   0.00056   0.04746
  23 8   H  1S          0.06097   0.02131  -0.07783   0.00149   0.54749
  24 9   H  1S          0.51413  -0.74127   0.35819   0.00383   0.05951
                           6         7         8         9        10
   6        1PX         1.58390
   7        1PY        -0.06162   1.31027
   8        1PZ        -0.00540  -0.00849   1.81987
   9 3   O  1S          0.08407  -0.00335   0.00007   1.94172
  10        1PX        -0.50821   0.13401   0.02031   0.11901   0.33085
  11        1PY         0.17495   0.12035  -0.01493  -0.27595   0.01614
  12        1PZ         0.02332  -0.01020   0.39014  -0.01555  -0.00335
  13 4   C  1S          0.03501  -0.04633  -0.00564   0.00583   0.18642
  14        1PX         0.00315   0.01357   0.00046  -0.05432   0.03573
  15        1PY        -0.02154   0.00702   0.00198  -0.07319  -0.26765
  16        1PZ        -0.00368   0.00272  -0.01161   0.00043  -0.00731
  17 5   C  1S         -0.05401   0.02575   0.01540   0.02492   0.01157
  18        1PX        -0.00856  -0.00176   0.00472   0.03836  -0.01890
  19        1PY         0.01833  -0.00663  -0.00196  -0.03501   0.02540
  20        1PZ        -0.00492   0.00672  -0.27504   0.00152  -0.00155
  21 6   H  1S          0.00161   0.08134  -0.00808   0.01084   0.01675
  22 7   H  1S          0.05486   0.00303   0.00035   0.02166   0.06992
  23 8   H  1S         -0.48214  -0.59914  -0.01818   0.01723  -0.02907
  24 9   H  1S          0.04642   0.01241   0.00110   0.01090  -0.03411
                          11        12        13        14        15
  11        1PY         0.31796
  12        1PZ         0.00902   0.18908
  13 4   C  1S          0.36495   0.02200   1.24574
  14        1PX        -0.29999  -0.01380  -0.03952   1.37458
  15        1PY        -0.40069  -0.02789  -0.26567   0.09961   1.53132
  16        1PZ        -0.02835   0.42617   0.01191  -0.00416   0.00850
  17 5   C  1S          0.02654   0.00167   0.30418  -0.26480   0.34945
  18        1PX         0.06153  -0.00005   0.41981  -0.21294   0.42904
  19        1PY        -0.07659   0.00502  -0.31944   0.25251  -0.27857
  20        1PZ         0.00298  -0.05988   0.02047  -0.01411   0.01487
  21 6   H  1S          0.02070   0.00273   0.05581  -0.03642  -0.01956
  22 7   H  1S         -0.02573  -0.00057   0.55482   0.75201   0.05497
  23 8   H  1S         -0.06946  -0.00270   0.04927  -0.03482  -0.03486
  24 9   H  1S          0.00671   0.00368   0.09532  -0.07397   0.05897
                          16        17        18        19        20
  16        1PZ         1.83147
  17 5   C  1S         -0.01338   0.95077
  18        1PX        -0.01279  -0.04623   0.96880
  19        1PY         0.00682   0.12273   0.07468   1.11514
  20        1PZ         0.25640  -0.02067  -0.00693   0.00074   1.12397
  21 6   H  1S         -0.00001   0.54332   0.17189   0.78707   0.02201
  22 7   H  1S         -0.00341   0.06254   0.06442  -0.07313   0.00341
  23 8   H  1S         -0.00127   0.07369  -0.05382  -0.04076   0.00896
  24 9   H  1S         -0.00318  -0.00840  -0.01650  -0.00262   0.00011
                          21        22        23        24
  21 6   H  1S          0.81735
  22 7   H  1S         -0.00527   0.69820
  23 8   H  1S          0.00605   0.00881   0.72215
  24 9   H  1S         -0.01058   0.00968  -0.00714   0.82103
    Full Mulliken population analysis:
                           1         2         3         4         5
   1 1   C  1S          0.95174
   2        1PX         0.00000   1.11497
   3        1PY         0.00000   0.00000   0.98006
   4        1PZ         0.00000   0.00000   0.00000   1.03415
   5 2   C  1S          0.00000   0.00000   0.00000   0.00000   1.22491
   6        1PX         0.00000   0.00000   0.00000   0.00000   0.00000
   7        1PY         0.00000   0.00000   0.00000   0.00000   0.00000
   8        1PZ         0.00000   0.00000   0.00000   0.00000   0.00000
   9 3   O  1S          0.00000   0.00000   0.00000   0.00000   0.00000
  10        1PX         0.00000   0.00000   0.00000   0.00000   0.00000
  11        1PY         0.00000   0.00000   0.00000   0.00000   0.00000
  12        1PZ         0.00000   0.00000   0.00000   0.00000   0.00000
  13 4   C  1S          0.00000   0.00000   0.00000   0.00000   0.00000
  14        1PX         0.00000   0.00000   0.00000   0.00000   0.00000
  15        1PY         0.00000   0.00000   0.00000   0.00000   0.00000
  16        1PZ         0.00000   0.00000   0.00000   0.00000   0.00000
  17 5   C  1S          0.00000   0.00000   0.00000   0.00000   0.00000
  18        1PX         0.00000   0.00000   0.00000   0.00000   0.00000
  19        1PY         0.00000   0.00000   0.00000   0.00000   0.00000
  20        1PZ         0.00000   0.00000   0.00000   0.00000   0.00000
  21 6   H  1S          0.00000   0.00000   0.00000   0.00000   0.00000
  22 7   H  1S          0.00000   0.00000   0.00000   0.00000   0.00000
  23 8   H  1S          0.00000   0.00000   0.00000   0.00000   0.00000
  24 9   H  1S          0.00000   0.00000   0.00000   0.00000   0.00000
                           6         7         8         9        10
   6        1PX         1.58390
   7        1PY         0.00000   1.31027
   8        1PZ         0.00000   0.00000   1.81987
   9 3   O  1S          0.00000   0.00000   0.00000   1.94172
  10        1PX         0.00000   0.00000   0.00000   0.00000   0.33085
  11        1PY         0.00000   0.00000   0.00000   0.00000   0.00000
  12        1PZ         0.00000   0.00000   0.00000   0.00000   0.00000
  13 4   C  1S          0.00000   0.00000   0.00000   0.00000   0.00000
  14        1PX         0.00000   0.00000   0.00000   0.00000   0.00000
  15        1PY         0.00000   0.00000   0.00000   0.00000   0.00000
  16        1PZ         0.00000   0.00000   0.00000   0.00000   0.00000
  17 5   C  1S          0.00000   0.00000   0.00000   0.00000   0.00000
  18        1PX         0.00000   0.00000   0.00000   0.00000   0.00000
  19        1PY         0.00000   0.00000   0.00000   0.00000   0.00000
  20        1PZ         0.00000   0.00000   0.00000   0.00000   0.00000
  21 6   H  1S          0.00000   0.00000   0.00000   0.00000   0.00000
  22 7   H  1S          0.00000   0.00000   0.00000   0.00000   0.00000
  23 8   H  1S          0.00000   0.00000   0.00000   0.00000   0.00000
  24 9   H  1S          0.00000   0.00000   0.00000   0.00000   0.00000
                          11        12        13        14        15
  11        1PY         0.31796
  12        1PZ         0.00000   0.18908
  13 4   C  1S          0.00000   0.00000   1.24574
  14        1PX         0.00000   0.00000   0.00000   1.37458
  15        1PY         0.00000   0.00000   0.00000   0.00000   1.53132
  16        1PZ         0.00000   0.00000   0.00000   0.00000   0.00000
  17 5   C  1S          0.00000   0.00000   0.00000   0.00000   0.00000
  18        1PX         0.00000   0.00000   0.00000   0.00000   0.00000
  19        1PY         0.00000   0.00000   0.00000   0.00000   0.00000
  20        1PZ         0.00000   0.00000   0.00000   0.00000   0.00000
  21 6   H  1S          0.00000   0.00000   0.00000   0.00000   0.00000
  22 7   H  1S          0.00000   0.00000   0.00000   0.00000   0.00000
  23 8   H  1S          0.00000   0.00000   0.00000   0.00000   0.00000
  24 9   H  1S          0.00000   0.00000   0.00000   0.00000   0.00000
                          16        17        18        19        20
  16        1PZ         1.83147
  17 5   C  1S          0.00000   0.95077
  18        1PX         0.00000   0.00000   0.96880
  19        1PY         0.00000   0.00000   0.00000   1.11514
  20        1PZ         0.00000   0.00000   0.00000   0.00000   1.12397
  21 6   H  1S          0.00000   0.00000   0.00000   0.00000   0.00000
  22 7   H  1S          0.00000   0.00000   0.00000   0.00000   0.00000
  23 8   H  1S          0.00000   0.00000   0.00000   0.00000   0.00000
  24 9   H  1S          0.00000   0.00000   0.00000   0.00000   0.00000
                          21        22        23        24
  21 6   H  1S          0.81735
  22 7   H  1S          0.00000   0.69820
  23 8   H  1S          0.00000   0.00000   0.72215
  24 9   H  1S          0.00000   0.00000   0.00000   0.82103
     Gross orbital populations:
                           1
   1 1   C  1S          0.95174
   2        1PX         1.11497
   3        1PY         0.98006
   4        1PZ         1.03415
   5 2   C  1S          1.22491
   6        1PX         1.58390
   7        1PY         1.31027
   8        1PZ         1.81987
   9 3   O  1S          1.94172
  10        1PX         0.33085
  11        1PY         0.31796
  12        1PZ         0.18908
  13 4   C  1S          1.24574
  14        1PX         1.37458
  15        1PY         1.53132
  16        1PZ         1.83147
  17 5   C  1S          0.95077
  18        1PX         0.96880
  19        1PY         1.11514
  20        1PZ         1.12397
  21 6   H  1S          0.81735
  22 7   H  1S          0.69820
  23 8   H  1S          0.72215
  24 9   H  1S          0.82103
          Condensed to atoms (all electrons):
               1          2          3          4          5          6
     1  C    4.080917   0.000000   0.000000   0.000000   0.000000   0.000000
     2  C    0.000000   5.938953   0.000000   0.000000   0.000000   0.000000
     3  O    0.000000   0.000000   2.779614   0.000000   0.000000   0.000000
     4  C    0.000000   0.000000   0.000000   5.983106   0.000000   0.000000
     5  C    0.000000   0.000000   0.000000   0.000000   4.158685   0.000000
     6  H    0.000000   0.000000   0.000000   0.000000   0.000000   0.817345
     7  H    0.000000   0.000000   0.000000   0.000000   0.000000   0.000000
     8  H    0.000000   0.000000   0.000000   0.000000   0.000000   0.000000
     9  H    0.000000   0.000000   0.000000   0.000000   0.000000   0.000000
               7          8          9
     1  C    0.000000   0.000000   0.000000
     2  C    0.000000   0.000000   0.000000
     3  O    0.000000   0.000000   0.000000
     4  C    0.000000   0.000000   0.000000
     5  C    0.000000   0.000000   0.000000
     6  H    0.000000   0.000000   0.000000
     7  H    0.698199   0.000000   0.000000
     8  H    0.000000   0.722146   0.000000
     9  H    0.000000   0.000000   0.821035
 Mulliken charges:
               1
     1  C   -0.080917
     2  C   -1.938953
     3  O    3.220386
     4  C   -1.983106
     5  C   -0.158685
     6  H    0.182655
     7  H    0.301801
     8  H    0.277854
     9  H    0.178965
 Sum of Mulliken charges =   0.00000
 Mulliken charges with hydrogens summed into heavy atoms:
               1
     1  C    0.098048
     2  C   -1.661099
     3  O    3.220386
     4  C   -1.681305
     5  C    0.023970
 Charge=              0.0000 electrons
 Dipole moment (field-independent basis, Debye):
    X=              4.5234    Y=             -9.5525    Z=             -0.6700  Tot=             10.5906
 N-N= 1.035453469512D+02 E-N=-1.683903388874D+02  KE=-1.474933695989D+01
 Orbital energies and kinetic energies (alpha):
                                 1                 2
   1         O                -1.697663         -1.178188
   2         O                -1.125227         -0.995013
   3         O                -0.911649         -0.841749
   4         O                -0.783927         -0.601630
   5         O                -0.757196         -0.668881
   6         O                -0.663847         -0.584384
   7         O                -0.625693         -0.522358
   8         O                -0.539523         -0.385150
   9         O                -0.505012         -0.294383
  10         O                -0.421983         -0.333111
  11         O                -0.419322         -0.389109
  12         O                -0.406702         -0.313420
  13         O                -0.297314         -0.267291
  14         V                 0.125672         -0.167705
  15         V                 0.193707         -0.174361
  16         V                 0.199937         -0.196117
  17         V                 0.239188         -0.188384
  18         V                 0.275165         -0.154267
  19         V                 0.277882         -0.122535
  20         V                 0.301775         -0.137889
  21         V                 0.314120         -0.121768
  22         V                 0.351090          0.483291
  23         V                 0.441182          0.507970
  24         V                 0.481178          0.569535
 Total kinetic energy from orbitals=-1.474933695989D+01
 Leave Link  601 at Tue Dec 15 17:06:04 2015, MaxMem=    33554432 cpu:         0.0
 (Enter /home/Applications/g09/g09/l701.exe)
 Compute integral first derivatives.
 ... and contract with generalized density number  6.
 Leave Link  701 at Tue Dec 15 17:06:04 2015, MaxMem=    33554432 cpu:         0.0
 (Enter /home/Applications/g09/g09/l702.exe)
 L702 exits ... SP integral derivatives will be done elsewhere.
 Leave Link  702 at Tue Dec 15 17:06:04 2015, MaxMem=    33554432 cpu:         0.0
 (Enter /home/Applications/g09/g09/l703.exe)
 Compute integral first derivatives, UseDBF=F ICtDFT=           0.
 Integral derivatives from FoFJK, PRISM(SPDF).
 Calling FoFJK, ICntrl=  10005127 FMM=F ISym2X=0 I1Cent= 0 IOpClX= 0 NMat=1 NMatS=1 NMatT=0.
 FoFJK:  IHMeth= 8 ICntrl=10005127 DoSepK=F KAlg= 0 I1Cent=   0 FoldK=F
 IRaf=         0 NMat=   1 IRICut=       1 DoRegI=T DoRafI=F ISym2E= 0.
 FoFCou: FMM=F IPFlag=           0 FMFlag=      100000 FMFlg1=         800
         NFxFlg=           0 DoJE=F BraDBF=F KetDBF=F FulRan=T
         wScrn=  0.000000 ICntrl=10005127 IOpCl=  0 I1Cent=           0 NGrid=           0
         NMat0=    1 NMatS0=      1 NMatT0=    0 NMatD0=    1 NMtDS0=    0 NMtDT0=    0
 Symmetry not used in FoFCou.
 Leave Link  703 at Tue Dec 15 17:06:04 2015, MaxMem=    33554432 cpu:         0.0
 (Enter /home/Applications/g09/g09/l716.exe)
 Dipole        = 1.98678881D+00-4.16887989D+00-2.41255422D-01
 ***** Axes restored to original set *****
 -------------------------------------------------------------------
 Center     Atomic                   Forces (Hartrees/Bohr)
 Number     Number              X              Y              Z
 -------------------------------------------------------------------
      1        6           0.189343842   -0.172504817    0.002234914
      2        6          -0.279022812   -0.026297878    0.003300857
      3        8           0.137693645   -0.007436766   -0.012887829
      4        6          -0.213288458    0.005021852    0.007153481
      5        6           0.078261366    0.132446901    0.006836126
      6        1           0.091372419    0.073502338   -0.003081080
      7        1          -0.014394507    0.094559460   -0.001388528
      8        1          -0.012373487   -0.086591734   -0.000940179
      9        1           0.022407992   -0.012699355   -0.001227762
 -------------------------------------------------------------------
 Cartesian Forces:  Max     0.279022812 RMS     0.098856779
 Z-matrix is all fixed cartesians, so copy forces.
 Force constants in Cartesian coordinates: 
                1             2             3             4             5 
      1  0.855915D+00
      2  0.123795D-01  0.919465D+00
      3  0.540712D-02  0.210986D-01  0.229565D+00
      4 -0.489193D+00 -0.119355D+00 -0.104166D-01  0.895117D+00
      5 -0.933791D-01 -0.222938D+00 -0.550486D-02  0.894689D-01  0.822090D+00
      6 -0.646027D-02 -0.398786D-02 -0.109129D+00 -0.822845D-02  0.416334D-02
      7 -0.944846D-02  0.272880D-01  0.152546D-02 -0.247067D+00  0.128210D+00
      8 -0.711713D-02  0.206234D-01  0.502056D-03  0.169329D+00 -0.302825D+00
      9 -0.320087D-03  0.905401D-03  0.745347D-02  0.118421D-01 -0.101384D-01
     10  0.116408D-01 -0.427400D-04  0.707163D-03  0.230683D-01  0.175098D-01
     11  0.345984D-01 -0.153117D-03  0.281261D-02 -0.167014D-01 -0.126841D-01
     12  0.161778D-02  0.184891D-04  0.358853D-03 -0.136087D-02 -0.937002D-03
     13 -0.188451D+00  0.132187D-01 -0.818855D-03  0.124537D-01 -0.359459D-01
     14 -0.103940D-01 -0.550813D+00 -0.188880D-01 -0.520155D-04  0.126212D-03
     15 -0.387969D-03 -0.123697D-01 -0.106104D+00  0.466739D-03 -0.180917D-02
     16  0.198166D-01 -0.454873D-04  0.192706D-03 -0.741577D-05 -0.224756D-04
     17 -0.250104D-01 -0.215377D-04  0.241053D-02  0.216388D-05  0.655825D-05
     18 -0.157463D-02 -0.795411D-03  0.268433D-01 -0.722370D-04 -0.218935D-03
     19  0.202509D-04  0.108121D-04 -0.364806D-03  0.132729D-04  0.000000D+00
     20  0.196702D-04  0.105020D-04 -0.354344D-03 -0.143180D-05  0.000000D+00
     21 -0.298864D-03 -0.159565D-03  0.538380D-02  0.228378D-03 -0.483010D-05
     22  0.858087D-02 -0.249532D-01  0.138044D-02 -0.188326D+00 -0.123378D+00
     23 -0.521142D-02  0.150718D-01  0.589106D-03 -0.115596D+00 -0.304350D+00
     24 -0.233731D-03 -0.116187D-02  0.316244D-01  0.870206D-02  0.125062D-01
     25 -0.208881D+00  0.914992D-01  0.238737D-02 -0.605865D-02  0.175376D-01
     26  0.941145D-01 -0.181245D+00 -0.266572D-02 -0.709436D-02  0.205739D-01
     27  0.225064D-02 -0.354811D-02 -0.859960D-01 -0.116113D-02  0.194364D-02
                6             7             8             9            10 
      6  0.205681D+00
      7  0.968074D-02  0.493844D+00
      8 -0.976881D-02  0.298912D-01  0.639306D+00
      9 -0.410816D-01 -0.200385D-01 -0.142179D-02  0.452986D-01
     10 -0.125666D-02 -0.270704D+00 -0.197725D+00  0.126700D-01  0.814576D+00
     11  0.122379D-02 -0.156371D+00 -0.359808D+00  0.122774D-01 -0.255107D-01
     12 -0.428994D-02  0.990618D-02  0.110764D-01 -0.386219D-01  0.195578D-02
     13 -0.234409D-02 -0.938025D-02  0.672406D-02 -0.118201D-02 -0.401963D+00
     14 -0.167870D-03 -0.275063D-01  0.197674D-01 -0.205384D-02  0.901739D-01
     15 -0.287704D-02  0.151822D-02 -0.515639D-03  0.645131D-02 -0.177044D-01
     16  0.756000D-03  0.102758D-05 -0.210729D-05 -0.382824D-04 -0.618542D-02
     17 -0.220596D-03 -0.133143D-04  0.273040D-04  0.496023D-03  0.757155D-02
     18  0.736419D-02 -0.121710D-03  0.249595D-03  0.453430D-02 -0.188732D-02
     19  0.260644D-03  0.226263D-01 -0.163852D-01 -0.156765D-02 -0.170443D+00
     20 -0.281167D-04  0.107490D-01 -0.779012D-02 -0.914430D-03  0.108011D+00
     21  0.448472D-02 -0.134910D-02  0.115627D-02  0.511947D-02  0.572167D-02
     22  0.717531D-02  0.201278D-01  0.152831D-01 -0.132379D-02  0.977411D-05
     23  0.895532D-02 -0.122488D-01 -0.931005D-02  0.104568D-02  0.116646D-05
     24 -0.846019D-01 -0.109361D-02 -0.104131D-02  0.539713D-02  0.157270D-03
     25  0.416766D-03  0.000000D+00  0.181262D-05 -0.417162D-04  0.000000D+00
     26 -0.169208D-03  0.000000D+00  0.851736D-05 -0.196021D-03  0.108107D-04
     27  0.244495D-01 -0.276569D-04 -0.236774D-03  0.544919D-02 -0.363452D-03
               11            12            13            14            15 
     11  0.895841D+00
     12 -0.625864D-02  0.165327D+00
     13  0.684319D-01 -0.187290D-01  0.862580D+00
     14 -0.200456D+00  0.627933D-02  0.680329D-01  0.955708D+00
     15  0.672800D-02 -0.867607D-01 -0.200721D-03 -0.531130D-02  0.222933D+00
     16 -0.179796D-01  0.216496D-02 -0.302589D+00 -0.145855D+00  0.153054D-01
     17  0.222629D-01 -0.758648D-03 -0.146483D+00 -0.236299D+00  0.134977D-01
     18 -0.291442D-02  0.198042D-01  0.204349D-01  0.177291D-01 -0.900882D-01
     19  0.113532D+00  0.426866D-02  0.861081D-02  0.256255D-01  0.142137D-02
     20 -0.345009D+00 -0.924809D-02  0.406722D-02  0.120057D-01 -0.597878D-04
     21 -0.136713D-01 -0.654535D-01  0.182444D-03  0.345202D-02  0.216860D-01
     22  0.000000D+00  0.191937D-03  0.368254D-05  0.111610D-04 -0.375416D-03
     23  0.000000D+00  0.229061D-04 -0.591851D-05 -0.179377D-04  0.603361D-03
     24 -0.332620D-05  0.308836D-02 -0.817675D-04 -0.247820D-03  0.833578D-02
     25  0.000000D+00 -0.154526D-04  0.187348D-01 -0.362995D-04 -0.431886D-04
     26  0.577191D-05 -0.194747D-03  0.219604D-01 -0.213446D-04 -0.763402D-03
     27 -0.194049D-03  0.654732D-02  0.273910D-02 -0.791573D-03  0.264234D-01
               16            17            18            19            20 
     16  0.288966D+00
     17  0.163876D+00  0.213977D+00
     18 -0.173372D-01 -0.148889D-01  0.502153D-01
     19 -0.449725D-05  0.582706D-04  0.532670D-03  0.139177D+00
     20 -0.436828D-05  0.565996D-04  0.517395D-03 -0.122841D+00  0.340727D+00
     21  0.663704D-04 -0.859958D-03 -0.786114D-02 -0.455090D-02  0.100874D-01
     22  0.000000D+00  0.000000D+00  0.000000D+00  0.000000D+00  0.000000D+00
     23  0.000000D+00  0.000000D+00  0.000000D+00  0.000000D+00  0.000000D+00
     24  0.000000D+00  0.000000D+00  0.000000D+00  0.000000D+00  0.000000D+00
     25  0.261964D-05  0.000000D+00  0.255179D-04  0.000000D+00  0.000000D+00
     26  0.330150D-04 -0.963359D-05  0.321599D-03  0.000000D+00  0.000000D+00
     27 -0.110995D-02  0.323877D-03 -0.108120D-01  0.000000D+00  0.000000D+00
               21            22            23            24            25 
     21  0.366407D-01
     22  0.000000D+00  0.159608D+00
     23  0.000000D+00  0.133055D+00  0.298578D+00
     24  0.000000D+00 -0.753250D-02 -0.104385D-01  0.469034D-01
     25  0.000000D+00 -0.370539D-05  0.595523D-05  0.822749D-04  0.196205D+00
     26  0.000000D+00 -0.174113D-04  0.279831D-04  0.386603D-03 -0.109008D+00
     27  0.000000D+00  0.484017D-03 -0.777903D-03 -0.107472D-01 -0.281157D-02
               26            27 
     26  0.160660D+00
     27  0.328090D-02  0.446858D-01
 Leave Link  716 at Tue Dec 15 17:06:04 2015, MaxMem=    33554432 cpu:         0.0
 (Enter /home/Applications/g09/g09/l103.exe)

 GradGradGradGradGradGradGradGradGradGradGradGradGradGradGradGradGradGrad
 Berny optimization.
 Search for a local minimum.
 Step number   1 out of a maximum of    2
 All quantities printed in internal units (Hartrees-Bohrs-Radians)
 Second derivative matrix not updated -- first step.
 ITU=  0
     Eigenvalues ---    0.02057   0.02827   0.06893   0.07489   0.07857
     Eigenvalues ---    0.08105   0.13122   0.15459   0.16519   0.23535
     Eigenvalues ---    0.24685   0.29848   0.41766   0.45927   0.62601
     Eigenvalues ---    0.83161   1.05394   1.32619   1.40111   1.47434
     Eigenvalues ---    1.67080
 Quadratic step=1.355D+00 exceeds max=3.000D-01 adjusted using Lamda=-9.262D-01.
 Angle between NR and scaled steps=  29.00 degrees.
 Angle between quadratic step and forces=  19.11 degrees.
 Linear search not attempted -- first point.
 TrRot= -0.002147 -0.002929  0.000083  0.177772 -0.000220 -0.177893
 Variable       Old X    -DE/DX   Delta X   Delta X   Delta X     New X
                                 (Linear)    (Quad)   (Total)
    X1        1.83920   0.18934   0.00000   0.08270   0.08039   1.91959
    Y1       -1.26227  -0.17250   0.00000  -0.08923  -0.09239  -1.35466
    Z1       -0.02862   0.00223   0.00000   0.00251   0.00296  -0.02566
    X2       -0.59237  -0.27902   0.00000  -0.13152  -0.13391  -0.72627
    Y2       -2.10114  -0.02630   0.00000  -0.03338  -0.03622  -2.13735
    Z2       -0.07741   0.00330   0.00000   0.00261   0.00245  -0.07496
    X3       -2.20954   0.13769   0.00000   0.06461   0.06247  -2.14708
    Y3        0.03602  -0.00744   0.00000  -0.00288  -0.00555   0.03047
    Z3        0.00725  -0.01289   0.00000  -0.00819  -0.00857  -0.00133
    X4       -0.68816  -0.21329   0.00000  -0.11078  -0.11265  -0.80082
    Y4        2.14409   0.00502   0.00000   0.02946   0.02663   2.17072
    Z4       -0.06796   0.00715   0.00000   0.00699   0.00699  -0.06097
    X5        1.84431   0.07826   0.00000   0.04670   0.04471   1.88902
    Y5        1.28672   0.13245   0.00000   0.07050   0.06734   1.35406
    Z5        0.04721   0.00684   0.00000   0.00135   0.00190   0.04911
    X6        3.37001   0.09137   0.00000   0.08410   0.08228   3.45229
    Y6        2.50316   0.07350   0.00000   0.07677   0.07343   2.57658
    Z6       -0.07298  -0.00308   0.00000  -0.00361  -0.00268  -0.07565
    X7       -1.53602  -0.01439   0.00000  -0.02694  -0.02860  -1.56462
    Y7        3.93639   0.09456   0.00000   0.08933   0.08659   4.02298
    Z7       -0.00745  -0.00139   0.00000  -0.00101  -0.00111  -0.00855
    X8       -1.63400  -0.01237   0.00000  -0.02987  -0.03250  -1.66650
    Y8       -3.81971  -0.08659   0.00000  -0.08490  -0.08762  -3.90733
    Z8        0.00007  -0.00094   0.00000  -0.00005  -0.00048  -0.00041
    X9        3.49155   0.02241   0.00000   0.04026   0.03780   3.52935
    Y9       -2.66719  -0.01270   0.00000  -0.02885  -0.03221  -2.69940
    Z9       -0.06651  -0.00123   0.00000  -0.00221  -0.00146  -0.06797
         Item               Value     Threshold  Converged?
 Maximum Force            0.279023     0.000450     NO 
 RMS     Force            0.098857     0.000300     NO 
 Maximum Displacement     0.133907     0.001800     NO 
 RMS     Displacement     0.057714     0.001200     NO 
 Predicted change in Energy=-1.145372D-01
 GradGradGradGradGradGradGradGradGradGradGradGradGradGradGradGradGradGrad

 Leave Link  103 at Tue Dec 15 17:06:04 2015, MaxMem=    33554432 cpu:         0.0
 (Enter /home/Applications/g09/g09/l9999.exe)
 1\1\GINC-DUSTIN-DESKTOP\Force\RAM1-FC\STO-3G\C4H4O1\DUSTIN\15-Dec-2015
 \0\\#P AM1(Input,print) CIS(Singlets,NStates=15) pop(full) force\\AM1-
 Reparam Input\\0,1\C,0.973261,-0.667966,-0.015144\C,-0.313467,-1.11187
 3,-0.040963\O,-1.16924,0.019059,0.003834\C,-0.364161,1.134602,-0.03596
 2\C,0.975967,0.680905,0.024984\H,1.783334,1.324613,-0.038617\H,-0.8128
 28,2.083048,-0.00394\H,-0.864676,-2.021305,0.000039\H,1.847647,-1.4114
 18,-0.035194\\Version=ES64L-G09RevD.01\State=1-A\HF=2.8204496\RMSD=2.1
 70e-09\RMSF=9.886e-02\Dipole=-4.6183183,-0.0429625,0.2332041\PG=C01 [X
 (C4H4O1)]\\@


 TRUST EVERYONE, BUT CUT THE CARDS.
 Job cpu time:       0 days  0 hours  0 minutes  0.7 seconds.
 File lengths (MBytes):  RWF=      7 Int=      0 D2E=      0 Chk=      2 Scr=      1
 Normal termination of Gaussian 09 at Tue Dec 15 17:06:04 2015.
