 Entering Gaussian System, Link 0=g09
 Input=FuranAM1_96P3.com
 Output=FuranAM1_96P3.log
 Initial command:
 /home/Applications/g09/g09/l1.exe "/home/Applications/g09/scratch/Gau-7411.inp" -scrdir="/home/Applications/g09/scratch/"
 Entering Link 1 = /home/Applications/g09/g09/l1.exe PID=      7413.
  
 Copyright (c) 1988,1990,1992,1993,1995,1998,2003,2009,2013,
            Gaussian, Inc.  All Rights Reserved.
  
 This is part of the Gaussian(R) 09 program.  It is based on
 the Gaussian(R) 03 system (copyright 2003, Gaussian, Inc.),
 the Gaussian(R) 98 system (copyright 1998, Gaussian, Inc.),
 the Gaussian(R) 94 system (copyright 1995, Gaussian, Inc.),
 the Gaussian 92(TM) system (copyright 1992, Gaussian, Inc.),
 the Gaussian 90(TM) system (copyright 1990, Gaussian, Inc.),
 the Gaussian 88(TM) system (copyright 1988, Gaussian, Inc.),
 the Gaussian 86(TM) system (copyright 1986, Carnegie Mellon
 University), and the Gaussian 82(TM) system (copyright 1983,
 Carnegie Mellon University). Gaussian is a federally registered
 trademark of Gaussian, Inc.
  
 This software contains proprietary and confidential information,
 including trade secrets, belonging to Gaussian, Inc.
  
 This software is provided under written license and may be
 used, copied, transmitted, or stored only in accord with that
 written license.
  
 The following legend is applicable only to US Government
 contracts under FAR:
  
                    RESTRICTED RIGHTS LEGEND
  
 Use, reproduction and disclosure by the US Government is
 subject to restrictions as set forth in subparagraphs (a)
 and (c) of the Commercial Computer Software - Restricted
 Rights clause in FAR 52.227-19.
  
 Gaussian, Inc.
 340 Quinnipiac St., Bldg. 40, Wallingford CT 06492
  
  
 ---------------------------------------------------------------
 Warning -- This program may not be used in any manner that
 competes with the business of Gaussian, Inc. or will provide
 assistance to any competitor of Gaussian, Inc.  The licensee
 of this program is prohibited from giving any competitor of
 Gaussian, Inc. access to this program.  By using this program,
 the user acknowledges that Gaussian, Inc. is engaged in the
 business of creating and licensing software in the field of
 computational chemistry and represents and warrants to the
 licensee that it is not a competitor of Gaussian, Inc. and that
 it will not use this program in any manner prohibited above.
 ---------------------------------------------------------------
  

 Cite this work as:
 Gaussian 09, Revision D.01,
 M. J. Frisch, G. W. Trucks, H. B. Schlegel, G. E. Scuseria, 
 M. A. Robb, J. R. Cheeseman, G. Scalmani, V. Barone, B. Mennucci, 
 G. A. Petersson, H. Nakatsuji, M. Caricato, X. Li, H. P. Hratchian, 
 A. F. Izmaylov, J. Bloino, G. Zheng, J. L. Sonnenberg, M. Hada, 
 M. Ehara, K. Toyota, R. Fukuda, J. Hasegawa, M. Ishida, T. Nakajima, 
 Y. Honda, O. Kitao, H. Nakai, T. Vreven, J. A. Montgomery, Jr., 
 J. E. Peralta, F. Ogliaro, M. Bearpark, J. J. Heyd, E. Brothers, 
 K. N. Kudin, V. N. Staroverov, T. Keith, R. Kobayashi, J. Normand, 
 K. Raghavachari, A. Rendell, J. C. Burant, S. S. Iyengar, J. Tomasi, 
 M. Cossi, N. Rega, J. M. Millam, M. Klene, J. E. Knox, J. B. Cross, 
 V. Bakken, C. Adamo, J. Jaramillo, R. Gomperts, R. E. Stratmann, 
 O. Yazyev, A. J. Austin, R. Cammi, C. Pomelli, J. W. Ochterski, 
 R. L. Martin, K. Morokuma, V. G. Zakrzewski, G. A. Voth, 
 P. Salvador, J. J. Dannenberg, S. Dapprich, A. D. Daniels, 
 O. Farkas, J. B. Foresman, J. V. Ortiz, J. Cioslowski, 
 and D. J. Fox, Gaussian, Inc., Wallingford CT, 2013.
 
 ******************************************
 Gaussian 09:  ES64L-G09RevD.01 24-Apr-2013
                15-Dec-2015 
 ******************************************
 ------------------------------------------------------------
 #P AM1(Input,print) CIS(Singlets,NStates=15) pop(full) force
 ------------------------------------------------------------
 1/10=7,30=1,38=1/1,3;
 2/12=2,17=6,18=5,40=1/2;
 3/5=2,16=1,25=1,41=700000,71=1,135=100,136=1/1,2,8,3;
 4/35=1/1;
 5/5=2,35=1,38=5/2;
 8/6=1,10=1,108=15/1;
 9/15=2,41=15,42=1,48=1,49=10/14;
 10/5=4/2;
 6/7=3,18=1/1;
 7/12=6,13=5,29=1/1,2,3,16;
 1/10=7,30=1/3;
 99//99;
 Leave Link    1 at Tue Dec 15 17:05:26 2015, MaxMem=           0 cpu:         0.0
 (Enter /home/Applications/g09/g09/l101.exe)
 -----------------
 AM1-Reparam Input
 -----------------
 Symbolic Z-matrix:
 Charge =  0 Multiplicity = 1
 6                     0.92298  -0.6746   -0.00474 
 6                    -0.39109  -1.04556   0.02873 
 8                    -1.14973   0.02336   0.00531 
 6                    -0.29923   1.09374   0.04919 
 6                     0.92496   0.71857   0.00987 
 1                     1.77998   1.36644  -0.01558 
 1                    -0.79217   2.07867  -0.04642 
 1                    -0.86543  -2.00945  -0.03005 
 1                     1.83375  -1.36024  -0.01171 
 
 NAtoms=      9 NQM=        9 NQMF=       0 NMMI=      0 NMMIF=      0
                NMic=       0 NMicF=      0.
                    Isotopes and Nuclear Properties:
 (Nuclear quadrupole moments (NQMom) in fm**2, nuclear magnetic moments (NMagM)
  in nuclear magnetons)

  Atom         1           2           3           4           5           6           7           8           9
 IAtWgt=          12          12          16          12          12           1           1           1           1
 AtmWgt=  12.0000000  12.0000000  15.9949146  12.0000000  12.0000000   1.0078250   1.0078250   1.0078250   1.0078250
 NucSpn=           0           0           0           0           0           1           1           1           1
 AtZEff=   0.0000000   0.0000000   0.0000000   0.0000000   0.0000000   0.0000000   0.0000000   0.0000000   0.0000000
 NQMom=    0.0000000   0.0000000   0.0000000   0.0000000   0.0000000   0.0000000   0.0000000   0.0000000   0.0000000
 NMagM=    0.0000000   0.0000000   0.0000000   0.0000000   0.0000000   2.7928460   2.7928460   2.7928460   2.7928460
 AtZNuc=   6.0000000   6.0000000   8.0000000   6.0000000   6.0000000   1.0000000   1.0000000   1.0000000   1.0000000
 Leave Link  101 at Tue Dec 15 17:05:26 2015, MaxMem=    33554432 cpu:         0.0
 (Enter /home/Applications/g09/g09/l103.exe)

 GradGradGradGradGradGradGradGradGradGradGradGradGradGradGradGradGradGrad
 Berny optimization.
 Initialization pass.
 Trust Radius=3.00D-01 FncErr=1.00D-07 GrdErr=1.00D-07
 Number of steps in this run=      2 maximum allowed number of steps=      2.
 GradGradGradGradGradGradGradGradGradGradGradGradGradGradGradGradGradGrad

 Leave Link  103 at Tue Dec 15 17:05:26 2015, MaxMem=    33554432 cpu:         0.0
 (Enter /home/Applications/g09/g09/l202.exe)
                          Input orientation:                          
 ---------------------------------------------------------------------
 Center     Atomic      Atomic             Coordinates (Angstroms)
 Number     Number       Type             X           Y           Z
 ---------------------------------------------------------------------
      1          6           0        0.922978   -0.674602   -0.004741
      2          6           0       -0.391091   -1.045555    0.028729
      3          8           0       -1.149726    0.023358    0.005313
      4          6           0       -0.299232    1.093741    0.049194
      5          6           0        0.924964    0.718566    0.009867
      6          1           0        1.779979    1.366444   -0.015579
      7          1           0       -0.792174    2.078670   -0.046420
      8          1           0       -0.865427   -2.009451   -0.030046
      9          1           0        1.833753   -1.360236   -0.011705
 ---------------------------------------------------------------------
                    Distance matrix (angstroms):
                    1          2          3          4          5
     1  C    0.000000
     2  C    1.365834   0.000000
     3  O    2.187087   1.310973   0.000000
     4  C    2.150289   2.141365   1.367840   0.000000
     5  C    1.393246   2.201018   2.188075   1.280999   0.000000
     6  H    2.213693   3.245496   3.222963   2.098018   1.073054
     7  H    3.244070   3.150761   2.086822   1.105540   2.191259
     8  H    2.231783   1.075892   2.052898   3.155417   3.263307
     9  H    1.140023   2.247352   3.288734   3.251974   2.268872
                    6          7          8          9
     6  H    0.000000
     7  H    2.669117   0.000000
     8  H    4.288945   4.088810   0.000000
     9  H    2.727213   4.326982   2.776219   0.000000
 Stoichiometry    C4H4O
 Framework group  C1[X(C4H4O)]
 Deg. of freedom    21
 Full point group                 C1      NOp   1
 Largest Abelian subgroup         C1      NOp   1
 Largest concise Abelian subgroup C1      NOp   1
                         Standard orientation:                         
 ---------------------------------------------------------------------
 Center     Atomic      Atomic             Coordinates (Angstroms)
 Number     Number       Type             X           Y           Z
 ---------------------------------------------------------------------
      1          6           0       -0.357273    1.107183    0.008426
      2          6           0       -1.134583   -0.015534   -0.019840
      3          8           0       -0.369875   -1.079863    0.012951
      4          6           0        0.918742   -0.623146   -0.030174
      5          6           0        0.961139    0.656778    0.000726
      6          1           0        1.851394    1.255369    0.024804
      7          1           0        1.690044   -1.408432    0.072972
      8          1           0       -2.200424   -0.150930    0.036690
      9          1           0       -0.710163    2.191213    0.007102
 ---------------------------------------------------------------------
 Rotational constants (GHZ):      9.9879400      9.5085828      4.8736354
 Leave Link  202 at Tue Dec 15 17:05:26 2015, MaxMem=    33554432 cpu:         0.0
 (Enter /home/Applications/g09/g09/l301.exe)

 Semi-emprical parameters in input format:
 Method=8 CoreType=1 PeptideFC=0.0111590000 RIJScale=0.5404210000
 ****
 H       
 PQN=1 NValence=1 F0ss=0.4721550000 ZetaOverlap=1.0536670000 U=-0.4275610000
 Beta=-0.2066220000 CoreKO=1.1349760000 KON=0,0,0,1.0458670000 KON=1,0,1,0.9802520000
 KON=0,1,1,1.0589200000 KON=2,1,1,1.0697690000 EISol=-0.4188110042 EHeat=0.0830298228
 Alpha=1.4609850000
 GCore=0.0085280000,1.5127750000,2.2676710000
 GCore=0.0003530000,1.4551640000,3.7646750000
 GCore=-0.0013010000,0.5600570000,3.5861320000
 ****
 C       
 PQN=2,2 NValence=4 F0ss=0.4494440000 F0sp=0.4215150000 F0pp=0.3497590000 F2pp=0.1884750000
 G1sp=0.2849530000
 ZetaOverlap=1.8086650000,1.3781170000
 U=-1.7687090000,-1.4557970000
 Beta=-0.5245770000,-0.3063130000 DDN=0,1,0.7474020000 DDN=1,1,0.7268010000
 CoreKO=1.1356210000 KON=0,0,0,1.1124280000 KON=1,0,1,0.8998210000 KON=0,1,1,1.1012040000
 KON=2,1,1,0.7326770000 EISol=-4.4398989268 EHeat=0.2723305520 Alpha=1.2756240000
 DipHyp=1.4947180026
 GCore=0.0007890000,1.4001430000,2.6678360000
 GCore=0.0031120000,1.4001430000,3.3881500000
 GCore=-0.0015090000,1.3017660000,3.8739390000
 GCore=-0.0001030000,1.4001430000,4.6744780000
 ****
 O       
 PQN=2,2 NValence=6 F0ss=0.5596260000 F0sp=0.5321300000 F0pp=0.4937580000 F2pp=0.2543430000
 G1sp=0.4216980000
 ZetaOverlap=2.4973370000,2.4967270000
 U=-3.3169990000,-1.8948010000
 Beta=-1.1573400000,-1.2994290000 DDN=0,1,0.4953610000 DDN=1,1,0.5082060000
 CoreKO=0.8822960000 KON=0,0,0,0.8822960000 KON=1,0,1,0.5019540000 KON=0,1,1,0.8682050000
 KON=2,1,1,0.5515580000 EISol=-11.6164441184 EHeat=0.0949133088 Alpha=2.4031680000
 DipHyp=0.9906650029
 GCore=0.0204720000,1.2640290000,1.6023330000
 GCore=0.0056550000,1.9602000000,2.7307880000
 ****
 
 Standard basis: VSTO-6G (5D, 7F)
 Ernie: Thresh=  0.10000D-02 Tol=  0.10000D-05 Strict=F.
  NNHCO=     0 NNPyr=     0 NCTC=     0               EPep=         0.000000000
    EC=        69.026514212  ECS=         2.563975847   EG=         0.393056969
   EHC=         0.000000000  EAt=       -31.051283842  AtH=         1.516354808
 EPDDG=         0.000000000  ECC=        71.983547028 EAtT=        32.567638650
 There are    24 symmetry adapted cartesian basis functions of A   symmetry.
 There are    24 symmetry adapted basis functions of A   symmetry.
    24 basis functions,   144 primitive gaussians,    24 cartesian basis functions
    13 alpha electrons       13 beta electrons
       nuclear repulsion energy       104.5511856786 Hartrees.
 IExCor=    0 DFT=F Ex=HF Corr=None ExCW=0 ScaHFX=  1.000000
 ScaDFX=  1.000000  1.000000  1.000000  1.000000 ScalE2=  1.000000  1.000000
 IRadAn=      0 IRanWt=     -1 IRanGd=            0 ICorTp=0 IEmpDi=  4
 Integral buffers will be    131072 words long.
 Regular integral format.
 Two-electron integral symmetry is turned off.
 Leave Link  301 at Tue Dec 15 17:05:26 2015, MaxMem=    33554432 cpu:         0.0
 (Enter /home/Applications/g09/g09/l302.exe)
 Do NDO integrals.
 NPDir=0 NMtPBC=     1 NCelOv=     1 NCel=       1 NClECP=     1 NCelD=      1
         NCelK=      1 NCelE2=     1 NClLst=     1 CellRange=     0.0.
 One-electron integrals computed using PRISM.
 NBasis=    24 RedAO= F EigKep=  0.00D+00  NBF=    24
 NBsUse=    24 1.00D-04 EigRej=  0.00D+00 NBFU=    24
 Leave Link  302 at Tue Dec 15 17:05:26 2015, MaxMem=    33554432 cpu:         0.0
 (Enter /home/Applications/g09/g09/l308.exe)
 Leave Link  308 at Tue Dec 15 17:05:26 2015, MaxMem=    33554432 cpu:         0.0
 (Enter /home/Applications/g09/g09/l303.exe)
 DipDrv:  MaxL=1.
 Leave Link  303 at Tue Dec 15 17:05:26 2015, MaxMem=    33554432 cpu:         0.0
 (Enter /home/Applications/g09/g09/l401.exe)
 Simple Huckel Guess.
 JPrj=0 DoOrth=F DoCkMO=F.
 Leave Link  401 at Tue Dec 15 17:05:26 2015, MaxMem=    33554432 cpu:         0.0
 (Enter /home/Applications/g09/g09/l502.exe)
 Closed shell SCF:
 Using DIIS extrapolation, IDIIS=  1040.
 Overlap will be assumed to be unity.
 Two-electron integral symmetry not used.
 Keep J ints in memory in canonical form, NReq=888082.
 IVT=       79475 IEndB=       79475 NGot=    33554432 MDV=    33473473
 LenX=    33473473 LenY=    33472456
 Requested convergence on RMS density matrix=1.00D-08 within 128 cycles.
 Requested convergence on MAX density matrix=1.00D-06.
 Requested convergence on             energy=1.00D-06.
 No special actions if energy rises.
 FoFCou: FMM=F IPFlag=           0 FMFlag=           0 FMFlg1=           0
         NFxFlg=           0 DoJE=F BraDBF=F KetDBF=F FulRan=T
         wScrn=  0.000000 ICntrl=     600 IOpCl=  2 I1Cent=           0 NGrid=           0
         NMat0=    1 NMatS0=     54 NMatT0=    0 NMatD0=    1 NMtDS0=    0 NMtDT0=    0
 Symmetry not used in FoFCou.

 Cycle   1  Pass 1  IDiag  1:
 E=  5.39431226771802    
 DIIS: error= 1.68D-01 at cycle   1 NSaved=   1.
 NSaved= 1 IEnMin= 1 EnMin=  5.39431226771802     IErMin= 1 ErrMin= 1.68D-01
 ErrMax= 1.68D-01  0.00D+00 EMaxC= 1.00D-01 BMatC= 5.83D-01 BMatP= 5.83D-01
 IDIUse=3 WtCom= 0.00D+00 WtEn= 1.00D+00
 Coeff-Com:  0.100D+01
 Coeff-En:   0.100D+01
 Coeff:      0.100D+01
 GapD=    2.000 DampG=2.000 DampE=0.250 DampFc=0.5000 IDamp=-1.
 Damping current iteration by 5.00D-01
 RMSDP=6.71D-02 MaxDP=7.29D-01              OVMax= 0.00D+00

 Cycle   2  Pass 1  IDiag  1:
 E=  4.24268044985250     Delta-E=       -1.151631817866 Rises=F Damp=T
 DIIS: error= 9.33D-02 at cycle   2 NSaved=   2.
 NSaved= 2 IEnMin= 2 EnMin=  4.24268044985250     IErMin= 2 ErrMin= 9.33D-02
 ErrMax= 9.33D-02  0.00D+00 EMaxC= 1.00D-01 BMatC= 1.93D-01 BMatP= 5.83D-01
 IDIUse=3 WtCom= 6.67D-02 WtEn= 9.33D-01
 Coeff-Com: -0.111D+01 0.211D+01
 Coeff-En:   0.000D+00 0.100D+01
 Coeff:     -0.739D-01 0.107D+01
 RMSDP=3.75D-02 MaxDP=3.73D-01 DE=-1.15D+00 OVMax= 0.00D+00

 Cycle   3  Pass 1  IDiag  1:
 E=  2.80409708058741     Delta-E=       -1.438583369265 Rises=F Damp=F
 DIIS: error= 2.17D-02 at cycle   3 NSaved=   3.
 NSaved= 3 IEnMin= 3 EnMin=  2.80409708058741     IErMin= 3 ErrMin= 2.17D-02
 ErrMax= 2.17D-02  0.00D+00 EMaxC= 1.00D-01 BMatC= 1.73D-02 BMatP= 1.93D-01
 IDIUse=3 WtCom= 7.83D-01 WtEn= 2.17D-01
 Coeff-Com:  0.390D+00-0.919D+00 0.153D+01
 Coeff-En:   0.000D+00 0.000D+00 0.100D+01
 Coeff:      0.306D+00-0.719D+00 0.141D+01
 RMSDP=1.24D-02 MaxDP=6.39D-02 DE=-1.44D+00 OVMax= 0.00D+00

 Cycle   4  Pass 1  IDiag  1:
 E=  2.73752464721680     Delta-E=       -0.066572433371 Rises=F Damp=F
 DIIS: error= 5.09D-03 at cycle   4 NSaved=   4.
 NSaved= 4 IEnMin= 4 EnMin=  2.73752464721680     IErMin= 4 ErrMin= 5.09D-03
 ErrMax= 5.09D-03  0.00D+00 EMaxC= 1.00D-01 BMatC= 1.26D-03 BMatP= 1.73D-02
 IDIUse=3 WtCom= 9.49D-01 WtEn= 5.09D-02
 Coeff-Com: -0.507D-01 0.999D-01-0.364D+00 0.131D+01
 Coeff-En:   0.000D+00 0.000D+00 0.000D+00 0.100D+01
 Coeff:     -0.481D-01 0.948D-01-0.345D+00 0.130D+01
 RMSDP=4.07D-03 MaxDP=2.43D-02 DE=-6.66D-02 OVMax= 0.00D+00

 Cycle   5  Pass 1  IDiag  3:
 E=  2.73195949303172     Delta-E=       -0.005565154185 Rises=F Damp=F
 DIIS: error= 1.51D-03 at cycle   5 NSaved=   5.
 NSaved= 5 IEnMin= 5 EnMin=  2.73195949303172     IErMin= 5 ErrMin= 1.51D-03
 ErrMax= 1.51D-03  0.00D+00 EMaxC= 1.00D-01 BMatC= 6.34D-05 BMatP= 1.26D-03
 IDIUse=3 WtCom= 9.85D-01 WtEn= 1.51D-02
 Coeff-Com:  0.159D-01-0.269D-01 0.107D+00-0.566D+00 0.147D+01
 Coeff-En:   0.000D+00 0.000D+00 0.000D+00 0.000D+00 0.100D+01
 Coeff:      0.157D-01-0.265D-01 0.106D+00-0.557D+00 0.146D+01
 Gap=     0.409 Goal=   None    Shift=    0.000
 RMSDP=1.10D-03 MaxDP=6.99D-03 DE=-5.57D-03 OVMax= 7.78D-03

 Cycle   6  Pass 1  IDiag  3:
 E=  2.73162667259344     Delta-E=       -0.000332820438 Rises=F Damp=F
 DIIS: error= 2.80D-04 at cycle   6 NSaved=   6.
 NSaved= 6 IEnMin= 6 EnMin=  2.73162667259344     IErMin= 6 ErrMin= 2.80D-04
 ErrMax= 2.80D-04  0.00D+00 EMaxC= 1.00D-01 BMatC= 2.65D-06 BMatP= 6.34D-05
 IDIUse=3 WtCom= 9.97D-01 WtEn= 2.80D-03
 Coeff-Com: -0.250D-02 0.435D-02-0.268D-01 0.165D+00-0.587D+00 0.145D+01
 Coeff-En:   0.000D+00 0.000D+00 0.000D+00 0.000D+00 0.000D+00 0.100D+01
 Coeff:     -0.249D-02 0.434D-02-0.268D-01 0.164D+00-0.585D+00 0.145D+01
 Gap=     0.410 Goal=   None    Shift=    0.000
 RMSDP=2.28D-04 MaxDP=1.51D-03 DE=-3.33D-04 OVMax= 1.51D-03

 Cycle   7  Pass 1  IDiag  3:
 E=  2.73161348541460     Delta-E=       -0.000013187179 Rises=F Damp=F
 DIIS: error= 4.18D-05 at cycle   7 NSaved=   7.
 NSaved= 7 IEnMin= 7 EnMin=  2.73161348541460     IErMin= 7 ErrMin= 4.18D-05
 ErrMax= 4.18D-05  0.00D+00 EMaxC= 1.00D-01 BMatC= 7.10D-08 BMatP= 2.65D-06
 IDIUse=1 WtCom= 1.00D+00 WtEn= 0.00D+00
 Coeff-Com:  0.234D-03-0.412D-03 0.806D-02-0.539D-01 0.203D+00-0.586D+00
 Coeff-Com:  0.143D+01
 Coeff:      0.234D-03-0.412D-03 0.806D-02-0.539D-01 0.203D+00-0.586D+00
 Coeff:      0.143D+01
 Gap=     0.409 Goal=   None    Shift=    0.000
 RMSDP=3.39D-05 MaxDP=2.39D-04 DE=-1.32D-05 OVMax= 2.63D-04

 Cycle   8  Pass 1  IDiag  3:
 E=  2.73161316456910     Delta-E=       -0.000000320846 Rises=F Damp=F
 DIIS: error= 8.30D-06 at cycle   8 NSaved=   8.
 NSaved= 8 IEnMin= 8 EnMin=  2.73161316456910     IErMin= 8 ErrMin= 8.30D-06
 ErrMax= 8.30D-06  0.00D+00 EMaxC= 1.00D-01 BMatC= 1.57D-09 BMatP= 7.10D-08
 IDIUse=1 WtCom= 1.00D+00 WtEn= 0.00D+00
 Coeff-Com:  0.606D-05-0.558D-04-0.191D-02 0.143D-01-0.569D-01 0.168D+00
 Coeff-Com: -0.478D+00 0.136D+01
 Coeff:      0.606D-05-0.558D-04-0.191D-02 0.143D-01-0.569D-01 0.168D+00
 Coeff:     -0.478D+00 0.136D+01
 Gap=     0.410 Goal=   None    Shift=    0.000
 RMSDP=4.71D-06 MaxDP=4.34D-05 DE=-3.21D-07 OVMax= 3.77D-05

 Cycle   9  Pass 1  IDiag  3:
 E=  2.73161315769860     Delta-E=       -0.000000006870 Rises=F Damp=F
 DIIS: error= 1.66D-06 at cycle   9 NSaved=   9.
 NSaved= 9 IEnMin= 9 EnMin=  2.73161315769860     IErMin= 9 ErrMin= 1.66D-06
 ErrMax= 1.66D-06  0.00D+00 EMaxC= 1.00D-01 BMatC= 7.28D-11 BMatP= 1.57D-09
 IDIUse=1 WtCom= 1.00D+00 WtEn= 0.00D+00
 Coeff-Com: -0.229D-05 0.179D-04 0.802D-04-0.905D-03 0.432D-02-0.130D-01
 Coeff-Com:  0.445D-01-0.274D+00 0.124D+01
 Coeff:     -0.229D-05 0.179D-04 0.802D-04-0.905D-03 0.432D-02-0.130D-01
 Coeff:      0.445D-01-0.274D+00 0.124D+01
 Gap=     0.410 Goal=   None    Shift=    0.000
 RMSDP=1.02D-06 MaxDP=8.02D-06 DE=-6.87D-09 OVMax= 6.11D-06

 Cycle  10  Pass 1  IDiag  3:
 E=  2.73161315734124     Delta-E=       -0.000000000357 Rises=F Damp=F
 DIIS: error= 4.71D-07 at cycle  10 NSaved=  10.
 NSaved=10 IEnMin=10 EnMin=  2.73161315734124     IErMin=10 ErrMin= 4.71D-07
 ErrMax= 4.71D-07  0.00D+00 EMaxC= 1.00D-01 BMatC= 7.98D-12 BMatP= 7.28D-11
 IDIUse=1 WtCom= 1.00D+00 WtEn= 0.00D+00
 Coeff-Com:  0.126D-05-0.559D-05 0.170D-04-0.485D-04-0.601D-04 0.961D-07
 Coeff-Com: -0.342D-02 0.777D-01-0.639D+00 0.156D+01
 Coeff:      0.126D-05-0.559D-05 0.170D-04-0.485D-04-0.601D-04 0.961D-07
 Coeff:     -0.342D-02 0.777D-01-0.639D+00 0.156D+01
 Gap=     0.410 Goal=   None    Shift=    0.000
 RMSDP=4.36D-07 MaxDP=3.16D-06 DE=-3.57D-10 OVMax= 3.55D-06

 Cycle  11  Pass 1  IDiag  3:
 E=  2.73161315729331     Delta-E=       -0.000000000048 Rises=F Damp=F
 DIIS: error= 1.80D-07 at cycle  11 NSaved=  11.
 NSaved=11 IEnMin=11 EnMin=  2.73161315729331     IErMin=11 ErrMin= 1.80D-07
 ErrMax= 1.80D-07  0.00D+00 EMaxC= 1.00D-01 BMatC= 5.63D-13 BMatP= 7.98D-12
 IDIUse=1 WtCom= 1.00D+00 WtEn= 0.00D+00
 Coeff-Com: -0.775D-06 0.153D-05-0.653D-05 0.526D-04-0.177D-03 0.738D-03
 Coeff-Com: -0.985D-03-0.210D-01 0.231D+00-0.782D+00 0.157D+01
 Coeff:     -0.775D-06 0.153D-05-0.653D-05 0.526D-04-0.177D-03 0.738D-03
 Coeff:     -0.985D-03-0.210D-01 0.231D+00-0.782D+00 0.157D+01
 Gap=     0.410 Goal=   None    Shift=    0.000
 RMSDP=1.34D-07 MaxDP=1.11D-06 DE=-4.79D-11 OVMax= 1.20D-06

 Cycle  12  Pass 1  IDiag  3:
 E=  2.73161315728976     Delta-E=       -0.000000000004 Rises=F Damp=F
 DIIS: error= 2.64D-08 at cycle  12 NSaved=  12.
 NSaved=12 IEnMin=12 EnMin=  2.73161315728976     IErMin=12 ErrMin= 2.64D-08
 ErrMax= 2.64D-08  0.00D+00 EMaxC= 1.00D-01 BMatC= 2.05D-14 BMatP= 5.63D-13
 IDIUse=1 WtCom= 1.00D+00 WtEn= 0.00D+00
 Coeff-Com:  0.426D-07 0.362D-10 0.127D-05-0.172D-04 0.688D-04-0.305D-03
 Coeff-Com:  0.591D-03 0.612D-02-0.748D-01 0.268D+00-0.663D+00 0.146D+01
 Coeff:      0.426D-07 0.362D-10 0.127D-05-0.172D-04 0.688D-04-0.305D-03
 Coeff:      0.591D-03 0.612D-02-0.748D-01 0.268D+00-0.663D+00 0.146D+01
 Gap=     0.410 Goal=   None    Shift=    0.000
 RMSDP=2.36D-08 MaxDP=2.06D-07 DE=-3.55D-12 OVMax= 2.30D-07

 Cycle  13  Pass 1  IDiag  3:
 E=  2.73161315728966     Delta-E=        0.000000000000 Rises=F Damp=F
 DIIS: error= 4.16D-09 at cycle  13 NSaved=  13.
 NSaved=13 IEnMin=13 EnMin=  2.73161315728966     IErMin=13 ErrMin= 4.16D-09
 ErrMax= 4.16D-09  0.00D+00 EMaxC= 1.00D-01 BMatC= 7.18D-16 BMatP= 2.05D-14
 IDIUse=1 WtCom= 1.00D+00 WtEn= 0.00D+00
 Coeff-Com:  0.186D-07-0.472D-07-0.168D-06 0.356D-05-0.143D-04 0.706D-04
 Coeff-Com: -0.144D-03-0.163D-02 0.200D-01-0.733D-01 0.191D+00-0.531D+00
 Coeff-Com:  0.140D+01
 Coeff:      0.186D-07-0.472D-07-0.168D-06 0.356D-05-0.143D-04 0.706D-04
 Coeff:     -0.144D-03-0.163D-02 0.200D-01-0.733D-01 0.191D+00-0.531D+00
 Coeff:      0.140D+01
 Gap=     0.410 Goal=   None    Shift=    0.000
 RMSDP=4.08D-09 MaxDP=3.39D-08 DE=-9.95D-14 OVMax= 3.72D-08

 Cycle  14  Pass 2  IDiag  1:
 SCF Done:  E(RAM1) =   2.73161315729     A.U. after   14 cycles
            NFock= 13  Conv=0.41D-08     -V/T= 1.1829
 KE=-1.493703972809D+01 PE=-1.701434044171D+02 EE= 8.326087162384D+01
 Leave Link  502 at Tue Dec 15 17:05:26 2015, MaxMem=    33554432 cpu:         0.0
 (Enter /home/Applications/g09/g09/l801.exe)
 Range of M.O.s used for correlation:     1    24
 NBasis=    24 NAE=    13 NBE=    13 NFC=     0 NFV=     0
 NROrb=     24 NOA=    13 NOB=    13 NVA=    11 NVB=    11
 Leave Link  801 at Tue Dec 15 17:05:26 2015, MaxMem=    33554432 cpu:         0.0
 (Enter /home/Applications/g09/g09/l914.exe)
 RHF ground state
 MDV=    33554432 DFT=F DoStab=F Mixed=F DoRPA=F DoScal=F NonHer=F
 Making orbital integer symmetry assigments:
 Orbital symmetries:
       Occupied  (A) (A) (A) (A) (A) (A) (A) (A) (A) (A) (A) (A)
                 (A)
       Virtual   (A) (A) (A) (A) (A) (A) (A) (A) (A) (A) (A)
    60 initial guesses have been made.
 Convergence on wavefunction:    0.000001000000000
 Davidson Disk Diagonalization:  ConvIn= 1.00D-06 SkipCon=T Conv= 1.00D-06.
 Max sub-space:   240 roots to seek:    60 dimension of matrix:          286
 Iteration     1 Dimension    60 NMult     0 NNew     60
 CISAX will form    60 AO SS matrices at one time.
 NMat=    60 NSing=    60 JSym2X= 0.
 FoFJK:  IHMeth= 8 ICntrl=       0 DoSepK=F KAlg= 0 I1Cent=   0 FoldK=F
 IRaf=         1 NMat= 120 IRICut=       1 DoRegI=T DoRafI=F ISym2E= 0.
 FoFCou: FMM=F IPFlag=           0 FMFlag=      100000 FMFlg1=           0
         NFxFlg=           0 DoJE=F BraDBF=F KetDBF=F FulRan=T
         wScrn=  0.000000 ICntrl=       0 IOpCl=  0 I1Cent=           0 NGrid=           0
         NMat0=  120 NMatS0=     60 NMatT0=    0 NMatD0=  120 NMtDS0=    0 NMtDT0=    0
 Symmetry not used in FoFCou.
 New state      4 was old state      5
 New state      5 was old state      4
 New state      8 was old state     10
 New state      9 was old state      8
 New state     10 was old state     15
 New state     12 was old state      9
 New state     13 was old state     12
 New state     15 was old state     17
 Excitation Energies [eV] at current iteration:
 Root      1 :     5.487868339363878
 Root      2 :     6.011428557257045
 Root      3 :     6.094183619256715
 Root      4 :     6.936348677736932
 Root      5 :     7.575510807719465
 Root      6 :     7.757993776115632
 Root      7 :     7.955850145811081
 Root      8 :     8.488519406584029
 Root      9 :     8.838563058448118
 Root     10 :     8.989330331592578
 Root     11 :     9.105932845569903
 Root     12 :     9.342690150548391
 Root     13 :     9.520505567618228
 Root     14 :     9.541858069917721
 Root     15 :     9.772250013945969
 Root     16 :     9.952403777310526
 Root     17 :     9.997277072479728
 Root     18 :    10.193854070279250
 Root     19 :    10.291253302729780
 Root     20 :    10.718932647112160
 Root     21 :    10.987581895115520
 Root     22 :    11.104700667634760
 Root     23 :    11.408568561180020
 Root     24 :    11.580967824374530
 Root     25 :    11.724780776907880
 Root     26 :    11.769733532405890
 Root     27 :    12.055106922688440
 Root     28 :    12.165892967818250
 Root     29 :    12.295975903492210
 Root     30 :    12.481485591075810
 Root     31 :    12.771454938744080
 Root     32 :    12.816505696819620
 Root     33 :    12.861087904259810
 Root     34 :    13.019619970041670
 Root     35 :    13.050603343967780
 Root     36 :    13.190520449327180
 Root     37 :    13.688023556577610
 Root     38 :    14.014891337274370
 Root     39 :    14.356552952381370
 Root     40 :    14.378690819674280
 Root     41 :    14.424058830327110
 Root     42 :    14.601510946674750
 Root     43 :    14.630414688447110
 Root     44 :    14.939476417970860
 Root     45 :    15.035410776013780
 Root     46 :    15.397576368525230
 Root     47 :    15.695859036466870
 Root     48 :    15.773097627996810
 Root     49 :    15.916322047356380
 Root     50 :    16.283373705453960
 Root     51 :    16.432584169679640
 Root     52 :    16.474203284727840
 Root     53 :    16.989576158744560
 Root     54 :    17.079694131429130
 Root     55 :    17.120079868815570
 Root     56 :    17.251305673322420
 Root     57 :    17.330354581680240
 Root     58 :    17.679492064785450
 Root     59 :    17.777508665161600
 Root     60 :    18.198964390151250
 Iteration     2 Dimension   120 NMult    60 NNew     60
 CISAX will form    60 AO SS matrices at one time.
 NMat=    60 NSing=    60 JSym2X= 0.
 Root      1 not converged, maximum delta is    0.025456673282106
 Root      2 not converged, maximum delta is    0.040280006233019
 Root      3 not converged, maximum delta is    0.042560276950903
 Root      4 not converged, maximum delta is    0.018158254481130
 Root      5 not converged, maximum delta is    0.039748829840551
 Root      6 not converged, maximum delta is    0.042779004819506
 Root      7 not converged, maximum delta is    0.017996507807984
 Root      8 not converged, maximum delta is    0.027583896568660
 Root      9 not converged, maximum delta is    0.077351195166491
 Root     10 not converged, maximum delta is    0.036869750454868
 Root     11 not converged, maximum delta is    0.157559077600562
 Root     12 not converged, maximum delta is    0.359775878720259
 New state     13 was old state     14
 Root     13 not converged, maximum delta is    0.290332551720338
 New state     14 was old state     13
 Root     14 not converged, maximum delta is    0.090759350712640
 Root     15 not converged, maximum delta is    0.105985237061733
 Excitation Energies [eV] at current iteration:
 Root      1 :     5.406347291837999   Change is   -0.081521047525879
 Root      2 :     5.998215353519715   Change is   -0.013213203737331
 Root      3 :     6.078800929501067   Change is   -0.015382689755648
 Root      4 :     6.918846108988363   Change is   -0.017502568748569
 Root      5 :     7.554097069227050   Change is   -0.021413738492415
 Root      6 :     7.717839243096607   Change is   -0.040154533019025
 Root      7 :     7.941937498156271   Change is   -0.013912647654811
 Root      8 :     8.452898557265073   Change is   -0.035620849318956
 Root      9 :     8.723833436110796   Change is   -0.114729622337321
 Root     10 :     8.947741941900484   Change is   -0.041588389692094
 Root     11 :     9.044435216451500   Change is   -0.061497629118402
 Root     12 :     9.188342342363415   Change is   -0.154347808184976
 Root     13 :     9.353007336111894   Change is   -0.188850733805829
 Root     14 :     9.487164648268303   Change is   -0.033340919349926
 Root     15 :     9.749689945978766   Change is   -0.022560067967203
 Root     16 :     9.776217140385658   Change is   -0.221059932094070
 Root     17 :     9.941567018998153   Change is   -0.010836758312371
 Root     18 :    10.067642832179440   Change is   -0.223610470550337
 Root     19 :    10.190191951606950   Change is   -0.003662118672301
 Root     20 :    10.475851977790970   Change is   -0.243080669321190
 Root     21 :    10.856458752865020   Change is   -0.131123142250508
 Root     22 :    10.887119218803020   Change is   -0.217581448831748
 Root     23 :    11.301211999444470   Change is   -0.107356561735546
 Root     24 :    11.403704267944200   Change is   -0.177263556430331
 Root     25 :    11.468073961448950   Change is   -0.256706815458929
 Root     26 :    11.731826740908520   Change is   -0.037906791497361
 Root     27 :    11.922481285813520   Change is   -0.132625636874922
 Root     28 :    11.984423313201280   Change is   -0.181469654616964
 Root     29 :    12.035000714041320   Change is   -0.260975189450889
 Root     30 :    12.357058799094270   Change is   -0.124426791981543
 Root     31 :    12.535191711305490   Change is   -0.236263227438589
 Root     32 :    12.611927614460060   Change is   -0.204578082359557
 Root     33 :    12.670177875807460   Change is   -0.190910028452346
 Root     34 :    12.906341760622000   Change is   -0.113278209419665
 Root     35 :    12.955536304793420   Change is   -0.095067039174355
 Root     36 :    13.014264757588500   Change is   -0.176255691738684
 Root     37 :    13.572422888136530   Change is   -0.115600668441087
 Root     38 :    13.841017908455770   Change is   -0.173873428818602
 Root     39 :    14.228590435141480   Change is   -0.150100384532808
 Root     40 :    14.253644253663290   Change is   -0.170414576663818
 Root     41 :    14.271419724010130   Change is   -0.085133228371240
 Root     42 :    14.530589990915970   Change is   -0.070920955758776
 Root     43 :    14.591972056259770   Change is   -0.038442632187337
 Root     44 :    14.775004943870400   Change is   -0.164471474100461
 Root     45 :    14.992772777739250   Change is   -0.042637998274533
 Root     46 :    15.189538496397530   Change is   -0.208037872127702
 Root     47 :    15.473917429089190   Change is   -0.221941607377675
 Root     48 :    15.598233115080730   Change is   -0.174864512916076
 Root     49 :    15.792922524272780   Change is   -0.123399523083603
 Root     50 :    16.160110828729090   Change is   -0.123262876724874
 Root     51 :    16.328203517503060   Change is   -0.104380652176584
 Root     52 :    16.381730884064280   Change is   -0.092472400663566
 Root     53 :    16.604930807157570   Change is   -0.646374866164850
 Root     54 :    16.721975602559730   Change is   -0.267600556184826
 Root     55 :    16.836609738568550   Change is   -0.243084392860579
 Root     56 :    16.930303714807470   Change is   -0.189776154008104
 Root     57 :    17.181990061368830   Change is   -0.148364520311414
 Root     58 :    17.619299861758800   Change is   -0.158208803402797
 Root     59 :    17.682890394975250   Change is    0.003398330189802
 Root     60 :    17.954359379345360   Change is   -0.244605010805895
 Iteration     3 Dimension   135 NMult   120 NNew     15
 CISAX will form    15 AO SS matrices at one time.
 NMat=    15 NSing=    15 JSym2X= 0.
 Root      1 not converged, maximum delta is    0.000968436958473
 Root      2 not converged, maximum delta is    0.000078246723086
 Root      3 not converged, maximum delta is    0.000043857561657
 Root      4 not converged, maximum delta is    0.000072073184494
 Root      5 not converged, maximum delta is    0.000069951452825
 Root      6 not converged, maximum delta is    0.000050334030585
 Root      7 not converged, maximum delta is    0.000052613075789
 Root      8 not converged, maximum delta is    0.000129640719130
 Root      9 not converged, maximum delta is    0.001773907339895
 Root     10 not converged, maximum delta is    0.000237536041537
 Root     11 not converged, maximum delta is    0.001316741053150
 Root     12 not converged, maximum delta is    0.002516216009831
 Root     13 not converged, maximum delta is    0.001699351172211
 Root     14 not converged, maximum delta is    0.000184329541431
 Root     15 not converged, maximum delta is    0.002692542410967
 Excitation Energies [eV] at current iteration:
 Root      1 :     5.406122663990388   Change is   -0.000224627847612
 Root      2 :     5.998214261600146   Change is   -0.000001091919569
 Root      3 :     6.078800549125804   Change is   -0.000000380375263
 Root      4 :     6.918844624115902   Change is   -0.000001484872461
 Root      5 :     7.554096095306046   Change is   -0.000000973921004
 Root      6 :     7.717838598447289   Change is   -0.000000644649318
 Root      7 :     7.941936190713053   Change is   -0.000001307443218
 Root      8 :     8.452896300902829   Change is   -0.000002256362244
 Root      9 :     8.723131035982439   Change is   -0.000702400128357
 Root     10 :     8.947733416067001   Change is   -0.000008525833484
 Root     11 :     9.044019391249268   Change is   -0.000415825202233
 Root     12 :     9.187531810146661   Change is   -0.000810532216753
 Root     13 :     9.352714251804098   Change is   -0.000293084307794
 Root     14 :     9.487153997615263   Change is   -0.000010650653041
 Root     15 :     9.749587957860134   Change is   -0.000101988118631
 Iteration     4 Dimension   143 NMult   135 NNew      8
 CISAX will form     8 AO SS matrices at one time.
 NMat=     8 NSing=     8 JSym2X= 0.
 Root      1 not converged, maximum delta is    0.000029457010236
 Root      2 not converged, maximum delta is    0.000003706129121
 Root      3 not converged, maximum delta is    0.000002261317114
 Root      4 not converged, maximum delta is    0.000003736638809
 Root      5 not converged, maximum delta is    0.000002239862779
 Root      6 not converged, maximum delta is    0.000003889853847
 Root      7 not converged, maximum delta is    0.000001497692941
 Root      8 not converged, maximum delta is    0.000004324986611
 Root      9 not converged, maximum delta is    0.000030326064851
 Root     10 not converged, maximum delta is    0.000010679236283
 Root     11 not converged, maximum delta is    0.000052463599242
 Root     12 not converged, maximum delta is    0.000069570768061
 Root     13 not converged, maximum delta is    0.000025240606041
 Root     14 not converged, maximum delta is    0.000012595786570
 Root     15 not converged, maximum delta is    0.000023667405878
 Excitation Energies [eV] at current iteration:
 Root      1 :     5.406122472608589   Change is   -0.000000191381799
 Root      2 :     5.998214258084288   Change is   -0.000000003515858
 Root      3 :     6.078800547955366   Change is   -0.000000001170437
 Root      4 :     6.918844621215452   Change is   -0.000000002900450
 Root      5 :     7.554096093650544   Change is   -0.000000001655503
 Root      6 :     7.717838593091407   Change is   -0.000000005355882
 Root      7 :     7.941936190161065   Change is   -0.000000000551989
 Root      8 :     8.452896297546332   Change is   -0.000000003356497
 Root      9 :     8.723130777073255   Change is   -0.000000258909185
 Root     10 :     8.947733395766233   Change is   -0.000000020300766
 Root     11 :     9.044018566872724   Change is   -0.000000824376545
 Root     12 :     9.187530801125716   Change is   -0.000001009020946
 Root     13 :     9.352714106239125   Change is   -0.000000145564975
 Root     14 :     9.487153977967790   Change is   -0.000000019647472
 Root     15 :     9.749587777418911   Change is   -0.000000180441223
 Convergence achieved on expansion vectors.
 ***********************************************************************
 Excited states from <AA,BB:AA,BB> singles matrix:
 ***********************************************************************
 
 1PDM for each excited state written to RWF  633
 Ground to excited state transition densities written to RWF  633
 Ground to excited state transition electric dipole moments (Au):
       state          X           Y           Z        Dip. S.      Osc.
         1        -1.4580      0.6100      0.0174      2.4981      0.3309
         2        -0.0858      0.0155      0.0488      0.0100      0.0015
         3        -0.0224     -0.0065      0.1011      0.0108      0.0016
         4        -0.0355      0.0035     -0.0103      0.0014      0.0002
         5        -0.0145      0.0230      0.2364      0.0566      0.0105
         6        -0.0030     -0.0022      0.1198      0.0144      0.0027
         7         0.0116     -0.0502      0.0607      0.0063      0.0012
         8        -0.0219      0.0161      0.0259      0.0014      0.0003
         9         0.4103     -0.1001      0.0535      0.1812      0.0387
        10        -0.0191     -0.0087      0.3155      0.1000      0.0219
        11        -0.1015      0.3084      0.0593      0.1089      0.0241
        12         0.7010     -0.6316      0.0307      0.8913      0.2006
        13        -0.5419     -0.2118      0.0115      0.3387      0.0776
        14        -0.0258     -0.0729     -0.6035      0.3702      0.0860
        15         0.1102      0.3122     -0.0749      0.1153      0.0275
 Ground to excited state transition velocity dipole moments (Au):
       state          X           Y           Z        Dip. S.      Osc.
         1         0.1746     -0.0836      0.0084      0.0376      0.1260
         2         0.0175     -0.0013     -0.1458      0.0216      0.0652
         3         0.0024      0.0059     -0.1422      0.0203      0.0604
         4         0.0109     -0.0002     -0.0040      0.0001      0.0004
         5         0.0032      0.0018     -0.0663      0.0044      0.0106
         6         0.0002      0.0015     -0.0088      0.0001      0.0002
         7        -0.0028      0.0015      0.0157      0.0003      0.0006
         8         0.0027      0.0017     -0.0260      0.0007      0.0015
         9        -0.1085     -0.0552      0.0003      0.0148      0.0308
        10         0.0034      0.0124      0.0126      0.0003      0.0007
        11        -0.0203     -0.1633     -0.0002      0.0271      0.0543
        12        -0.0954      0.0604     -0.0013      0.0127      0.0252
        13         0.0701      0.0335      0.0031      0.0061      0.0117
        14         0.0050      0.0209     -0.0162      0.0007      0.0014
        15        -0.0229     -0.0729      0.0950      0.0149      0.0277
 Ground to excited state transition magnetic dipole moments (Au):
       state          X           Y           Z
         1        -0.0156     -0.0317     -0.5713
         2         0.0516      0.3521     -0.0353
         3        -0.2192     -0.1892     -0.0039
         4        -0.2410     -0.7001     -0.0116
         5        -0.8592      0.0249     -0.0119
         6        -0.0683      0.7344      0.0157
         7        -0.5471      0.0870      0.0037
         8        -0.0665     -0.0995      0.0109
         9        -0.0539     -0.0246     -0.0394
        10        -0.0030      0.0162      0.0166
        11        -0.0312      0.0353     -0.0025
        12         0.0312     -0.0363     -0.0109
        13         0.0465     -0.0029     -0.0763
        14        -0.0338     -0.0539      0.0283
        15         0.0050      0.4636     -0.0754
 Ground to excited state transition velocity quadrupole moments (Au):
       state          XX          YY          ZZ          XY          XZ          YZ
         1         0.1805     -0.2077      0.0000      0.2056      0.0221     -0.0019
         2         0.0330     -0.0114     -0.0028      0.0186     -0.2368     -0.0045
         3         0.0038      0.0112     -0.0008     -0.0002      0.1276     -0.1534
         4         0.0265      0.0010      0.0037      0.0159     -0.2313      0.0793
         5        -0.0106      0.0049      0.0035      0.0056      0.0859     -0.2006
         6        -0.0014     -0.0006      0.0032      0.0126     -0.4099      0.1309
         7        -0.0011      0.0160      0.0071     -0.0124      0.1008      0.1900
         8         0.0052      0.0024      0.0045      0.0001     -0.1276      0.0084
         9        -0.1266     -0.1324     -0.0274     -0.0303      0.0016     -0.0097
        10         0.0244      0.0173      0.0021      0.0095     -0.0152      0.0583
        11         0.0099     -0.1873      0.0073     -0.1091     -0.0043     -0.0114
        12        -0.4388      0.0921     -0.0453     -0.1662      0.0025     -0.0024
        13        -0.2824     -0.2284     -0.0789      0.2623     -0.0192      0.0035
        14        -0.0404      0.0012     -0.0142      0.0428      0.0324     -0.0505
        15         0.0377     -0.0149     -0.0115     -0.0953     -0.3465     -0.0387
 <0|del|b> * <b|rxdel|0> + <0|del|b> * <b|delr+rdel|0>
 Rotatory Strengths (R) in cgs (10**-40 erg-esu-cm/Gauss)
       state          XX          YY          ZZ    R(velocity)    E-M Angle
         1         2.5219    -17.0755     -2.8240     -5.7926       92.52
         2         2.6868     13.9278      1.3330      5.9825       83.88
         3        -2.0449     -0.5760     -0.8289     -1.1499       91.52
         4         0.0764     -2.3027     -4.6678     -2.2980      106.70
         5         0.3862     -2.8385     -2.4233     -1.6252       91.92
         6         1.8469     -0.0156      0.5555      0.7956       81.69
         7        -0.1912      1.5346      2.8894      1.4109       78.66
         8        -0.2714     -0.4941     -0.6620     -0.4758      101.50
         9         1.5709      7.6079      6.6956      5.2915       33.85
        10         0.7733      0.3009     -0.2132      0.2870       18.45
        11        -6.8546      0.8960     -4.9659     -3.6415      131.40
        12        -2.2084     -3.0924     -5.4907     -3.5972      158.43
        13         1.1532      2.5303      2.3381      2.0072       65.12
        14        -2.9963     -0.1925     -0.3689     -1.1859      159.51
        15       -74.2885      2.6273     -9.4142    -27.0251      135.84
 1/2[<0|r|b>*<b|rxdel|0> + (<0|rxdel|b>*<b|r|0>)*]
 Rotatory Strengths (R) in cgs (10**-40 erg-esu-cm/Gauss)
       state          XX          YY          ZZ     R(length)
         1       -16.0566     13.6739      7.0402      1.5525
         2         3.1298     -3.8577      1.2198      0.1640
         3        -3.4778     -0.8712      0.2818     -1.3558
         4        -6.0546      1.7158     -0.0840     -1.4743
         5        -8.7962     -0.4044      1.9909     -2.4033
         6        -0.1469      1.1263     -1.3282     -0.1163
         7         4.5051      3.0912     -0.1575      2.4796
         8        -1.0281      1.1344     -0.1993     -0.0310
         9        15.6471     -1.7384      1.4911      5.1333
        10        -0.0409      0.0998     -3.7060     -1.2157
        11        -2.2386     -7.7061      0.1046     -3.2800
        12       -15.4757    -16.1966      0.2373    -10.4783
        13        17.8134     -0.4353      0.6211      5.9997
        14        -0.6171     -2.7782     12.0988      2.9011
        15        -0.3900   -102.3632     -3.9903    -35.5812
  1/2[<0|del|b>*<b|r|0> + (<0|r|b>*<b|del|0>)*] (Au)
       state          X           Y           Z        Dip. S.   Osc.(frdel)
         1        -0.2546     -0.0510      0.0001      0.3054      0.2036
         2        -0.0015      0.0000     -0.0071      0.0086      0.0058
         3        -0.0001      0.0000     -0.0144      0.0145      0.0096
         4        -0.0004      0.0000      0.0000      0.0003      0.0002
         5         0.0000      0.0000     -0.0157      0.0157      0.0105
         6         0.0000      0.0000     -0.0011      0.0011      0.0007
         7         0.0000     -0.0001      0.0010     -0.0008     -0.0006
         8        -0.0001      0.0000     -0.0007      0.0007      0.0005
         9        -0.0445      0.0055      0.0000      0.0390      0.0260
        10        -0.0001     -0.0001      0.0040     -0.0038     -0.0025
        11         0.0021     -0.0504      0.0000      0.0483      0.0322
        12        -0.0669     -0.0381      0.0000      0.1050      0.0700
        13        -0.0380     -0.0071      0.0000      0.0451      0.0301
        14        -0.0001     -0.0015      0.0098     -0.0081     -0.0054
        15        -0.0025     -0.0228     -0.0071      0.0324      0.0216

 Excitation energies and oscillator strengths:
 
 Excited State   1:      Singlet-A      5.4061 eV  229.34 nm  f=0.3309  <S**2>=0.000
      11 -> 17        -0.10403
      13 -> 14         0.69336
 This state for optimization and/or second-order correction.
 Total Energy, E(CIS) =   2.93028451117    
 Copying the excited state density for this state as the 1-particle RhoCI density.
 
 Excited State   2:      Singlet-A      5.9982 eV  206.70 nm  f=0.0015  <S**2>=0.000
      10 -> 15         0.11837
      13 -> 15         0.65601
      13 -> 16         0.15335
      13 -> 17         0.10913
 
 Excited State   3:      Singlet-A      6.0788 eV  203.96 nm  f=0.0016  <S**2>=0.000
      10 -> 16        -0.11285
      13 -> 15        -0.15804
      13 -> 16         0.64253
      13 -> 17         0.16663
      13 -> 19        -0.10461
 
 Excited State   4:      Singlet-A      6.9188 eV  179.20 nm  f=0.0002  <S**2>=0.000
       9 -> 14         0.12154
      12 -> 14         0.68977
 
 Excited State   5:      Singlet-A      7.5541 eV  164.13 nm  f=0.0105  <S**2>=0.000
      11 -> 14         0.16128
      13 -> 16        -0.14433
      13 -> 17         0.62022
      13 -> 18        -0.18698
      13 -> 21         0.10419
 
 Excited State   6:      Singlet-A      7.7178 eV  160.65 nm  f=0.0027  <S**2>=0.000
      11 -> 14         0.10861
      13 -> 16        -0.10617
      13 -> 17         0.18308
      13 -> 18         0.55353
      13 -> 20         0.16721
      13 -> 21        -0.30398
 
 Excited State   7:      Singlet-A      7.9419 eV  156.11 nm  f=0.0012  <S**2>=0.000
      11 -> 14         0.67102
      13 -> 17        -0.18086
 
 Excited State   8:      Singlet-A      8.4529 eV  146.68 nm  f=0.0003  <S**2>=0.000
      13 -> 18         0.13401
      13 -> 19         0.65839
      13 -> 20        -0.13504
 
 Excited State   9:      Singlet-A      8.7231 eV  142.13 nm  f=0.0387  <S**2>=0.000
       8 -> 15        -0.16297
      10 -> 14         0.31577
      11 -> 17         0.16250
      12 -> 15         0.51162
      12 -> 18        -0.15928
 
 Excited State  10:      Singlet-A      8.9477 eV  138.56 nm  f=0.0219  <S**2>=0.000
      13 -> 18         0.34694
      13 -> 19        -0.18223
      13 -> 20        -0.35510
      13 -> 21         0.44835
 
 Excited State  11:      Singlet-A      9.0440 eV  137.09 nm  f=0.0241  <S**2>=0.000
       8 -> 16         0.14050
      10 -> 14         0.45098
      11 -> 17        -0.10913
      12 -> 15        -0.17927
      12 -> 16         0.40760
      12 -> 18         0.15194
 
 Excited State  12:      Singlet-A      9.1875 eV  134.95 nm  f=0.2006  <S**2>=0.000
       9 -> 15        -0.13925
      10 -> 14        -0.17109
      11 -> 15        -0.24637
      11 -> 16        -0.21991
      11 -> 17        -0.28108
      12 -> 15         0.35271
      12 -> 16         0.10534
      12 -> 18         0.27595
 
 Excited State  13:      Singlet-A      9.3527 eV  132.56 nm  f=0.0776  <S**2>=0.000
       9 -> 16        -0.14666
      10 -> 14        -0.29049
      11 -> 15        -0.11806
      11 -> 16         0.24563
      11 -> 17         0.15725
      12 -> 16         0.45399
      12 -> 17         0.20932
      12 -> 18        -0.10528
 
 Excited State  14:      Singlet-A      9.4872 eV  130.69 nm  f=0.0860  <S**2>=0.000
      10 -> 16        -0.14016
      13 -> 20         0.54699
      13 -> 21         0.38974
 
 Excited State  15:      Singlet-A      9.7496 eV  127.17 nm  f=0.0275  <S**2>=0.000
      10 -> 14         0.10056
      10 -> 16         0.58754
      11 -> 15        -0.11473
      12 -> 17         0.10389
      13 -> 16         0.12376
      13 -> 21         0.14547
 SavETr:  write IOETrn=   770 NScale= 10 NData=  16 NLR=1 NState=   15 LETran=     280.
 The selected state is a singlet
 CISAX will form     1 AO SS matrices at one time.
 NMat=     1 NSing=     1 JSym2X= 0.
 Leave Link  914 at Tue Dec 15 17:05:26 2015, MaxMem=    33554432 cpu:         0.1
 (Enter /home/Applications/g09/g09/l1002.exe)
 Minotr:  Closed shell wavefunction.
          Computing CIS/TD-HF/TD-KS derivatives.
          Using Z-Vector for PSCF gradient.
          Skipping F1 and S1 gradient terms here.
          IDoAtm=111111111
          Direct CPHF calculation.
          Differentiating once with respect to electric field.
                with respect to dipole field.
          Differentiating once with respect to nuclear coordinates.
          Electric field/nuclear overlap derivatives assumed to be zero.
          Requested convergence is 1.0D-10 RMS, and 1.0D-09 maximum.
          NewPWx=T KeepS1=F KeepF1=F KeepIn=T MapXYZ=F SortEE=F KeepMc=T.
          MDV=      33495423 using IRadAn=       0.
 Keep J ints in memory in canonical form, NReq=871704.
 FoFCou: FMM=F IPFlag=           0 FMFlag=           0 FMFlg1=           0
         NFxFlg=           0 DoJE=F BraDBF=F KetDBF=F FulRan=T
         wScrn=  0.000000 ICntrl=     600 IOpCl=  2 I1Cent=           0 NGrid=           0
         NMat0=    1 NMatS0=     54 NMatT0=    0 NMatD0=    1 NMtDS0=    0 NMtDT0=    0
 Symmetry not used in FoFCou.
          Solving linear equations separately, MaxMat=       0.
          There are     1 degrees of freedom in the 1st order CPHF.  IDoFFX=0 NUNeed=     1.
 LinEq1:  Iter=  0 NonCon=     1 RMS=7.81D-03 Max=5.14D-02 NDo=     1
 AX will form     1 AO Fock derivatives at one time.
 LinEq1:  Iter=  1 NonCon=     1 RMS=7.64D-04 Max=2.13D-03 NDo=     1
 LinEq1:  Iter=  2 NonCon=     1 RMS=1.18D-04 Max=9.55D-04 NDo=     1
 LinEq1:  Iter=  3 NonCon=     1 RMS=1.41D-05 Max=4.66D-05 NDo=     1
 LinEq1:  Iter=  4 NonCon=     1 RMS=1.93D-06 Max=7.44D-06 NDo=     1
 LinEq1:  Iter=  5 NonCon=     1 RMS=2.24D-07 Max=7.38D-07 NDo=     1
 LinEq1:  Iter=  6 NonCon=     1 RMS=3.35D-08 Max=1.22D-07 NDo=     1
 LinEq1:  Iter=  7 NonCon=     1 RMS=3.97D-09 Max=1.19D-08 NDo=     1
 LinEq1:  Iter=  8 NonCon=     1 RMS=5.77D-10 Max=1.89D-09 NDo=     1
 LinEq1:  Iter=  9 NonCon=     0 RMS=6.32D-11 Max=2.02D-10 NDo=     1
 Linear equations converged to 1.000D-10 1.000D-09 after     9 iterations.
 End of Minotr F.D. properties file   721 does not exist.
 End of Minotr F.D. properties file   722 does not exist.
 End of Minotr F.D. properties file   788 does not exist.
 Leave Link 1002 at Tue Dec 15 17:05:27 2015, MaxMem=    33554432 cpu:         0.0
 (Enter /home/Applications/g09/g09/l601.exe)
 Copying SCF densities to generalized density rwf, IOpCl= 0 IROHF=0.

 **********************************************************************

            Population analysis using the SCF density.

 **********************************************************************

 Orbital symmetries:
       Occupied  (A) (A) (A) (A) (A) (A) (A) (A) (A) (A) (A) (A)
                 (A)
       Virtual   (A) (A) (A) (A) (A) (A) (A) (A) (A) (A) (A)
 The electronic state is 1-A.
 Alpha  occ. eigenvalues --   -1.78470  -1.15491  -0.94022  -0.80077  -0.74676
 Alpha  occ. eigenvalues --   -0.66015  -0.64419  -0.53625  -0.48707  -0.43386
 Alpha  occ. eigenvalues --   -0.42320  -0.39112  -0.27616
 Alpha virt. eigenvalues --    0.13334   0.17119   0.17369   0.24680   0.26841
 Alpha virt. eigenvalues --    0.28963   0.30740   0.32853   0.48989   0.57990
 Alpha virt. eigenvalues --    0.61817
     Molecular Orbital Coefficients:
                           1         2         3         4         5
                           O         O         O         O         O
     Eigenvalues --    -1.78470  -1.15491  -0.94022  -0.80077  -0.74676
   1 1   C  1S          0.11991   0.44896   0.28110   0.25404  -0.11122
   2        1PX         0.02433   0.14530  -0.21489  -0.17916  -0.32193
   3        1PY        -0.14767  -0.13041  -0.06700   0.05898  -0.20772
   4        1PZ        -0.00015  -0.00337  -0.00132  -0.00420   0.01164
   5 2   C  1S          0.30208   0.13588   0.52623  -0.16416   0.38871
   6        1PX         0.22261   0.18081  -0.04471   0.05382  -0.23947
   7        1PY        -0.20687   0.28475   0.01368   0.52780   0.06491
   8        1PZ         0.00893   0.00128   0.01710  -0.01231   0.02999
   9 3   O  1S          0.75455  -0.32920  -0.04215   0.00044  -0.22834
  10        1PX         0.01781   0.05605  -0.20100   0.26459   0.02861
  11        1PY         0.07857   0.12381   0.08503  -0.06523   0.07433
  12        1PZ        -0.00202  -0.00043  -0.00081  -0.00200   0.00788
  13 4   C  1S          0.28057   0.23241  -0.50321   0.11971   0.38334
  14        1PX        -0.28032   0.01400  -0.05312  -0.34255   0.18394
  15        1PY        -0.03221   0.34841   0.07956  -0.40992  -0.13216
  16        1PZ         0.01109   0.00594  -0.02544   0.00926   0.03611
  17 5   C  1S          0.12254   0.50214  -0.20642  -0.26171  -0.12801
  18        1PX        -0.10879  -0.16341  -0.17475  -0.24532   0.11163
  19        1PY        -0.10339  -0.04591   0.20222   0.03390  -0.36442
  20        1PZ         0.00072  -0.00096  -0.00287   0.00171   0.01096
  21 6   H  1S          0.01203   0.16503  -0.11229  -0.21471  -0.11338
  22 7   H  1S          0.05950   0.02571  -0.26275   0.05111   0.29852
  23 8   H  1S          0.06266  -0.00395   0.25751  -0.10290   0.31068
  24 9   H  1S          0.00923   0.12932   0.12842   0.16767  -0.09379
                           6         7         8         9        10
                           O         O         O         O         O
     Eigenvalues --    -0.66015  -0.64419  -0.53625  -0.48707  -0.43386
   1 1   C  1S          0.20378  -0.12345   0.15563  -0.03374   0.01337
   2        1PX        -0.00095   0.01905  -0.08450  -0.38465   0.01289
   3        1PY         0.28359  -0.18904   0.00260  -0.09980   0.05288
   4        1PZ         0.21371   0.32364  -0.01049  -0.00625   0.16571
   5 2   C  1S         -0.00039  -0.03044   0.10660  -0.12682  -0.02924
   6        1PX        -0.31359   0.23081   0.58218   0.07638  -0.00613
   7        1PY         0.08571  -0.05470  -0.11181   0.48559  -0.03298
   8        1PZ         0.31206   0.47476  -0.01072   0.02382   0.69339
   9 3   O  1S          0.21662  -0.13618  -0.02863   0.36623  -0.00876
  10        1PX        -0.03221   0.01912  -0.12886  -0.04271  -0.00320
  11        1PY        -0.17423   0.11932   0.05971  -0.14403   0.00310
  12        1PZ         0.12664   0.17773  -0.00417   0.01803   0.02655
  13 4   C  1S          0.00777  -0.05198  -0.07024  -0.15116   0.04537
  14        1PX         0.23193  -0.14822   0.51994   0.24242   0.00721
  15        1PY        -0.16510   0.11083  -0.26268   0.40698   0.00078
  16        1PZ         0.31611   0.46293  -0.01042  -0.01750  -0.64304
  17 5   C  1S          0.16060  -0.10714  -0.13116  -0.03251  -0.00543
  18        1PX         0.14429  -0.10984   0.01247   0.26431  -0.03034
  19        1PY         0.24172  -0.13920   0.07673  -0.26954  -0.03297
  20        1PZ         0.22576   0.33239  -0.00659  -0.01995  -0.25449
  21 6   H  1S          0.24253  -0.15951  -0.03400   0.02598  -0.03938
  22 7   H  1S          0.18558  -0.12224   0.32931  -0.13439  -0.00116
  23 8   H  1S          0.19016  -0.14438  -0.31138  -0.12388   0.00502
  24 9   H  1S          0.26169  -0.17523   0.10186  -0.00182   0.04289
                          11        12        13        14        15
                           O         O         O         V         V
     Eigenvalues --    -0.42320  -0.39112  -0.27616   0.13334   0.17119
   1 1   C  1S          0.11309  -0.06723   0.01232  -0.00910  -0.05941
   2        1PX        -0.00904  -0.36436  -0.00982   0.01563  -0.13806
   3        1PY         0.44841   0.31959  -0.01262   0.01211   0.01797
   4        1PZ        -0.01069   0.01143   0.62874  -0.65110  -0.03718
   5 2   C  1S         -0.12381   0.12442  -0.00061  -0.00340   0.03036
   6        1PX        -0.09334   0.22819  -0.00678   0.01403  -0.14760
   7        1PY        -0.26580  -0.16156   0.00208   0.00583  -0.00818
   8        1PZ        -0.06597   0.00649  -0.33235   0.18929   0.01743
   9 3   O  1S          0.01802  -0.19563   0.00774   0.00010   0.00302
  10        1PX        -0.07077   0.06822  -0.00405  -0.00106  -0.01583
  11        1PY         0.00174   0.17817  -0.00988  -0.00298   0.05283
  12        1PZ         0.00138  -0.01069  -0.17302  -0.00681  -0.00672
  13 4   C  1S          0.10692   0.14577   0.00631   0.00957  -0.18761
  14        1PX         0.11660  -0.36281   0.01366   0.02116  -0.31456
  15        1PY         0.29821   0.02875  -0.00539  -0.03328   0.40174
  16        1PZ         0.07453   0.01187  -0.41551  -0.23328  -0.04379
  17 5   C  1S         -0.09791  -0.04974   0.00581   0.01220  -0.07061
  18        1PX        -0.27233   0.46488  -0.00174  -0.00391  -0.06033
  19        1PY        -0.38704   0.00500  -0.02724  -0.03823   0.21037
  20        1PZ         0.01376   0.01313   0.53836   0.69195   0.05505
  21 6   H  1S         -0.40914   0.29514   0.00041   0.00213  -0.00767
  22 7   H  1S         -0.00564  -0.16222  -0.01058  -0.04992   0.74172
  23 8   H  1S         -0.00708  -0.10747  -0.00434   0.01961  -0.20953
  24 9   H  1S          0.40105   0.30718   0.00294   0.00998  -0.04539
                          16        17        18        19        20
                           V         V         V         V         V
     Eigenvalues --     0.17369   0.24680   0.26841   0.28963   0.30740
   1 1   C  1S         -0.14331   0.01215  -0.19022   0.12166   0.51633
   2        1PX         0.16681   0.08438   0.39949  -0.42379  -0.03614
   3        1PY         0.20041   0.46729  -0.30213  -0.32244   0.01853
   4        1PZ         0.01417   0.00613   0.00299  -0.01475  -0.00984
   5 2   C  1S         -0.17786   0.33350   0.16139  -0.35810  -0.15475
   6        1PX         0.46986  -0.00040  -0.04768   0.00650  -0.01513
   7        1PY         0.17282   0.19159   0.13610  -0.25246  -0.18832
   8        1PZ        -0.01498   0.00254   0.00129  -0.00095   0.00367
   9 3   O  1S          0.00792   0.03743   0.01197  -0.01097  -0.04527
  10        1PX         0.05026  -0.00213   0.02481  -0.03600  -0.01239
  11        1PY         0.08546  -0.00768   0.00955  -0.01592  -0.07475
  12        1PZ        -0.00550  -0.00128   0.00112  -0.00295  -0.00936
  13 4   C  1S         -0.06440   0.28209  -0.03645   0.30932  -0.28469
  14        1PX        -0.03881   0.07914  -0.04833   0.08103  -0.18738
  15        1PY         0.13641   0.12892  -0.00261   0.13919  -0.17350
  16        1PZ        -0.00649   0.00066  -0.00305   0.00207   0.00002
  17 5   C  1S         -0.10289   0.01543   0.05506   0.07239   0.23714
  18        1PX         0.09324   0.15354   0.42888   0.02874   0.44073
  19        1PY         0.06552   0.32093   0.09930   0.50748  -0.28589
  20        1PZ         0.00298   0.01690   0.00395   0.01922  -0.00642
  21 6   H  1S         -0.07979  -0.37021  -0.44078  -0.29439  -0.28822
  22 7   H  1S          0.18722  -0.13224   0.03315  -0.10559   0.11677
  23 8   H  1S          0.72654  -0.18290  -0.10055   0.14729   0.05384
  24 9   H  1S         -0.04123  -0.45539   0.50913   0.05115  -0.29327
                          21        22        23        24
                           V         V         V         V
     Eigenvalues --     0.32853   0.48989   0.57990   0.61817
   1 1   C  1S         -0.42947   0.00546   0.04168   0.01669
   2        1PX        -0.33417  -0.00433  -0.01829  -0.03242
   3        1PY         0.14554   0.00376   0.03846  -0.02287
   4        1PZ         0.01074   0.01576  -0.00178  -0.00129
   5 2   C  1S          0.07693  -0.00035  -0.13097   0.17380
   6        1PX         0.09578  -0.00341  -0.20072   0.05917
   7        1PY         0.06259  -0.01044   0.04349  -0.21528
   8        1PZ        -0.00038  -0.20745   0.00279   0.00706
   9 3   O  1S         -0.01366  -0.00067   0.15812  -0.01559
  10        1PX         0.00190   0.01837   0.32314   0.86382
  11        1PY        -0.02559   0.04327   0.85931  -0.32202
  12        1PZ        -0.00278   0.95861  -0.04514  -0.00206
  13 4   C  1S         -0.22653  -0.00047  -0.13467  -0.14462
  14        1PX        -0.03570  -0.00426   0.20109   0.15485
  15        1PY        -0.22827  -0.00853  -0.04663   0.14218
  16        1PZ         0.00165  -0.18673   0.00012  -0.00722
  17 5   C  1S          0.67477   0.00547   0.03758  -0.02171
  18        1PX        -0.21899   0.00563   0.03204  -0.01536
  19        1PY        -0.01180   0.00089   0.02750   0.03641
  20        1PZ        -0.01130   0.01839  -0.00136   0.00173
  21 6   H  1S         -0.22454  -0.00388  -0.03087  -0.00378
  22 7   H  1S          0.02595   0.00134  -0.02577  -0.01698
  23 8   H  1S          0.01417   0.00054  -0.02831   0.01954
  24 9   H  1S          0.05645  -0.00372  -0.02947   0.00530
     Density Matrix:
                           1         2         3         4         5
   1 1   C  1S          0.94326
   2        1PX         0.03768   0.98436
   3        1PY         0.11534  -0.07448   1.04443
   4        1PZ         0.01178  -0.00411  -0.00481   1.14751
   5 2   C  1S          0.32400  -0.37422  -0.37344  -0.01745   1.24941
   6        1PX         0.21035  -0.09489  -0.21676  -0.00835   0.10394
   7        1PY         0.40913  -0.39938  -0.35309  -0.01364  -0.27222
   8        1PZ        -0.00044   0.00040   0.00023   0.25479  -0.00857
   9 3   O  1S          0.03130  -0.03462  -0.04532  -0.00078   0.00088
  10        1PX        -0.01078  -0.00271  -0.01136  -0.00265  -0.23327
  11        1PY         0.03226  -0.04523  -0.10432  -0.00286   0.33567
  12        1PZ        -0.00068   0.00098  -0.00010  -0.03980  -0.01613
  13 4   C  1S         -0.02110   0.02679   0.02638   0.00464  -0.00456
  14        1PX         0.05281  -0.00068  -0.01558   0.00531  -0.02737
  15        1PY         0.03057   0.00709  -0.01758  -0.01284  -0.04177
  16        1PZ        -0.00933   0.00048   0.00929  -0.30095   0.00296
  17 5   C  1S          0.29754   0.49735  -0.10012   0.00525  -0.02148
  18        1PX        -0.47352  -0.50614   0.14328  -0.00254   0.00037
  19        1PY         0.23115   0.30887   0.06801  -0.03077   0.03551
  20        1PZ         0.01318  -0.00493  -0.01737   0.90494   0.00245
  21 6   H  1S         -0.00330   0.01725   0.00028   0.00210   0.08903
  22 7   H  1S          0.08682   0.07398  -0.03565  -0.01529   0.05440
  23 8   H  1S          0.07232  -0.05121  -0.08205  -0.00276   0.53151
  24 9   H  1S          0.52894  -0.26990   0.78112   0.00787   0.05519
                           6         7         8         9        10
   6        1PX         1.40346
   7        1PY        -0.12339   1.52668
   8        1PZ         0.01311   0.00135   1.84106
   9 3   O  1S          0.06132  -0.06165  -0.00077   1.94157
  10        1PX        -0.02215   0.29756  -0.00396  -0.07823   0.28841
  11        1PY         0.32250  -0.27377   0.02006  -0.29087  -0.01094
  12        1PZ        -0.00757   0.02043   0.40072   0.01470  -0.00265
  13 4   C  1S         -0.00457  -0.05234   0.00475  -0.00519   0.35655
  14        1PX         0.00096   0.01475  -0.00207  -0.07719  -0.39929
  15        1PY        -0.00775   0.00972  -0.00189  -0.01389  -0.20899
  16        1PZ        -0.00129  -0.00134   0.01228   0.00002   0.01833
  17 5   C  1S         -0.02457   0.04226  -0.00418   0.02852   0.02701
  18        1PX         0.00533  -0.01010   0.00352   0.00107  -0.01248
  19        1PY         0.00508  -0.00543   0.00997  -0.05133  -0.05479
  20        1PZ        -0.00447  -0.00580  -0.25619  -0.00183   0.00128
  21 6   H  1S          0.05646   0.06115   0.00008   0.01053   0.02721
  22 7   H  1S          0.03908  -0.02798  -0.00086   0.01826   0.04348
  23 8   H  1S         -0.77155  -0.05356   0.02284   0.02391  -0.07900
  24 9   H  1S          0.04041  -0.03762  -0.00159   0.00842  -0.01824
                          11        12        13        14        15
  11        1PY         0.27854
  12        1PZ        -0.00676   0.15759
  13 4   C  1S          0.12995  -0.01892   1.22512
  14        1PX        -0.23062   0.01968  -0.24565   1.56622
  15        1PY         0.07534   0.01581  -0.16374   0.11485   1.35644
  16        1PZ         0.01587   0.35418  -0.01615  -0.01819   0.02030
  17 5   C  1S          0.01756  -0.00056   0.35514   0.06694   0.46189
  18        1PX        -0.02526  -0.00117   0.07224   0.12340   0.03783
  19        1PY        -0.08170   0.00213  -0.54986  -0.11470  -0.52531
  20        1PZ        -0.00109  -0.02521  -0.02197  -0.00288  -0.01636
  21 6   H  1S          0.00419  -0.00467   0.07040  -0.05791  -0.00121
  22 7   H  1S         -0.06467   0.00768   0.51211   0.58578  -0.53187
  23 8   H  1S         -0.02815   0.00366   0.05443  -0.05437  -0.00596
  24 9   H  1S          0.01024  -0.00362   0.09205  -0.01487   0.07392
                          16        17        18        19        20
  16        1PZ         1.81736
  17 5   C  1S         -0.00232   0.92460
  18        1PX        -0.00102   0.03801   1.07163
  19        1PY         0.00042   0.10083   0.04615   0.99128
  20        1PZ         0.33455   0.00603   0.00246  -0.00581   1.03397
  21 6   H  1S         -0.00244   0.52695   0.68028   0.46969   0.01698
  22 7   H  1S          0.04508   0.07098  -0.01802  -0.08492  -0.00340
  23 8   H  1S         -0.00032   0.07313  -0.06551   0.01357  -0.00624
  24 9   H  1S          0.00216   0.00084  -0.01220  -0.00057  -0.00161
                          21        22        23        24
  21 6   H  1S          0.88218
  22 7   H  1S         -0.01213   0.73463
  23 8   H  1S          0.01110   0.01602   0.71664
  24 9   H  1S         -0.01106   0.00460  -0.01067   0.87365
    Full Mulliken population analysis:
                           1         2         3         4         5
   1 1   C  1S          0.94326
   2        1PX         0.00000   0.98436
   3        1PY         0.00000   0.00000   1.04443
   4        1PZ         0.00000   0.00000   0.00000   1.14751
   5 2   C  1S          0.00000   0.00000   0.00000   0.00000   1.24941
   6        1PX         0.00000   0.00000   0.00000   0.00000   0.00000
   7        1PY         0.00000   0.00000   0.00000   0.00000   0.00000
   8        1PZ         0.00000   0.00000   0.00000   0.00000   0.00000
   9 3   O  1S          0.00000   0.00000   0.00000   0.00000   0.00000
  10        1PX         0.00000   0.00000   0.00000   0.00000   0.00000
  11        1PY         0.00000   0.00000   0.00000   0.00000   0.00000
  12        1PZ         0.00000   0.00000   0.00000   0.00000   0.00000
  13 4   C  1S          0.00000   0.00000   0.00000   0.00000   0.00000
  14        1PX         0.00000   0.00000   0.00000   0.00000   0.00000
  15        1PY         0.00000   0.00000   0.00000   0.00000   0.00000
  16        1PZ         0.00000   0.00000   0.00000   0.00000   0.00000
  17 5   C  1S          0.00000   0.00000   0.00000   0.00000   0.00000
  18        1PX         0.00000   0.00000   0.00000   0.00000   0.00000
  19        1PY         0.00000   0.00000   0.00000   0.00000   0.00000
  20        1PZ         0.00000   0.00000   0.00000   0.00000   0.00000
  21 6   H  1S          0.00000   0.00000   0.00000   0.00000   0.00000
  22 7   H  1S          0.00000   0.00000   0.00000   0.00000   0.00000
  23 8   H  1S          0.00000   0.00000   0.00000   0.00000   0.00000
  24 9   H  1S          0.00000   0.00000   0.00000   0.00000   0.00000
                           6         7         8         9        10
   6        1PX         1.40346
   7        1PY         0.00000   1.52668
   8        1PZ         0.00000   0.00000   1.84106
   9 3   O  1S          0.00000   0.00000   0.00000   1.94157
  10        1PX         0.00000   0.00000   0.00000   0.00000   0.28841
  11        1PY         0.00000   0.00000   0.00000   0.00000   0.00000
  12        1PZ         0.00000   0.00000   0.00000   0.00000   0.00000
  13 4   C  1S          0.00000   0.00000   0.00000   0.00000   0.00000
  14        1PX         0.00000   0.00000   0.00000   0.00000   0.00000
  15        1PY         0.00000   0.00000   0.00000   0.00000   0.00000
  16        1PZ         0.00000   0.00000   0.00000   0.00000   0.00000
  17 5   C  1S          0.00000   0.00000   0.00000   0.00000   0.00000
  18        1PX         0.00000   0.00000   0.00000   0.00000   0.00000
  19        1PY         0.00000   0.00000   0.00000   0.00000   0.00000
  20        1PZ         0.00000   0.00000   0.00000   0.00000   0.00000
  21 6   H  1S          0.00000   0.00000   0.00000   0.00000   0.00000
  22 7   H  1S          0.00000   0.00000   0.00000   0.00000   0.00000
  23 8   H  1S          0.00000   0.00000   0.00000   0.00000   0.00000
  24 9   H  1S          0.00000   0.00000   0.00000   0.00000   0.00000
                          11        12        13        14        15
  11        1PY         0.27854
  12        1PZ         0.00000   0.15759
  13 4   C  1S          0.00000   0.00000   1.22512
  14        1PX         0.00000   0.00000   0.00000   1.56622
  15        1PY         0.00000   0.00000   0.00000   0.00000   1.35644
  16        1PZ         0.00000   0.00000   0.00000   0.00000   0.00000
  17 5   C  1S          0.00000   0.00000   0.00000   0.00000   0.00000
  18        1PX         0.00000   0.00000   0.00000   0.00000   0.00000
  19        1PY         0.00000   0.00000   0.00000   0.00000   0.00000
  20        1PZ         0.00000   0.00000   0.00000   0.00000   0.00000
  21 6   H  1S          0.00000   0.00000   0.00000   0.00000   0.00000
  22 7   H  1S          0.00000   0.00000   0.00000   0.00000   0.00000
  23 8   H  1S          0.00000   0.00000   0.00000   0.00000   0.00000
  24 9   H  1S          0.00000   0.00000   0.00000   0.00000   0.00000
                          16        17        18        19        20
  16        1PZ         1.81736
  17 5   C  1S          0.00000   0.92460
  18        1PX         0.00000   0.00000   1.07163
  19        1PY         0.00000   0.00000   0.00000   0.99128
  20        1PZ         0.00000   0.00000   0.00000   0.00000   1.03397
  21 6   H  1S          0.00000   0.00000   0.00000   0.00000   0.00000
  22 7   H  1S          0.00000   0.00000   0.00000   0.00000   0.00000
  23 8   H  1S          0.00000   0.00000   0.00000   0.00000   0.00000
  24 9   H  1S          0.00000   0.00000   0.00000   0.00000   0.00000
                          21        22        23        24
  21 6   H  1S          0.88218
  22 7   H  1S          0.00000   0.73463
  23 8   H  1S          0.00000   0.00000   0.71664
  24 9   H  1S          0.00000   0.00000   0.00000   0.87365
     Gross orbital populations:
                           1
   1 1   C  1S          0.94326
   2        1PX         0.98436
   3        1PY         1.04443
   4        1PZ         1.14751
   5 2   C  1S          1.24941
   6        1PX         1.40346
   7        1PY         1.52668
   8        1PZ         1.84106
   9 3   O  1S          1.94157
  10        1PX         0.28841
  11        1PY         0.27854
  12        1PZ         0.15759
  13 4   C  1S          1.22512
  14        1PX         1.56622
  15        1PY         1.35644
  16        1PZ         1.81736
  17 5   C  1S          0.92460
  18        1PX         1.07163
  19        1PY         0.99128
  20        1PZ         1.03397
  21 6   H  1S          0.88218
  22 7   H  1S          0.73463
  23 8   H  1S          0.71664
  24 9   H  1S          0.87365
          Condensed to atoms (all electrons):
               1          2          3          4          5          6
     1  C    4.119565   0.000000   0.000000   0.000000   0.000000   0.000000
     2  C    0.000000   6.020600   0.000000   0.000000   0.000000   0.000000
     3  O    0.000000   0.000000   2.666112   0.000000   0.000000   0.000000
     4  C    0.000000   0.000000   0.000000   5.965140   0.000000   0.000000
     5  C    0.000000   0.000000   0.000000   0.000000   4.021487   0.000000
     6  H    0.000000   0.000000   0.000000   0.000000   0.000000   0.882182
     7  H    0.000000   0.000000   0.000000   0.000000   0.000000   0.000000
     8  H    0.000000   0.000000   0.000000   0.000000   0.000000   0.000000
     9  H    0.000000   0.000000   0.000000   0.000000   0.000000   0.000000
               7          8          9
     1  C    0.000000   0.000000   0.000000
     2  C    0.000000   0.000000   0.000000
     3  O    0.000000   0.000000   0.000000
     4  C    0.000000   0.000000   0.000000
     5  C    0.000000   0.000000   0.000000
     6  H    0.000000   0.000000   0.000000
     7  H    0.734629   0.000000   0.000000
     8  H    0.000000   0.716637   0.000000
     9  H    0.000000   0.000000   0.873647
 Mulliken charges:
               1
     1  C   -0.119565
     2  C   -2.020600
     3  O    3.333888
     4  C   -1.965140
     5  C   -0.021487
     6  H    0.117818
     7  H    0.265371
     8  H    0.283363
     9  H    0.126353
 Sum of Mulliken charges =   0.00000
 Mulliken charges with hydrogens summed into heavy atoms:
               1
     1  C    0.006788
     2  C   -1.737238
     3  O    3.333888
     4  C   -1.699769
     5  C    0.096331
 Charge=              0.0000 electrons
 Dipole moment (field-independent basis, Debye):
    X=             -3.2536    Y=            -10.3562    Z=              0.8304  Tot=             10.8870
 N-N= 1.045511856786D+02 E-N=-1.701434044118D+02  KE=-1.493703972809D+01
 Orbital energies and kinetic energies (alpha):
                                 1                 2
   1         O                -1.784702         -1.296285
   2         O                -1.154905         -1.011232
   3         O                -0.940215         -0.863733
   4         O                -0.800770         -0.585700
   5         O                -0.746758         -0.680562
   6         O                -0.660145         -0.555894
   7         O                -0.644188         -0.539547
   8         O                -0.536251         -0.383818
   9         O                -0.487070         -0.240332
  10         O                -0.433863         -0.325007
  11         O                -0.423201         -0.426029
  12         O                -0.391120         -0.296168
  13         O                -0.276162         -0.264212
  14         V                 0.133338         -0.167929
  15         V                 0.171194         -0.218838
  16         V                 0.173690         -0.208920
  17         V                 0.246803         -0.173506
  18         V                 0.268411         -0.187244
  19         V                 0.289634         -0.093211
  20         V                 0.307399         -0.117984
  21         V                 0.328528         -0.103514
  22         V                 0.489885          0.628587
  23         V                 0.579901          0.665569
  24         V                 0.618169          0.717626
 Total kinetic energy from orbitals=-1.493703972809D+01
 Leave Link  601 at Tue Dec 15 17:05:27 2015, MaxMem=    33554432 cpu:         0.0
 (Enter /home/Applications/g09/g09/l701.exe)
 Compute integral first derivatives.
 ... and contract with generalized density number  6.
 Leave Link  701 at Tue Dec 15 17:05:27 2015, MaxMem=    33554432 cpu:         0.0
 (Enter /home/Applications/g09/g09/l702.exe)
 L702 exits ... SP integral derivatives will be done elsewhere.
 Leave Link  702 at Tue Dec 15 17:05:27 2015, MaxMem=    33554432 cpu:         0.0
 (Enter /home/Applications/g09/g09/l703.exe)
 Compute integral first derivatives, UseDBF=F ICtDFT=           0.
 Integral derivatives from FoFJK, PRISM(SPDF).
 Calling FoFJK, ICntrl=  10005127 FMM=F ISym2X=0 I1Cent= 0 IOpClX= 0 NMat=1 NMatS=1 NMatT=0.
 FoFJK:  IHMeth= 8 ICntrl=10005127 DoSepK=F KAlg= 0 I1Cent=   0 FoldK=F
 IRaf=         0 NMat=   1 IRICut=       1 DoRegI=T DoRafI=F ISym2E= 0.
 FoFCou: FMM=F IPFlag=           0 FMFlag=      100000 FMFlg1=         800
         NFxFlg=           0 DoJE=F BraDBF=F KetDBF=F FulRan=T
         wScrn=  0.000000 ICntrl=10005127 IOpCl=  0 I1Cent=           0 NGrid=           0
         NMat0=    1 NMatS0=      1 NMatT0=    0 NMatD0=    1 NMtDS0=    0 NMtDT0=    0
 Symmetry not used in FoFCou.
 Leave Link  703 at Tue Dec 15 17:05:27 2015, MaxMem=    33554432 cpu:         0.0
 (Enter /home/Applications/g09/g09/l716.exe)
 Dipole        =-1.43044673D+00-4.42361196D+00 3.22260722D-01
 ***** Axes restored to original set *****
 -------------------------------------------------------------------
 Center     Atomic                   Forces (Hartrees/Bohr)
 Number     Number              X              Y              Z
 -------------------------------------------------------------------
      1        6           0.200968002   -0.124539754   -0.002882814
      2        6          -0.231790795   -0.140782249   -0.005176538
      3        8           0.062678052    0.038282392    0.012521008
      4        6          -0.386621361    0.165194903    0.002172274
      5        6           0.283911249    0.051583120   -0.003505985
      6        1           0.067396083    0.047193574   -0.002868402
      7        1          -0.005652457    0.057399183    0.000113799
      8        1          -0.011066411   -0.075796786   -0.000228639
      9        1           0.020177638   -0.018534382   -0.000144703
 -------------------------------------------------------------------
 Cartesian Forces:  Max     0.386621361 RMS     0.123498748
 Z-matrix is all fixed cartesians, so copy forces.
 Force constants in Cartesian coordinates: 
                1             2             3             4             5 
      1  0.865124D+00
      2 -0.794348D-02  0.814922D+00
      3 -0.139611D-01  0.275244D-02  0.212112D+00
      4 -0.492380D+00 -0.101392D+00  0.138189D-01  0.951578D+00
      5 -0.746856D-01 -0.208708D+00  0.338135D-02 -0.359545D-01  0.975981D+00
      6  0.111289D-01  0.210857D-02 -0.101829D+00  0.492426D-02  0.433102D-02
      7 -0.868854D-02  0.306560D-01 -0.135453D-02 -0.325721D+00  0.215534D+00
      8 -0.614056D-02  0.217282D-01 -0.273499D-03  0.261919D+00 -0.462553D+00
      9  0.494788D-03 -0.107920D-02  0.757313D-02 -0.118059D-01  0.940219D-02
     10  0.114816D-01  0.000000D+00 -0.816417D-03  0.248121D-01  0.176533D-01
     11  0.374120D-01 -0.141795D-04 -0.357993D-02 -0.197757D-01 -0.140695D-01
     12  0.329091D-03 -0.189158D-03 -0.182869D-02  0.134128D-02  0.109535D-02
     13 -0.174742D+00  0.123674D-01  0.226742D-02  0.996629D-02 -0.353589D-01
     14 -0.140637D-01 -0.467536D+00 -0.288955D-02 -0.178249D-04  0.273813D-04
     15  0.203081D-02 -0.542754D-02 -0.938877D-01 -0.329704D-03  0.207040D-02
     16  0.180732D-01 -0.266373D-04  0.833101D-04  0.582311D-05 -0.215506D-05
     17 -0.238737D-01  0.265352D-04  0.715031D-03 -0.162586D-05  0.000000D+00
     18 -0.567336D-03 -0.219434D-03  0.210046D-01  0.154267D-03 -0.570924D-04
     19  0.199285D-04 -0.725917D-05  0.689600D-03  0.207312D-04  0.385262D-05
     20  0.364443D-04 -0.132752D-04  0.126110D-02 -0.850085D-05 -0.157977D-05
     21  0.272674D-03 -0.993242D-04  0.943550D-02 -0.194449D-03 -0.361357D-04
     22  0.735572D-02 -0.262259D-01 -0.187168D-02 -0.163596D+00 -0.103805D+00
     23 -0.363181D-02  0.128041D-01 -0.679718D-03 -0.985329D-01 -0.312768D+00
     24  0.197453D-03  0.166921D-02  0.262523D-01 -0.909975D-02 -0.180658D-01
     25 -0.226244D+00  0.925712D-01  0.114448D-02 -0.468506D-02  0.166149D-01
     26  0.928904D-01 -0.173209D+00 -0.687237D-03 -0.623559D-02  0.220922D-01
     27  0.747170D-04  0.484436D-03 -0.788319D-01  0.119110D-02 -0.212128D-02
                6             7             8             9            10 
      6  0.197831D+00
      7 -0.921731D-02  0.595146D+00
      8  0.848161D-02 -0.524173D-01  0.787791D+00
      9 -0.497947D-01  0.214209D-01  0.264234D-02  0.644817D-01
     10  0.172437D-02 -0.295066D+00 -0.210711D+00 -0.164003D-01  0.109845D+01
     11 -0.146805D-02 -0.162841D+00 -0.354185D+00 -0.128399D-01 -0.621977D-01
     12 -0.254417D-02 -0.117805D-01 -0.110854D-01 -0.537932D-01  0.455240D-02
     13 -0.769659D-03 -0.921637D-02  0.728667D-02  0.628169D-03 -0.681241D+00
     14  0.177991D-03 -0.298644D-01  0.236837D-01  0.120821D-02  0.159950D+00
     15 -0.734501D-03 -0.199139D-02  0.881994D-03  0.796676D-02  0.230444D-01
     16  0.204737D-03  0.456812D-05 -0.155348D-04  0.290399D-03 -0.568985D-02
     17 -0.571643D-04  0.000000D+00  0.109740D-05 -0.205143D-04  0.760195D-02
     18  0.542394D-02  0.145278D-03 -0.494046D-03  0.923544D-02  0.236696D-02
     19 -0.495785D-03  0.204426D-01 -0.163672D-01  0.302675D-02 -0.152760D+00
     20  0.203297D-03  0.103721D-01 -0.831961D-02  0.190783D-02  0.876963D-01
     21  0.465023D-02  0.145159D-02 -0.131935D-02  0.404819D-02 -0.143601D-01
     22 -0.770384D-02  0.230977D-01  0.164415D-01  0.221452D-02  0.185502D-04
     23 -0.138125D-01 -0.114411D-01 -0.814916D-02 -0.133011D-02  0.727309D-05
     24 -0.762567D-01  0.122413D-02  0.955140D-03  0.394152D-02 -0.268984D-03
     25  0.204352D-03  0.209980D-05  0.435316D-05  0.130687D-03  0.000000D+00
     26  0.352684D-04  0.175445D-05  0.363722D-05  0.109194D-03 -0.165350D-05
     27  0.232536D-01  0.101885D-03  0.211222D-03  0.634113D-02  0.157700D-03
               11            12            13            14            15 
     11  0.877840D+00
     12 -0.801954D-03  0.234445D+00
     13  0.134427D+00  0.169548D-01  0.110477D+01
     14 -0.251806D+00 -0.585633D-02 -0.218456D-01  0.890932D+00
     15 -0.908205D-02 -0.131471D+00 -0.259909D-01  0.642136D-02  0.256632D+00
     16 -0.186911D-01  0.119334D-02 -0.274684D+00 -0.121040D+00  0.529939D-02
     17  0.248361D-01 -0.294834D-03 -0.123562D+00 -0.208640D+00  0.351444D-02
     18  0.430710D-02  0.325909D-01  0.527670D-02  0.228459D-02 -0.100922D+00
     19  0.916632D-01 -0.121454D-01  0.816750D-02  0.269094D-01 -0.246954D-02
     20 -0.282604D+00  0.173635D-01  0.416868D-02  0.133639D-01  0.227551D-02
     21  0.235723D-01 -0.892888D-01  0.834108D-03 -0.106997D-02  0.361720D-01
     22  0.344731D-05 -0.443626D-03  0.927636D-05 -0.343307D-05  0.326151D-03
     23  0.135161D-05 -0.173935D-03 -0.159759D-04  0.591248D-05 -0.561702D-03
     24 -0.499871D-04  0.643273D-02  0.187137D-03 -0.692571D-04  0.657962D-02
     25  0.000000D+00 -0.134776D-05  0.169674D-01 -0.250347D-04  0.807949D-04
     26  0.000000D+00 -0.572170D-04  0.225328D-01 -0.311522D-04 -0.924075D-04
     27 -0.574437D-04  0.545698D-02  0.612227D-03 -0.207064D-03  0.196645D-01
               16            17            18            19            20 
     16  0.262323D+00
     17  0.139833D+00  0.183773D+00
     18 -0.632154D-02 -0.397148D-02  0.549398D-01
     19 -0.332130D-04  0.234623D-05 -0.105626D-02  0.124142D+00
     20 -0.607383D-04  0.429066D-05 -0.193163D-02 -0.102204D+00  0.277570D+00
     21 -0.454440D-03  0.321024D-04 -0.144523D-01  0.124507D-01 -0.210796D-01
     22  0.000000D+00  0.000000D+00  0.000000D+00  0.000000D+00  0.000000D+00
     23  0.000000D+00  0.000000D+00  0.000000D+00  0.000000D+00  0.000000D+00
     24  0.000000D+00  0.000000D+00  0.000000D+00  0.000000D+00  0.000000D+00
     25  0.000000D+00  0.000000D+00  0.193150D-05  0.000000D+00  0.000000D+00
     26  0.309519D-05  0.000000D+00  0.819984D-04  0.000000D+00  0.000000D+00
     27 -0.295198D-03  0.824220D-04 -0.782047D-02  0.000000D+00  0.000000D+00
               21            22            23            24            25 
     21  0.494352D-01
     22  0.000000D+00  0.133125D+00
     23  0.000000D+00  0.113597D+00  0.308091D+00
     24  0.000000D+00  0.796036D-02  0.157281D-01  0.427718D-01
     25  0.000000D+00 -0.993134D-05  0.171039D-04 -0.200350D-03  0.213969D+00
     26  0.000000D+00 -0.829799D-05  0.142909D-04 -0.167400D-03 -0.109183D+00
     27  0.000000D+00 -0.481883D-03  0.829906D-03 -0.972129D-02 -0.136055D-02
               26            27 
     26  0.151130D+00
     27  0.777801D-03  0.416574D-01
 Leave Link  716 at Tue Dec 15 17:05:27 2015, MaxMem=    33554432 cpu:         0.0
 (Enter /home/Applications/g09/g09/l103.exe)

 GradGradGradGradGradGradGradGradGradGradGradGradGradGradGradGradGradGrad
 Berny optimization.
 Search for a local minimum.
 Step number   1 out of a maximum of    2
 All quantities printed in internal units (Hartrees-Bohrs-Radians)
 Second derivative matrix not updated -- first step.
 ITU=  0
     Eigenvalues ---    0.02246   0.03464   0.06765   0.07471   0.07763
     Eigenvalues ---    0.09544   0.13274   0.15922   0.16606   0.24408
     Eigenvalues ---    0.26455   0.33416   0.42290   0.45959   0.63848
     Eigenvalues ---    0.81388   1.11254   1.39665   1.50657   1.66547
     Eigenvalues ---    1.92719
 Quadratic step=1.481D+00 exceeds max=3.000D-01 adjusted using Lamda=-1.103D+00.
 Angle between NR and scaled steps=  32.76 degrees.
 Angle between quadratic step and forces=  19.91 degrees.
 Linear search not attempted -- first point.
 TrRot= -0.002712 -0.000041  0.000628 -0.000042  0.000107 -0.000042
 MatCor failed.
 Variable       Old X    -DE/DX   Delta X   Delta X   Delta X     New X
                                 (Linear)    (Quad)   (Total)
    X1        1.74418   0.20097   0.00000   0.09015   0.08733   1.83150
    Y1       -1.27481  -0.12454   0.00000  -0.07316  -0.07335  -1.34817
    Z1       -0.00896  -0.00288   0.00000  -0.00053  -0.00010  -0.00906
    X2       -0.73905  -0.23179   0.00000  -0.09659  -0.09947  -0.83853
    Y2       -1.97581  -0.14078   0.00000  -0.08101  -0.08098  -2.05680
    Z2        0.05429  -0.00518   0.00000  -0.00489  -0.00417   0.05012
    X3       -2.17267   0.06268   0.00000   0.01813   0.01542  -2.15724
    Y3        0.04414   0.03828   0.00000   0.01510   0.01524   0.05938
    Z3        0.01004   0.01252   0.00000   0.00731   0.00817   0.01821
    X4       -0.56547  -0.38662   0.00000  -0.14312  -0.14564  -0.71111
    Y4        2.06687   0.16519   0.00000   0.08924   0.08925   2.15612
    Z4        0.09296   0.00217   0.00000  -0.00035   0.00035   0.09331
    X5        1.74793   0.28391   0.00000   0.09890   0.09631   1.84424
    Y5        1.35789   0.05158   0.00000   0.04237   0.04218   1.40007
    Z5        0.01865  -0.00351   0.00000   0.00043   0.00086   0.01951
    X6        3.36367   0.06740   0.00000   0.06888   0.06639   3.43006
    Y6        2.58220   0.04719   0.00000   0.04656   0.04624   2.62844
    Z6       -0.02944  -0.00287   0.00000  -0.00272  -0.00246  -0.03190
    X7       -1.49699  -0.00565   0.00000  -0.02396  -0.02635  -1.52334
    Y7        3.92812   0.05740   0.00000   0.06629   0.06637   3.99449
    Z7       -0.08772   0.00011   0.00000  -0.00290  -0.00211  -0.08983
    X8       -1.63542  -0.01107   0.00000  -0.02251  -0.02555  -1.66097
    Y8       -3.79731  -0.07580   0.00000  -0.07555  -0.07545  -3.87277
    Z8       -0.05678  -0.00023   0.00000  -0.00157  -0.00076  -0.05754
    X9        3.46529   0.02018   0.00000   0.03450   0.03157   3.49686
    Y9       -2.57047  -0.01853   0.00000  -0.02915  -0.02948  -2.59995
    Z9       -0.02212  -0.00014   0.00000  -0.00003   0.00022  -0.02190
         Item               Value     Threshold  Converged?
 Maximum Force            0.386621     0.000450     NO 
 RMS     Force            0.123499     0.000300     NO 
 Maximum Displacement     0.145642     0.001800     NO 
 RMS     Displacement     0.057772     0.001200     NO 
 Predicted change in Energy=-1.403410D-01
 GradGradGradGradGradGradGradGradGradGradGradGradGradGradGradGradGradGrad

 Leave Link  103 at Tue Dec 15 17:05:27 2015, MaxMem=    33554432 cpu:         0.0
 (Enter /home/Applications/g09/g09/l9999.exe)
 1\1\GINC-DUSTIN-DESKTOP\Force\RAM1-FC\STO-3G\C4H4O1\DUSTIN\15-Dec-2015
 \0\\#P AM1(Input,print) CIS(Singlets,NStates=15) pop(full) force\\AM1-
 Reparam Input\\0,1\C,0.922978,-0.674602,-0.004741\C,-0.391091,-1.04555
 5,0.028729\O,-1.149726,0.023358,0.005313\C,-0.299232,1.093741,0.049194
 \C,0.924964,0.718566,0.009867\H,1.779979,1.366444,-0.015579\H,-0.79217
 4,2.07867,-0.04642\H,-0.865427,-2.009451,-0.030046\H,1.833753,-1.36023
 6,-0.011705\\Version=ES64L-G09RevD.01\State=1-A\HF=2.7316132\RMSD=4.08
 3e-09\RMSF=1.235e-01\Dipole=-4.6500633,0.0844038,-0.2969175\PG=C01 [X(
 C4H4O1)]\\@


 I DO NOT DEFINE TIME, SPACE, PLACE, AND MOTION, AS BEING WELL KNOWN TO ALL.
                                            -- NEWTON (1642-1726), PRINCIPIA
 Job cpu time:       0 days  0 hours  0 minutes  0.7 seconds.
 File lengths (MBytes):  RWF=      7 Int=      0 D2E=      0 Chk=      2 Scr=      1
 Normal termination of Gaussian 09 at Tue Dec 15 17:05:27 2015.
