 Entering Gaussian System, Link 0=g09
 Input=FuranAM1_36.com
 Output=FuranAM1_36.log
 Initial command:
 /home/Applications/g09/g09/l1.exe "/home/Applications/g09/scratch/Gau-5796.inp" -scrdir="/home/Applications/g09/scratch/"
 Entering Link 1 = /home/Applications/g09/g09/l1.exe PID=      5798.
  
 Copyright (c) 1988,1990,1992,1993,1995,1998,2003,2009,2013,
            Gaussian, Inc.  All Rights Reserved.
  
 This is part of the Gaussian(R) 09 program.  It is based on
 the Gaussian(R) 03 system (copyright 2003, Gaussian, Inc.),
 the Gaussian(R) 98 system (copyright 1998, Gaussian, Inc.),
 the Gaussian(R) 94 system (copyright 1995, Gaussian, Inc.),
 the Gaussian 92(TM) system (copyright 1992, Gaussian, Inc.),
 the Gaussian 90(TM) system (copyright 1990, Gaussian, Inc.),
 the Gaussian 88(TM) system (copyright 1988, Gaussian, Inc.),
 the Gaussian 86(TM) system (copyright 1986, Carnegie Mellon
 University), and the Gaussian 82(TM) system (copyright 1983,
 Carnegie Mellon University). Gaussian is a federally registered
 trademark of Gaussian, Inc.
  
 This software contains proprietary and confidential information,
 including trade secrets, belonging to Gaussian, Inc.
  
 This software is provided under written license and may be
 used, copied, transmitted, or stored only in accord with that
 written license.
  
 The following legend is applicable only to US Government
 contracts under FAR:
  
                    RESTRICTED RIGHTS LEGEND
  
 Use, reproduction and disclosure by the US Government is
 subject to restrictions as set forth in subparagraphs (a)
 and (c) of the Commercial Computer Software - Restricted
 Rights clause in FAR 52.227-19.
  
 Gaussian, Inc.
 340 Quinnipiac St., Bldg. 40, Wallingford CT 06492
  
  
 ---------------------------------------------------------------
 Warning -- This program may not be used in any manner that
 competes with the business of Gaussian, Inc. or will provide
 assistance to any competitor of Gaussian, Inc.  The licensee
 of this program is prohibited from giving any competitor of
 Gaussian, Inc. access to this program.  By using this program,
 the user acknowledges that Gaussian, Inc. is engaged in the
 business of creating and licensing software in the field of
 computational chemistry and represents and warrants to the
 licensee that it is not a competitor of Gaussian, Inc. and that
 it will not use this program in any manner prohibited above.
 ---------------------------------------------------------------
  

 Cite this work as:
 Gaussian 09, Revision D.01,
 M. J. Frisch, G. W. Trucks, H. B. Schlegel, G. E. Scuseria, 
 M. A. Robb, J. R. Cheeseman, G. Scalmani, V. Barone, B. Mennucci, 
 G. A. Petersson, H. Nakatsuji, M. Caricato, X. Li, H. P. Hratchian, 
 A. F. Izmaylov, J. Bloino, G. Zheng, J. L. Sonnenberg, M. Hada, 
 M. Ehara, K. Toyota, R. Fukuda, J. Hasegawa, M. Ishida, T. Nakajima, 
 Y. Honda, O. Kitao, H. Nakai, T. Vreven, J. A. Montgomery, Jr., 
 J. E. Peralta, F. Ogliaro, M. Bearpark, J. J. Heyd, E. Brothers, 
 K. N. Kudin, V. N. Staroverov, T. Keith, R. Kobayashi, J. Normand, 
 K. Raghavachari, A. Rendell, J. C. Burant, S. S. Iyengar, J. Tomasi, 
 M. Cossi, N. Rega, J. M. Millam, M. Klene, J. E. Knox, J. B. Cross, 
 V. Bakken, C. Adamo, J. Jaramillo, R. Gomperts, R. E. Stratmann, 
 O. Yazyev, A. J. Austin, R. Cammi, C. Pomelli, J. W. Ochterski, 
 R. L. Martin, K. Morokuma, V. G. Zakrzewski, G. A. Voth, 
 P. Salvador, J. J. Dannenberg, S. Dapprich, A. D. Daniels, 
 O. Farkas, J. B. Foresman, J. V. Ortiz, J. Cioslowski, 
 and D. J. Fox, Gaussian, Inc., Wallingford CT, 2013.
 
 ******************************************
 Gaussian 09:  ES64L-G09RevD.01 24-Apr-2013
                15-Dec-2015 
 ******************************************
 ------------------------------------------------------------
 #P AM1(Input,print) CIS(Singlets,NStates=15) pop(full) force
 ------------------------------------------------------------
 1/10=7,30=1,38=1/1,3;
 2/12=2,17=6,18=5,40=1/2;
 3/5=2,16=1,25=1,41=700000,71=1,135=100,136=1/1,2,8,3;
 4/35=1/1;
 5/5=2,35=1,38=5/2;
 8/6=1,10=1,108=15/1;
 9/15=2,41=15,42=1,48=1,49=10/14;
 10/5=4/2;
 6/7=3,18=1/1;
 7/12=6,13=5,29=1/1,2,3,16;
 1/10=7,30=1/3;
 99//99;
 Leave Link    1 at Tue Dec 15 16:18:02 2015, MaxMem=           0 cpu:         0.0
 (Enter /home/Applications/g09/g09/l101.exe)
 -----------------
 AM1-Reparam Input
 -----------------
 Symbolic Z-matrix:
 Charge =  0 Multiplicity = 1
 6                     0.91646  -0.70687  -0.02031 
 6                    -0.36101  -1.09313  -0.04586 
 8                    -1.12943  -0.01127  -0.03027 
 6                    -0.33827   1.09628   0.02582 
 6                     0.96264   0.71853   0.04553 
 1                     1.76877   1.41362  -0.02829 
 1                    -0.86151   2.04402   0.02626 
 1                    -0.817    -2.02882   0.03866 
 1                     1.81681  -1.37794  -0.04298 
 
 NAtoms=      9 NQM=        9 NQMF=       0 NMMI=      0 NMMIF=      0
                NMic=       0 NMicF=      0.
                    Isotopes and Nuclear Properties:
 (Nuclear quadrupole moments (NQMom) in fm**2, nuclear magnetic moments (NMagM)
  in nuclear magnetons)

  Atom         1           2           3           4           5           6           7           8           9
 IAtWgt=          12          12          16          12          12           1           1           1           1
 AtmWgt=  12.0000000  12.0000000  15.9949146  12.0000000  12.0000000   1.0078250   1.0078250   1.0078250   1.0078250
 NucSpn=           0           0           0           0           0           1           1           1           1
 AtZEff=   0.0000000   0.0000000   0.0000000   0.0000000   0.0000000   0.0000000   0.0000000   0.0000000   0.0000000
 NQMom=    0.0000000   0.0000000   0.0000000   0.0000000   0.0000000   0.0000000   0.0000000   0.0000000   0.0000000
 NMagM=    0.0000000   0.0000000   0.0000000   0.0000000   0.0000000   2.7928460   2.7928460   2.7928460   2.7928460
 AtZNuc=   6.0000000   6.0000000   8.0000000   6.0000000   6.0000000   1.0000000   1.0000000   1.0000000   1.0000000
 Leave Link  101 at Tue Dec 15 16:18:02 2015, MaxMem=    33554432 cpu:         0.0
 (Enter /home/Applications/g09/g09/l103.exe)

 GradGradGradGradGradGradGradGradGradGradGradGradGradGradGradGradGradGrad
 Berny optimization.
 Initialization pass.
 Trust Radius=3.00D-01 FncErr=1.00D-07 GrdErr=1.00D-07
 Number of steps in this run=      2 maximum allowed number of steps=      2.
 GradGradGradGradGradGradGradGradGradGradGradGradGradGradGradGradGradGrad

 Leave Link  103 at Tue Dec 15 16:18:02 2015, MaxMem=    33554432 cpu:         0.0
 (Enter /home/Applications/g09/g09/l202.exe)
                          Input orientation:                          
 ---------------------------------------------------------------------
 Center     Atomic      Atomic             Coordinates (Angstroms)
 Number     Number       Type             X           Y           Z
 ---------------------------------------------------------------------
      1          6           0        0.916459   -0.706874   -0.020311
      2          6           0       -0.361014   -1.093135   -0.045857
      3          8           0       -1.129430   -0.011269   -0.030273
      4          6           0       -0.338267    1.096282    0.025821
      5          6           0        0.962636    0.718530    0.045529
      6          1           0        1.768767    1.413617   -0.028286
      7          1           0       -0.861512    2.044019    0.026260
      8          1           0       -0.816999   -2.028821    0.038663
      9          1           0        1.816811   -1.377944   -0.042975
 ---------------------------------------------------------------------
                    Distance matrix (angstroms):
                    1          2          3          4          5
     1  C    0.000000
     2  C    1.334836   0.000000
     3  O    2.160932   1.327080   0.000000
     4  C    2.197234   2.190708   1.362261   0.000000
     5  C    1.427671   2.245558   2.217001   1.354782   0.000000
     6  H    2.285383   3.289389   3.229528   2.131483   1.066978
     7  H    3.275784   3.177646   2.073448   1.082585   2.254952
     8  H    2.180802   1.044306   2.042763   3.161585   3.273391
     9  H    1.123157   2.196371   3.247814   3.281903   2.265536
                    6          7          8          9
     6  H    0.000000
     7  H    2.705319   0.000000
     8  H    4.305932   4.073102   0.000000
     9  H    2.792013   4.346037   2.714270   0.000000
 Stoichiometry    C4H4O
 Framework group  C1[X(C4H4O)]
 Deg. of freedom    21
 Full point group                 C1      NOp   1
 Largest Abelian subgroup         C1      NOp   1
 Largest concise Abelian subgroup C1      NOp   1
                         Standard orientation:                         
 ---------------------------------------------------------------------
 Center     Atomic      Atomic             Coordinates (Angstroms)
 Number     Number       Type             X           Y           Z
 ---------------------------------------------------------------------
      1          6           0        0.559627    1.015389   -0.006607
      2          6           0        1.137285   -0.187972   -0.011430
      3          8           0        0.185658   -1.112927   -0.013445
      4          6           0       -1.030920   -0.500435    0.009945
      5          6           0       -0.857226    0.843068    0.026187
      6          1           0       -1.665486    1.532788   -0.070999
      7          1           0       -1.887181   -1.162659   -0.006423
      8          1           0        2.129413   -0.494770    0.098703
      9          1           0        1.085399    2.007760   -0.022291
 ---------------------------------------------------------------------
 Rotational constants (GHZ):      9.7500858      9.3767772      4.7823651
 Leave Link  202 at Tue Dec 15 16:18:02 2015, MaxMem=    33554432 cpu:         0.0
 (Enter /home/Applications/g09/g09/l301.exe)

 Semi-emprical parameters in input format:
 Method=8 CoreType=1 PeptideFC=0.0114510000 RIJScale=0.5291770000
 ****
 H       
 PQN=1 NValence=1 F0ss=0.4721550000 ZetaOverlap=1.1880780000 U=-0.4188110000
 Beta=-0.2268830000 CoreKO=1.0589200000 KON=0,0,0,1.0589200000 KON=1,0,1,1.0589200000
 KON=0,1,1,1.0589200000 KON=2,1,1,1.0589200000 EISol=-0.4188110042 EHeat=0.0830298228
 Alpha=1.5252600000
 GCore=0.0085280000,1.4001430000,2.2676710000
 GCore=0.0003530000,1.4001430000,3.4015070000
 GCore=-0.0012730000,0.5600570000,3.9684250000
 ****
 C       
 PQN=2,2 NValence=4 F0ss=0.4494440000 F0sp=0.4215150000 F0pp=0.3768030000 F2pp=0.1898720000
 G1sp=0.2679030000
 ZetaOverlap=1.8086650000,1.6851160000
 U=-1.9120180000,-1.4557970000
 Beta=-0.5775440000,-0.2836780000 DDN=0,1,0.8236740000 DDN=1,1,0.7268010000
 CoreKO=1.1124280000 KON=0,0,0,1.1124280000 KON=1,0,1,0.8219700000 KON=0,1,1,1.1124280000
 KON=2,1,1,0.7783930000 EISol=-4.4398989268 EHeat=0.2723305520 Alpha=1.4014060000
 DipHyp=1.6472532266
 GCore=0.0007890000,1.4001430000,3.0235620000
 GCore=0.0031890000,1.4001430000,3.4959930000
 GCore=-0.0013930000,1.4001430000,3.8739390000
 GCore=-0.0000880000,1.4001430000,5.0077740000
 ****
 O       
 PQN=2,2 NValence=6 F0ss=0.5666750000 F0sp=0.5321300000 F0pp=0.4958710000 F2pp=0.2358080000
 G1sp=0.4343770000
 ZetaOverlap=3.1080320000,2.5240390000
 U=-3.5951870000,-2.8760900000
 Beta=-1.0757550000,-1.0757550000 DDN=0,1,0.4988900000 DDN=1,1,0.4852320000
 CoreKO=0.8822960000 KON=0,0,0,0.8822960000 KON=1,0,1,0.5019540000 KON=0,1,1,0.8822960000
 KON=2,1,1,0.5515580000 EISol=-11.6164441184 EHeat=0.0949133088 Alpha=2.3576810000
 DipHyp=0.9977225968
 GCore=0.0195120000,1.4001430000,1.6023330000
 GCore=0.0056550000,1.9602000000,2.7307880000
 ****
 
 Standard basis: VSTO-6G (5D, 7F)
 Ernie: Thresh=  0.10000D-02 Tol=  0.10000D-05 Strict=F.
  NNHCO=     0 NNPyr=     0 NCTC=     0               EPep=         0.000000000
    EC=        69.177899564  ECS=         1.880132929   EG=         0.367048279
   EHC=         0.000000000  EAt=       -31.051283842  AtH=         1.516354808
 EPDDG=         0.000000000  ECC=        71.425080773 EAtT=        32.567638650
 There are    24 symmetry adapted cartesian basis functions of A   symmetry.
 There are    24 symmetry adapted basis functions of A   symmetry.
    24 basis functions,   144 primitive gaussians,    24 cartesian basis functions
    13 alpha electrons       13 beta electrons
       nuclear repulsion energy       103.9927194230 Hartrees.
 IExCor=    0 DFT=F Ex=HF Corr=None ExCW=0 ScaHFX=  1.000000
 ScaDFX=  1.000000  1.000000  1.000000  1.000000 ScalE2=  1.000000  1.000000
 IRadAn=      0 IRanWt=     -1 IRanGd=            0 ICorTp=0 IEmpDi=  4
 Integral buffers will be    131072 words long.
 Regular integral format.
 Two-electron integral symmetry is turned off.
 Leave Link  301 at Tue Dec 15 16:18:02 2015, MaxMem=    33554432 cpu:         0.0
 (Enter /home/Applications/g09/g09/l302.exe)
 Do NDO integrals.
 NPDir=0 NMtPBC=     1 NCelOv=     1 NCel=       1 NClECP=     1 NCelD=      1
         NCelK=      1 NCelE2=     1 NClLst=     1 CellRange=     0.0.
 One-electron integrals computed using PRISM.
 NBasis=    24 RedAO= F EigKep=  0.00D+00  NBF=    24
 NBsUse=    24 1.00D-04 EigRej=  0.00D+00 NBFU=    24
 Leave Link  302 at Tue Dec 15 16:18:02 2015, MaxMem=    33554432 cpu:         0.0
 (Enter /home/Applications/g09/g09/l308.exe)
 Leave Link  308 at Tue Dec 15 16:18:02 2015, MaxMem=    33554432 cpu:         0.0
 (Enter /home/Applications/g09/g09/l303.exe)
 DipDrv:  MaxL=1.
 Leave Link  303 at Tue Dec 15 16:18:02 2015, MaxMem=    33554432 cpu:         0.0
 (Enter /home/Applications/g09/g09/l401.exe)
 Simple Huckel Guess.
 JPrj=0 DoOrth=F DoCkMO=F.
 Leave Link  401 at Tue Dec 15 16:18:02 2015, MaxMem=    33554432 cpu:         0.0
 (Enter /home/Applications/g09/g09/l502.exe)
 Closed shell SCF:
 Using DIIS extrapolation, IDIIS=  1040.
 Overlap will be assumed to be unity.
 Two-electron integral symmetry not used.
 Keep J ints in memory in canonical form, NReq=888082.
 IVT=       79475 IEndB=       79475 NGot=    33554432 MDV=    33473473
 LenX=    33473473 LenY=    33472456
 Requested convergence on RMS density matrix=1.00D-08 within 128 cycles.
 Requested convergence on MAX density matrix=1.00D-06.
 Requested convergence on             energy=1.00D-06.
 No special actions if energy rises.
 FoFCou: FMM=F IPFlag=           0 FMFlag=           0 FMFlg1=           0
         NFxFlg=           0 DoJE=F BraDBF=F KetDBF=F FulRan=T
         wScrn=  0.000000 ICntrl=     600 IOpCl=  2 I1Cent=           0 NGrid=           0
         NMat0=    1 NMatS0=     54 NMatT0=    0 NMatD0=    1 NMtDS0=    0 NMtDT0=    0
 Symmetry not used in FoFCou.

 Cycle   1  Pass 1  IDiag  1:
 E= 0.336800886477988    
 DIIS: error= 6.10D-02 at cycle   1 NSaved=   1.
 NSaved= 1 IEnMin= 1 EnMin= 0.336800886477988     IErMin= 1 ErrMin= 6.10D-02
 ErrMax= 6.10D-02  0.00D+00 EMaxC= 1.00D-01 BMatC= 1.12D-01 BMatP= 1.12D-01
 IDIUse=3 WtCom= 3.90D-01 WtEn= 6.10D-01
 Coeff-Com:  0.100D+01
 Coeff-En:   0.100D+01
 Coeff:      0.100D+01
 GapD=    2.000 DampG=2.000 DampE=0.500 DampFc=1.0000 IDamp=-1.
 RMSDP=1.94D-02 MaxDP=1.64D-01              OVMax= 0.00D+00

 Cycle   2  Pass 1  IDiag  1:
 E= 0.576742851219052E-01 Delta-E=       -0.279126601356 Rises=F Damp=F
 DIIS: error= 2.01D-02 at cycle   2 NSaved=   2.
 NSaved= 2 IEnMin= 2 EnMin= 0.576742851219052E-01 IErMin= 2 ErrMin= 2.01D-02
 ErrMax= 2.01D-02  0.00D+00 EMaxC= 1.00D-01 BMatC= 9.69D-03 BMatP= 1.12D-01
 IDIUse=3 WtCom= 7.99D-01 WtEn= 2.01D-01
 Coeff-Com: -0.356D+00 0.136D+01
 Coeff-En:   0.000D+00 0.100D+01
 Coeff:     -0.284D+00 0.128D+01
 RMSDP=8.24D-03 MaxDP=7.48D-02 DE=-2.79D-01 OVMax= 0.00D+00

 Cycle   3  Pass 1  IDiag  1:
 E= 0.264813136997191E-01 Delta-E=       -0.031192971422 Rises=F Damp=F
 DIIS: error= 4.00D-03 at cycle   3 NSaved=   3.
 NSaved= 3 IEnMin= 3 EnMin= 0.264813136997191E-01 IErMin= 3 ErrMin= 4.00D-03
 ErrMax= 4.00D-03  0.00D+00 EMaxC= 1.00D-01 BMatC= 4.11D-04 BMatP= 9.69D-03
 IDIUse=3 WtCom= 9.60D-01 WtEn= 4.00D-02
 Coeff-Com:  0.132D+00-0.603D+00 0.147D+01
 Coeff-En:   0.000D+00 0.000D+00 0.100D+01
 Coeff:      0.127D+00-0.579D+00 0.145D+01
 RMSDP=2.67D-03 MaxDP=3.17D-02 DE=-3.12D-02 OVMax= 0.00D+00

 Cycle   4  Pass 1  IDiag  3:
 E= 0.242168249947241E-01 Delta-E=       -0.002264488705 Rises=F Damp=F
 DIIS: error= 1.24D-03 at cycle   4 NSaved=   4.
 NSaved= 4 IEnMin= 4 EnMin= 0.242168249947241E-01 IErMin= 4 ErrMin= 1.24D-03
 ErrMax= 1.24D-03  0.00D+00 EMaxC= 1.00D-01 BMatC= 3.12D-05 BMatP= 4.11D-04
 IDIUse=3 WtCom= 9.88D-01 WtEn= 1.24D-02
 Coeff-Com:  0.119D-01-0.355D-01-0.253D+00 0.128D+01
 Coeff-En:   0.000D+00 0.000D+00 0.000D+00 0.100D+01
 Coeff:      0.118D-01-0.351D-01-0.249D+00 0.127D+01
 Gap=     0.384 Goal=   None    Shift=    0.000
 RMSDP=8.97D-04 MaxDP=1.13D-02 DE=-2.26D-03 OVMax= 1.18D-02

 Cycle   5  Pass 1  IDiag  3:
 E= 0.240218313244043E-01 Delta-E=       -0.000194993670 Rises=F Damp=F
 DIIS: error= 1.89D-04 at cycle   5 NSaved=   5.
 NSaved= 5 IEnMin= 5 EnMin= 0.240218313244043E-01 IErMin= 5 ErrMin= 1.89D-04
 ErrMax= 1.89D-04  0.00D+00 EMaxC= 1.00D-01 BMatC= 1.72D-06 BMatP= 3.12D-05
 IDIUse=3 WtCom= 9.98D-01 WtEn= 1.89D-03
 Coeff-Com: -0.698D-02 0.272D-01 0.426D-01-0.493D+00 0.143D+01
 Coeff-En:   0.000D+00 0.000D+00 0.000D+00 0.000D+00 0.100D+01
 Coeff:     -0.697D-02 0.272D-01 0.425D-01-0.492D+00 0.143D+01
 Gap=     0.384 Goal=   None    Shift=    0.000
 RMSDP=2.26D-04 MaxDP=1.98D-03 DE=-1.95D-04 OVMax= 2.14D-03

 Cycle   6  Pass 1  IDiag  3:
 E= 0.240100565450945E-01 Delta-E=       -0.000011774779 Rises=F Damp=F
 DIIS: error= 7.86D-05 at cycle   6 NSaved=   6.
 NSaved= 6 IEnMin= 6 EnMin= 0.240100565450945E-01 IErMin= 6 ErrMin= 7.86D-05
 ErrMax= 7.86D-05  0.00D+00 EMaxC= 1.00D-01 BMatC= 1.53D-07 BMatP= 1.72D-06
 IDIUse=1 WtCom= 1.00D+00 WtEn= 0.00D+00
 Coeff-Com:  0.298D-02-0.118D-01-0.593D-02 0.167D+00-0.696D+00 0.154D+01
 Coeff:      0.298D-02-0.118D-01-0.593D-02 0.167D+00-0.696D+00 0.154D+01
 Gap=     0.384 Goal=   None    Shift=    0.000
 RMSDP=8.06D-05 MaxDP=6.36D-04 DE=-1.18D-05 OVMax= 1.03D-03

 Cycle   7  Pass 1  IDiag  3:
 E= 0.240087605863266E-01 Delta-E=       -0.000001295959 Rises=F Damp=F
 DIIS: error= 3.00D-05 at cycle   7 NSaved=   7.
 NSaved= 7 IEnMin= 7 EnMin= 0.240087605863266E-01 IErMin= 7 ErrMin= 3.00D-05
 ErrMax= 3.00D-05  0.00D+00 EMaxC= 1.00D-01 BMatC= 1.36D-08 BMatP= 1.53D-07
 IDIUse=1 WtCom= 1.00D+00 WtEn= 0.00D+00
 Coeff-Com: -0.657D-03 0.220D-02 0.272D-02-0.432D-01 0.195D+00-0.686D+00
 Coeff-Com:  0.153D+01
 Coeff:     -0.657D-03 0.220D-02 0.272D-02-0.432D-01 0.195D+00-0.686D+00
 Coeff:      0.153D+01
 Gap=     0.384 Goal=   None    Shift=    0.000
 RMSDP=2.93D-05 MaxDP=2.67D-04 DE=-1.30D-06 OVMax= 3.58D-04

 Cycle   8  Pass 1  IDiag  3:
 E= 0.240086288068966E-01 Delta-E=       -0.000000131779 Rises=F Damp=F
 DIIS: error= 7.11D-06 at cycle   8 NSaved=   8.
 NSaved= 8 IEnMin= 8 EnMin= 0.240086288068966E-01 IErMin= 8 ErrMin= 7.11D-06
 ErrMax= 7.11D-06  0.00D+00 EMaxC= 1.00D-01 BMatC= 7.69D-10 BMatP= 1.36D-08
 IDIUse=1 WtCom= 1.00D+00 WtEn= 0.00D+00
 Coeff-Com:  0.850D-04-0.686D-04-0.187D-02 0.128D-01-0.548D-01 0.233D+00
 Coeff-Com: -0.737D+00 0.155D+01
 Coeff:      0.850D-04-0.686D-04-0.187D-02 0.128D-01-0.548D-01 0.233D+00
 Coeff:     -0.737D+00 0.155D+01
 Gap=     0.384 Goal=   None    Shift=    0.000
 RMSDP=7.23D-06 MaxDP=6.90D-05 DE=-1.32D-07 OVMax= 8.42D-05

 Cycle   9  Pass 1  IDiag  3:
 E= 0.240086217041267E-01 Delta-E=       -0.000000007103 Rises=F Damp=F
 DIIS: error= 1.02D-06 at cycle   9 NSaved=   9.
 NSaved= 9 IEnMin= 9 EnMin= 0.240086217041267E-01 IErMin= 9 ErrMin= 1.02D-06
 ErrMax= 1.02D-06  0.00D+00 EMaxC= 1.00D-01 BMatC= 2.88D-11 BMatP= 7.69D-10
 IDIUse=1 WtCom= 1.00D+00 WtEn= 0.00D+00
 Coeff-Com:  0.115D-04-0.153D-03 0.656D-03-0.271D-02 0.118D-01-0.660D-01
 Coeff-Com:  0.250D+00-0.665D+00 0.147D+01
 Coeff:      0.115D-04-0.153D-03 0.656D-03-0.271D-02 0.118D-01-0.660D-01
 Coeff:      0.250D+00-0.665D+00 0.147D+01
 Gap=     0.384 Goal=   None    Shift=    0.000
 RMSDP=1.10D-06 MaxDP=9.55D-06 DE=-7.10D-09 OVMax= 1.51D-05

 Cycle  10  Pass 1  IDiag  3:
 E= 0.240086215023041E-01 Delta-E=       -0.000000000202 Rises=F Damp=F
 DIIS: error= 1.88D-07 at cycle  10 NSaved=  10.
 NSaved=10 IEnMin=10 EnMin= 0.240086215023041E-01 IErMin=10 ErrMin= 1.88D-07
 ErrMax= 1.88D-07  0.00D+00 EMaxC= 1.00D-01 BMatC= 1.29D-12 BMatP= 2.88D-11
 IDIUse=1 WtCom= 1.00D+00 WtEn= 0.00D+00
 Coeff-Com: -0.107D-04 0.887D-04-0.295D-03 0.992D-03-0.401D-02 0.244D-01
 Coeff-Com: -0.967D-01 0.267D+00-0.706D+00 0.151D+01
 Coeff:     -0.107D-04 0.887D-04-0.295D-03 0.992D-03-0.401D-02 0.244D-01
 Coeff:     -0.967D-01 0.267D+00-0.706D+00 0.151D+01
 Gap=     0.384 Goal=   None    Shift=    0.000
 RMSDP=1.99D-07 MaxDP=1.21D-06 DE=-2.02D-10 OVMax= 2.32D-06

 Cycle  11  Pass 1  IDiag  3:
 E= 0.240086214943886E-01 Delta-E=       -0.000000000008 Rises=F Damp=F
 DIIS: error= 3.30D-08 at cycle  11 NSaved=  11.
 NSaved=11 IEnMin=11 EnMin= 0.240086214943886E-01 IErMin=11 ErrMin= 3.30D-08
 ErrMax= 3.30D-08  0.00D+00 EMaxC= 1.00D-01 BMatC= 5.18D-14 BMatP= 1.29D-12
 IDIUse=1 WtCom= 1.00D+00 WtEn= 0.00D+00
 Coeff-Com:  0.354D-05-0.298D-04 0.979D-04-0.333D-03 0.130D-02-0.794D-02
 Coeff-Com:  0.313D-01-0.850D-01 0.231D+00-0.621D+00 0.145D+01
 Coeff:      0.354D-05-0.298D-04 0.979D-04-0.333D-03 0.130D-02-0.794D-02
 Coeff:      0.313D-01-0.850D-01 0.231D+00-0.621D+00 0.145D+01
 Gap=     0.384 Goal=   None    Shift=    0.000
 RMSDP=3.76D-08 MaxDP=1.71D-07 DE=-7.92D-12 OVMax= 2.61D-07

 Cycle  12  Pass 1  IDiag  3:
 E= 0.240086214942608E-01 Delta-E=        0.000000000000 Rises=F Damp=F
 DIIS: error= 4.97D-09 at cycle  12 NSaved=  12.
 NSaved=12 IEnMin=12 EnMin= 0.240086214942608E-01 IErMin=12 ErrMin= 4.97D-09
 ErrMax= 4.97D-09  0.00D+00 EMaxC= 1.00D-01 BMatC= 2.35D-15 BMatP= 5.18D-14
 IDIUse=1 WtCom= 1.00D+00 WtEn= 0.00D+00
 Coeff-Com: -0.944D-06 0.808D-05-0.263D-04 0.916D-04-0.343D-03 0.211D-02
 Coeff-Com: -0.823D-02 0.218D-01-0.600D-01 0.176D+00-0.557D+00 0.143D+01
 Coeff:     -0.944D-06 0.808D-05-0.263D-04 0.916D-04-0.343D-03 0.211D-02
 Coeff:     -0.823D-02 0.218D-01-0.600D-01 0.176D+00-0.557D+00 0.143D+01
 Gap=     0.384 Goal=   None    Shift=    0.000
 RMSDP=8.70D-09 MaxDP=3.81D-08 DE=-1.28D-13 OVMax= 8.36D-08

 Cycle  13  Pass 2  IDiag  1:
 SCF Done:  E(RAM1) =  0.240086214943E-01 A.U. after   13 cycles
            NFock= 12  Conv=0.87D-08     -V/T= 1.0014
 KE=-1.661553519786D+01 PE=-1.719157294756D+02 EE= 8.456255387194D+01
 Leave Link  502 at Tue Dec 15 16:18:02 2015, MaxMem=    33554432 cpu:         0.0
 (Enter /home/Applications/g09/g09/l801.exe)
 Range of M.O.s used for correlation:     1    24
 NBasis=    24 NAE=    13 NBE=    13 NFC=     0 NFV=     0
 NROrb=     24 NOA=    13 NOB=    13 NVA=    11 NVB=    11
 Leave Link  801 at Tue Dec 15 16:18:02 2015, MaxMem=    33554432 cpu:         0.0
 (Enter /home/Applications/g09/g09/l914.exe)
 RHF ground state
 MDV=    33554432 DFT=F DoStab=F Mixed=F DoRPA=F DoScal=F NonHer=F
 Making orbital integer symmetry assigments:
 Orbital symmetries:
       Occupied  (A) (A) (A) (A) (A) (A) (A) (A) (A) (A) (A) (A)
                 (A)
       Virtual   (A) (A) (A) (A) (A) (A) (A) (A) (A) (A) (A)
    60 initial guesses have been made.
 Convergence on wavefunction:    0.000001000000000
 Davidson Disk Diagonalization:  ConvIn= 1.00D-06 SkipCon=T Conv= 1.00D-06.
 Max sub-space:   240 roots to seek:    60 dimension of matrix:          286
 Iteration     1 Dimension    60 NMult     0 NNew     60
 CISAX will form    60 AO SS matrices at one time.
 NMat=    60 NSing=    60 JSym2X= 0.
 FoFJK:  IHMeth= 8 ICntrl=       0 DoSepK=F KAlg= 0 I1Cent=   0 FoldK=F
 IRaf=         1 NMat= 120 IRICut=       1 DoRegI=T DoRafI=F ISym2E= 0.
 FoFCou: FMM=F IPFlag=           0 FMFlag=      100000 FMFlg1=           0
         NFxFlg=           0 DoJE=F BraDBF=F KetDBF=F FulRan=T
         wScrn=  0.000000 ICntrl=       0 IOpCl=  0 I1Cent=           0 NGrid=           0
         NMat0=  120 NMatS0=     60 NMatT0=    0 NMatD0=  120 NMtDS0=    0 NMtDT0=    0
 Symmetry not used in FoFCou.
 New state      2 was old state      4
 New state      3 was old state      2
 New state      4 was old state      6
 New state      5 was old state      8
 New state      6 was old state      9
 New state      7 was old state      3
 New state      8 was old state      5
 New state      9 was old state      7
 New state     10 was old state     12
 New state     11 was old state     14
 New state     12 was old state     10
 New state     13 was old state     16
 New state     14 was old state     18
 Excitation Energies [eV] at current iteration:
 Root      1 :     4.668219991473466
 Root      2 :     5.022552944973246
 Root      3 :     5.178667836692163
 Root      4 :     6.024518297251311
 Root      5 :     6.219737748834823
 Root      6 :     6.272363240181988
 Root      7 :     6.412025396154519
 Root      8 :     6.505499271255896
 Root      9 :     6.686272441147248
 Root     10 :     7.105087130558572
 Root     11 :     7.178292824494703
 Root     12 :     7.520196575890227
 Root     13 :     7.561032979703696
 Root     14 :     7.616323462436992
 Root     15 :     7.871429475360639
 Root     16 :     7.907017880778659
 Root     17 :     8.016036295302266
 Root     18 :     8.127182807121599
 Root     19 :     8.323340181435130
 Root     20 :     8.484952737558228
 Root     21 :     8.511501036512211
 Root     22 :     8.862530673566448
 Root     23 :     8.883176552636975
 Root     24 :     9.137258109151777
 Root     25 :     9.369121616851364
 Root     26 :     9.477564932700261
 Root     27 :     9.613398331235064
 Root     28 :     9.742873972255842
 Root     29 :     9.783968706918039
 Root     30 :     9.887404980784716
 Root     31 :     9.951313463549885
 Root     32 :     9.984812818891987
 Root     33 :    10.078828061249690
 Root     34 :    10.088963856653120
 Root     35 :    10.171810132506620
 Root     36 :    10.384266629941830
 Root     37 :    10.552160262335130
 Root     38 :    10.671022349191090
 Root     39 :    10.879489270413170
 Root     40 :    11.020943707406460
 Root     41 :    11.205483535710240
 Root     42 :    11.222133412920470
 Root     43 :    11.357492741605190
 Root     44 :    11.357781985507840
 Root     45 :    11.426280812781120
 Root     46 :    11.624309195330750
 Root     47 :    11.724260938087110
 Root     48 :    11.832455036321400
 Root     49 :    11.959861910583330
 Root     50 :    12.157964088119200
 Root     51 :    12.258434072994880
 Root     52 :    12.438696154058230
 Root     53 :    12.663590056651590
 Root     54 :    12.739560604809440
 Root     55 :    13.227656208747150
 Root     56 :    13.270021737844320
 Root     57 :    13.393339115939540
 Root     58 :    13.453300339895930
 Root     59 :    13.765889375091080
 Root     60 :    13.928721505548060
 Iteration     2 Dimension   120 NMult    60 NNew     60
 CISAX will form    60 AO SS matrices at one time.
 NMat=    60 NSing=    60 JSym2X= 0.
 Root      1 not converged, maximum delta is    0.048274706216621
 Root      2 not converged, maximum delta is    0.034936954813544
 Root      3 not converged, maximum delta is    0.025664640179249
 Root      4 not converged, maximum delta is    0.047869975538257
 Root      5 not converged, maximum delta is    0.054397172305855
 Root      6 not converged, maximum delta is    0.057755360760904
 Root      7 not converged, maximum delta is    0.051406690550983
 Root      8 not converged, maximum delta is    0.048909325121349
 Root      9 not converged, maximum delta is    0.034371379840896
 Root     10 not converged, maximum delta is    0.111103413054437
 Root     11 not converged, maximum delta is    0.162683845036439
 Root     12 not converged, maximum delta is    0.050203973481798
 Root     13 not converged, maximum delta is    0.082460612123200
 Root     14 not converged, maximum delta is    0.057808058418503
 Root     15 not converged, maximum delta is    0.184506417111214
 Excitation Energies [eV] at current iteration:
 Root      1 :     4.585852552975424   Change is   -0.082367438498043
 Root      2 :     4.991944182952924   Change is   -0.030608762020322
 Root      3 :     5.161513623686469   Change is   -0.017154213005694
 Root      4 :     5.953916072344841   Change is   -0.070602224906470
 Root      5 :     6.106983807493886   Change is   -0.112753941340937
 Root      6 :     6.152251254589384   Change is   -0.120111985592604
 Root      7 :     6.278135069227313   Change is   -0.133890326927206
 Root      8 :     6.442484068337013   Change is   -0.063015202918884
 Root      9 :     6.629298518408203   Change is   -0.056973922739045
 Root     10 :     7.055043766510670   Change is   -0.050043364047902
 Root     11 :     7.085026113781726   Change is   -0.093266710712977
 Root     12 :     7.381002463473434   Change is   -0.139194112416794
 Root     13 :     7.466889601735635   Change is   -0.094143377968061
 Root     14 :     7.558974667885407   Change is   -0.057348794551586
 Root     15 :     7.759906263917688   Change is   -0.111523211442951
 Root     16 :     7.848558961926116   Change is   -0.058458918852542
 Root     17 :     7.941883423084946   Change is   -0.074152872217321
 Root     18 :     8.036533046045287   Change is   -0.090649761076312
 Root     19 :     8.152756829459141   Change is   -0.170583351975987
 Root     20 :     8.211241048652372   Change is   -0.300259987859837
 Root     21 :     8.355414840336584   Change is   -0.129537897221643
 Root     22 :     8.742066127986746   Change is   -0.120464545579702
 Root     23 :     8.835199645283117   Change is   -0.047976907353859
 Root     24 :     9.024039305279782   Change is   -0.113218803871995
 Root     25 :     9.116577192788908   Change is   -0.360987739911354
 Root     26 :     9.278959847609590   Change is   -0.463914124646250
 Root     27 :     9.306837293415612   Change is   -0.062284323435754
 Root     28 :     9.431621851411752   Change is   -0.455783129372963
 Root     29 :     9.553931040363187   Change is   -0.059467290871877
 Root     30 :     9.641155851714448   Change is   -0.437672209535245
 Root     31 :     9.655973592765648   Change is   -0.432990263887472
 Root     32 :     9.696293465939743   Change is   -0.475516666566876
 Root     33 :     9.730769828990208   Change is   -0.053198877927830
 Root     34 :     9.822780531586449   Change is   -0.128532931963436
 Root     35 :     9.873012322459136   Change is   -0.111800496432851
 Root     36 :     9.902037332646447   Change is   -0.482229297295384
 Root     37 :    10.165111281066930   Change is   -0.387048981268202
 Root     38 :    10.230302797628350   Change is   -0.440719551562749
 Root     39 :    10.351468024563790   Change is   -0.528021245849379
 Root     40 :    10.769560491909080   Change is   -0.251383215497383
 Root     41 :    10.792582527090300   Change is   -0.429550885830167
 Root     42 :    10.914446410260500   Change is   -0.291037125449742
 Root     43 :    10.945127143858600   Change is   -0.412654841649236
 Root     44 :    11.088587643386190   Change is   -0.337693169394926
 Root     45 :    11.112658087347440   Change is   -0.244834654257748
 Root     46 :    11.282122191754360   Change is   -0.342187003576388
 Root     47 :    11.403715390807880   Change is   -0.320545547279237
 Root     48 :    11.595526478185740   Change is   -0.236928558135659
 Root     49 :    11.718892645479930   Change is   -0.240969265103407
 Root     50 :    11.843838977328080   Change is   -0.314125110791125
 Root     51 :    11.939808149625120   Change is   -0.318625923369763
 Root     52 :    12.181970707203990   Change is   -0.256725446854249
 Root     53 :    12.309131407689120   Change is   -0.354458648962468
 Root     54 :    12.337628250199980   Change is   -0.401932354609458
 Root     55 :    12.960037172531570   Change is   -0.309984565312745
 Root     56 :    13.033232783993320   Change is   -0.194423424753824
 Root     57 :    13.148852717105330   Change is   -0.244486398834205
 Root     58 :    13.201028516556000
 Root     59 :    13.217891017394260   Change is   -0.235409322501667
 Root     60 :    13.275230606536670   Change is   -0.490658768554415
 Iteration     3 Dimension   135 NMult   120 NNew     15
 CISAX will form    15 AO SS matrices at one time.
 NMat=    15 NSing=    15 JSym2X= 0.
 Root      1 not converged, maximum delta is    0.001545728098377
 Root      2 not converged, maximum delta is    0.000169938907216
 Root      3 not converged, maximum delta is    0.000354970203700
 Root      4 not converged, maximum delta is    0.000320693844048
 Root      5 not converged, maximum delta is    0.000254261047240
 Root      6 not converged, maximum delta is    0.000310780683978
 Root      7 not converged, maximum delta is    0.002210014127592
 Root      8 not converged, maximum delta is    0.002562370810992
 Root      9 not converged, maximum delta is    0.000780381339816
 Root     10 not converged, maximum delta is    0.000208394908694
 Root     11 not converged, maximum delta is    0.000278851932547
 Root     12 not converged, maximum delta is    0.001154028126005
 Root     13 not converged, maximum delta is    0.000232044032934
 Root     14 not converged, maximum delta is    0.000220661675402
 Root     15 not converged, maximum delta is    0.000278659499024
 Excitation Energies [eV] at current iteration:
 Root      1 :     4.585391399255485   Change is   -0.000461153719938
 Root      2 :     4.991937395025349   Change is   -0.000006787927576
 Root      3 :     5.161470736617329   Change is   -0.000042887069140
 Root      4 :     5.953897522484061   Change is   -0.000018549860780
 Root      5 :     6.106969239546242   Change is   -0.000014567947643
 Root      6 :     6.152233703608064   Change is   -0.000017550981320
 Root      7 :     6.277233883947985   Change is   -0.000901185279328
 Root      8 :     6.441911510280470   Change is   -0.000572558056542
 Root      9 :     6.629225116573854   Change is   -0.000073401834350
 Root     10 :     7.055032080936194   Change is   -0.000011685574476
 Root     11 :     7.085012801665002   Change is   -0.000013312116725
 Root     12 :     7.380844448456425   Change is   -0.000158015017009
 Root     13 :     7.466876265852789   Change is   -0.000013335882846
 Root     14 :     7.558967351031280   Change is   -0.000007316854126
 Root     15 :     7.759885822703257   Change is   -0.000020441214431
 Iteration     4 Dimension   143 NMult   135 NNew      8
 CISAX will form     8 AO SS matrices at one time.
 NMat=     8 NSing=     8 JSym2X= 0.
 Root      1 not converged, maximum delta is    0.000039313635545
 Root      2 not converged, maximum delta is    0.000006907425744
 Root      3 not converged, maximum delta is    0.000017318718801
 Root      4 not converged, maximum delta is    0.000011862872879
 Root      5 not converged, maximum delta is    0.000013128225656
 Root      6 not converged, maximum delta is    0.000009944278154
 Root      7 not converged, maximum delta is    0.000087625732807
 Root      8 not converged, maximum delta is    0.000073012640380
 Root      9 not converged, maximum delta is    0.000027173570268
 Root     10 not converged, maximum delta is    0.000006867538026
 Root     11 not converged, maximum delta is    0.000005347102349
 Root     12 not converged, maximum delta is    0.000052758862050
 Root     13 not converged, maximum delta is    0.000013873684940
 Root     14 not converged, maximum delta is    0.000006605175190
 Root     15 not converged, maximum delta is    0.000017663300403
 Excitation Energies [eV] at current iteration:
 Root      1 :     4.585390587253440   Change is   -0.000000812002045
 Root      2 :     4.991937376658981   Change is   -0.000000018366368
 Root      3 :     5.161470617696925   Change is   -0.000000118920404
 Root      4 :     5.953897473491748   Change is   -0.000000048992313
 Root      5 :     6.106969198237720   Change is   -0.000000041308523
 Root      6 :     6.152233662853122   Change is   -0.000000040754942
 Root      7 :     6.277231707939290   Change is   -0.000002176008695
 Root      8 :     6.441909668621913   Change is   -0.000001841658558
 Root      9 :     6.629224887016030   Change is   -0.000000229557824
 Root     10 :     7.055032064653846   Change is   -0.000000016282349
 Root     11 :     7.085012791080367   Change is   -0.000000010584635
 Root     12 :     7.380843745266094   Change is   -0.000000703190331
 Root     13 :     7.466876212493482   Change is   -0.000000053359307
 Root     14 :     7.558967336486168   Change is   -0.000000014545113
 Root     15 :     7.759885701800639   Change is   -0.000000120902619
 Convergence achieved on expansion vectors.
 ***********************************************************************
 Excited states from <AA,BB:AA,BB> singles matrix:
 ***********************************************************************
 
 1PDM for each excited state written to RWF  633
 Ground to excited state transition densities written to RWF  633
 Ground to excited state transition electric dipole moments (Au):
       state          X           Y           Z        Dip. S.      Osc.
         1         0.8502      0.1464     -0.0056      0.7443      0.0836
         2        -0.0433     -0.1082      0.0026      0.0136      0.0017
         3        -0.0608      0.1927      0.0119      0.0410      0.0052
         4         0.1290     -0.0161      0.0909      0.0252      0.0037
         5        -0.0096     -0.0977      0.0763      0.0155      0.0023
         6         0.0422     -0.1520     -0.0165      0.0252      0.0038
         7        -0.2979      1.5295      0.0495      2.4304      0.3738
         8        -0.8744     -0.3094      0.0441      0.8623      0.1361
         9         0.2184     -0.2173     -0.0741      0.1004      0.0163
        10        -0.0345     -0.0213     -0.0887      0.0095      0.0016
        11         0.0098      0.0833      0.0591      0.0105      0.0018
        12        -0.0235      0.0662      0.0150      0.0052      0.0009
        13        -0.0316      0.0158     -0.0318      0.0023      0.0004
        14         0.0108     -0.0336      0.0986      0.0110      0.0020
        15        -0.0060     -0.0230     -0.0446      0.0026      0.0005
 Ground to excited state transition velocity dipole moments (Au):
       state          X           Y           Z        Dip. S.      Osc.
         1        -0.0456     -0.0105     -0.0105      0.0023      0.0091
         2         0.0037      0.0038     -0.0039      0.0000      0.0002
         3         0.0033     -0.0072      0.0079      0.0001      0.0004
         4        -0.0205      0.0059     -0.0824      0.0072      0.0221
         5        -0.0015      0.0263     -0.0206      0.0011      0.0033
         6        -0.0119      0.0360      0.0057      0.0015      0.0043
         7         0.0622     -0.3174      0.0205      0.1050      0.3035
         8         0.1530      0.0613      0.0147      0.0274      0.0771
         9        -0.0366      0.0501      0.1829      0.0373      0.1021
        10         0.0024      0.0070     -0.0086      0.0001      0.0003
        11        -0.0017     -0.0234      0.0000      0.0006      0.0014
        12         0.0056     -0.0158      0.0293      0.0011      0.0028
        13         0.0027     -0.0044      0.0215      0.0005      0.0012
        14         0.0016      0.0106      0.0355      0.0014      0.0033
        15        -0.0048      0.0167      0.0389      0.0018      0.0042
 Ground to excited state transition magnetic dipole moments (Au):
       state          X           Y           Z
         1        -0.0379     -0.0632      0.6472
         2         0.0766     -0.6031      0.0000
         3         0.0203     -0.1640     -0.0516
         4         0.0908     -0.0393      0.0199
         5         0.2967      0.0352     -0.0047
         6        -0.1522     -0.1215      0.0014
         7        -0.0128     -0.0441     -0.0116
         8         0.0219     -0.0241     -0.0642
         9         0.0843      0.0075      0.0476
        10        -1.6196      0.2558     -0.0740
        11         0.7204      0.7592     -0.0019
        12         0.1484     -0.4853      0.0399
        13         0.2245     -0.3076     -0.0138
        14         0.3972      0.3955     -0.0054
        15         0.3193     -0.1610     -0.0411
 Ground to excited state transition velocity quadrupole moments (Au):
       state          XX          YY          ZZ          XY          XZ          YZ
         1        -0.1503      0.1192      0.0071      0.4813      0.0010      0.0067
         2        -0.0126      0.0244     -0.0276     -0.0198     -0.1575     -0.0233
         3         0.1048     -0.1486      0.0682     -0.0489     -0.0545     -0.0179
         4        -0.0005     -0.0324      0.0195     -0.0538     -0.0162      0.1342
         5        -0.0108      0.0095      0.0163     -0.0124      0.0437      0.2766
         6        -0.0600      0.0270     -0.0104     -0.0294      0.1341     -0.1618
         7         0.4181     -0.2205     -0.0386      0.1703      0.0452      0.0099
         8        -0.2019      0.1511      0.0140      0.4693     -0.0210     -0.0103
         9        -0.0718      0.0337      0.0122     -0.0724      0.0228     -0.0743
        10         0.0173      0.0142     -0.0023     -0.0528     -0.1520     -0.0123
        11         0.0174      0.0018     -0.0049      0.0035     -0.2649     -0.1476
        12         0.0357      0.0001     -0.0089      0.0126     -0.0841     -0.0668
        13         0.0275      0.0120      0.0281     -0.0013     -0.2081      0.1511
        14         0.0165      0.0059     -0.0299     -0.0212     -0.0513      0.2798
        15        -0.0178      0.0112      0.0033     -0.0297     -0.0318      0.2138
 <0|del|b> * <b|rxdel|0> + <0|del|b> * <b|delr+rdel|0>
 Rotatory Strengths (R) in cgs (10**-40 erg-esu-cm/Gauss)
       state          XX          YY          ZZ    R(velocity)    E-M Angle
         1       -23.5009     -0.6809      5.6390     -6.1809       98.13
         2        -3.1013      0.2271     -4.8445     -2.5729      120.16
         3        -0.0181     -0.0247      3.1581      1.0385       64.43
         4         4.2997    -17.2682      0.9076     -4.0203      115.76
         5         0.2027     -1.5758      3.2223      0.6164       86.63
         6       -14.6540      6.1124      0.5334     -2.6694      110.03
         7        48.3969     -5.9761     -2.6910     13.2432       32.33
         8         8.5839     -9.0332      3.2232      0.9246       85.52
         9        -7.6836     31.3332     -6.2211      5.8095       71.33
        10         5.4014     -5.0009     -4.1739     -1.2578       94.26
        11       -32.5941     -1.2923    -17.6891    -17.1918      140.56
        12        10.2727      1.6369     13.3004      8.4033       55.78
        13         0.1428      0.9493      3.1561      1.4161       78.73
        14         4.8305      2.1057      4.8894      3.9419       77.10
        15        -6.0897     -3.7252     -4.6144     -4.8098      112.29
 1/2[<0|r|b>*<b|rxdel|0> + (<0|rxdel|b>*<b|r|0>)*]
 Rotatory Strengths (R) in cgs (10**-40 erg-esu-cm/Gauss)
       state          XX          YY          ZZ     R(length)
         1        22.7780      6.5444      2.5482     10.6235
         2         2.3476    -46.1402      0.0000    -14.5975
         3         0.8734     22.3496      0.4338      7.8856
         4        -8.2789     -0.4459     -1.2798     -3.3348
         5         2.0047      2.4295      0.2545      1.5629
         6         4.5410    -13.0597      0.0161     -2.8342
         7        -2.6923     47.6797      0.4050     15.1308
         8        13.5163     -5.2680      1.9987      3.4157
         9       -13.0197      1.1521      2.4949     -3.1242
        10       -39.5454      3.8501     -4.6468    -13.4474
        11        -4.9776    -44.7389      0.0787    -16.5459
        12         2.4611     22.7119     -0.4234      8.2499
        13         5.0180      3.4359     -0.3101      2.7146
        14        -3.0326      9.3986      0.3781      2.2481
        15         1.3611     -2.6201     -1.2965     -0.8519
  1/2[<0|del|b>*<b|r|0> + (<0|r|b>*<b|del|0>)*] (Au)
       state          X           Y           Z        Dip. S.   Osc.(frdel)
         1        -0.0388     -0.0015      0.0001      0.0403      0.0268
         2        -0.0002     -0.0004      0.0000      0.0006      0.0004
         3        -0.0002     -0.0014      0.0001      0.0015      0.0010
         4        -0.0026     -0.0001     -0.0075      0.0102      0.0068
         5         0.0000     -0.0026     -0.0016      0.0041      0.0028
         6        -0.0005     -0.0055     -0.0001      0.0061      0.0040
         7        -0.0185     -0.4854      0.0010      0.5029      0.3353
         8        -0.1338     -0.0190      0.0006      0.1521      0.1014
         9        -0.0080     -0.0109     -0.0136      0.0324      0.0216
        10        -0.0001     -0.0001      0.0008     -0.0005     -0.0004
        11         0.0000     -0.0020      0.0000      0.0020      0.0013
        12        -0.0001     -0.0010      0.0004      0.0007      0.0005
        13        -0.0001     -0.0001     -0.0007      0.0008      0.0006
        14         0.0000     -0.0004      0.0035     -0.0032     -0.0021
        15         0.0000     -0.0004     -0.0017      0.0021      0.0014

 Excitation energies and oscillator strengths:
 
 Excited State   1:      Singlet-A      4.5854 eV  270.39 nm  f=0.0836  <S**2>=0.000
      12 -> 15         0.22104
      13 -> 14         0.66310
 This state for optimization and/or second-order correction.
 Total Energy, E(CIS) =  0.192518632259    
 Copying the excited state density for this state as the 1-particle RhoCI density.
 
 Excited State   2:      Singlet-A      4.9919 eV  248.37 nm  f=0.0017  <S**2>=0.000
      12 -> 14         0.12647
      13 -> 15        -0.23504
      13 -> 16         0.63551
 
 Excited State   3:      Singlet-A      5.1615 eV  240.21 nm  f=0.0052  <S**2>=0.000
      12 -> 14        -0.40891
      13 -> 15         0.50774
      13 -> 16         0.25920
 
 Excited State   4:      Singlet-A      5.9539 eV  208.24 nm  f=0.0037  <S**2>=0.000
       7 -> 16        -0.16621
      12 -> 15        -0.14608
      12 -> 16         0.63884
      12 -> 22         0.14063
 
 Excited State   5:      Singlet-A      6.1070 eV  203.02 nm  f=0.0023  <S**2>=0.000
      12 -> 18         0.17936
      12 -> 20        -0.13068
      12 -> 22         0.13771
      13 -> 17         0.28146
      13 -> 18         0.38407
      13 -> 19        -0.11106
      13 -> 20        -0.21184
      13 -> 22         0.15966
      13 -> 23         0.24687
 
 Excited State   6:      Singlet-A      6.1522 eV  201.53 nm  f=0.0038  <S**2>=0.000
      12 -> 17         0.10116
      12 -> 19        -0.19592
      12 -> 23         0.15083
      13 -> 17        -0.10132
      13 -> 18         0.13980
      13 -> 19         0.44424
      13 -> 21        -0.16124
      13 -> 22         0.30011
      13 -> 23        -0.18321
 
 Excited State   7:      Singlet-A      6.2772 eV  197.51 nm  f=0.3738  <S**2>=0.000
      12 -> 14         0.51269
      13 -> 15         0.39920
 
 Excited State   8:      Singlet-A      6.4419 eV  192.46 nm  f=0.1361  <S**2>=0.000
      12 -> 15         0.63535
      12 -> 16         0.14793
      13 -> 14        -0.20319
 
 Excited State   9:      Singlet-A      6.6292 eV  187.03 nm  f=0.0163  <S**2>=0.000
      12 -> 15        -0.10365
      13 -> 17         0.50260
      13 -> 18        -0.36534
      13 -> 19         0.20955
 
 Excited State  10:      Singlet-A      7.0550 eV  175.74 nm  f=0.0016  <S**2>=0.000
       9 -> 15        -0.14845
      10 -> 14         0.50653
      11 -> 15        -0.20164
      12 -> 17         0.19548
      12 -> 18        -0.25564
      12 -> 20         0.11424
 
 Excited State  11:      Singlet-A      7.0850 eV  175.00 nm  f=0.0018  <S**2>=0.000
      10 -> 14        -0.32431
      11 -> 15         0.14403
      12 -> 17         0.35213
      12 -> 18        -0.27896
      12 -> 19         0.15180
      12 -> 20         0.18706
      12 -> 21        -0.11971
      12 -> 23         0.13364
      13 -> 17         0.11024
      13 -> 18         0.13225
      13 -> 22        -0.14989
 
 Excited State  12:      Singlet-A      7.3808 eV  167.98 nm  f=0.0009  <S**2>=0.000
       9 -> 14         0.23800
      10 -> 15        -0.32740
      11 -> 14         0.52068
      13 -> 19         0.10041
 
 Excited State  13:      Singlet-A      7.4669 eV  166.05 nm  f=0.0004  <S**2>=0.000
       9 -> 15        -0.11597
      11 -> 14         0.10205
      11 -> 15         0.16530
      12 -> 17         0.30092
      12 -> 18         0.20120
      12 -> 19        -0.19352
      12 -> 20         0.15601
      12 -> 21        -0.12124
      12 -> 22         0.11727
      12 -> 23         0.16102
      13 -> 17        -0.14681
      13 -> 18        -0.28155
      13 -> 19        -0.13658
      13 -> 20        -0.15832
 
 Excited State  14:      Singlet-A      7.5590 eV  164.02 nm  f=0.0020  <S**2>=0.000
      12 -> 18         0.24513
      12 -> 19         0.28244
      12 -> 21         0.10184
      12 -> 22         0.18966
      13 -> 17        -0.17326
      13 -> 19         0.33099
      13 -> 20        -0.17050
      13 -> 21         0.10622
      13 -> 22        -0.26024
      13 -> 24         0.16363
 
 Excited State  15:      Singlet-A      7.7599 eV  159.78 nm  f=0.0005  <S**2>=0.000
      11 -> 14        -0.10080
      12 -> 19         0.26638
      12 -> 20         0.17198
      12 -> 22         0.13610
      12 -> 23         0.12812
      13 -> 17        -0.12437
      13 -> 20         0.11054
      13 -> 21         0.23917
      13 -> 22         0.44227
      13 -> 23         0.12241
 SavETr:  write IOETrn=   770 NScale= 10 NData=  16 NLR=1 NState=   15 LETran=     280.
 The selected state is a singlet
 CISAX will form     1 AO SS matrices at one time.
 NMat=     1 NSing=     1 JSym2X= 0.
 Leave Link  914 at Tue Dec 15 16:18:02 2015, MaxMem=    33554432 cpu:         0.1
 (Enter /home/Applications/g09/g09/l1002.exe)
 Minotr:  Closed shell wavefunction.
          Computing CIS/TD-HF/TD-KS derivatives.
          Using Z-Vector for PSCF gradient.
          Skipping F1 and S1 gradient terms here.
          IDoAtm=111111111
          Direct CPHF calculation.
          Differentiating once with respect to electric field.
                with respect to dipole field.
          Differentiating once with respect to nuclear coordinates.
          Electric field/nuclear overlap derivatives assumed to be zero.
          Requested convergence is 1.0D-10 RMS, and 1.0D-09 maximum.
          NewPWx=T KeepS1=F KeepF1=F KeepIn=T MapXYZ=F SortEE=F KeepMc=T.
          MDV=      33495423 using IRadAn=       0.
 Keep J ints in memory in canonical form, NReq=871704.
 FoFCou: FMM=F IPFlag=           0 FMFlag=           0 FMFlg1=           0
         NFxFlg=           0 DoJE=F BraDBF=F KetDBF=F FulRan=T
         wScrn=  0.000000 ICntrl=     600 IOpCl=  2 I1Cent=           0 NGrid=           0
         NMat0=    1 NMatS0=     54 NMatT0=    0 NMatD0=    1 NMtDS0=    0 NMtDT0=    0
 Symmetry not used in FoFCou.
          Solving linear equations separately, MaxMat=       0.
          There are     1 degrees of freedom in the 1st order CPHF.  IDoFFX=0 NUNeed=     1.
 LinEq1:  Iter=  0 NonCon=     1 RMS=1.15D-02 Max=8.07D-02 NDo=     1
 AX will form     1 AO Fock derivatives at one time.
 LinEq1:  Iter=  1 NonCon=     1 RMS=2.09D-03 Max=1.36D-02 NDo=     1
 LinEq1:  Iter=  2 NonCon=     1 RMS=3.18D-04 Max=2.26D-03 NDo=     1
 LinEq1:  Iter=  3 NonCon=     1 RMS=4.58D-05 Max=2.48D-04 NDo=     1
 LinEq1:  Iter=  4 NonCon=     1 RMS=5.91D-06 Max=2.68D-05 NDo=     1
 LinEq1:  Iter=  5 NonCon=     1 RMS=1.01D-06 Max=6.87D-06 NDo=     1
 LinEq1:  Iter=  6 NonCon=     1 RMS=1.24D-07 Max=3.63D-07 NDo=     1
 LinEq1:  Iter=  7 NonCon=     1 RMS=1.62D-08 Max=7.09D-08 NDo=     1
 LinEq1:  Iter=  8 NonCon=     1 RMS=1.80D-09 Max=5.23D-09 NDo=     1
 LinEq1:  Iter=  9 NonCon=     1 RMS=2.08D-10 Max=8.97D-10 NDo=     1
 LinEq1:  Iter= 10 NonCon=     0 RMS=2.39D-11 Max=9.00D-11 NDo=     1
 Linear equations converged to 1.000D-10 1.000D-09 after    10 iterations.
 End of Minotr F.D. properties file   721 does not exist.
 End of Minotr F.D. properties file   722 does not exist.
 End of Minotr F.D. properties file   788 does not exist.
 Leave Link 1002 at Tue Dec 15 16:18:02 2015, MaxMem=    33554432 cpu:         0.0
 (Enter /home/Applications/g09/g09/l601.exe)
 Copying SCF densities to generalized density rwf, IOpCl= 0 IROHF=0.

 **********************************************************************

            Population analysis using the SCF density.

 **********************************************************************

 Orbital symmetries:
       Occupied  (A) (A) (A) (A) (A) (A) (A) (A) (A) (A) (A) (A)
                 (A)
       Virtual   (A) (A) (A) (A) (A) (A) (A) (A) (A) (A) (A)
 The electronic state is 1-A.
 Alpha  occ. eigenvalues --   -1.58974  -1.23621  -1.11403  -0.82989  -0.81120
 Alpha  occ. eigenvalues --   -0.69043  -0.61282  -0.56899  -0.51344  -0.49808
 Alpha  occ. eigenvalues --   -0.49438  -0.39415  -0.34971
 Alpha virt. eigenvalues --    0.03403   0.06483   0.09650   0.14139   0.14967
 Alpha virt. eigenvalues --    0.15469   0.17941   0.18323   0.19250   0.20650
 Alpha virt. eigenvalues --    0.22905
     Molecular Orbital Coefficients:
                           1         2         3         4         5
                           O         O         O         O         O
     Eigenvalues --    -1.58974  -1.23621  -1.11403  -0.82989  -0.81120
   1 1   C  1S          0.28547  -0.45870   0.29604  -0.30057  -0.30455
   2        1PX        -0.04606   0.08967   0.17183  -0.21326   0.20869
   3        1PY        -0.12689   0.04193  -0.10600   0.00558  -0.24034
   4        1PZ         0.00110  -0.00190  -0.00002   0.00178   0.00217
   5 2   C  1S          0.37891  -0.09827   0.52088   0.04230   0.38664
   6        1PX        -0.18731  -0.02146   0.00916  -0.04465   0.14950
   7        1PY        -0.04256  -0.24543   0.03596  -0.37893  -0.04654
   8        1PZ         0.00248  -0.00185   0.00571   0.00091   0.01520
   9 3   O  1S          0.64124   0.58415  -0.05185   0.04295  -0.28201
  10        1PX        -0.01817   0.02410   0.34123   0.50687   0.04635
  11        1PY         0.20179  -0.03104   0.05682   0.03588   0.16845
  12        1PZ         0.00323  -0.00001  -0.00080  -0.00293   0.01100
  13 4   C  1S          0.35264  -0.14927  -0.50841  -0.16107   0.38924
  14        1PX         0.18172   0.08393  -0.00525  -0.13840  -0.16974
  15        1PY         0.01908  -0.22454  -0.01035   0.34166   0.01475
  16        1PZ        -0.00259  -0.00241   0.00182   0.00497   0.00567
  17 5   C  1S          0.27171  -0.48333  -0.27549   0.38363  -0.18469
  18        1PX         0.08171  -0.08781   0.12594  -0.17973  -0.20162
  19        1PY        -0.10005   0.03332   0.14010   0.04085  -0.29322
  20        1PZ        -0.00412   0.00707   0.00362  -0.00735   0.00863
  21 6   H  1S          0.05838  -0.15403  -0.11140   0.25503  -0.10739
  22 7   H  1S          0.07440  -0.03361  -0.19529  -0.12379   0.24525
  23 8   H  1S          0.08462  -0.02241   0.21136   0.05531   0.26795
  24 9   H  1S          0.05637  -0.13811   0.10624  -0.17391  -0.19149
                           6         7         8         9        10
                           O         O         O         O         O
     Eigenvalues --    -0.69043  -0.61282  -0.56899  -0.51344  -0.49808
   1 1   C  1S         -0.10139  -0.01072  -0.18648   0.03481  -0.03462
   2        1PX        -0.15104  -0.02542  -0.02571  -0.30782  -0.22379
   3        1PY        -0.25449   0.00455  -0.14947   0.19284   0.32680
   4        1PZ        -0.00128   0.23144  -0.01338   0.00819  -0.00068
   5 2   C  1S         -0.08165  -0.00927   0.13167  -0.05817   0.05877
   6        1PX        -0.39060   0.03424   0.37604   0.32316   0.04984
   7        1PY         0.02165  -0.00750   0.12130  -0.24549  -0.37789
   8        1PZ        -0.01664   0.40287  -0.01037  -0.00874   0.01313
   9 3   O  1S         -0.20213  -0.00082   0.00514   0.01321  -0.21221
  10        1PX        -0.03631  -0.02698  -0.43409   0.05169  -0.08772
  11        1PY         0.49583  -0.01099  -0.03637  -0.21140   0.51161
  12        1PZ        -0.00813   0.76808  -0.06074  -0.07227  -0.00182
  13 4   C  1S         -0.07344  -0.01184  -0.15125   0.08131   0.05733
  14        1PX         0.30882   0.05048   0.43560   0.06779   0.10341
  15        1PY         0.16569   0.00671   0.04368   0.18779  -0.36004
  16        1PZ        -0.00151   0.36987  -0.04065  -0.01812  -0.02500
  17 5   C  1S         -0.09506   0.02055   0.17255  -0.00215  -0.02012
  18        1PX         0.20116   0.02622  -0.10473   0.45575   0.12835
  19        1PY        -0.20386  -0.00484   0.10342  -0.33312   0.35617
  20        1PZ         0.00500   0.21655  -0.03069   0.01580  -0.02131
  21 6   H  1S         -0.22280  -0.01485   0.20561  -0.44689   0.10760
  22 7   H  1S         -0.24525  -0.03881  -0.35450  -0.07817   0.16112
  23 8   H  1S         -0.27288   0.04221   0.31040   0.26916   0.18631
  24 9   H  1S         -0.22477  -0.01269  -0.20530   0.04326   0.13368
                          11        12        13        14        15
                           O         O         O         V         V
     Eigenvalues --    -0.49438  -0.39415  -0.34971   0.03403   0.06483
   1 1   C  1S          0.00397  -0.00492  -0.00675   0.01332   0.00015
   2        1PX         0.40959   0.02503  -0.01443  -0.01493   0.01106
   3        1PY         0.41623   0.00283   0.00400  -0.00825   0.00112
   4        1PZ        -0.01651   0.57638  -0.39731  -0.28047   0.60966
   5 2   C  1S         -0.07359  -0.00076   0.02472  -0.03290   0.03617
   6        1PX         0.03864  -0.01449   0.02657  -0.03111   0.01824
   7        1PY        -0.09492   0.00753  -0.01226   0.01092  -0.04275
   8        1PZ        -0.00631   0.14420  -0.58713   0.53858  -0.41363
   9 3   O  1S         -0.00261   0.00126  -0.00689   0.00561  -0.02430
  10        1PX        -0.00635  -0.00956  -0.00885  -0.00131   0.01687
  11        1PY         0.23644   0.02252   0.00074   0.00895  -0.04369
  12        1PZ         0.00534  -0.50459   0.03293  -0.37887   0.02945
  13 4   C  1S          0.06379  -0.00531   0.00308  -0.00251   0.03605
  14        1PX         0.19815  -0.00325   0.01544  -0.01116   0.03967
  15        1PY         0.32163  -0.01206  -0.02502  -0.00442  -0.02780
  16        1PZ         0.00777   0.18745   0.59920   0.59024   0.34029
  17 5   C  1S         -0.05984   0.02032   0.01799  -0.02459  -0.03075
  18        1PX        -0.31361  -0.02278   0.00105  -0.00286   0.02816
  19        1PY        -0.25285   0.02670   0.01833  -0.01886  -0.02207
  20        1PZ         0.00193   0.59480   0.36589  -0.36530  -0.56794
  21 6   H  1S          0.00941   0.00764  -0.00267   0.01996   0.04678
  22 7   H  1S         -0.25546   0.00364  -0.00126  -0.00234  -0.02713
  23 8   H  1S          0.00205  -0.00401  -0.00346   0.04023  -0.05305
  24 9   H  1S          0.45683   0.00326  -0.00352  -0.00021   0.00430
                          16        17        18        19        20
                           V         V         V         V         V
     Eigenvalues --     0.09650   0.14139   0.14967   0.15469   0.17941
   1 1   C  1S          0.02395  -0.32279  -0.07955   0.25405  -0.35841
   2        1PX        -0.00779   0.21036  -0.30871   0.26552   0.12654
   3        1PY         0.07260  -0.02123  -0.29139  -0.20277  -0.36063
   4        1PZ         0.06233  -0.01820   0.02700  -0.01231  -0.00182
   5 2   C  1S         -0.25225   0.22018  -0.06323  -0.38130  -0.18215
   6        1PX         0.16762   0.17566  -0.29128   0.07330   0.00888
   7        1PY         0.36058   0.00753  -0.09398  -0.19411   0.17766
   8        1PZ        -0.07112   0.04264  -0.03933  -0.01226  -0.01161
   9 3   O  1S          0.24708  -0.01734  -0.02991  -0.03399   0.03970
  10        1PX        -0.09353  -0.00097  -0.20409   0.22185   0.16446
  11        1PY         0.46586  -0.03189  -0.07010  -0.00624   0.05418
  12        1PZ         0.02031  -0.01382   0.01186   0.00154   0.00146
  13 4   C  1S         -0.28889  -0.29697  -0.32318  -0.05776   0.25899
  14        1PX        -0.30319   0.29189  -0.05584   0.35442  -0.09026
  15        1PY         0.29836   0.02341  -0.17753   0.01700   0.08648
  16        1PZ         0.03614   0.01411  -0.00630  -0.01686   0.00003
  17 5   C  1S          0.05273   0.32964   0.04256  -0.16740  -0.01479
  18        1PX        -0.00624   0.19286  -0.23297   0.19033   0.40058
  19        1PY         0.03540  -0.03076  -0.37723  -0.20240   0.30009
  20        1PZ        -0.05693  -0.02253   0.00047   0.03961   0.00198
  21 6   H  1S         -0.13475  -0.14157   0.04520   0.43434   0.09229
  22 7   H  1S          0.29934   0.49557   0.12320   0.31054  -0.19179
  23 8   H  1S          0.28168  -0.36956   0.30148   0.19817   0.16947
  24 9   H  1S         -0.12669   0.21070   0.46936  -0.15500   0.47063
                          21        22        23        24
                           V         V         V         V
     Eigenvalues --     0.18323   0.19250   0.20650   0.22905
   1 1   C  1S         -0.05368   0.13545  -0.24981  -0.04240
   2        1PX        -0.39145   0.18592   0.20961  -0.27480
   3        1PY         0.06075  -0.25517   0.41466   0.07821
   4        1PZ        -0.01282  -0.01160  -0.00728   0.00598
   5 2   C  1S          0.23263  -0.11827   0.11144  -0.09815
   6        1PX         0.26842   0.42019  -0.30168   0.21303
   7        1PY         0.12967  -0.22474   0.24802   0.47376
   8        1PZ         0.02822   0.02125  -0.01102   0.00142
   9 3   O  1S          0.06998   0.08118  -0.00867   0.01462
  10        1PX        -0.07588  -0.02643  -0.00978   0.53761
  11        1PY         0.07910   0.26507  -0.02990   0.09979
  12        1PZ        -0.00074  -0.00042   0.00402  -0.00531
  13 4   C  1S         -0.01125  -0.09394  -0.09485   0.09623
  14        1PX        -0.11928  -0.34920  -0.14918   0.30879
  15        1PY         0.21463  -0.38248  -0.26737  -0.37438
  16        1PZ        -0.00691  -0.00440  -0.01056  -0.00947
  17 5   C  1S         -0.40935   0.22784   0.16326   0.04758
  18        1PX         0.13595   0.05624   0.38842  -0.24517
  19        1PY        -0.20153  -0.26389  -0.34602  -0.14206
  20        1PZ         0.04578  -0.00045   0.01143  -0.00166
  21 6   H  1S          0.50813   0.00568   0.27537  -0.07906
  22 7   H  1S          0.03778  -0.30129  -0.13247  -0.03117
  23 8   H  1S         -0.33360  -0.26449   0.18029   0.00732
  24 9   H  1S          0.13858   0.01503  -0.17146   0.05615
     Density Matrix:
                           1         2         3         4         5
   1 1   C  1S          1.22059
   2        1PX         0.03229   0.93254
   3        1PY         0.07064   0.04042   0.98255
   4        1PZ         0.00044   0.01106  -0.00565   1.08833
   5 2   C  1S          0.31258   0.23664  -0.44319  -0.02372   1.22555
   6        1PX        -0.18869   0.00382   0.24765  -0.02694   0.10971
   7        1PY         0.43723   0.34531  -0.46736   0.01057   0.01145
   8        1PZ         0.00024   0.01093   0.00202   0.81970  -0.01322
   9 3   O  1S          0.00022   0.03766  -0.00122   0.00565   0.11062
  10        1PX         0.01630  -0.03691   0.02288  -0.00173   0.29199
  11        1PY        -0.08207  -0.00103   0.06180   0.00944   0.31109
  12        1PZ         0.00394  -0.00473  -0.00390  -0.25197  -0.00922
  13 4   C  1S         -0.02923   0.00393   0.02129  -0.00818   0.01473
  14        1PX        -0.01698  -0.05986   0.01393  -0.01182   0.01201
  15        1PY        -0.01263   0.07134  -0.01750   0.00262  -0.04027
  16        1PZ        -0.00649   0.00522   0.00267  -0.08822   0.01526
  17 5   C  1S          0.27211  -0.46649  -0.02458   0.01925  -0.02832
  18        1PX         0.45088  -0.64030  -0.03226   0.00397  -0.01333
  19        1PY         0.10181  -0.18062   0.10680   0.01265   0.01961
  20        1PZ        -0.00994   0.01931   0.00530   0.49617   0.00495
  21 6   H  1S         -0.04893   0.06773   0.00798  -0.00749   0.05089
  22 7   H  1S          0.04685  -0.06359  -0.00662   0.00520   0.05169
  23 8   H  1S         -0.05785  -0.03412   0.07737   0.01576   0.61622
  24 9   H  1S          0.56279   0.36793   0.70169  -0.00861  -0.05611
                           6         7         8         9        10
   6        1PX         0.92888
   7        1PY        -0.08368   0.87324
   8        1PZ        -0.00370   0.00186   1.05752
   9 3   O  1S         -0.20591  -0.20426   0.00058   1.84525
  10        1PX        -0.29535  -0.43848  -0.00097   0.03586   1.15494
  11        1PY        -0.50949  -0.35535   0.00212  -0.30001  -0.03696
  12        1PZ        -0.01450   0.00170   0.43770  -0.00373   0.01111
  13 4   C  1S          0.00207  -0.04268  -0.00179   0.10278  -0.35931
  14        1PX         0.05000   0.03244  -0.00356   0.25169  -0.57937
  15        1PY        -0.01057  -0.01551   0.00997  -0.12589   0.35799
  16        1PZ         0.01111  -0.00378  -0.35087  -0.00720   0.01045
  17 5   C  1S          0.02222  -0.01432  -0.00378  -0.00176   0.00994
  18        1PX        -0.01905  -0.07851   0.00387  -0.03588  -0.01824
  19        1PY        -0.01514  -0.04276  -0.00258  -0.01037  -0.05419
  20        1PZ         0.00283  -0.00059  -0.08377   0.00032  -0.00159
  21 6   H  1S         -0.02226   0.05629   0.00383   0.02368  -0.06382
  22 7   H  1S         -0.07769  -0.06373   0.00109  -0.04608   0.05417
  23 8   H  1S          0.69043  -0.25834   0.05088  -0.04444  -0.03570
  24 9   H  1S          0.04166  -0.04795  -0.00055   0.02385   0.04022
                          11        12        13        14        15
  11        1PY         1.36941
  12        1PZ        -0.00728   1.70959
  13 4   C  1S          0.20603   0.00827   1.24997
  14        1PX         0.44459   0.01409  -0.10915   0.86106
  15        1PY        -0.08534  -0.01110  -0.01501   0.08861   0.93271
  16        1PZ        -0.01001   0.42631   0.00050   0.00907  -0.01289
  17 5   C  1S         -0.08063  -0.01153   0.29959   0.04297   0.44746
  18        1PX        -0.03224   0.00004  -0.09270   0.13172  -0.15344
  19        1PY         0.05498  -0.00583  -0.51138  -0.05162  -0.60679
  20        1PZ         0.00287  -0.24185   0.00012   0.00291  -0.01643
  21 6   H  1S          0.07085   0.00895  -0.05368  -0.03232  -0.05058
  22 7   H  1S         -0.05563  -0.00142   0.60918  -0.56836  -0.47787
  23 8   H  1S         -0.06269   0.00161   0.05283   0.10040  -0.03961
  24 9   H  1S          0.09338   0.00072   0.05593   0.00479   0.05885
                          16        17        18        19        20
  16        1PZ         1.06744
  17 5   C  1S          0.03243   1.21713
  18        1PX        -0.01140  -0.04732   0.95675
  19        1PY         0.00889   0.06924  -0.04208   0.94695
  20        1PZ         0.82470   0.01535  -0.00066   0.00466   1.07289
  21 6   H  1S         -0.01506   0.58672  -0.55929   0.53410  -0.04190
  22 7   H  1S         -0.00788  -0.05782   0.01819   0.09745  -0.00088
  23 8   H  1S         -0.01384   0.04619   0.06254   0.01525  -0.00589
  24 9   H  1S          0.00069  -0.04597  -0.06109  -0.00790   0.00120
                          21        22        23        24
  21 6   H  1S          0.83939
  22 7   H  1S          0.01119   0.80989
  23 8   H  1S         -0.01215  -0.02334   0.81393
  24 9   H  1S         -0.00723  -0.01496   0.00790   0.84348
    Full Mulliken population analysis:
                           1         2         3         4         5
   1 1   C  1S          1.22059
   2        1PX         0.00000   0.93254
   3        1PY         0.00000   0.00000   0.98255
   4        1PZ         0.00000   0.00000   0.00000   1.08833
   5 2   C  1S          0.00000   0.00000   0.00000   0.00000   1.22555
   6        1PX         0.00000   0.00000   0.00000   0.00000   0.00000
   7        1PY         0.00000   0.00000   0.00000   0.00000   0.00000
   8        1PZ         0.00000   0.00000   0.00000   0.00000   0.00000
   9 3   O  1S          0.00000   0.00000   0.00000   0.00000   0.00000
  10        1PX         0.00000   0.00000   0.00000   0.00000   0.00000
  11        1PY         0.00000   0.00000   0.00000   0.00000   0.00000
  12        1PZ         0.00000   0.00000   0.00000   0.00000   0.00000
  13 4   C  1S          0.00000   0.00000   0.00000   0.00000   0.00000
  14        1PX         0.00000   0.00000   0.00000   0.00000   0.00000
  15        1PY         0.00000   0.00000   0.00000   0.00000   0.00000
  16        1PZ         0.00000   0.00000   0.00000   0.00000   0.00000
  17 5   C  1S          0.00000   0.00000   0.00000   0.00000   0.00000
  18        1PX         0.00000   0.00000   0.00000   0.00000   0.00000
  19        1PY         0.00000   0.00000   0.00000   0.00000   0.00000
  20        1PZ         0.00000   0.00000   0.00000   0.00000   0.00000
  21 6   H  1S          0.00000   0.00000   0.00000   0.00000   0.00000
  22 7   H  1S          0.00000   0.00000   0.00000   0.00000   0.00000
  23 8   H  1S          0.00000   0.00000   0.00000   0.00000   0.00000
  24 9   H  1S          0.00000   0.00000   0.00000   0.00000   0.00000
                           6         7         8         9        10
   6        1PX         0.92888
   7        1PY         0.00000   0.87324
   8        1PZ         0.00000   0.00000   1.05752
   9 3   O  1S          0.00000   0.00000   0.00000   1.84525
  10        1PX         0.00000   0.00000   0.00000   0.00000   1.15494
  11        1PY         0.00000   0.00000   0.00000   0.00000   0.00000
  12        1PZ         0.00000   0.00000   0.00000   0.00000   0.00000
  13 4   C  1S          0.00000   0.00000   0.00000   0.00000   0.00000
  14        1PX         0.00000   0.00000   0.00000   0.00000   0.00000
  15        1PY         0.00000   0.00000   0.00000   0.00000   0.00000
  16        1PZ         0.00000   0.00000   0.00000   0.00000   0.00000
  17 5   C  1S          0.00000   0.00000   0.00000   0.00000   0.00000
  18        1PX         0.00000   0.00000   0.00000   0.00000   0.00000
  19        1PY         0.00000   0.00000   0.00000   0.00000   0.00000
  20        1PZ         0.00000   0.00000   0.00000   0.00000   0.00000
  21 6   H  1S          0.00000   0.00000   0.00000   0.00000   0.00000
  22 7   H  1S          0.00000   0.00000   0.00000   0.00000   0.00000
  23 8   H  1S          0.00000   0.00000   0.00000   0.00000   0.00000
  24 9   H  1S          0.00000   0.00000   0.00000   0.00000   0.00000
                          11        12        13        14        15
  11        1PY         1.36941
  12        1PZ         0.00000   1.70959
  13 4   C  1S          0.00000   0.00000   1.24997
  14        1PX         0.00000   0.00000   0.00000   0.86106
  15        1PY         0.00000   0.00000   0.00000   0.00000   0.93271
  16        1PZ         0.00000   0.00000   0.00000   0.00000   0.00000
  17 5   C  1S          0.00000   0.00000   0.00000   0.00000   0.00000
  18        1PX         0.00000   0.00000   0.00000   0.00000   0.00000
  19        1PY         0.00000   0.00000   0.00000   0.00000   0.00000
  20        1PZ         0.00000   0.00000   0.00000   0.00000   0.00000
  21 6   H  1S          0.00000   0.00000   0.00000   0.00000   0.00000
  22 7   H  1S          0.00000   0.00000   0.00000   0.00000   0.00000
  23 8   H  1S          0.00000   0.00000   0.00000   0.00000   0.00000
  24 9   H  1S          0.00000   0.00000   0.00000   0.00000   0.00000
                          16        17        18        19        20
  16        1PZ         1.06744
  17 5   C  1S          0.00000   1.21713
  18        1PX         0.00000   0.00000   0.95675
  19        1PY         0.00000   0.00000   0.00000   0.94695
  20        1PZ         0.00000   0.00000   0.00000   0.00000   1.07289
  21 6   H  1S          0.00000   0.00000   0.00000   0.00000   0.00000
  22 7   H  1S          0.00000   0.00000   0.00000   0.00000   0.00000
  23 8   H  1S          0.00000   0.00000   0.00000   0.00000   0.00000
  24 9   H  1S          0.00000   0.00000   0.00000   0.00000   0.00000
                          21        22        23        24
  21 6   H  1S          0.83939
  22 7   H  1S          0.00000   0.80989
  23 8   H  1S          0.00000   0.00000   0.81393
  24 9   H  1S          0.00000   0.00000   0.00000   0.84348
     Gross orbital populations:
                           1
   1 1   C  1S          1.22059
   2        1PX         0.93254
   3        1PY         0.98255
   4        1PZ         1.08833
   5 2   C  1S          1.22555
   6        1PX         0.92888
   7        1PY         0.87324
   8        1PZ         1.05752
   9 3   O  1S          1.84525
  10        1PX         1.15494
  11        1PY         1.36941
  12        1PZ         1.70959
  13 4   C  1S          1.24997
  14        1PX         0.86106
  15        1PY         0.93271
  16        1PZ         1.06744
  17 5   C  1S          1.21713
  18        1PX         0.95675
  19        1PY         0.94695
  20        1PZ         1.07289
  21 6   H  1S          0.83939
  22 7   H  1S          0.80989
  23 8   H  1S          0.81393
  24 9   H  1S          0.84348
          Condensed to atoms (all electrons):
               1          2          3          4          5          6
     1  C    4.224016   0.000000   0.000000   0.000000   0.000000   0.000000
     2  C    0.000000   4.085194   0.000000   0.000000   0.000000   0.000000
     3  O    0.000000   0.000000   6.079194   0.000000   0.000000   0.000000
     4  C    0.000000   0.000000   0.000000   4.111183   0.000000   0.000000
     5  C    0.000000   0.000000   0.000000   0.000000   4.193715   0.000000
     6  H    0.000000   0.000000   0.000000   0.000000   0.000000   0.839393
     7  H    0.000000   0.000000   0.000000   0.000000   0.000000   0.000000
     8  H    0.000000   0.000000   0.000000   0.000000   0.000000   0.000000
     9  H    0.000000   0.000000   0.000000   0.000000   0.000000   0.000000
               7          8          9
     1  C    0.000000   0.000000   0.000000
     2  C    0.000000   0.000000   0.000000
     3  O    0.000000   0.000000   0.000000
     4  C    0.000000   0.000000   0.000000
     5  C    0.000000   0.000000   0.000000
     6  H    0.000000   0.000000   0.000000
     7  H    0.809892   0.000000   0.000000
     8  H    0.000000   0.813934   0.000000
     9  H    0.000000   0.000000   0.843479
 Mulliken charges:
               1
     1  C   -0.224016
     2  C   -0.085194
     3  O   -0.079194
     4  C   -0.111183
     5  C   -0.193715
     6  H    0.160607
     7  H    0.190108
     8  H    0.186066
     9  H    0.156521
 Sum of Mulliken charges =   0.00000
 Mulliken charges with hydrogens summed into heavy atoms:
               1
     1  C   -0.067495
     2  C    0.100872
     3  O   -0.079194
     4  C    0.078925
     5  C   -0.033108
 Charge=              0.0000 electrons
 Dipole moment (field-independent basis, Debye):
    X=             -0.1093    Y=              0.2686    Z=             -0.0054  Tot=              0.2900
 N-N= 1.039927194230D+02 E-N=-1.719157293914D+02  KE=-1.661553519786D+01
 Orbital energies and kinetic energies (alpha):
                                 1                 2
   1         O                -1.589737         -1.331632
   2         O                -1.236208         -1.049307
   3         O                -1.114029         -0.969790
   4         O                -0.829887         -0.704975
   5         O                -0.811197         -0.723487
   6         O                -0.690433         -0.605229
   7         O                -0.612821         -0.495438
   8         O                -0.568992         -0.507518
   9         O                -0.513442         -0.440954
  10         O                -0.498085         -0.394098
  11         O                -0.494379         -0.430067
  12         O                -0.394154         -0.340976
  13         O                -0.349715         -0.314298
  14         V                 0.034027         -0.190549
  15         V                 0.064828         -0.190745
  16         V                 0.096496         -0.185497
  17         V                 0.141391         -0.239528
  18         V                 0.149666         -0.184462
  19         V                 0.154691         -0.194594
  20         V                 0.179409         -0.176300
  21         V                 0.183229         -0.189912
  22         V                 0.192497         -0.116751
  23         V                 0.206502         -0.121306
  24         V                 0.229050         -0.036364
 Total kinetic energy from orbitals=-1.661553519786D+01
 Leave Link  601 at Tue Dec 15 16:18:02 2015, MaxMem=    33554432 cpu:         0.0
 (Enter /home/Applications/g09/g09/l701.exe)
 Compute integral first derivatives.
 ... and contract with generalized density number  6.
 Leave Link  701 at Tue Dec 15 16:18:03 2015, MaxMem=    33554432 cpu:         0.0
 (Enter /home/Applications/g09/g09/l702.exe)
 L702 exits ... SP integral derivatives will be done elsewhere.
 Leave Link  702 at Tue Dec 15 16:18:03 2015, MaxMem=    33554432 cpu:         0.0
 (Enter /home/Applications/g09/g09/l703.exe)
 Compute integral first derivatives, UseDBF=F ICtDFT=           0.
 Integral derivatives from FoFJK, PRISM(SPDF).
 Calling FoFJK, ICntrl=  10005127 FMM=F ISym2X=0 I1Cent= 0 IOpClX= 0 NMat=1 NMatS=1 NMatT=0.
 FoFJK:  IHMeth= 8 ICntrl=10005127 DoSepK=F KAlg= 0 I1Cent=   0 FoldK=F
 IRaf=         0 NMat=   1 IRICut=       1 DoRegI=T DoRafI=F ISym2E= 0.
 FoFCou: FMM=F IPFlag=           0 FMFlag=      100000 FMFlg1=         800
         NFxFlg=           0 DoJE=F BraDBF=F KetDBF=F FulRan=T
         wScrn=  0.000000 ICntrl=10005127 IOpCl=  0 I1Cent=           0 NGrid=           0
         NMat0=    1 NMatS0=      1 NMatT0=    0 NMatD0=    1 NMtDS0=    0 NMtDT0=    0
 Symmetry not used in FoFCou.
 Leave Link  703 at Tue Dec 15 16:18:03 2015, MaxMem=    33554432 cpu:         0.0
 (Enter /home/Applications/g09/g09/l716.exe)
 Dipole        = 2.72421066D-02 2.19817933D-01 3.36622069D-02
 ***** Axes restored to original set *****
 -------------------------------------------------------------------
 Center     Atomic                   Forces (Hartrees/Bohr)
 Number     Number              X              Y              Z
 -------------------------------------------------------------------
      1        6           0.169669867    0.012294683    0.000576062
      2        6          -0.034508200   -0.070019725    0.003066600
      3        8          -0.147074414    0.024366210   -0.005155870
      4        6          -0.046629723    0.076724797    0.002997951
      5        6           0.078746328   -0.029915255   -0.007547252
      6        1           0.018801755    0.002136766    0.004097970
      7        1          -0.003385838    0.002612024    0.001140317
      8        1          -0.020125499   -0.031895517    0.000186500
      9        1          -0.015494276    0.013696016    0.000637722
 -------------------------------------------------------------------
 Cartesian Forces:  Max     0.169669867 RMS     0.052620691
 Z-matrix is all fixed cartesians, so copy forces.
 Force constants in Cartesian coordinates: 
                1             2             3             4             5 
      1  0.928585D+00
      2  0.167206D-01  0.782654D+00
      3  0.493013D-02  0.236074D-01  0.211939D+00
      4 -0.549859D+00 -0.122131D+00 -0.126123D-01  0.100549D+01
      5 -0.973995D-01 -0.225835D+00 -0.547085D-02  0.161279D-01  0.998255D+00
      6 -0.760989D-02 -0.304656D-02 -0.111170D+00 -0.816296D-02 -0.143609D-01
      7 -0.933969D-02  0.308323D-01  0.742147D-03 -0.311263D+00  0.197227D+00
      8 -0.662736D-02  0.218819D-01  0.400149D-03  0.242971D+00 -0.435856D+00
      9 -0.448090D-03  0.118630D-02  0.911251D-02  0.813173D-02 -0.776358D-02
     10  0.100411D-01 -0.337736D-03  0.325293D-03  0.256975D-01  0.182299D-01
     11  0.346924D-01 -0.116570D-02  0.976495D-03 -0.183137D-01 -0.129987D-01
     12  0.216041D-02 -0.560298D-04 -0.249618D-02 -0.853056D-03 -0.503488D-03
     13 -0.168835D+00  0.389010D-02  0.145305D-02  0.106463D-01 -0.350452D-01
     14 -0.214697D-01 -0.412056D+00 -0.198931D-01 -0.375115D-03  0.122713D-02
     15  0.924157D-03 -0.145947D-01 -0.847896D-01  0.680365D-03 -0.195446D-02
     16  0.188290D-01 -0.584418D-03 -0.553377D-03 -0.392898D-05 -0.296693D-04
     17 -0.220986D-01  0.592179D-03  0.267852D-02  0.146989D-05  0.110998D-04
     18 -0.246355D-02 -0.806087D-03  0.191792D-01 -0.290669D-04 -0.219496D-03
     19  0.365858D-05  0.585377D-05 -0.129297D-03  0.503920D-05  0.643249D-05
     20  0.211301D-05  0.338083D-05 -0.746753D-04  0.284104D-05  0.362656D-05
     21 -0.200998D-03 -0.321599D-03  0.710343D-02 -0.127169D-03 -0.162330D-03
     22  0.825922D-02 -0.274950D-01  0.271383D-02 -0.175536D+00 -0.116189D+00
     23 -0.404154D-02  0.132710D-01  0.144357D-02 -0.111389D+00 -0.347625D+00
     24 -0.183732D-03 -0.141760D-02  0.306222D-01  0.143066D-01  0.278056D-01
     25 -0.237685D+00  0.990994D-01  0.313051D-02 -0.517233D-02  0.170730D-01
     26  0.100222D+00 -0.179345D+00 -0.366753D-02 -0.689448D-02  0.228175D-01
     27  0.289156D-02 -0.455106D-02 -0.795007D-01 -0.133419D-02  0.262948D-02
                6             7             8             9            10 
      6  0.216046D+00
      7  0.317749D-02  0.565759D+00
      8 -0.386658D-02 -0.340925D-01  0.789853D+00
      9 -0.512923D-01  0.898438D-02  0.203921D-01  0.633014D-01
     10  0.139336D-02 -0.281714D+00 -0.209692D+00 -0.134328D-01  0.933658D+00
     11 -0.870104D-03 -0.164770D+00 -0.380327D+00 -0.147725D-01 -0.262915D-01
     12 -0.162302D-02 -0.113567D-01 -0.156652D-01 -0.501338D-01  0.195755D-01
     13 -0.256876D-02 -0.856747D-02  0.615216D-02 -0.623460D-03 -0.511013D+00
     14  0.107628D-03 -0.295864D-01  0.212091D-01 -0.139143D-02  0.108977D+00
     15 -0.155478D-02 -0.147489D-02  0.596617D-03  0.730835D-02 -0.520398D-02
     16  0.645082D-03 -0.188601D-05 -0.251574D-05  0.762730D-04 -0.567131D-02
     17 -0.241335D-03 -0.148798D-04 -0.198481D-04  0.601760D-03  0.650789D-02
     18  0.477236D-02 -0.160714D-03 -0.214376D-03  0.649952D-02 -0.653911D-03
     19 -0.198081D-03  0.216087D-01 -0.154571D-01  0.418099D-03 -0.170986D+00
     20 -0.111676D-03  0.119297D-01 -0.853343D-02  0.228907D-03  0.102609D+00
     21  0.499876D-02  0.937635D-03 -0.880312D-03  0.415675D-02 -0.173175D-02
     22  0.128197D-01  0.235173D-01  0.167477D-01 -0.305565D-02 -0.139223D-04
     23  0.226238D-01 -0.115289D-01 -0.821501D-02  0.183139D-02 -0.759540D-05
     24 -0.871380D-01 -0.755926D-03 -0.591496D-03  0.378936D-02 -0.159196D-03
     25  0.504054D-03  0.000000D+00  0.118997D-05 -0.505284D-04  0.101690D-05
     26 -0.234253D-03  0.402936D-05  0.736953D-05 -0.312924D-03  0.516466D-05
     27  0.269602D-01 -0.934606D-04 -0.170935D-03  0.725824D-02 -0.112526D-03
               11            12            13            14            15 
     11  0.882761D+00
     12  0.158702D-01  0.200312D+00
     13  0.856591D-01 -0.115141D-01  0.914906D+00
     14 -0.213689D+00  0.138709D-02  0.439048D-01  0.817567D+00
     15  0.604974D-03 -0.102977D+00 -0.106966D-01  0.336091D-02  0.210942D+00
     16 -0.193947D-01  0.261091D-02 -0.261273D+00 -0.126583D+00  0.164842D-01
     17  0.223914D-01 -0.393272D-03 -0.130964D+00 -0.227684D+00  0.118563D-01
     18 -0.957538D-03  0.248104D-01  0.212989D-01  0.156026D-01 -0.844775D-01
     19  0.108435D+00 -0.113430D-02  0.745241D-02  0.256516D-01 -0.249211D-03
     20 -0.296971D+00 -0.755348D-03  0.411440D-02  0.141613D-01 -0.151400D-03
     21 -0.468244D-03 -0.781262D-01  0.156876D-03  0.209574D-02  0.298149D-01
     22 -0.177717D-04  0.547257D-03  0.265689D-05  0.200633D-04 -0.436223D-03
     23 -0.969545D-05  0.298560D-03 -0.562016D-05 -0.424401D-04  0.922749D-03
     24 -0.203212D-03  0.625768D-02 -0.478845D-04 -0.361596D-03  0.786195D-02
     25  0.162705D-05 -0.359381D-04  0.166806D-01 -0.539094D-03 -0.278306D-04
     26  0.826351D-05 -0.182523D-03  0.222939D-01 -0.692623D-03 -0.640939D-03
     27 -0.180042D-03  0.397674D-02  0.254201D-02 -0.907879D-03  0.178723D-01
               16            17            18            19            20 
     16  0.248111D+00
     17  0.146552D+00  0.204714D+00
     18 -0.182498D-01 -0.138205D-01  0.466984D-01
     19  0.233592D-05  0.184294D-04  0.199053D-03  0.141914D+00
     20  0.134911D-05  0.106439D-04  0.114963D-03 -0.118660D+00  0.291325D+00
     21 -0.128333D-03 -0.101249D-02 -0.109357D-01  0.109374D-02  0.749230D-03
     22  0.000000D+00  0.000000D+00  0.000000D+00  0.000000D+00  0.000000D+00
     23  0.000000D+00  0.000000D+00  0.000000D+00  0.000000D+00  0.000000D+00
     24  0.000000D+00  0.000000D+00  0.000000D+00  0.000000D+00  0.000000D+00
     25  0.799704D-05 -0.299182D-05  0.591627D-04  0.000000D+00  0.000000D+00
     26  0.406156D-04 -0.151949D-04  0.300477D-03  0.000000D+00  0.000000D+00
     27 -0.884916D-03  0.331061D-03 -0.654667D-02  0.000000D+00  0.000000D+00
               21            22            23            24            25 
     21  0.429881D-01
     22  0.000000D+00  0.143776D+00
     23  0.000000D+00  0.126963D+00  0.342562D+00
     24  0.000000D+00 -0.132418D-01 -0.257390D-01  0.503734D-01
     25  0.000000D+00 -0.454496D-05  0.961403D-05  0.819129D-04  0.226172D+00
     26  0.000000D+00 -0.281472D-04  0.595401D-04  0.507290D-03 -0.115643D+00
     27  0.000000D+00  0.652870D-03 -0.138103D-02 -0.117665D-01 -0.366135D-02
               26            27 
     26  0.157161D+00
     27  0.423040D-02  0.417464D-01
 Leave Link  716 at Tue Dec 15 16:18:03 2015, MaxMem=    33554432 cpu:         0.0
 (Enter /home/Applications/g09/g09/l103.exe)

 GradGradGradGradGradGradGradGradGradGradGradGradGradGradGradGradGradGrad
 Berny optimization.
 Search for a local minimum.
 Step number   1 out of a maximum of    2
 All quantities printed in internal units (Hartrees-Bohrs-Radians)
 Second derivative matrix not updated -- first step.
 ITU=  0
     Eigenvalues ---    0.01956   0.03510   0.06947   0.07554   0.07960
     Eigenvalues ---    0.08988   0.13037   0.15048   0.17234   0.24730
     Eigenvalues ---    0.26154   0.32852   0.40125   0.45270   0.64724
     Eigenvalues ---    0.83066   1.11317   1.36604   1.52517   1.59969
     Eigenvalues ---    1.70680
 Quadratic step=5.345D-01 exceeds max=3.000D-01 adjusted using Lamda=-2.296D-01.
 Angle between NR and scaled steps=  20.89 degrees.
 Angle between quadratic step and forces=  25.94 degrees.
 Linear search not attempted -- first point.
 TrRot= -0.008953  0.001846 -0.001416  1.056856  0.000844 -1.056433
 Variable       Old X    -DE/DX   Delta X   Delta X   Delta X     New X
                                 (Linear)    (Quad)   (Total)
    X1        1.73186   0.16967   0.00000   0.15723   0.14883   1.88068
    Y1       -1.33580   0.01229   0.00000  -0.00569  -0.00307  -1.33887
    Z1       -0.03838   0.00058   0.00000  -0.00062  -0.00183  -0.04022
    X2       -0.68222  -0.03451   0.00000  -0.01642  -0.02451  -0.70673
    Y2       -2.06573  -0.07002   0.00000  -0.03148  -0.02998  -2.09571
    Z2       -0.08666   0.00307   0.00000   0.01251   0.01293  -0.07373
    X3       -2.13431  -0.14707   0.00000  -0.18277  -0.19175  -2.32607
    Y3       -0.02130   0.02437   0.00000   0.01696   0.01778  -0.00352
    Z3       -0.05721  -0.00516   0.00000  -0.01002  -0.01047  -0.06768
    X4       -0.63923  -0.04663   0.00000  -0.04406  -0.05388  -0.69311
    Y4        2.07167   0.07672   0.00000   0.04457   0.04617   2.11784
    Z4        0.04879   0.00300   0.00000   0.00273   0.00004   0.04884
    X5        1.81912   0.07875   0.00000   0.08754   0.07805   1.89717
    Y5        1.35782  -0.02992   0.00000  -0.01381  -0.01111   1.34672
    Z5        0.08604  -0.00755   0.00000  -0.01447  -0.01766   0.06837
    X6        3.34249   0.01880   0.00000   0.08211   0.07201   3.41450
    Y6        2.67135   0.00214   0.00000   0.00238   0.00564   2.67699
    Z6       -0.05345   0.00410   0.00000   0.01456   0.00976  -0.04370
    X7       -1.62802  -0.00339   0.00000  -0.01493  -0.02551  -1.65353
    Y7        3.86264   0.00261   0.00000   0.03956   0.04075   3.90339
    Z7        0.04962   0.00114   0.00000   0.00991   0.00631   0.05594
    X8       -1.54390  -0.02013   0.00000  -0.03790  -0.04517  -1.58907
    Y8       -3.83392  -0.03190   0.00000  -0.07261  -0.07138  -3.90530
    Z8        0.07306   0.00019   0.00000  -0.00129   0.00082   0.07388
    X9        3.43328  -0.01549   0.00000   0.04983   0.04194   3.47522
    Y9       -2.60394   0.01370   0.00000   0.00194   0.00520  -2.59873
    Z9       -0.08121   0.00064   0.00000   0.00106   0.00011  -0.08110
         Item               Value     Threshold  Converged?
 Maximum Force            0.169670     0.000450     NO 
 RMS     Force            0.052621     0.000300     NO 
 Maximum Displacement     0.191753     0.001800     NO 
 RMS     Displacement     0.057469     0.001200     NO 
 Predicted change in Energy=-4.721868D-02
 GradGradGradGradGradGradGradGradGradGradGradGradGradGradGradGradGradGrad

 Leave Link  103 at Tue Dec 15 16:18:03 2015, MaxMem=    33554432 cpu:         0.0
 (Enter /home/Applications/g09/g09/l9999.exe)
 1\1\GINC-DUSTIN-DESKTOP\Force\RAM1-FC\STO-3G\C4H4O1\DUSTIN\15-Dec-2015
 \0\\#P AM1(Input,print) CIS(Singlets,NStates=15) pop(full) force\\AM1-
 Reparam Input\\0,1\C,0.916459,-0.706874,-0.020311\C,-0.361014,-1.09313
 5,-0.045857\O,-1.12943,-0.011269,-0.030273\C,-0.338267,1.096282,0.0258
 21\C,0.962636,0.71853,0.045529\H,1.768767,1.413617,-0.028286\H,-0.8615
 12,2.044019,0.02626\H,-0.816999,-2.028821,0.038663\H,1.816811,-1.37794
 4,-0.042975\\Version=ES64L-G09RevD.01\State=1-A\HF=0.0240086\RMSD=8.69
 5e-09\RMSF=5.262e-02\Dipole=0.2127396,-0.0613524,0.0342482\PG=C01 [X(C
 4H4O1)]\\@


 The arm of the moral universe is long, but it bends toward justice.
 -- Martin Luther King, Jr.
 Job cpu time:       0 days  0 hours  0 minutes  0.4 seconds.
 File lengths (MBytes):  RWF=      7 Int=      0 D2E=      0 Chk=      2 Scr=      1
 Normal termination of Gaussian 09 at Tue Dec 15 16:18:03 2015.
