 Entering Gaussian System, Link 0=g09
 Input=FuranAM1_1P4.com
 Output=FuranAM1_1P4.log
 Initial command:
 /home/Applications/g09/g09/l1.exe "/home/Applications/g09/scratch/Gau-7430.inp" -scrdir="/home/Applications/g09/scratch/"
 Entering Link 1 = /home/Applications/g09/g09/l1.exe PID=      7438.
  
 Copyright (c) 1988,1990,1992,1993,1995,1998,2003,2009,2013,
            Gaussian, Inc.  All Rights Reserved.
  
 This is part of the Gaussian(R) 09 program.  It is based on
 the Gaussian(R) 03 system (copyright 2003, Gaussian, Inc.),
 the Gaussian(R) 98 system (copyright 1998, Gaussian, Inc.),
 the Gaussian(R) 94 system (copyright 1995, Gaussian, Inc.),
 the Gaussian 92(TM) system (copyright 1992, Gaussian, Inc.),
 the Gaussian 90(TM) system (copyright 1990, Gaussian, Inc.),
 the Gaussian 88(TM) system (copyright 1988, Gaussian, Inc.),
 the Gaussian 86(TM) system (copyright 1986, Carnegie Mellon
 University), and the Gaussian 82(TM) system (copyright 1983,
 Carnegie Mellon University). Gaussian is a federally registered
 trademark of Gaussian, Inc.
  
 This software contains proprietary and confidential information,
 including trade secrets, belonging to Gaussian, Inc.
  
 This software is provided under written license and may be
 used, copied, transmitted, or stored only in accord with that
 written license.
  
 The following legend is applicable only to US Government
 contracts under FAR:
  
                    RESTRICTED RIGHTS LEGEND
  
 Use, reproduction and disclosure by the US Government is
 subject to restrictions as set forth in subparagraphs (a)
 and (c) of the Commercial Computer Software - Restricted
 Rights clause in FAR 52.227-19.
  
 Gaussian, Inc.
 340 Quinnipiac St., Bldg. 40, Wallingford CT 06492
  
  
 ---------------------------------------------------------------
 Warning -- This program may not be used in any manner that
 competes with the business of Gaussian, Inc. or will provide
 assistance to any competitor of Gaussian, Inc.  The licensee
 of this program is prohibited from giving any competitor of
 Gaussian, Inc. access to this program.  By using this program,
 the user acknowledges that Gaussian, Inc. is engaged in the
 business of creating and licensing software in the field of
 computational chemistry and represents and warrants to the
 licensee that it is not a competitor of Gaussian, Inc. and that
 it will not use this program in any manner prohibited above.
 ---------------------------------------------------------------
  

 Cite this work as:
 Gaussian 09, Revision D.01,
 M. J. Frisch, G. W. Trucks, H. B. Schlegel, G. E. Scuseria, 
 M. A. Robb, J. R. Cheeseman, G. Scalmani, V. Barone, B. Mennucci, 
 G. A. Petersson, H. Nakatsuji, M. Caricato, X. Li, H. P. Hratchian, 
 A. F. Izmaylov, J. Bloino, G. Zheng, J. L. Sonnenberg, M. Hada, 
 M. Ehara, K. Toyota, R. Fukuda, J. Hasegawa, M. Ishida, T. Nakajima, 
 Y. Honda, O. Kitao, H. Nakai, T. Vreven, J. A. Montgomery, Jr., 
 J. E. Peralta, F. Ogliaro, M. Bearpark, J. J. Heyd, E. Brothers, 
 K. N. Kudin, V. N. Staroverov, T. Keith, R. Kobayashi, J. Normand, 
 K. Raghavachari, A. Rendell, J. C. Burant, S. S. Iyengar, J. Tomasi, 
 M. Cossi, N. Rega, J. M. Millam, M. Klene, J. E. Knox, J. B. Cross, 
 V. Bakken, C. Adamo, J. Jaramillo, R. Gomperts, R. E. Stratmann, 
 O. Yazyev, A. J. Austin, R. Cammi, C. Pomelli, J. W. Ochterski, 
 R. L. Martin, K. Morokuma, V. G. Zakrzewski, G. A. Voth, 
 P. Salvador, J. J. Dannenberg, S. Dapprich, A. D. Daniels, 
 O. Farkas, J. B. Foresman, J. V. Ortiz, J. Cioslowski, 
 and D. J. Fox, Gaussian, Inc., Wallingford CT, 2013.
 
 ******************************************
 Gaussian 09:  ES64L-G09RevD.01 24-Apr-2013
                15-Dec-2015 
 ******************************************
 ------------------------------------------------------------
 #P AM1(Input,print) CIS(Singlets,NStates=15) pop(full) force
 ------------------------------------------------------------
 1/10=7,30=1,38=1/1,3;
 2/12=2,17=6,18=5,40=1/2;
 3/5=2,16=1,25=1,41=700000,71=1,135=100,136=1/1,2,8,3;
 4/35=1/1;
 5/5=2,35=1,38=5/2;
 8/6=1,10=1,108=15/1;
 9/15=2,41=15,42=1,48=1,49=10/14;
 10/5=4/2;
 6/7=3,18=1/1;
 7/12=6,13=5,29=1/1,2,3,16;
 1/10=7,30=1/3;
 99//99;
 Leave Link    1 at Tue Dec 15 17:05:28 2015, MaxMem=           0 cpu:         0.0
 (Enter /home/Applications/g09/g09/l101.exe)
 -----------------
 AM1-Reparam Input
 -----------------
 Symbolic Z-matrix:
 Charge =  0 Multiplicity = 1
 6                     0.97564  -0.66844   0.04444 
 6                    -0.35295  -1.05215  -0.04464 
 8                    -1.16901   0.00837   0.00169 
 6                    -0.36766   1.06548   0.02468 
 6                     0.94903   0.73648   0.01543 
 1                     1.77175   1.33961   0.0134 
 1                    -0.84933   2.03906   0.02918 
 1                    -0.79223  -2.07565   0.02142 
 1                     1.85857  -1.40388   0.03528 
 
 NAtoms=      9 NQM=        9 NQMF=       0 NMMI=      0 NMMIF=      0
                NMic=       0 NMicF=      0.
                    Isotopes and Nuclear Properties:
 (Nuclear quadrupole moments (NQMom) in fm**2, nuclear magnetic moments (NMagM)
  in nuclear magnetons)

  Atom         1           2           3           4           5           6           7           8           9
 IAtWgt=          12          12          16          12          12           1           1           1           1
 AtmWgt=  12.0000000  12.0000000  15.9949146  12.0000000  12.0000000   1.0078250   1.0078250   1.0078250   1.0078250
 NucSpn=           0           0           0           0           0           1           1           1           1
 AtZEff=   0.0000000   0.0000000   0.0000000   0.0000000   0.0000000   0.0000000   0.0000000   0.0000000   0.0000000
 NQMom=    0.0000000   0.0000000   0.0000000   0.0000000   0.0000000   0.0000000   0.0000000   0.0000000   0.0000000
 NMagM=    0.0000000   0.0000000   0.0000000   0.0000000   0.0000000   2.7928460   2.7928460   2.7928460   2.7928460
 AtZNuc=   6.0000000   6.0000000   8.0000000   6.0000000   6.0000000   1.0000000   1.0000000   1.0000000   1.0000000
 Leave Link  101 at Tue Dec 15 17:05:28 2015, MaxMem=    33554432 cpu:         0.1
 (Enter /home/Applications/g09/g09/l103.exe)

 GradGradGradGradGradGradGradGradGradGradGradGradGradGradGradGradGradGrad
 Berny optimization.
 Initialization pass.
 Trust Radius=3.00D-01 FncErr=1.00D-07 GrdErr=1.00D-07
 Number of steps in this run=      2 maximum allowed number of steps=      2.
 GradGradGradGradGradGradGradGradGradGradGradGradGradGradGradGradGradGrad

 Leave Link  103 at Tue Dec 15 17:05:28 2015, MaxMem=    33554432 cpu:         0.0
 (Enter /home/Applications/g09/g09/l202.exe)
                          Input orientation:                          
 ---------------------------------------------------------------------
 Center     Atomic      Atomic             Coordinates (Angstroms)
 Number     Number       Type             X           Y           Z
 ---------------------------------------------------------------------
      1          6           0        0.975639   -0.668440    0.044435
      2          6           0       -0.352946   -1.052150   -0.044642
      3          8           0       -1.169008    0.008370    0.001692
      4          6           0       -0.367658    1.065478    0.024677
      5          6           0        0.949033    0.736479    0.015427
      6          1           0        1.771752    1.339605    0.013397
      7          1           0       -0.849328    2.039065    0.029177
      8          1           0       -0.792227   -2.075653    0.021419
      9          1           0        1.858570   -1.403878    0.035276
 ---------------------------------------------------------------------
                    Distance matrix (angstroms):
                    1          2          3          4          5
     1  C    0.000000
     2  C    1.385751   0.000000
     3  O    2.249313   1.338957   0.000000
     4  C    2.193470   2.118813   1.326713   0.000000
     5  C    1.405470   2.213132   2.239739   1.357203   0.000000
     6  H    2.160325   3.199719   3.228063   2.156930   1.020114
     7  H    3.265168   3.131686   2.055887   1.086231   2.220590
     8  H    2.259674   1.115746   2.117901   3.169696   3.307584
     9  H    1.149139   2.240737   3.340928   3.324744   2.325678
                    6          7          8          9
     6  H    0.000000
     7  H    2.712850   0.000000
     8  H    4.270602   4.115121   0.000000
     9  H    2.744944   4.380252   2.734629   0.000000
 Stoichiometry    C4H4O
 Framework group  C1[X(C4H4O)]
 Deg. of freedom    21
 Full point group                 C1      NOp   1
 Largest Abelian subgroup         C1      NOp   1
 Largest concise Abelian subgroup C1      NOp   1
                         Standard orientation:                         
 ---------------------------------------------------------------------
 Center     Atomic      Atomic             Coordinates (Angstroms)
 Number     Number       Type             X           Y           Z
 ---------------------------------------------------------------------
      1          6           0       -1.157311    0.290330   -0.028214
      2          6           0       -0.572330   -0.964085    0.039219
      3          8           0        0.763191   -0.880420   -0.007601
      4          6           0        1.032317    0.418708   -0.009386
      5          6           0       -0.081540    1.193798    0.014300
      6          1           0       -0.168388    2.210029    0.033333
      7          1           0        2.082468    0.696339   -0.010745
      8          1           0       -1.054420   -1.966954   -0.042835
      9          1           0       -2.292005    0.471443   -0.014456
 ---------------------------------------------------------------------
 Rotational constants (GHZ):      9.8840788      9.1575612      4.7566375
 Leave Link  202 at Tue Dec 15 17:05:28 2015, MaxMem=    33554432 cpu:         0.0
 (Enter /home/Applications/g09/g09/l301.exe)

 Semi-emprical parameters in input format:
 Method=8 CoreType=1 PeptideFC=0.0108360000 RIJScale=0.5404210000
 ****
 H       
 PQN=1 NValence=1 F0ss=0.4721550000 ZetaOverlap=1.0856700000 U=-0.4188110000
 Beta=-0.2268830000 CoreKO=1.0354420000 KON=0,0,0,1.0458670000 KON=1,0,1,1.0589200000
 KON=0,1,1,1.0589200000 KON=2,1,1,1.0697690000 EISol=-0.4188110042 EHeat=0.0830298228
 Alpha=1.4609850000
 GCore=0.0085280000,1.4001430000,2.2676710000
 GCore=0.0003530000,1.4368830000,3.4779940000
 GCore=-0.0011900000,0.5600570000,3.5861320000
 ****
 C       
 PQN=2,2 NValence=4 F0ss=0.4494440000 F0sp=0.4261420000 F0pp=0.3497590000 F2pp=0.1878900000
 G1sp=0.2503010000
 ZetaOverlap=1.8632470000,1.4040900000
 U=-1.7215630000,-1.4557970000
 Beta=-0.5453250000,-0.3063130000 DDN=0,1,0.7474020000 DDN=1,1,0.7268010000
 CoreKO=1.0436360000 KON=0,0,0,1.1124280000 KON=1,0,1,0.8998210000 KON=0,1,1,1.1124280000
 KON=2,1,1,0.8516400000 EISol=-4.4398989268 EHeat=0.2723305520 Alpha=1.4989150000
 DipHyp=1.4947180026
 GCore=0.0007890000,1.3361580000,2.6678360000
 GCore=0.0028980000,1.4001430000,3.7217330000
 GCore=-0.0013930000,1.3827320000,3.8739390000
 GCore=-0.0001030000,1.4001430000,4.6088130000
 ****
 O       
 PQN=2,2 NValence=6 F0ss=0.5666750000 F0sp=0.5772260000 F0pp=0.4958710000 F2pp=0.2358080000
 G1sp=0.4210010000
 ZetaOverlap=2.6354490000,2.5240390000
 U=-3.5951870000,-2.4766000000
 Beta=-1.1573400000,-1.2994290000 DDN=0,1,0.4953610000 DDN=1,1,0.4852320000
 CoreKO=0.8515990000 KON=0,0,0,0.9256950000 KON=1,0,1,0.5019540000 KON=0,1,1,0.8593090000
 KON=2,1,1,0.5515580000 EISol=-11.6164441184 EHeat=0.0949133088 Alpha=2.4031680000
 DipHyp=0.9906650029
 GCore=0.0204720000,1.2640290000,1.6023330000
 GCore=0.0047010000,1.8659010000,2.7307880000
 ****
 
 Standard basis: VSTO-6G (5D, 7F)
 Ernie: Thresh=  0.10000D-02 Tol=  0.10000D-05 Strict=F.
  NNHCO=     0 NNPyr=     0 NCTC=     0               EPep=         0.000000000
    EC=        70.119432037  ECS=         1.572242042   EG=         0.375610271
   EHC=         0.000000000  EAt=       -31.051283842  AtH=         1.516354808
 EPDDG=         0.000000000  ECC=        72.067284349 EAtT=        32.567638650
 There are    24 symmetry adapted cartesian basis functions of A   symmetry.
 There are    24 symmetry adapted basis functions of A   symmetry.
    24 basis functions,   144 primitive gaussians,    24 cartesian basis functions
    13 alpha electrons       13 beta electrons
       nuclear repulsion energy       104.6349229993 Hartrees.
 IExCor=    0 DFT=F Ex=HF Corr=None ExCW=0 ScaHFX=  1.000000
 ScaDFX=  1.000000  1.000000  1.000000  1.000000 ScalE2=  1.000000  1.000000
 IRadAn=      0 IRanWt=     -1 IRanGd=            0 ICorTp=0 IEmpDi=  4
 Integral buffers will be    131072 words long.
 Regular integral format.
 Two-electron integral symmetry is turned off.
 Leave Link  301 at Tue Dec 15 17:05:28 2015, MaxMem=    33554432 cpu:         0.0
 (Enter /home/Applications/g09/g09/l302.exe)
 Do NDO integrals.
 NPDir=0 NMtPBC=     1 NCelOv=     1 NCel=       1 NClECP=     1 NCelD=      1
         NCelK=      1 NCelE2=     1 NClLst=     1 CellRange=     0.0.
 One-electron integrals computed using PRISM.
 NBasis=    24 RedAO= F EigKep=  0.00D+00  NBF=    24
 NBsUse=    24 1.00D-04 EigRej=  0.00D+00 NBFU=    24
 Leave Link  302 at Tue Dec 15 17:05:29 2015, MaxMem=    33554432 cpu:         0.0
 (Enter /home/Applications/g09/g09/l308.exe)
 Leave Link  308 at Tue Dec 15 17:05:29 2015, MaxMem=    33554432 cpu:         0.0
 (Enter /home/Applications/g09/g09/l303.exe)
 DipDrv:  MaxL=1.
 Leave Link  303 at Tue Dec 15 17:05:29 2015, MaxMem=    33554432 cpu:         0.0
 (Enter /home/Applications/g09/g09/l401.exe)
 Simple Huckel Guess.
 JPrj=0 DoOrth=F DoCkMO=F.
 Leave Link  401 at Tue Dec 15 17:05:29 2015, MaxMem=    33554432 cpu:         0.0
 (Enter /home/Applications/g09/g09/l502.exe)
 Closed shell SCF:
 Using DIIS extrapolation, IDIIS=  1040.
 Overlap will be assumed to be unity.
 Two-electron integral symmetry not used.
 Keep J ints in memory in canonical form, NReq=888082.
 IVT=       79475 IEndB=       79475 NGot=    33554432 MDV=    33473473
 LenX=    33473473 LenY=    33472456
 Requested convergence on RMS density matrix=1.00D-08 within 128 cycles.
 Requested convergence on MAX density matrix=1.00D-06.
 Requested convergence on             energy=1.00D-06.
 No special actions if energy rises.
 FoFCou: FMM=F IPFlag=           0 FMFlag=           0 FMFlg1=           0
         NFxFlg=           0 DoJE=F BraDBF=F KetDBF=F FulRan=T
         wScrn=  0.000000 ICntrl=     600 IOpCl=  2 I1Cent=           0 NGrid=           0
         NMat0=    1 NMatS0=     54 NMatT0=    0 NMatD0=    1 NMtDS0=    0 NMtDT0=    0
 Symmetry not used in FoFCou.

 Cycle   1  Pass 1  IDiag  1:
 E=  1.98857233183789    
 DIIS: error= 9.01D-02 at cycle   1 NSaved=   1.
 NSaved= 1 IEnMin= 1 EnMin=  1.98857233183789     IErMin= 1 ErrMin= 9.01D-02
 ErrMax= 9.01D-02  0.00D+00 EMaxC= 1.00D-01 BMatC= 1.87D-01 BMatP= 1.87D-01
 IDIUse=3 WtCom= 9.89D-02 WtEn= 9.01D-01
 Coeff-Com:  0.100D+01
 Coeff-En:   0.100D+01
 Coeff:      0.100D+01
 GapD=    2.000 DampG=2.000 DampE=0.500 DampFc=1.0000 IDamp=-1.
 RMSDP=4.04D-02 MaxDP=4.39D-01              OVMax= 0.00D+00

 Cycle   2  Pass 1  IDiag  1:
 E=  1.22391112768291     Delta-E=       -0.764661204155 Rises=F Damp=F
 DIIS: error= 3.15D-02 at cycle   2 NSaved=   2.
 NSaved= 2 IEnMin= 2 EnMin=  1.22391112768291     IErMin= 2 ErrMin= 3.15D-02
 ErrMax= 3.15D-02  0.00D+00 EMaxC= 1.00D-01 BMatC= 2.83D-02 BMatP= 1.87D-01
 IDIUse=3 WtCom= 6.85D-01 WtEn= 3.15D-01
 Coeff-Com: -0.123D+00 0.112D+01
 Coeff-En:   0.000D+00 0.100D+01
 Coeff:     -0.846D-01 0.108D+01
 RMSDP=1.51D-02 MaxDP=9.29D-02 DE=-7.65D-01 OVMax= 0.00D+00

 Cycle   3  Pass 1  IDiag  1:
 E=  1.10709316116515     Delta-E=       -0.116817966518 Rises=F Damp=F
 DIIS: error= 1.41D-02 at cycle   3 NSaved=   3.
 NSaved= 3 IEnMin= 3 EnMin=  1.10709316116515     IErMin= 3 ErrMin= 1.41D-02
 ErrMax= 1.41D-02  0.00D+00 EMaxC= 1.00D-01 BMatC= 4.73D-03 BMatP= 2.83D-02
 IDIUse=3 WtCom= 8.59D-01 WtEn= 1.41D-01
 Coeff-Com: -0.497D-01-0.349D+00 0.140D+01
 Coeff-En:   0.000D+00 0.000D+00 0.100D+01
 Coeff:     -0.426D-01-0.299D+00 0.134D+01
 RMSDP=8.61D-03 MaxDP=5.61D-02 DE=-1.17D-01 OVMax= 0.00D+00

 Cycle   4  Pass 1  IDiag  3:
 E=  1.08278506436533     Delta-E=       -0.024308096800 Rises=F Damp=F
 DIIS: error= 2.94D-03 at cycle   4 NSaved=   4.
 NSaved= 4 IEnMin= 4 EnMin=  1.08278506436533     IErMin= 4 ErrMin= 2.94D-03
 ErrMax= 2.94D-03  0.00D+00 EMaxC= 1.00D-01 BMatC= 3.37D-04 BMatP= 4.73D-03
 IDIUse=3 WtCom= 9.71D-01 WtEn= 2.94D-02
 Coeff-Com:  0.313D-01 0.106D+00-0.668D+00 0.153D+01
 Coeff-En:   0.000D+00 0.000D+00 0.000D+00 0.100D+01
 Coeff:      0.303D-01 0.103D+00-0.648D+00 0.152D+01
 Gap=     0.426 Goal=   None    Shift=    0.000
 RMSDP=2.63D-03 MaxDP=1.25D-02 DE=-2.43D-02 OVMax= 2.36D-02

 Cycle   5  Pass 1  IDiag  3:
 E=  1.08096061973605     Delta-E=       -0.001824444629 Rises=F Damp=F
 DIIS: error= 6.34D-04 at cycle   5 NSaved=   5.
 NSaved= 5 IEnMin= 5 EnMin=  1.08096061973605     IErMin= 5 ErrMin= 6.34D-04
 ErrMax= 6.34D-04  0.00D+00 EMaxC= 1.00D-01 BMatC= 1.18D-05 BMatP= 3.37D-04
 IDIUse=3 WtCom= 9.94D-01 WtEn= 6.34D-03
 Coeff-Com: -0.614D-02-0.282D-01 0.116D+00-0.344D+00 0.126D+01
 Coeff-En:   0.000D+00 0.000D+00 0.000D+00 0.000D+00 0.100D+01
 Coeff:     -0.610D-02-0.280D-01 0.116D+00-0.342D+00 0.126D+01
 Gap=     0.430 Goal=   None    Shift=    0.000
 RMSDP=5.41D-04 MaxDP=3.14D-03 DE=-1.82D-03 OVMax= 5.13D-03

 Cycle   6  Pass 1  IDiag  3:
 E=  1.08089687472682     Delta-E=       -0.000063745009 Rises=F Damp=F
 DIIS: error= 1.84D-04 at cycle   6 NSaved=   6.
 NSaved= 6 IEnMin= 6 EnMin=  1.08089687472682     IErMin= 6 ErrMin= 1.84D-04
 ErrMax= 1.84D-04  0.00D+00 EMaxC= 1.00D-01 BMatC= 8.36D-07 BMatP= 1.18D-05
 IDIUse=3 WtCom= 9.98D-01 WtEn= 1.84D-03
 Coeff-Com: -0.836D-03 0.188D-02 0.246D-01-0.410D-01-0.341D+00 0.136D+01
 Coeff-En:   0.000D+00 0.000D+00 0.000D+00 0.000D+00 0.000D+00 0.100D+01
 Coeff:     -0.835D-03 0.187D-02 0.245D-01-0.410D-01-0.340D+00 0.136D+01
 Gap=     0.429 Goal=   None    Shift=    0.000
 RMSDP=1.14D-04 MaxDP=8.31D-04 DE=-6.37D-05 OVMax= 5.58D-04

 Cycle   7  Pass 1  IDiag  3:
 E=  1.08089310745501     Delta-E=       -0.000003767272 Rises=F Damp=F
 DIIS: error= 3.12D-05 at cycle   7 NSaved=   7.
 NSaved= 7 IEnMin= 7 EnMin=  1.08089310745501     IErMin= 7 ErrMin= 3.12D-05
 ErrMax= 3.12D-05  0.00D+00 EMaxC= 1.00D-01 BMatC= 2.51D-08 BMatP= 8.36D-07
 IDIUse=1 WtCom= 1.00D+00 WtEn= 0.00D+00
 Coeff-Com:  0.295D-03 0.127D-03-0.134D-01 0.248D-01 0.117D+00-0.591D+00
 Coeff-Com:  0.146D+01
 Coeff:      0.295D-03 0.127D-03-0.134D-01 0.248D-01 0.117D+00-0.591D+00
 Coeff:      0.146D+01
 Gap=     0.429 Goal=   None    Shift=    0.000
 RMSDP=2.33D-05 MaxDP=2.03D-04 DE=-3.77D-06 OVMax= 2.20D-04

 Cycle   8  Pass 1  IDiag  3:
 E=  1.08089297904593     Delta-E=       -0.000000128409 Rises=F Damp=F
 DIIS: error= 8.03D-06 at cycle   8 NSaved=   8.
 NSaved= 8 IEnMin= 8 EnMin=  1.08089297904593     IErMin= 8 ErrMin= 8.03D-06
 ErrMax= 8.03D-06  0.00D+00 EMaxC= 1.00D-01 BMatC= 1.38D-09 BMatP= 2.51D-08
 IDIUse=1 WtCom= 1.00D+00 WtEn= 0.00D+00
 Coeff-Com: -0.710D-04-0.492D-03 0.502D-02-0.920D-02-0.251D-01 0.142D+00
 Coeff-Com: -0.421D+00 0.131D+01
 Coeff:     -0.710D-04-0.492D-03 0.502D-02-0.920D-02-0.251D-01 0.142D+00
 Coeff:     -0.421D+00 0.131D+01
 Gap=     0.429 Goal=   None    Shift=    0.000
 RMSDP=4.18D-06 MaxDP=3.20D-05 DE=-1.28D-07 OVMax= 3.16D-05

 Cycle   9  Pass 1  IDiag  3:
 E=  1.08089297303420     Delta-E=       -0.000000006012 Rises=F Damp=F
 DIIS: error= 1.86D-06 at cycle   9 NSaved=   9.
 NSaved= 9 IEnMin= 9 EnMin=  1.08089297303420     IErMin= 9 ErrMin= 1.86D-06
 ErrMax= 1.86D-06  0.00D+00 EMaxC= 1.00D-01 BMatC= 1.08D-10 BMatP= 1.38D-09
 IDIUse=1 WtCom= 1.00D+00 WtEn= 0.00D+00
 Coeff-Com:  0.505D-05 0.177D-03-0.142D-02 0.236D-02 0.754D-02-0.366D-01
 Coeff-Com:  0.955D-01-0.583D+00 0.152D+01
 Coeff:      0.505D-05 0.177D-03-0.142D-02 0.236D-02 0.754D-02-0.366D-01
 Coeff:      0.955D-01-0.583D+00 0.152D+01
 Gap=     0.429 Goal=   None    Shift=    0.000
 RMSDP=1.92D-06 MaxDP=1.61D-05 DE=-6.01D-09 OVMax= 1.81D-05

 Cycle  10  Pass 1  IDiag  3:
 E=  1.08089297226704     Delta-E=       -0.000000000767 Rises=F Damp=F
 DIIS: error= 5.64D-07 at cycle  10 NSaved=  10.
 NSaved=10 IEnMin=10 EnMin=  1.08089297226704     IErMin=10 ErrMin= 5.64D-07
 ErrMax= 5.64D-07  0.00D+00 EMaxC= 1.00D-01 BMatC= 7.23D-12 BMatP= 1.08D-10
 IDIUse=1 WtCom= 1.00D+00 WtEn= 0.00D+00
 Coeff-Com:  0.310D-05-0.360D-04 0.277D-03-0.371D-03-0.205D-02 0.765D-02
 Coeff-Com: -0.132D-01 0.175D+00-0.723D+00 0.156D+01
 Coeff:      0.310D-05-0.360D-04 0.277D-03-0.371D-03-0.205D-02 0.765D-02
 Coeff:     -0.132D-01 0.175D+00-0.723D+00 0.156D+01
 Gap=     0.429 Goal=   None    Shift=    0.000
 RMSDP=5.27D-07 MaxDP=5.02D-06 DE=-7.67D-10 OVMax= 5.70D-06

 Cycle  11  Pass 1  IDiag  3:
 E=  1.08089297221532     Delta-E=       -0.000000000052 Rises=F Damp=F
 DIIS: error= 1.08D-07 at cycle  11 NSaved=  11.
 NSaved=11 IEnMin=11 EnMin=  1.08089297221532     IErMin=11 ErrMin= 1.08D-07
 ErrMax= 1.08D-07  0.00D+00 EMaxC= 1.00D-01 BMatC= 4.08D-13 BMatP= 7.23D-12
 IDIUse=1 WtCom= 1.00D+00 WtEn= 0.00D+00
 Coeff-Com: -0.540D-06 0.525D-05-0.389D-04 0.387D-04 0.259D-03-0.626D-03
 Coeff-Com: -0.108D-02-0.378D-01 0.219D+00-0.661D+00 0.148D+01
 Coeff:     -0.540D-06 0.525D-05-0.389D-04 0.387D-04 0.259D-03-0.626D-03
 Coeff:     -0.108D-02-0.378D-01 0.219D+00-0.661D+00 0.148D+01
 Gap=     0.429 Goal=   None    Shift=    0.000
 RMSDP=1.09D-07 MaxDP=9.95D-07 DE=-5.17D-11 OVMax= 9.85D-07

 Cycle  12  Pass 1  IDiag  3:
 E=  1.08089297221272     Delta-E=       -0.000000000003 Rises=F Damp=F
 DIIS: error= 2.49D-08 at cycle  12 NSaved=  12.
 NSaved=12 IEnMin=12 EnMin=  1.08089297221272     IErMin=12 ErrMin= 2.49D-08
 ErrMax= 2.49D-08  0.00D+00 EMaxC= 1.00D-01 BMatC= 2.12D-14 BMatP= 4.08D-13
 IDIUse=1 WtCom= 1.00D+00 WtEn= 0.00D+00
 Coeff-Com:  0.245D-07-0.356D-06 0.515D-05-0.223D-05-0.176D-04-0.513D-04
 Coeff-Com:  0.921D-03 0.974D-02-0.654D-01 0.214D+00-0.640D+00 0.148D+01
 Coeff:      0.245D-07-0.356D-06 0.515D-05-0.223D-05-0.176D-04-0.513D-04
 Coeff:      0.921D-03 0.974D-02-0.654D-01 0.214D+00-0.640D+00 0.148D+01
 Gap=     0.429 Goal=   None    Shift=    0.000
 RMSDP=2.57D-08 MaxDP=1.99D-07 DE=-2.60D-12 OVMax= 2.14D-07

 Cycle  13  Pass 1  IDiag  3:
 E=  1.08089297221288     Delta-E=        0.000000000000 Rises=F Damp=F
 DIIS: error= 4.21D-09 at cycle  13 NSaved=  13.
 NSaved=13 IEnMin=12 EnMin=  1.08089297221272     IErMin=13 ErrMin= 4.21D-09
 ErrMax= 4.21D-09  0.00D+00 EMaxC= 1.00D-01 BMatC= 6.68D-16 BMatP= 2.12D-14
 IDIUse=1 WtCom= 1.00D+00 WtEn= 0.00D+00
 Coeff-Com:  0.863D-08 0.591D-07-0.669D-06-0.452D-06-0.933D-05 0.733D-04
 Coeff-Com: -0.411D-03-0.269D-02 0.196D-01-0.654D-01 0.205D+00-0.600D+00
 Coeff-Com:  0.144D+01
 Coeff:      0.863D-08 0.591D-07-0.669D-06-0.452D-06-0.933D-05 0.733D-04
 Coeff:     -0.411D-03-0.269D-02 0.196D-01-0.654D-01 0.205D+00-0.600D+00
 Coeff:      0.144D+01
 Gap=     0.429 Goal=   None    Shift=    0.000
 RMSDP=4.17D-09 MaxDP=2.79D-08 DE= 1.56D-13 OVMax= 3.81D-08

 Cycle  14  Pass 2  IDiag  1:
 SCF Done:  E(RAM1) =   1.08089297221     A.U. after   14 cycles
            NFock= 13  Conv=0.42D-08     -V/T= 1.0720
 KE=-1.501831459928D+01 PE=-1.716967775158D+02 EE= 8.316106208800D+01
 Leave Link  502 at Tue Dec 15 17:05:29 2015, MaxMem=    33554432 cpu:         0.0
 (Enter /home/Applications/g09/g09/l801.exe)
 Range of M.O.s used for correlation:     1    24
 NBasis=    24 NAE=    13 NBE=    13 NFC=     0 NFV=     0
 NROrb=     24 NOA=    13 NOB=    13 NVA=    11 NVB=    11
 Leave Link  801 at Tue Dec 15 17:05:29 2015, MaxMem=    33554432 cpu:         0.0
 (Enter /home/Applications/g09/g09/l914.exe)
 RHF ground state
 MDV=    33554432 DFT=F DoStab=F Mixed=F DoRPA=F DoScal=F NonHer=F
 Making orbital integer symmetry assigments:
 Orbital symmetries:
       Occupied  (A) (A) (A) (A) (A) (A) (A) (A) (A) (A) (A) (A)
                 (A)
       Virtual   (A) (A) (A) (A) (A) (A) (A) (A) (A) (A) (A)
    60 initial guesses have been made.
 Convergence on wavefunction:    0.000001000000000
 Davidson Disk Diagonalization:  ConvIn= 1.00D-06 SkipCon=T Conv= 1.00D-06.
 Max sub-space:   240 roots to seek:    60 dimension of matrix:          286
 Iteration     1 Dimension    60 NMult     0 NNew     60
 CISAX will form    60 AO SS matrices at one time.
 NMat=    60 NSing=    60 JSym2X= 0.
 FoFJK:  IHMeth= 8 ICntrl=       0 DoSepK=F KAlg= 0 I1Cent=   0 FoldK=F
 IRaf=         1 NMat= 120 IRICut=       1 DoRegI=T DoRafI=F ISym2E= 0.
 FoFCou: FMM=F IPFlag=           0 FMFlag=      100000 FMFlg1=           0
         NFxFlg=           0 DoJE=F BraDBF=F KetDBF=F FulRan=T
         wScrn=  0.000000 ICntrl=       0 IOpCl=  0 I1Cent=           0 NGrid=           0
         NMat0=  120 NMatS0=     60 NMatT0=    0 NMatD0=  120 NMtDS0=    0 NMtDT0=    0
 Symmetry not used in FoFCou.
 New state      4 was old state      5
 New state      5 was old state      6
 New state      6 was old state      7
 New state      7 was old state      4
 New state     12 was old state     14
 New state     13 was old state     18
 New state     14 was old state     13
 Excitation Energies [eV] at current iteration:
 Root      1 :     5.815089071792409
 Root      2 :     6.811385876004376
 Root      3 :     7.141125581348099
 Root      4 :     7.281721592683334
 Root      5 :     7.602504849971985
 Root      6 :     7.898847639677651
 Root      7 :     8.380330254401422
 Root      8 :     8.448779161382108
 Root      9 :     8.665365296331773
 Root     10 :     9.017525920750938
 Root     11 :     9.065196601205006
 Root     12 :     9.291414748177585
 Root     13 :     9.440740550736619
 Root     14 :     9.581905374096904
 Root     15 :     9.640276490095280
 Root     16 :     9.758795157605537
 Root     17 :     9.813726817411437
 Root     18 :     9.851315313630886
 Root     19 :    10.183067234974700
 Root     20 :    10.679112027622210
 Root     21 :    10.837762235848990
 Root     22 :    10.899069723019260
 Root     23 :    11.019089068172170
 Root     24 :    11.104788963138760
 Root     25 :    11.106190343458270
 Root     26 :    11.192663726826290
 Root     27 :    11.329410046965270
 Root     28 :    11.398370849473700
 Root     29 :    11.491676187797000
 Root     30 :    11.525044992680960
 Root     31 :    11.555110184252800
 Root     32 :    11.759786038536010
 Root     33 :    11.797842735588260
 Root     34 :    11.958714550517710
 Root     35 :    12.085649946656780
 Root     36 :    12.303750758109080
 Root     37 :    12.441713024700080
 Root     38 :    12.589295050287700
 Root     39 :    12.788624631536360
 Root     40 :    12.849361529292010
 Root     41 :    12.949213380273840
 Root     42 :    13.144809951282740
 Root     43 :    13.213646436450270
 Root     44 :    13.478381057459140
 Root     45 :    13.519601148584060
 Root     46 :    13.783352667110460
 Root     47 :    13.917097618654940
 Root     48 :    14.010596338570520
 Root     49 :    14.100313714416830
 Root     50 :    14.152849021309180
 Root     51 :    14.334001086073380
 Root     52 :    14.384208926183180
 Root     53 :    14.514995561254610
 Root     54 :    14.881237088226050
 Root     55 :    15.014344670488210
 Root     56 :    15.029893599641750
 Root     57 :    15.268502963305560
 Root     58 :    15.475187521141880
 Root     59 :    15.536805662180290
 Root     60 :    16.153630125057300
 Iteration     2 Dimension   120 NMult    60 NNew     60
 CISAX will form    60 AO SS matrices at one time.
 NMat=    60 NSing=    60 JSym2X= 0.
 Root      1 not converged, maximum delta is    0.025325078496364
 Root      2 not converged, maximum delta is    0.034791899187801
 Root      3 not converged, maximum delta is    0.022340817354002
 Root      4 not converged, maximum delta is    0.035433392781217
 Root      5 not converged, maximum delta is    0.031713091744977
 Root      6 not converged, maximum delta is    0.019695037344481
 Root      7 not converged, maximum delta is    0.076783513183119
 Root      8 not converged, maximum delta is    0.098008027538476
 Root      9 not converged, maximum delta is    0.087344929789004
 Root     10 not converged, maximum delta is    0.246553824873958
 Root     11 not converged, maximum delta is    0.242148305270668
 Root     12 not converged, maximum delta is    0.099260518067370
 Root     13 not converged, maximum delta is    0.109157828180334
 Root     14 not converged, maximum delta is    0.366876005601585
 Root     15 not converged, maximum delta is    0.390394474423575
 Excitation Energies [eV] at current iteration:
 Root      1 :     5.748586917198073   Change is   -0.066502154594336
 Root      2 :     6.730359695959144   Change is   -0.081026180045233
 Root      3 :     7.084005304353011   Change is   -0.057120276995088
 Root      4 :     7.220948613721364   Change is   -0.060772978961969
 Root      5 :     7.561810703147145   Change is   -0.040694146824840
 Root      6 :     7.881790257305861   Change is   -0.017057382371791
 Root      7 :     8.254964026404220   Change is   -0.125366227997202
 Root      8 :     8.318052223323036   Change is   -0.130726938059071
 Root      9 :     8.572020504002927   Change is   -0.093344792328846
 Root     10 :     8.804574674046631   Change is   -0.212951246704307
 Root     11 :     8.924073642137351   Change is   -0.141122959067654
 Root     12 :     9.135348961293143   Change is   -0.156065786884443
 Root     13 :     9.150827486886675   Change is   -0.289913063849944
 Root     14 :     9.386638556015034   Change is   -0.195266818081870
 Root     15 :     9.480266764446982   Change is   -0.160009725648296
 Root     16 :     9.573868704535629   Change is   -0.239858112875809
 Root     17 :     9.681723476632195   Change is   -0.077071680973342
 Root     18 :     9.780457892453638   Change is   -0.070857421177248
 Root     19 :    10.059730399051830   Change is   -0.123336835922868
 Root     20 :    10.357820216776170   Change is   -0.321291810846045
 Root     21 :    10.644353423707790   Change is   -0.374735644464386
 Root     22 :    10.757342805365520   Change is   -0.080419430483472
 Root     23 :    10.831915804246830   Change is   -0.067153918772429
 Root     24 :    10.866976759294220   Change is   -0.325686967532075
 Root     25 :    10.997717209218580   Change is   -0.107071753920182
 Root     26 :    11.066106901333330   Change is   -0.040083442124934
 Root     27 :    11.187481921489150   Change is   -0.337563071191809
 Root     28 :    11.271013014241700   Change is   -0.058397032723570
 Root     29 :    11.304405032775570   Change is   -0.187271155021427
 Root     30 :    11.380451086927600   Change is   -0.017919762546099
 Root     31 :    11.471354586340470   Change is   -0.083755597912332
 Root     32 :    11.522570328638920   Change is   -0.275272406949338
 Root     33 :    11.610300293358240   Change is   -0.149485745177768
 Root     34 :    11.742339137131270   Change is   -0.216375413386442
 Root     35 :    11.848440962404330   Change is   -0.237208984252453
 Root     36 :    11.898267429158840   Change is   -0.405483328950238
 Root     37 :    11.999270131325240   Change is   -0.442442893374833
 Root     38 :    12.337080436591180   Change is   -0.252214613696520
 Root     39 :    12.409764733684480   Change is   -0.378859897851873
 Root     40 :    12.652340291949220   Change is   -0.197021237342799
 Root     41 :    12.766892256248420   Change is   -0.182321124025421
 Root     42 :    12.818237480534960   Change is   -0.326572470747787
 Root     43 :    12.995889507997740   Change is   -0.523711640586314
 Root     44 :    13.132554088556600   Change is   -0.081092347893670
 Root     45 :    13.340295921137260   Change is   -0.138085136321882
 Root     46 :    13.501180194098590   Change is   -0.282172473011862
 Root     47 :    13.731038121615190   Change is   -0.186059497039758
 Root     48 :    13.812185912378690   Change is   -0.198410426191829
 Root     49 :    13.882434362351370   Change is   -0.217879352065455
 Root     50 :    13.999177764243630   Change is   -0.515817797010980
 Root     51 :    14.039231813215880   Change is   -0.113617208093300
 Root     52 :    14.173402826672650   Change is   -0.160598259400728
 Root     53 :    14.251954722207360   Change is   -0.132254203975819
 Root     54 :    14.392371020563410   Change is   -0.488866067662638
 Root     55 :    14.621524908420570   Change is   -0.392819762067643
 Root     56 :    14.742907370757220   Change is   -0.525595592548330
 Root     57 :    14.894824532345090   Change is   -0.135069067296661
 Root     58 :    15.035012719192900   Change is   -0.501792942987391
 Root     59 :    15.167368211544480   Change is   -0.307819309597397
 Root     60 :    15.828251672347910   Change is   -0.325378452709390
 Iteration     3 Dimension   135 NMult   120 NNew     15
 CISAX will form    15 AO SS matrices at one time.
 NMat=    15 NSing=    15 JSym2X= 0.
 Root      1 not converged, maximum delta is    0.002152935781515
 Root      2 not converged, maximum delta is    0.000090166404786
 Root      3 not converged, maximum delta is    0.000271452520382
 Root      4 not converged, maximum delta is    0.002131344863957
 Root      5 not converged, maximum delta is    0.000779588217941
 Root      6 not converged, maximum delta is    0.000240567070820
 Root      7 not converged, maximum delta is    0.004505025069899
 Root      8 not converged, maximum delta is    0.001796543463550
 Root      9 not converged, maximum delta is    0.000768492989733
 Root     10 not converged, maximum delta is    0.000456306964987
 Root     11 not converged, maximum delta is    0.002544487773064
 Root     12 not converged, maximum delta is    0.000690478528154
 Root     13 not converged, maximum delta is    0.000952584720637
 Root     14 not converged, maximum delta is    0.002783905191025
 Root     15 not converged, maximum delta is    0.004186367716048
 Excitation Energies [eV] at current iteration:
 Root      1 :     5.747973828907374   Change is   -0.000613088290699
 Root      2 :     6.730357491989326   Change is   -0.000002203969818
 Root      3 :     7.083999862715809   Change is   -0.000005441637201
 Root      4 :     7.220596317160096   Change is   -0.000352296561268
 Root      5 :     7.561773343692431   Change is   -0.000037359454714
 Root      6 :     7.881780566217144   Change is   -0.000009691088717
 Root      7 :     8.253749058462359   Change is   -0.001214967941861
 Root      8 :     8.317992516825479   Change is   -0.000059706497557
 Root      9 :     8.571973499561768   Change is   -0.000047004441158
 Root     10 :     8.804555817341077   Change is   -0.000018856705553
 Root     11 :     8.923227479994020   Change is   -0.000846162143332
 Root     12 :     9.135313747669091   Change is   -0.000035213624051
 Root     13 :     9.150768457188946   Change is   -0.000059029697730
 Root     14 :     9.385309379054057   Change is   -0.001329176960977
 Root     15 :     9.479876166534298   Change is   -0.000390597912684
 Iteration     4 Dimension   143 NMult   135 NNew      8
 CISAX will form     8 AO SS matrices at one time.
 NMat=     8 NSing=     8 JSym2X= 0.
 Root      1 not converged, maximum delta is    0.000146825538790
 Root      2 not converged, maximum delta is    0.000009222836006
 Root      3 not converged, maximum delta is    0.000004981202836
 Root      4 not converged, maximum delta is    0.000035571085305
 Root      5 not converged, maximum delta is    0.000010149734112
 Root      6 not converged, maximum delta is    0.000021683322424
 Root      7 not converged, maximum delta is    0.000044565058491
 Root      8 not converged, maximum delta is    0.000008253001465
 Root      9 not converged, maximum delta is    0.000014511418516
 Root     10 not converged, maximum delta is    0.000016881067227
 Root     11 not converged, maximum delta is    0.000068391167257
 Root     12 not converged, maximum delta is    0.000013503059715
 Root     13 not converged, maximum delta is    0.000039076818734
 Root     14 not converged, maximum delta is    0.000194019782786
 Root     15 not converged, maximum delta is    0.000154567829970
 Excitation Energies [eV] at current iteration:
 Root      1 :     5.747969486384480   Change is   -0.000004342522894
 Root      2 :     6.730357471404990   Change is   -0.000000020584336
 Root      3 :     7.083999852894252   Change is   -0.000000009821558
 Root      4 :     7.220595671499893   Change is   -0.000000645660203
 Root      5 :     7.561773290815156   Change is   -0.000000052877276
 Root      6 :     7.881780478948555   Change is   -0.000000087268589
 Root      7 :     8.253748118150630   Change is   -0.000000940311727
 Root      8 :     8.317992493313646   Change is   -0.000000023511833
 Root      9 :     8.571973469328958   Change is   -0.000000030232812
 Root     10 :     8.804555764449423   Change is   -0.000000052891654
 Root     11 :     8.923225313975323   Change is   -0.000002166018697
 Root     12 :     9.135313708204110   Change is   -0.000000039464981
 Root     13 :     9.150768207069856   Change is   -0.000000250119089
 Root     14 :     9.385304407371017   Change is   -0.000004971683041
 Root     15 :     9.479873261954635   Change is   -0.000002904579664
 Convergence achieved on expansion vectors.
 ***********************************************************************
 Excited states from <AA,BB:AA,BB> singles matrix:
 ***********************************************************************
 
 1PDM for each excited state written to RWF  633
 Ground to excited state transition densities written to RWF  633
 Ground to excited state transition electric dipole moments (Au):
       state          X           Y           Z        Dip. S.      Osc.
         1         0.9187      0.7637      0.0742      1.4328      0.2018
         2        -0.0705     -0.0353      0.1517      0.0292      0.0048
         3         0.0092     -0.0109     -0.0109      0.0003      0.0001
         4         0.0788     -0.1165      0.0316      0.0208      0.0037
         5        -0.0469      0.0475      0.0063      0.0045      0.0008
         6         0.0792      0.0190      0.1132      0.0195      0.0038
         7         0.7170     -0.8703      0.0133      1.2717      0.2571
         8        -0.1420      0.2227     -0.0046      0.0698      0.0142
         9         0.1206     -0.1989     -0.0032      0.0541      0.0114
        10        -0.1291     -0.1045      0.1030      0.0382      0.0082
        11        -0.6555     -0.5775      0.0841      0.7703      0.1684
        12         0.0411      0.0495      0.0571      0.0074      0.0017
        13        -0.0795     -0.0817     -0.2667      0.0841      0.0189
        14         0.1154     -0.1416     -0.0685      0.0381      0.0087
        15         0.0789      0.0077      0.0059      0.0063      0.0015
 Ground to excited state transition velocity dipole moments (Au):
       state          X           Y           Z        Dip. S.      Osc.
         1        -0.1258     -0.1022     -0.0228      0.0268      0.0846
         2         0.0137      0.0022     -0.1684      0.0286      0.0770
         3         0.0094     -0.0097      0.0032      0.0002      0.0005
         4        -0.0425      0.0526      0.0004      0.0046      0.0115
         5         0.0084     -0.0067     -0.0043      0.0001      0.0003
         6        -0.0153     -0.0026     -0.0209      0.0007      0.0016
         7        -0.1768      0.2093      0.0006      0.0751      0.1650
         8         0.0309     -0.0474     -0.0002      0.0032      0.0070
         9        -0.0321      0.0521     -0.0246      0.0044      0.0092
        10         0.0277      0.0215      0.1790      0.0333      0.0685
        11         0.1218      0.1098     -0.0334      0.0280      0.0570
        12        -0.0021     -0.0016      0.0975      0.0095      0.0189
        13         0.0026      0.0226      0.0064      0.0006      0.0011
        14         0.0180      0.0248     -0.0130      0.0011      0.0021
        15        -0.0327     -0.0075      0.0002      0.0011      0.0022
 Ground to excited state transition magnetic dipole moments (Au):
       state          X           Y           Z
         1         0.0217     -0.0149      0.4613
         2        -0.0987     -0.0647     -0.0256
         3         0.1102     -0.1623     -0.0036
         4        -0.0838      0.0525     -0.0003
         5         0.5063     -0.7719     -0.0097
         6        -0.8318     -0.5647      0.0605
         7         0.0315     -0.0037      0.0142
         8        -0.4690      0.4849     -0.0171
         9        -0.1034      0.2715     -0.0104
        10        -0.3677     -0.2640     -0.0211
        11         0.1420      0.1430      0.1355
        12         0.6524      0.4719      0.0109
        13        -0.4957     -0.4389     -0.0069
        14        -0.1488      0.0726      0.1903
        15        -0.2770      0.5326     -0.0784
 Ground to excited state transition velocity quadrupole moments (Au):
       state          XX          YY          ZZ          XY          XZ          YZ
         1         0.4588     -0.4586      0.0008     -0.0826      0.0315     -0.0321
         2        -0.0623      0.0548     -0.0012      0.0056      0.0508     -0.0609
         3        -0.0100     -0.0007     -0.0067      0.0391      0.1092      0.0873
         4         0.0420      0.1133     -0.0822     -0.3188      0.0297      0.0488
         5         0.0179      0.0351     -0.0269     -0.0470     -0.1713     -0.1255
         6         0.0253     -0.0729      0.0035      0.0054     -0.0600      0.1610
         7        -0.1236     -0.1088      0.0556     -0.0387     -0.0450     -0.1017
         8         0.0419      0.0213     -0.0113      0.0397     -0.4169     -0.3603
         9         0.0051      0.0042     -0.0099     -0.0385     -0.1467     -0.0621
        10         0.0427     -0.0160      0.0046      0.0050      0.1734     -0.2181
        11         0.2322     -0.2278     -0.0051     -0.0433      0.0013      0.0087
        12         0.0053     -0.0421      0.0063     -0.0083     -0.2137      0.2589
        13        -0.0064     -0.0591      0.0088      0.0064     -0.1669      0.1938
        14         0.3505     -0.0744      0.0340     -0.0321     -0.0021     -0.0010
        15        -0.0705      0.1069     -0.0019      0.0089      0.0343      0.0135
 <0|del|b> * <b|rxdel|0> + <0|del|b> * <b|delr+rdel|0>
 Rotatory Strengths (R) in cgs (10**-40 erg-esu-cm/Gauss)
       state          XX          YY          ZZ    R(velocity)    E-M Angle
         1        -6.5164    -18.5838    -14.1594    -13.0865       98.92
         2         4.4498      4.3817     -0.7849      2.6822       82.07
         3         3.7372      2.3448      0.9946      2.3588       17.42
         4         1.4202      2.1625     13.2776      5.6201       19.00
         5         5.4449      3.8850     14.8464      8.0587       27.79
         6        -0.0889     11.0938     20.4841     10.4963       60.56
         7        10.0646     14.5008    -39.3474     -4.9273      131.71
         8       -49.4429    -29.5835     -7.6031    -28.8765      168.90
         9        25.8316      5.1891      8.7895     13.2701       22.42
        10       -13.4441    -22.8458     -6.6643    -14.3181      103.76
        11        13.4529     13.3477     34.5892     20.4633       45.55
        12        -0.8792     -0.0665     -1.3114     -0.7524       90.78
        13        -6.4590     -0.9231    -16.2828     -7.8883      136.01
        14        -0.2154     -5.7302     -0.9270     -2.2909      113.53
        15        -3.7897      8.7278      5.3493      3.4291       75.55
 1/2[<0|r|b>*<b|rxdel|0> + (<0|rxdel|b>*<b|r|0>)*]
 Rotatory Strengths (R) in cgs (10**-40 erg-esu-cm/Gauss)
       state          XX          YY          ZZ     R(length)
         1       -14.0838      8.0635    -24.2015    -10.0739
         2        -4.9153     -1.6150      2.7452     -1.2617
         3        -0.7145     -1.2499     -0.0275     -0.6640
         4         4.6735      4.3268      0.0070      3.0025
         5        16.7856     25.9463      0.0430     14.2583
         6        46.6036      7.5819     -4.8473     16.4461
         7       -15.9875     -2.2744     -0.1331     -6.1316
         8       -47.0860    -76.3617     -0.0551    -41.1676
         9         8.8221     38.1888     -0.0237     15.6624
        10       -33.5639    -19.5069      1.5363    -17.1782
        11        65.8296     58.3952     -8.0627     38.7207
        12       -18.9789    -16.5157     -0.4398    -11.9782
        13       -27.8671    -25.3490     -1.3024    -18.1728
        14        12.1416      7.2658      9.2117      9.5397
        15        15.4500     -2.8858      0.3252      4.2965
  1/2[<0|del|b>*<b|r|0> + (<0|r|b>*<b|del|0>)*] (Au)
       state          X           Y           Z        Dip. S.   Osc.(frdel)
         1        -0.1156     -0.0781     -0.0017      0.1953      0.1302
         2        -0.0010     -0.0001     -0.0255      0.0266      0.0177
         3         0.0001      0.0001      0.0000     -0.0002     -0.0001
         4        -0.0034     -0.0061      0.0000      0.0095      0.0063
         5        -0.0004     -0.0003      0.0000      0.0007      0.0005
         6        -0.0012      0.0000     -0.0024      0.0036      0.0024
         7        -0.1268     -0.1822      0.0000      0.3089      0.2060
         8        -0.0044     -0.0106      0.0000      0.0149      0.0100
         9        -0.0039     -0.0104      0.0001      0.0142      0.0094
        10        -0.0036     -0.0022      0.0184     -0.0126     -0.0084
        11        -0.0799     -0.0634     -0.0028      0.1461      0.0974
        12        -0.0001     -0.0001      0.0056     -0.0054     -0.0036
        13        -0.0002     -0.0018     -0.0017      0.0038      0.0025
        14         0.0021     -0.0035      0.0009      0.0005      0.0004
        15        -0.0026     -0.0001      0.0000      0.0026      0.0018

 Excitation energies and oscillator strengths:
 
 Excited State   1:      Singlet-A      5.7480 eV  215.70 nm  f=0.2018  <S**2>=0.000
      12 -> 17         0.12252
      13 -> 14         0.67787
 This state for optimization and/or second-order correction.
 Total Energy, E(CIS) =   1.29212697324    
 Copying the excited state density for this state as the 1-particle RhoCI density.
 
 Excited State   2:      Singlet-A      6.7304 eV  184.22 nm  f=0.0048  <S**2>=0.000
      13 -> 15         0.68039
      13 -> 19         0.13012
 
 Excited State   3:      Singlet-A      7.0840 eV  175.02 nm  f=0.0001  <S**2>=0.000
      12 -> 15        -0.11601
      13 -> 16         0.58212
      13 -> 17        -0.30062
      13 -> 18         0.10584
      13 -> 19         0.10745
      13 -> 21        -0.12094
 
 Excited State   4:      Singlet-A      7.2206 eV  171.71 nm  f=0.0037  <S**2>=0.000
      12 -> 14         0.54936
      13 -> 16        -0.15959
      13 -> 17        -0.39510
 
 Excited State   5:      Singlet-A      7.5618 eV  163.96 nm  f=0.0008  <S**2>=0.000
       9 -> 14        -0.17778
      10 -> 14        -0.16537
      11 -> 14         0.64991
 
 Excited State   6:      Singlet-A      7.8818 eV  157.30 nm  f=0.0038  <S**2>=0.000
      10 -> 14         0.67309
      11 -> 14         0.17323
 
 Excited State   7:      Singlet-A      8.2537 eV  150.22 nm  f=0.2571  <S**2>=0.000
      12 -> 14         0.41118
      12 -> 15         0.18038
      13 -> 16         0.27906
      13 -> 17         0.42526
 
 Excited State   8:      Singlet-A      8.3180 eV  149.06 nm  f=0.0142  <S**2>=0.000
      12 -> 15         0.49111
      13 -> 18         0.36815
      13 -> 19         0.23695
      13 -> 23        -0.11181
 
 Excited State   9:      Singlet-A      8.5720 eV  144.64 nm  f=0.0114  <S**2>=0.000
      12 -> 15        -0.41681
      13 -> 16        -0.10056
      13 -> 17         0.14987
      13 -> 18         0.44099
      13 -> 19         0.19108
      13 -> 23        -0.10524
 
 Excited State  10:      Singlet-A      8.8046 eV  140.82 nm  f=0.0082  <S**2>=0.000
      12 -> 16         0.58258
      12 -> 17        -0.24801
      13 -> 19         0.23876
 
 Excited State  11:      Singlet-A      8.9232 eV  138.95 nm  f=0.1684  <S**2>=0.000
       8 -> 15        -0.12748
       9 -> 16        -0.16997
      12 -> 16         0.24813
      12 -> 17         0.57017
      13 -> 14        -0.13736
 
 Excited State  12:      Singlet-A      9.1353 eV  135.72 nm  f=0.0017  <S**2>=0.000
      13 -> 18         0.16803
      13 -> 19        -0.15310
      13 -> 20         0.56365
      13 -> 21        -0.24957
      13 -> 22         0.12728
 
 Excited State  13:      Singlet-A      9.1508 eV  135.49 nm  f=0.0189  <S**2>=0.000
       9 -> 16         0.14740
       9 -> 17         0.31642
      11 -> 16         0.29969
      11 -> 17         0.45334
      13 -> 20         0.14841
 
 Excited State  14:      Singlet-A      9.3853 eV  132.10 nm  f=0.0087  <S**2>=0.000
       9 -> 14         0.16049
       9 -> 15         0.15794
       9 -> 16         0.14542
      10 -> 15         0.29736
      10 -> 16         0.17197
      10 -> 19         0.12463
      11 -> 15         0.36693
      11 -> 18        -0.22104
      12 -> 17         0.15697
 
 Excited State  15:      Singlet-A      9.4799 eV  130.79 nm  f=0.0015  <S**2>=0.000
       9 -> 14         0.59177
      10 -> 15        -0.18032
      11 -> 14         0.15953
      13 -> 21        -0.12989
 SavETr:  write IOETrn=   770 NScale= 10 NData=  16 NLR=1 NState=   15 LETran=     280.
 The selected state is a singlet
 CISAX will form     1 AO SS matrices at one time.
 NMat=     1 NSing=     1 JSym2X= 0.
 Leave Link  914 at Tue Dec 15 17:05:29 2015, MaxMem=    33554432 cpu:         0.1
 (Enter /home/Applications/g09/g09/l1002.exe)
 Minotr:  Closed shell wavefunction.
          Computing CIS/TD-HF/TD-KS derivatives.
          Using Z-Vector for PSCF gradient.
          Skipping F1 and S1 gradient terms here.
          IDoAtm=111111111
          Direct CPHF calculation.
          Differentiating once with respect to electric field.
                with respect to dipole field.
          Differentiating once with respect to nuclear coordinates.
          Electric field/nuclear overlap derivatives assumed to be zero.
          Requested convergence is 1.0D-10 RMS, and 1.0D-09 maximum.
          NewPWx=T KeepS1=F KeepF1=F KeepIn=T MapXYZ=F SortEE=F KeepMc=T.
          MDV=      33495423 using IRadAn=       0.
 Keep J ints in memory in canonical form, NReq=871704.
 FoFCou: FMM=F IPFlag=           0 FMFlag=           0 FMFlg1=           0
         NFxFlg=           0 DoJE=F BraDBF=F KetDBF=F FulRan=T
         wScrn=  0.000000 ICntrl=     600 IOpCl=  2 I1Cent=           0 NGrid=           0
         NMat0=    1 NMatS0=     54 NMatT0=    0 NMatD0=    1 NMtDS0=    0 NMtDT0=    0
 Symmetry not used in FoFCou.
          Solving linear equations separately, MaxMat=       0.
          There are     1 degrees of freedom in the 1st order CPHF.  IDoFFX=0 NUNeed=     1.
 LinEq1:  Iter=  0 NonCon=     1 RMS=8.74D-03 Max=6.83D-02 NDo=     1
 AX will form     1 AO Fock derivatives at one time.
 LinEq1:  Iter=  1 NonCon=     1 RMS=1.25D-03 Max=1.03D-02 NDo=     1
 LinEq1:  Iter=  2 NonCon=     1 RMS=1.50D-04 Max=7.72D-04 NDo=     1
 LinEq1:  Iter=  3 NonCon=     1 RMS=1.39D-05 Max=5.38D-05 NDo=     1
 LinEq1:  Iter=  4 NonCon=     1 RMS=1.83D-06 Max=9.22D-06 NDo=     1
 LinEq1:  Iter=  5 NonCon=     1 RMS=2.45D-07 Max=1.28D-06 NDo=     1
 LinEq1:  Iter=  6 NonCon=     1 RMS=5.67D-08 Max=4.70D-07 NDo=     1
 LinEq1:  Iter=  7 NonCon=     1 RMS=7.90D-09 Max=2.82D-08 NDo=     1
 LinEq1:  Iter=  8 NonCon=     1 RMS=9.64D-10 Max=4.39D-09 NDo=     1
 LinEq1:  Iter=  9 NonCon=     1 RMS=1.10D-10 Max=3.89D-10 NDo=     1
 LinEq1:  Iter= 10 NonCon=     0 RMS=1.26D-11 Max=4.19D-11 NDo=     1
 Linear equations converged to 1.000D-10 1.000D-09 after    10 iterations.
 End of Minotr F.D. properties file   721 does not exist.
 End of Minotr F.D. properties file   722 does not exist.
 End of Minotr F.D. properties file   788 does not exist.
 Leave Link 1002 at Tue Dec 15 17:05:29 2015, MaxMem=    33554432 cpu:         0.0
 (Enter /home/Applications/g09/g09/l601.exe)
 Copying SCF densities to generalized density rwf, IOpCl= 0 IROHF=0.

 **********************************************************************

            Population analysis using the SCF density.

 **********************************************************************

 Orbital symmetries:
       Occupied  (A) (A) (A) (A) (A) (A) (A) (A) (A) (A) (A) (A)
                 (A)
       Virtual   (A) (A) (A) (A) (A) (A) (A) (A) (A) (A) (A)
 The electronic state is 1-A.
 Alpha  occ. eigenvalues --   -1.84432  -1.20192  -0.98133  -0.87636  -0.80471
 Alpha  occ. eigenvalues --   -0.73711  -0.72228  -0.59725  -0.55142  -0.51819
 Alpha  occ. eigenvalues --   -0.50436  -0.46719  -0.39004
 Alpha virt. eigenvalues --    0.03902   0.10018   0.10831   0.11162   0.18113
 Alpha virt. eigenvalues --    0.19099   0.20961   0.21779   0.26734   0.28100
 Alpha virt. eigenvalues --    0.28613
     Molecular Orbital Coefficients:
                           1         2         3         4         5
                           O         O         O         O         O
     Eigenvalues --    -1.84432  -1.20192  -0.98133  -0.87636  -0.80471
   1 1   C  1S          0.09147   0.44275  -0.20918  -0.27198  -0.22678
   2        1PX         0.12052   0.22502   0.03291   0.15278   0.09710
   3        1PY        -0.04797   0.02716   0.21384   0.21583  -0.41158
   4        1PZ         0.00208   0.01209  -0.00181  -0.00565  -0.00955
   5 2   C  1S          0.25209   0.19124  -0.49100  -0.00494   0.33229
   6        1PX         0.26970  -0.10372  -0.05131   0.42418  -0.00040
   7        1PY         0.07721   0.30676   0.06459  -0.25425  -0.10369
   8        1PZ        -0.01199  -0.00773   0.02931   0.00605  -0.02565
   9 3   O  1S          0.79791  -0.31613   0.00155   0.04735  -0.24202
  10        1PX        -0.07591  -0.12135   0.29731  -0.24330  -0.16491
  11        1PY         0.09318   0.14104   0.24350  -0.25930   0.11275
  12        1PZ         0.00221   0.00034   0.00011   0.01371  -0.00197
  13 4   C  1S          0.26227   0.21722   0.49642  -0.06293   0.31709
  14        1PX        -0.11531  -0.30095   0.10699  -0.16163   0.06893
  15        1PY        -0.26059   0.17180  -0.05062   0.45609   0.10913
  16        1PZ         0.00147   0.00315   0.00417   0.01101  -0.00146
  17 5   C  1S          0.09364   0.47491   0.19069   0.29596  -0.17822
  18        1PX         0.02924  -0.04612   0.22988   0.16246   0.44345
  19        1PY        -0.12823  -0.20385   0.02049   0.18682  -0.15773
  20        1PZ        -0.00163  -0.00613  -0.00051   0.00113  -0.00211
  21 6   H  1S          0.00775   0.16022   0.10528   0.24497  -0.20291
  22 7   H  1S          0.05449   0.01975   0.28197  -0.02850   0.22360
  23 8   H  1S          0.04688   0.01168  -0.24990  -0.00245   0.22133
  24 9   H  1S          0.00419   0.11691  -0.09938  -0.18609  -0.19670
                           6         7         8         9        10
                           O         O         O         O         O
     Eigenvalues --    -0.73711  -0.72228  -0.59725  -0.55142  -0.51819
   1 1   C  1S          0.19921   0.04966   0.15889  -0.01175  -0.11148
   2        1PX        -0.21816  -0.07086  -0.03708  -0.16825   0.23418
   3        1PY        -0.01731  -0.02034  -0.05082  -0.33841  -0.33753
   4        1PZ        -0.08674   0.35018  -0.00845   0.00663   0.01750
   5 2   C  1S          0.16361   0.07623   0.02523  -0.16070   0.14714
   6        1PX        -0.30755  -0.06826   0.34877  -0.30436  -0.09299
   7        1PY        -0.26048  -0.04929   0.44314   0.29803   0.31126
   8        1PZ        -0.14412   0.50319  -0.01676  -0.00699  -0.03722
   9 3   O  1S          0.17404   0.03866   0.00759   0.29740  -0.02725
  10        1PX         0.17333   0.04280  -0.16152   0.15282  -0.00036
  11        1PY        -0.19395  -0.05021  -0.15575  -0.18045   0.12393
  12        1PZ        -0.10341   0.37074  -0.00062  -0.01692  -0.01870
  13 4   C  1S          0.12791   0.03068  -0.04548  -0.11529  -0.10885
  14        1PX         0.32084   0.10130   0.47629  -0.30858   0.12914
  15        1PY         0.22157   0.05607   0.28983   0.37917  -0.20985
  16        1PZ        -0.13519   0.53688  -0.02069   0.00883  -0.00081
  17 5   C  1S          0.17180   0.03648  -0.13757  -0.02073   0.03719
  18        1PX         0.01175   0.00561  -0.06801   0.41044  -0.05714
  19        1PY         0.22809   0.05432  -0.03549   0.00592   0.55083
  20        1PZ        -0.08784   0.36228  -0.01463   0.01416   0.03343
  21 6   H  1S          0.24828   0.06201  -0.10672  -0.03992   0.44941
  22 7   H  1S          0.29946   0.08600   0.33996  -0.20483  -0.03437
  23 8   H  1S          0.31808   0.07595  -0.35327  -0.18907  -0.07056
  24 9   H  1S          0.24025   0.07018   0.10609   0.06500  -0.28916
                          11        12        13        14        15
                           O         O         O         V         V
     Eigenvalues --    -0.50436  -0.46719  -0.39004   0.03902   0.10018
   1 1   C  1S          0.01512  -0.00847  -0.01871  -0.02427  -0.14372
   2        1PX         0.56977  -0.02915  -0.02114  -0.01359  -0.17087
   3        1PY         0.01690  -0.01915   0.02867   0.02732   0.25308
   4        1PZ         0.03607   0.24839   0.59221   0.66476  -0.03644
   5 2   C  1S         -0.05668   0.03853  -0.01308  -0.00232  -0.08428
   6        1PX        -0.29223   0.00757   0.01513  -0.00850  -0.15251
   7        1PY        -0.02109   0.00608  -0.01190   0.01930   0.33343
   8        1PZ         0.04403   0.67438  -0.25919  -0.24688   0.03346
   9 3   O  1S          0.16180  -0.00394  -0.00523   0.00397   0.11435
  10        1PX         0.24173  -0.01237  -0.02046  -0.00960  -0.20598
  11        1PY        -0.23663   0.01091   0.00099   0.01197   0.22441
  12        1PZ        -0.00828   0.00713  -0.39967   0.01333  -0.03185
  13 4   C  1S         -0.14273   0.00816   0.01003   0.00177  -0.08674
  14        1PX         0.18543  -0.01610  -0.00416   0.00050  -0.31591
  15        1PY         0.17220  -0.00383   0.00435   0.00626   0.19862
  16        1PZ        -0.02753  -0.65051  -0.26093   0.23663   0.01554
  17 5   C  1S          0.06327  -0.00568   0.00335  -0.00896  -0.15815
  18        1PX        -0.21461   0.01792  -0.00652   0.00353  -0.21865
  19        1PY        -0.28620   0.03343  -0.02825   0.02155   0.18904
  20        1PZ        -0.00913  -0.23349   0.59182  -0.66158   0.01438
  21 6   H  1S         -0.17579   0.02037  -0.01458  -0.01283  -0.15347
  22 7   H  1S          0.07709  -0.00441   0.00772  -0.00375   0.40993
  23 8   H  1S          0.07617  -0.00484   0.00219   0.01671   0.39282
  24 9   H  1S         -0.42662   0.01868   0.01244  -0.00179  -0.18318
                          16        17        18        19        20
                           V         V         V         V         V
     Eigenvalues --     0.10831   0.11162   0.18113   0.19099   0.20961
   1 1   C  1S         -0.01237   0.00093  -0.04509   0.07940  -0.20991
   2        1PX         0.04470  -0.04717   0.57627   0.08908   0.15858
   3        1PY         0.26752  -0.15847   0.00452   0.34110  -0.21731
   4        1PZ         0.03928   0.09880   0.00950  -0.00899  -0.00224
   5 2   C  1S         -0.02600  -0.01247  -0.12619   0.35636  -0.20255
   6        1PX         0.09922  -0.05870   0.03370  -0.28993  -0.14544
   7        1PY         0.32943  -0.17288  -0.02659  -0.12636  -0.15033
   8        1PZ        -0.17925  -0.32221  -0.00097  -0.01488   0.00441
   9 3   O  1S          0.00430   0.00076  -0.01453   0.06875   0.15932
  10        1PX         0.09669  -0.02715   0.03739  -0.11678  -0.31697
  11        1PY         0.08823  -0.04890   0.00179   0.13536   0.44607
  12        1PZ         0.42007   0.71543   0.00860   0.01979   0.01670
  13 4   C  1S          0.01720  -0.01044  -0.21952   0.19150   0.10107
  14        1PX         0.31570  -0.21678  -0.13009   0.05529   0.19067
  15        1PY         0.06188  -0.02227  -0.11195   0.13691   0.36296
  16        1PZ        -0.20312  -0.32108  -0.00355  -0.00808  -0.00177
  17 5   C  1S          0.01166  -0.00959  -0.07079  -0.03398  -0.09218
  18        1PX         0.25056  -0.16781   0.22587   0.03921  -0.31858
  19        1PY         0.01862  -0.00819   0.24878   0.41796  -0.14014
  20        1PZ         0.07834   0.09987   0.00838   0.02210  -0.00119
  21 6   H  1S         -0.04786   0.02093  -0.16864  -0.41400   0.17007
  22 7   H  1S         -0.41201   0.26382   0.25688  -0.19342  -0.23680
  23 8   H  1S          0.43895  -0.22375   0.08658  -0.39658  -0.01570
  24 9   H  1S          0.02793  -0.03914   0.59054  -0.05011   0.28367
                          21        22        23        24
                           V         V         V         V
     Eigenvalues --     0.21779   0.26734   0.28100   0.28613
   1 1   C  1S          0.07678   0.62598  -0.27188   0.01917
   2        1PX         0.01424   0.00372  -0.19394  -0.03625
   3        1PY        -0.35127  -0.13287  -0.18905   0.01326
   4        1PZ         0.00601   0.02385  -0.01028   0.00262
   5 2   C  1S         -0.16990  -0.38628   0.00491   0.30466
   6        1PX         0.31786   0.09471  -0.03754   0.26778
   7        1PY         0.00363  -0.25907   0.02205  -0.10270
   8        1PZ         0.01075   0.01196   0.00113  -0.01100
   9 3   O  1S         -0.07582   0.07079   0.03386   0.00057
  10        1PX         0.27962  -0.21978  -0.09682   0.60036
  11        1PY        -0.13023   0.28026   0.15594   0.51570
  12        1PZ        -0.02369   0.00200   0.00294  -0.01893
  13 4   C  1S          0.38276  -0.18605  -0.31001  -0.29632
  14        1PX        -0.12332   0.08380   0.19170  -0.07366
  15        1PY         0.14248   0.01505  -0.13026   0.28640
  16        1PZ         0.01082  -0.00115  -0.00476   0.00336
  17 5   C  1S          0.06620  -0.00506   0.71233  -0.05039
  18        1PX        -0.37508   0.25421  -0.00860  -0.00304
  19        1PY         0.34619   0.15071  -0.00376  -0.05369
  20        1PZ         0.00077   0.00207  -0.00541  -0.00133
  21 6   H  1S         -0.36202  -0.08656  -0.39209   0.05033
  22 7   H  1S         -0.16411   0.03277   0.05793   0.07925
  23 8   H  1S          0.18399   0.07358  -0.00543  -0.07927
  24 9   H  1S          0.01024  -0.29900   0.03697  -0.02019
     Density Matrix:
                           1         2         3         4         5
   1 1   C  1S          0.90833
   2        1PX        -0.05510   1.12416
   3        1PY         0.05297  -0.01008   0.99593
   4        1PZ        -0.01255  -0.00136   0.00408   1.08912
   5 2   C  1S          0.32272   0.15018  -0.50549   0.02832   1.07440
   6        1PX        -0.25173  -0.01272   0.36742  -0.01303   0.15256
   7        1PY         0.39951   0.17248  -0.43500   0.01778  -0.04499
   8        1PZ        -0.01766  -0.00802   0.01387   0.40758   0.01887
   9 3   O  1S          0.02923   0.00764  -0.05935   0.00301   0.05966
  10        1PX        -0.01183  -0.00397   0.07153  -0.00672  -0.50578
  11        1PY        -0.03255  -0.00365  -0.04718  -0.00373  -0.01757
  12        1PZ         0.00866   0.00111  -0.00344  -0.19381   0.03421
  13 4   C  1S         -0.01524   0.00348   0.05667  -0.00044   0.00498
  14        1PX        -0.00195  -0.00511  -0.02136   0.00048   0.02860
  15        1PY         0.05698   0.01600  -0.02843   0.00530  -0.05582
  16        1PZ         0.00880   0.00380  -0.00370  -0.23434  -0.00991
  17 5   C  1S          0.30016   0.33143   0.37085   0.01605  -0.01502
  18        1PX        -0.44099  -0.27391  -0.44315  -0.01995  -0.05712
  19        1PY        -0.28874  -0.27033  -0.17445  -0.02371   0.00768
  20        1PZ        -0.03508  -0.02610   0.00203   0.85476  -0.00547
  21 6   H  1S          0.02481   0.03017   0.04157   0.00217   0.07680
  22 7   H  1S          0.07406   0.04784   0.03670   0.00687   0.08171
  23 8   H  1S          0.06891   0.03655  -0.09371   0.00188   0.54940
  24 9   H  1S          0.52197  -0.81569   0.15985  -0.00128   0.05369
                           6         7         8         9        10
   6        1PX         1.34782
   7        1PY         0.00458   1.26522
   8        1PZ        -0.00665  -0.00477   1.60271
   9 3   O  1S          0.15839   0.02138  -0.00317   1.88933
  10        1PX        -0.71273  -0.04650   0.03828   0.24392   0.67118
  11        1PY         0.01875   0.18848  -0.00180  -0.28337  -0.00578
  12        1PZ         0.03194  -0.00101   0.62085  -0.00937  -0.00326
  13 4   C  1S          0.05151  -0.03643   0.00089   0.06049   0.08555
  14        1PX         0.02820   0.01281  -0.00682  -0.04574   0.17192
  15        1PY        -0.01829   0.02795   0.00145  -0.15573  -0.10296
  16        1PZ        -0.00240   0.00078  -0.16429   0.00050   0.01854
  17 5   C  1S         -0.05423   0.00988  -0.00019   0.03071   0.03002
  18        1PX        -0.02994  -0.01710   0.00442   0.05848  -0.03379
  19        1PY         0.01804  -0.00056   0.00133  -0.01767   0.00081
  20        1PZ         0.00064   0.00557  -0.23458  -0.00108  -0.01170
  21 6   H  1S         -0.02416   0.06455  -0.00204   0.01727  -0.00131
  22 7   H  1S          0.09938   0.01493  -0.00580  -0.01460   0.07055
  23 8   H  1S         -0.32249  -0.70876  -0.02381  -0.01342  -0.02035
  24 9   H  1S          0.01134   0.03355  -0.00027   0.01679  -0.06480
                          11        12        13        14        15
  11        1PY         0.67250
  12        1PZ         0.00084   0.61766
  13 4   C  1S          0.49989  -0.00278   1.06392
  14        1PX        -0.18265   0.00840   0.01377   1.26561
  15        1PY        -0.68896  -0.00495  -0.15762   0.01883   1.34730
  16        1PZ        -0.00294   0.62586  -0.00564   0.00445  -0.00181
  17 5   C  1S          0.00979  -0.00321   0.33179  -0.35429   0.31716
  18        1PX         0.07586   0.00194   0.47306  -0.32546   0.41816
  19        1PY        -0.01623   0.00519  -0.23371   0.22972  -0.10847
  20        1PZ         0.00248  -0.19113  -0.00428   0.00549  -0.00692
  21 6   H  1S          0.06523   0.00184   0.05730  -0.03766  -0.00508
  22 7   H  1S          0.01639   0.00077   0.54625   0.75554   0.19781
  23 8   H  1S         -0.06486  -0.00386   0.07758  -0.03018  -0.09183
  24 9   H  1S          0.01143   0.00397   0.07942  -0.06384   0.03489
                          16        17        18        19        20
  16        1PZ         1.59836
  17 5   C  1S          0.01204   0.89132
  18        1PX         0.00890  -0.03807   1.00360
  19        1PY        -0.01257   0.05301   0.01866   1.12341
  20        1PZ         0.40897   0.00273  -0.00164  -0.00252   1.09080
  21 6   H  1S          0.00112   0.54282  -0.05300   0.81755   0.00910
  22 7   H  1S         -0.00742   0.07135   0.08425  -0.05497  -0.00026
  23 8   H  1S          0.00534   0.06856  -0.04138  -0.04335   0.00190
  24 9   H  1S         -0.00328   0.01405  -0.02911  -0.02364   0.00090
                          21        22        23        24
  21 6   H  1S          0.89994
  22 7   H  1S          0.00660   0.79096
  23 8   H  1S          0.02823   0.02126   0.78415
  24 9   H  1S         -0.00409   0.02727   0.00629   0.88227
    Full Mulliken population analysis:
                           1         2         3         4         5
   1 1   C  1S          0.90833
   2        1PX         0.00000   1.12416
   3        1PY         0.00000   0.00000   0.99593
   4        1PZ         0.00000   0.00000   0.00000   1.08912
   5 2   C  1S          0.00000   0.00000   0.00000   0.00000   1.07440
   6        1PX         0.00000   0.00000   0.00000   0.00000   0.00000
   7        1PY         0.00000   0.00000   0.00000   0.00000   0.00000
   8        1PZ         0.00000   0.00000   0.00000   0.00000   0.00000
   9 3   O  1S          0.00000   0.00000   0.00000   0.00000   0.00000
  10        1PX         0.00000   0.00000   0.00000   0.00000   0.00000
  11        1PY         0.00000   0.00000   0.00000   0.00000   0.00000
  12        1PZ         0.00000   0.00000   0.00000   0.00000   0.00000
  13 4   C  1S          0.00000   0.00000   0.00000   0.00000   0.00000
  14        1PX         0.00000   0.00000   0.00000   0.00000   0.00000
  15        1PY         0.00000   0.00000   0.00000   0.00000   0.00000
  16        1PZ         0.00000   0.00000   0.00000   0.00000   0.00000
  17 5   C  1S          0.00000   0.00000   0.00000   0.00000   0.00000
  18        1PX         0.00000   0.00000   0.00000   0.00000   0.00000
  19        1PY         0.00000   0.00000   0.00000   0.00000   0.00000
  20        1PZ         0.00000   0.00000   0.00000   0.00000   0.00000
  21 6   H  1S          0.00000   0.00000   0.00000   0.00000   0.00000
  22 7   H  1S          0.00000   0.00000   0.00000   0.00000   0.00000
  23 8   H  1S          0.00000   0.00000   0.00000   0.00000   0.00000
  24 9   H  1S          0.00000   0.00000   0.00000   0.00000   0.00000
                           6         7         8         9        10
   6        1PX         1.34782
   7        1PY         0.00000   1.26522
   8        1PZ         0.00000   0.00000   1.60271
   9 3   O  1S          0.00000   0.00000   0.00000   1.88933
  10        1PX         0.00000   0.00000   0.00000   0.00000   0.67118
  11        1PY         0.00000   0.00000   0.00000   0.00000   0.00000
  12        1PZ         0.00000   0.00000   0.00000   0.00000   0.00000
  13 4   C  1S          0.00000   0.00000   0.00000   0.00000   0.00000
  14        1PX         0.00000   0.00000   0.00000   0.00000   0.00000
  15        1PY         0.00000   0.00000   0.00000   0.00000   0.00000
  16        1PZ         0.00000   0.00000   0.00000   0.00000   0.00000
  17 5   C  1S          0.00000   0.00000   0.00000   0.00000   0.00000
  18        1PX         0.00000   0.00000   0.00000   0.00000   0.00000
  19        1PY         0.00000   0.00000   0.00000   0.00000   0.00000
  20        1PZ         0.00000   0.00000   0.00000   0.00000   0.00000
  21 6   H  1S          0.00000   0.00000   0.00000   0.00000   0.00000
  22 7   H  1S          0.00000   0.00000   0.00000   0.00000   0.00000
  23 8   H  1S          0.00000   0.00000   0.00000   0.00000   0.00000
  24 9   H  1S          0.00000   0.00000   0.00000   0.00000   0.00000
                          11        12        13        14        15
  11        1PY         0.67250
  12        1PZ         0.00000   0.61766
  13 4   C  1S          0.00000   0.00000   1.06392
  14        1PX         0.00000   0.00000   0.00000   1.26561
  15        1PY         0.00000   0.00000   0.00000   0.00000   1.34730
  16        1PZ         0.00000   0.00000   0.00000   0.00000   0.00000
  17 5   C  1S          0.00000   0.00000   0.00000   0.00000   0.00000
  18        1PX         0.00000   0.00000   0.00000   0.00000   0.00000
  19        1PY         0.00000   0.00000   0.00000   0.00000   0.00000
  20        1PZ         0.00000   0.00000   0.00000   0.00000   0.00000
  21 6   H  1S          0.00000   0.00000   0.00000   0.00000   0.00000
  22 7   H  1S          0.00000   0.00000   0.00000   0.00000   0.00000
  23 8   H  1S          0.00000   0.00000   0.00000   0.00000   0.00000
  24 9   H  1S          0.00000   0.00000   0.00000   0.00000   0.00000
                          16        17        18        19        20
  16        1PZ         1.59836
  17 5   C  1S          0.00000   0.89132
  18        1PX         0.00000   0.00000   1.00360
  19        1PY         0.00000   0.00000   0.00000   1.12341
  20        1PZ         0.00000   0.00000   0.00000   0.00000   1.09080
  21 6   H  1S          0.00000   0.00000   0.00000   0.00000   0.00000
  22 7   H  1S          0.00000   0.00000   0.00000   0.00000   0.00000
  23 8   H  1S          0.00000   0.00000   0.00000   0.00000   0.00000
  24 9   H  1S          0.00000   0.00000   0.00000   0.00000   0.00000
                          21        22        23        24
  21 6   H  1S          0.89994
  22 7   H  1S          0.00000   0.79096
  23 8   H  1S          0.00000   0.00000   0.78415
  24 9   H  1S          0.00000   0.00000   0.00000   0.88227
     Gross orbital populations:
                           1
   1 1   C  1S          0.90833
   2        1PX         1.12416
   3        1PY         0.99593
   4        1PZ         1.08912
   5 2   C  1S          1.07440
   6        1PX         1.34782
   7        1PY         1.26522
   8        1PZ         1.60271
   9 3   O  1S          1.88933
  10        1PX         0.67118
  11        1PY         0.67250
  12        1PZ         0.61766
  13 4   C  1S          1.06392
  14        1PX         1.26561
  15        1PY         1.34730
  16        1PZ         1.59836
  17 5   C  1S          0.89132
  18        1PX         1.00360
  19        1PY         1.12341
  20        1PZ         1.09080
  21 6   H  1S          0.89994
  22 7   H  1S          0.79096
  23 8   H  1S          0.78415
  24 9   H  1S          0.88227
          Condensed to atoms (all electrons):
               1          2          3          4          5          6
     1  C    4.117544   0.000000   0.000000   0.000000   0.000000   0.000000
     2  C    0.000000   5.290149   0.000000   0.000000   0.000000   0.000000
     3  O    0.000000   0.000000   3.850666   0.000000   0.000000   0.000000
     4  C    0.000000   0.000000   0.000000   5.275190   0.000000   0.000000
     5  C    0.000000   0.000000   0.000000   0.000000   4.109137   0.000000
     6  H    0.000000   0.000000   0.000000   0.000000   0.000000   0.899942
     7  H    0.000000   0.000000   0.000000   0.000000   0.000000   0.000000
     8  H    0.000000   0.000000   0.000000   0.000000   0.000000   0.000000
     9  H    0.000000   0.000000   0.000000   0.000000   0.000000   0.000000
               7          8          9
     1  C    0.000000   0.000000   0.000000
     2  C    0.000000   0.000000   0.000000
     3  O    0.000000   0.000000   0.000000
     4  C    0.000000   0.000000   0.000000
     5  C    0.000000   0.000000   0.000000
     6  H    0.000000   0.000000   0.000000
     7  H    0.790955   0.000000   0.000000
     8  H    0.000000   0.784147   0.000000
     9  H    0.000000   0.000000   0.882269
 Mulliken charges:
               1
     1  C   -0.117544
     2  C   -1.290149
     3  O    2.149334
     4  C   -1.275190
     5  C   -0.109137
     6  H    0.100058
     7  H    0.209045
     8  H    0.215853
     9  H    0.117731
 Sum of Mulliken charges =   0.00000
 Mulliken charges with hydrogens summed into heavy atoms:
               1
     1  C    0.000187
     2  C   -1.074296
     3  O    2.149334
     4  C   -1.066145
     5  C   -0.009079
 Charge=              0.0000 electrons
 Dipole moment (field-independent basis, Debye):
    X=              4.5274    Y=             -5.4000    Z=             -0.2923  Tot=              7.0528
 N-N= 1.046349229993D+02 E-N=-1.716967774953D+02  KE=-1.501831459928D+01
 Orbital energies and kinetic energies (alpha):
                                 1                 2
   1         O                -1.844321         -1.265017
   2         O                -1.201920         -0.983234
   3         O                -0.981327         -0.798577
   4         O                -0.876361         -0.637700
   5         O                -0.804707         -0.661011
   6         O                -0.737115         -0.594180
   7         O                -0.722282         -0.523847
   8         O                -0.597249         -0.410438
   9         O                -0.551419         -0.299338
  10         O                -0.518194         -0.420728
  11         O                -0.504360         -0.333627
  12         O                -0.467191         -0.314460
  13         O                -0.390038         -0.267002
  14         V                 0.039018         -0.164177
  15         V                 0.100179         -0.130603
  16         V                 0.108312         -0.092351
  17         V                 0.111615          0.068634
  18         V                 0.181131         -0.164126
  19         V                 0.190993         -0.124726
  20         V                 0.209608          0.053976
  21         V                 0.217789         -0.042296
  22         V                 0.267343         -0.017714
  23         V                 0.281002         -0.074183
  24         V                 0.286133          0.289631
 Total kinetic energy from orbitals=-1.501831459928D+01
 Leave Link  601 at Tue Dec 15 17:05:29 2015, MaxMem=    33554432 cpu:         0.0
 (Enter /home/Applications/g09/g09/l701.exe)
 Compute integral first derivatives.
 ... and contract with generalized density number  6.
 Leave Link  701 at Tue Dec 15 17:05:29 2015, MaxMem=    33554432 cpu:         0.0
 (Enter /home/Applications/g09/g09/l702.exe)
 L702 exits ... SP integral derivatives will be done elsewhere.
 Leave Link  702 at Tue Dec 15 17:05:29 2015, MaxMem=    33554432 cpu:         0.0
 (Enter /home/Applications/g09/g09/l703.exe)
 Compute integral first derivatives, UseDBF=F ICtDFT=           0.
 Integral derivatives from FoFJK, PRISM(SPDF).
 Calling FoFJK, ICntrl=  10005127 FMM=F ISym2X=0 I1Cent= 0 IOpClX= 0 NMat=1 NMatS=1 NMatT=0.
 FoFJK:  IHMeth= 8 ICntrl=10005127 DoSepK=F KAlg= 0 I1Cent=   0 FoldK=F
 IRaf=         0 NMat=   1 IRICut=       1 DoRegI=T DoRafI=F ISym2E= 0.
 FoFCou: FMM=F IPFlag=           0 FMFlag=      100000 FMFlg1=         800
         NFxFlg=           0 DoJE=F BraDBF=F KetDBF=F FulRan=T
         wScrn=  0.000000 ICntrl=10005127 IOpCl=  0 I1Cent=           0 NGrid=           0
         NMat0=    1 NMatS0=      1 NMatT0=    0 NMatD0=    1 NMtDS0=    0 NMtDT0=    0
 Symmetry not used in FoFCou.
 Leave Link  703 at Tue Dec 15 17:05:29 2015, MaxMem=    33554432 cpu:         0.0
 (Enter /home/Applications/g09/g09/l716.exe)
 Dipole        = 1.98142027D+00-2.35691022D+00-1.14813885D-01
 ***** Axes restored to original set *****
 -------------------------------------------------------------------
 Center     Atomic                   Forces (Hartrees/Bohr)
 Number     Number              X              Y              Z
 -------------------------------------------------------------------
      1        6          -0.007666431   -0.018949405   -0.016295163
      2        6          -0.056012791    0.067436893    0.018439130
      3        8           0.115034661   -0.020076450   -0.007430145
      4        6          -0.072117307   -0.061565705   -0.000078911
      5        6          -0.037162408   -0.056894051    0.009078829
      6        1           0.062530262    0.050006987   -0.004988273
      7        1           0.000357436    0.028502535    0.000739934
      8        1           0.007909893   -0.004263707   -0.005324076
      9        1          -0.012873314    0.015802903    0.005858674
 -------------------------------------------------------------------
 Cartesian Forces:  Max     0.115034661 RMS     0.040322315
 Z-matrix is all fixed cartesians, so copy forces.
 Force constants in Cartesian coordinates: 
                1             2             3             4             5 
      1  0.810172D+00
      2 -0.199008D-01  0.792172D+00
      3  0.267098D-01  0.594623D-03  0.193239D+00
      4 -0.454741D+00 -0.934361D-01 -0.303617D-01  0.879838D+00
      5 -0.692550D-01 -0.199122D+00 -0.841713D-02 -0.408906D-01  0.876348D+00
      6 -0.273104D-01 -0.761336D-02 -0.883662D-01  0.886298D-02  0.822282D-02
      7 -0.838676D-02  0.285850D-01  0.194787D-02 -0.316030D+00  0.189295D+00
      8 -0.637844D-02  0.218756D-01  0.103253D-02  0.236125D+00 -0.398686D+00
      9 -0.174419D-02  0.271013D-02  0.862945D-02  0.167069D-01 -0.180585D-01
     10  0.888313D-02  0.170803D-03 -0.161934D-03  0.248841D-01  0.191267D-01
     11  0.355719D-01  0.652913D-03 -0.353088D-03 -0.188154D-01 -0.144684D-01
     12 -0.114716D-02  0.365691D-03 -0.119426D-02 -0.166185D-02 -0.156087D-02
     13 -0.171144D+00  0.188247D-01 -0.131883D-02  0.983487D-02 -0.343434D-01
     14 -0.468805D-02 -0.446835D+00  0.829951D-02  0.205441D-03 -0.732679D-03
     15 -0.160690D-02  0.114155D-01 -0.884462D-01  0.789885D-03 -0.366857D-02
     16  0.184584D-01  0.350269D-03  0.343245D-04  0.457292D-05 -0.121371D-05
     17 -0.251740D-01 -0.476233D-03  0.244915D-04 -0.746965D-05  0.198254D-05
     18  0.148288D-02  0.465553D-03  0.211876D-01 -0.365965D-03  0.971320D-04
     19  0.000000D+00  0.000000D+00  0.443200D-04 -0.116457D-05  0.264527D-05
     20  0.000000D+00  0.000000D+00 -0.865566D-05  0.000000D+00  0.220337D-05
     21  0.810020D-04  0.138150D-03  0.661659D-02  0.852142D-04 -0.193560D-03
     22  0.716050D-02 -0.253000D-01  0.218372D-02 -0.138813D+00 -0.810856D-01
     23 -0.309474D-02  0.106219D-01  0.402970D-03 -0.772321D-01 -0.283891D+00
     24 -0.333011D-03 -0.366731D-02  0.207643D-01  0.818850D-02  0.201185D-01
     25 -0.210403D+00  0.907052D-01  0.922425D-03 -0.497715D-02  0.171518D-01
     26  0.929192D-01 -0.178889D+00 -0.157526D-02 -0.594737D-02  0.205485D-01
     27  0.386791D-02 -0.440896D-02 -0.724299D-01 -0.224392D-02  0.346016D-02
                6             7             8             9            10 
      6  0.174021D+00
      7  0.103530D-01  0.614315D+00
      8 -0.145275D-01  0.122630D-01  0.790617D+00
      9 -0.489110D-01 -0.694137D-02  0.226123D-01  0.621128D-01
     10  0.384143D-03 -0.326215D+00 -0.247623D+00 -0.569393D-02  0.970566D+00
     11 -0.408366D-03 -0.201717D+00 -0.421013D+00 -0.861236D-02  0.326392D-01
     12 -0.226933D-02 -0.346186D-02 -0.746486D-02 -0.519896D-01  0.148384D-02
     13  0.124437D-02 -0.752623D-02  0.567107D-02  0.452550D-03 -0.514358D+00
     14  0.204796D-03 -0.300516D-01  0.227810D-01  0.292925D-03  0.936790D-01
     15 -0.937151D-03 -0.460758D-03  0.488340D-03  0.906972D-02  0.366389D-02
     16 -0.629770D-04  0.000000D+00 -0.103658D-05  0.455477D-04 -0.463771D-02
     17  0.102870D-03  0.000000D+00  0.000000D+00 -0.359995D-04  0.632733D-02
     18  0.503997D-02  0.103933D-04 -0.176691D-03  0.776389D-02  0.318667D-03
     19 -0.810577D-04  0.222052D-01 -0.168357D-01  0.131577D-03 -0.159131D+00
     20 -0.675166D-04  0.109847D-01 -0.832802D-02  0.461035D-04  0.956766D-01
     21  0.593117D-02  0.234654D-03 -0.267227D-03  0.410910D-02 -0.135407D-03
     22  0.625905D-02  0.216270D-01  0.167600D-01 -0.270627D-02  0.723210D-05
     23  0.138963D-01 -0.937542D-02 -0.727604D-02  0.141273D-02  0.206569D-05
     24 -0.630712D-01 -0.144489D-02 -0.128188D-02  0.389219D-02  0.800952D-04
     25  0.350826D-03  0.111689D-04  0.195521D-04 -0.250808D-03  0.169869D-05
     26  0.190004D-03  0.163612D-04  0.286417D-04 -0.367405D-03  0.128419D-05
     27  0.185630D-01 -0.237062D-03 -0.414998D-03  0.532344D-02  0.606380D-04
               11            12            13            14            15 
     11  0.922978D+00
     12  0.105356D-01  0.198913D+00
     13  0.705625D-01  0.397160D-02  0.991018D+00
     14 -0.210590D+00 -0.990035D-03  0.661751D-01  0.857663D+00
     15 -0.109784D-02 -0.107505D+00 -0.204278D-02 -0.778793D-02  0.228269D+00
     16 -0.185610D-01  0.127202D-04 -0.332198D+00 -0.152067D+00  0.336434D-03
     17  0.253206D-01  0.746138D-04 -0.151419D+00 -0.235767D+00  0.714446D-03
     18  0.507124D-03  0.273235D-01 -0.755175D-03  0.313747D-04 -0.945830D-01
     19  0.100333D+00  0.160587D-03  0.660356D-02  0.264259D-01  0.803906D-04
     20 -0.302878D+00 -0.120878D-02  0.326675D-02  0.130764D-01 -0.911525D-04
     21 -0.492526D-03 -0.738072D-01  0.608335D-04 -0.552937D-03  0.283259D-01
     22 -0.164274D-04  0.503376D-03  0.378911D-04 -0.100568D-04 -0.521826D-03
     23 -0.469214D-05  0.143779D-03 -0.412662D-04  0.109526D-04  0.568307D-03
     24 -0.181933D-03  0.557487D-02 -0.387388D-03  0.102818D-03  0.533500D-02
     25  0.289713D-05  0.138756D-03  0.177323D-01  0.330888D-03 -0.238342D-03
     26  0.219020D-05  0.104898D-03  0.213038D-01  0.392274D-03 -0.541085D-03
     27  0.103419D-03  0.495317D-02 -0.122518D-02  0.399475D-03  0.204712D-01
               16            17            18            19            20 
     16  0.318370D+00
     17  0.170277D+00  0.210923D+00
     18 -0.396134D-03 -0.774666D-03  0.524961D-01
     19  0.000000D+00  0.000000D+00 -0.766718D-04  0.130323D+00
     20  0.000000D+00  0.000000D+00  0.149739D-04 -0.109927D+00  0.298127D+00
     21 -0.671516D-04  0.530746D-04 -0.114464D-01 -0.259145D-03  0.131503D-02
     22  0.000000D+00  0.000000D+00  0.000000D+00  0.000000D+00  0.000000D+00
     23  0.000000D+00  0.000000D+00  0.000000D+00  0.000000D+00  0.000000D+00
     24  0.000000D+00  0.000000D+00  0.000000D+00  0.000000D+00  0.000000D+00
     25  0.272393D-05 -0.444942D-05 -0.217993D-03  0.000000D+00  0.000000D+00
     26  0.205926D-05 -0.336371D-05 -0.164800D-03  0.000000D+00  0.000000D+00
     27  0.972361D-04 -0.158831D-03 -0.778169D-02  0.000000D+00  0.000000D+00
               21            22            23            24            25 
     21  0.402708D-01
     22  0.000000D+00  0.110015D+00
     23  0.000000D+00  0.897034D-01  0.280483D+00
     24  0.000000D+00 -0.646132D-02 -0.156146D-01  0.351037D-01
     25  0.000000D+00 -0.350178D-04  0.381370D-04  0.358012D-03  0.197667D+00
     26  0.000000D+00 -0.512971D-04  0.558663D-04  0.524446D-03 -0.108244D+00
     27  0.000000D+00  0.743260D-03 -0.809464D-03 -0.759887D-02 -0.106288D-02
               26            27 
     26  0.157865D+00
     27  0.182920D-02  0.384996D-01
 Leave Link  716 at Tue Dec 15 17:05:29 2015, MaxMem=    33554432 cpu:         0.0
 (Enter /home/Applications/g09/g09/l103.exe)

 GradGradGradGradGradGradGradGradGradGradGradGradGradGradGradGradGradGrad
 Berny optimization.
 Search for a local minimum.
 Step number   1 out of a maximum of    2
 All quantities printed in internal units (Hartrees-Bohrs-Radians)
 Second derivative matrix not updated -- first step.
 ITU=  0
     Eigenvalues ---    0.01920   0.03130   0.06565   0.07606   0.07906
     Eigenvalues ---    0.08852   0.12932   0.14578   0.15924   0.23619
     Eigenvalues ---    0.26758   0.29353   0.40044   0.42628   0.61210
     Eigenvalues ---    0.84142   1.13381   1.40224   1.43638   1.52449
     Eigenvalues ---    1.71218
 Angle between quadratic step and forces=  39.60 degrees.
 Linear search not attempted -- first point.
 TrRot= -0.000105 -0.013165  0.001221 -0.348663 -0.000180  0.349565
 Variable       Old X    -DE/DX   Delta X   Delta X   Delta X     New X
                                 (Linear)    (Quad)   (Total)
    X1        1.84369  -0.00767   0.00000  -0.05681  -0.05577   1.78792
    Y1       -1.26317  -0.01895   0.00000  -0.01851  -0.03006  -1.29323
    Z1        0.08397  -0.01630   0.00000  -0.02477  -0.02317   0.06080
    X2       -0.66697  -0.05601   0.00000  -0.03899  -0.03731  -0.70429
    Y2       -1.98828   0.06744   0.00000   0.02307   0.00926  -1.97901
    Z2       -0.08436   0.01844   0.00000   0.04504   0.04626  -0.03810
    X3       -2.20910   0.11503   0.00000   0.11385   0.11377  -2.09534
    Y3        0.01582  -0.02008   0.00000  -0.03874  -0.05380  -0.03798
    Z3        0.00320  -0.00743   0.00000  -0.02567  -0.02480  -0.02161
    X4       -0.69477  -0.07212   0.00000  -0.05536  -0.05726  -0.75203
    Y4        2.01346  -0.06157   0.00000  -0.03825  -0.05209   1.96137
    Z4        0.04663  -0.00008   0.00000   0.02010   0.02107   0.06771
    X5        1.79341  -0.03716   0.00000  -0.01495  -0.01629   1.77712
    Y5        1.39174  -0.05689   0.00000  -0.02516  -0.03672   1.35502
    Z5        0.02915   0.00908   0.00000   0.00847   0.00991   0.03906
    X6        3.34813   0.06253   0.00000   0.11159   0.10911   3.45724
    Y6        2.53149   0.05001   0.00000   0.10731   0.09727   2.62875
    Z6        0.02532  -0.00499   0.00000  -0.06319  -0.06155  -0.03623
    X7       -1.60500   0.00036   0.00000   0.00806   0.00439  -1.60060
    Y7        3.85327   0.02850   0.00000   0.07344   0.05884   3.91212
    Z7        0.05514   0.00074   0.00000   0.02779   0.02850   0.08363
    X8       -1.49709   0.00791   0.00000   0.02738   0.03083  -1.46627
    Y8       -3.92242  -0.00426   0.00000  -0.01324  -0.02773  -3.95014
    Z8        0.04048  -0.00532   0.00000  -0.05073  -0.04951  -0.00904
    X9        3.51219  -0.01287   0.00000  -0.09370  -0.09147   3.42072
    Y9       -2.65294   0.01580   0.00000   0.04510   0.03503  -2.61791
    Z9        0.06666   0.00586   0.00000   0.05133   0.05329   0.11995
         Item               Value     Threshold  Converged?
 Maximum Force            0.115035     0.000450     NO 
 RMS     Force            0.040322     0.000300     NO 
 Maximum Displacement     0.113769     0.001800     NO 
 RMS     Displacement     0.054030     0.001200     NO 
 Predicted change in Energy=-2.288686D-02
 GradGradGradGradGradGradGradGradGradGradGradGradGradGradGradGradGradGrad

 Leave Link  103 at Tue Dec 15 17:05:29 2015, MaxMem=    33554432 cpu:         0.0
 (Enter /home/Applications/g09/g09/l9999.exe)
 1\1\GINC-DUSTIN-DESKTOP\Force\RAM1-FC\STO-3G\C4H4O1\DUSTIN\15-Dec-2015
 \0\\#P AM1(Input,print) CIS(Singlets,NStates=15) pop(full) force\\AM1-
 Reparam Input\\0,1\C,0.975639,-0.66844,0.044435\C,-0.352946,-1.05215,-
 0.044642\O,-1.169008,0.00837,0.001692\C,-0.367658,1.065478,0.024677\C,
 0.949033,0.736479,0.015427\H,1.771752,1.339605,0.013397\H,-0.849328,2.
 039065,0.029177\H,-0.792227,-2.075653,0.021419\H,1.85857,-1.403878,0.0
 35276\\Version=ES64L-G09RevD.01\State=1-A\HF=1.080893\RMSD=4.174e-09\R
 MSF=4.032e-02\Dipole=-3.0798492,-0.058755,0.0728779\PG=C01 [X(C4H4O1)]
 \\@


 EDUCATION DOESN'T COST 
           ... IT PAYS!

 -- POSTMARK, UNIV. OF MISSISSIPPI, DEC 78
 Job cpu time:       0 days  0 hours  0 minutes  0.7 seconds.
 File lengths (MBytes):  RWF=      7 Int=      0 D2E=      0 Chk=      2 Scr=      1
 Normal termination of Gaussian 09 at Tue Dec 15 17:05:29 2015.
