 Entering Gaussian System, Link 0=g09
 Input=FuranDFT_23.com
 Output=FuranDFT_23.log
 Initial command:
 /home/Applications/g09/g09/l1.exe "/home/Applications/g09/scratch/Gau-5648.inp" -scrdir="/home/Applications/g09/scratch/"
 Entering Link 1 = /home/Applications/g09/g09/l1.exe PID=      5650.
  
 Copyright (c) 1988,1990,1992,1993,1995,1998,2003,2009,2013,
            Gaussian, Inc.  All Rights Reserved.
  
 This is part of the Gaussian(R) 09 program.  It is based on
 the Gaussian(R) 03 system (copyright 2003, Gaussian, Inc.),
 the Gaussian(R) 98 system (copyright 1998, Gaussian, Inc.),
 the Gaussian(R) 94 system (copyright 1995, Gaussian, Inc.),
 the Gaussian 92(TM) system (copyright 1992, Gaussian, Inc.),
 the Gaussian 90(TM) system (copyright 1990, Gaussian, Inc.),
 the Gaussian 88(TM) system (copyright 1988, Gaussian, Inc.),
 the Gaussian 86(TM) system (copyright 1986, Carnegie Mellon
 University), and the Gaussian 82(TM) system (copyright 1983,
 Carnegie Mellon University). Gaussian is a federally registered
 trademark of Gaussian, Inc.
  
 This software contains proprietary and confidential information,
 including trade secrets, belonging to Gaussian, Inc.
  
 This software is provided under written license and may be
 used, copied, transmitted, or stored only in accord with that
 written license.
  
 The following legend is applicable only to US Government
 contracts under FAR:
  
                    RESTRICTED RIGHTS LEGEND
  
 Use, reproduction and disclosure by the US Government is
 subject to restrictions as set forth in subparagraphs (a)
 and (c) of the Commercial Computer Software - Restricted
 Rights clause in FAR 52.227-19.
  
 Gaussian, Inc.
 340 Quinnipiac St., Bldg. 40, Wallingford CT 06492
  
  
 ---------------------------------------------------------------
 Warning -- This program may not be used in any manner that
 competes with the business of Gaussian, Inc. or will provide
 assistance to any competitor of Gaussian, Inc.  The licensee
 of this program is prohibited from giving any competitor of
 Gaussian, Inc. access to this program.  By using this program,
 the user acknowledges that Gaussian, Inc. is engaged in the
 business of creating and licensing software in the field of
 computational chemistry and represents and warrants to the
 licensee that it is not a competitor of Gaussian, Inc. and that
 it will not use this program in any manner prohibited above.
 ---------------------------------------------------------------
  

 Cite this work as:
 Gaussian 09, Revision D.01,
 M. J. Frisch, G. W. Trucks, H. B. Schlegel, G. E. Scuseria, 
 M. A. Robb, J. R. Cheeseman, G. Scalmani, V. Barone, B. Mennucci, 
 G. A. Petersson, H. Nakatsuji, M. Caricato, X. Li, H. P. Hratchian, 
 A. F. Izmaylov, J. Bloino, G. Zheng, J. L. Sonnenberg, M. Hada, 
 M. Ehara, K. Toyota, R. Fukuda, J. Hasegawa, M. Ishida, T. Nakajima, 
 Y. Honda, O. Kitao, H. Nakai, T. Vreven, J. A. Montgomery, Jr., 
 J. E. Peralta, F. Ogliaro, M. Bearpark, J. J. Heyd, E. Brothers, 
 K. N. Kudin, V. N. Staroverov, T. Keith, R. Kobayashi, J. Normand, 
 K. Raghavachari, A. Rendell, J. C. Burant, S. S. Iyengar, J. Tomasi, 
 M. Cossi, N. Rega, J. M. Millam, M. Klene, J. E. Knox, J. B. Cross, 
 V. Bakken, C. Adamo, J. Jaramillo, R. Gomperts, R. E. Stratmann, 
 O. Yazyev, A. J. Austin, R. Cammi, C. Pomelli, J. W. Ochterski, 
 R. L. Martin, K. Morokuma, V. G. Zakrzewski, G. A. Voth, 
 P. Salvador, J. J. Dannenberg, S. Dapprich, A. D. Daniels, 
 O. Farkas, J. B. Foresman, J. V. Ortiz, J. Cioslowski, 
 and D. J. Fox, Gaussian, Inc., Wallingford CT, 2013.
 
 ******************************************
 Gaussian 09:  ES64L-G09RevD.01 24-Apr-2013
                15-Dec-2015 
 ******************************************
 -------------------------------------------------------
 #P B3LYP/3-21G CIS(Singlets,NStates=15) pop(full) force
 -------------------------------------------------------
 1/10=7,30=1,38=1/1,3;
 2/12=2,17=6,18=5,40=1/2;
 3/5=5,11=9,16=1,25=1,30=1,71=1,74=-5/1,2,8,3;
 4//1;
 5/5=2,38=5/2;
 8/6=1,10=1,108=15/1;
 9/15=2,41=15,42=1,48=1/14;
 10/5=4/2;
 6/7=3,18=1/1;
 7/12=6,13=5,29=1/1,2,3,16;
 1/10=7,30=1/3;
 99//99;
 Leave Link    1 at Tue Dec 15 16:14:41 2015, MaxMem=           0 cpu:         0.0
 (Enter /home/Applications/g09/g09/l101.exe)
 --------
 FuranDFT
 --------
 Symbolic Z-matrix:
 Charge =  0 Multiplicity = 1
 6                     0.98006  -0.71427   0.01244 
 6                    -0.38266  -1.099    -0.01341 
 8                    -1.16924   0.04921   0.04017 
 6                    -0.3475    1.08017  -0.03352 
 6                     0.9115    0.72062   0.04863 
 1                     1.78974   1.40765   0.03898 
 1                    -0.86899   2.0071    0.00007 
 1                    -0.87254  -2.0172   -0.0114 
 1                     1.79518  -1.3708   -0.01724 
 
 NAtoms=      9 NQM=        9 NQMF=       0 NMMI=      0 NMMIF=      0
                NMic=       0 NMicF=      0.
                    Isotopes and Nuclear Properties:
 (Nuclear quadrupole moments (NQMom) in fm**2, nuclear magnetic moments (NMagM)
  in nuclear magnetons)

  Atom         1           2           3           4           5           6           7           8           9
 IAtWgt=          12          12          16          12          12           1           1           1           1
 AtmWgt=  12.0000000  12.0000000  15.9949146  12.0000000  12.0000000   1.0078250   1.0078250   1.0078250   1.0078250
 NucSpn=           0           0           0           0           0           1           1           1           1
 AtZEff=   0.0000000   0.0000000   0.0000000   0.0000000   0.0000000   0.0000000   0.0000000   0.0000000   0.0000000
 NQMom=    0.0000000   0.0000000   0.0000000   0.0000000   0.0000000   0.0000000   0.0000000   0.0000000   0.0000000
 NMagM=    0.0000000   0.0000000   0.0000000   0.0000000   0.0000000   2.7928460   2.7928460   2.7928460   2.7928460
 AtZNuc=   6.0000000   6.0000000   8.0000000   6.0000000   6.0000000   1.0000000   1.0000000   1.0000000   1.0000000
 Leave Link  101 at Tue Dec 15 16:14:41 2015, MaxMem=    33554432 cpu:         0.0
 (Enter /home/Applications/g09/g09/l103.exe)

 GradGradGradGradGradGradGradGradGradGradGradGradGradGradGradGradGradGrad
 Berny optimization.
 Initialization pass.
 Trust Radius=3.00D-01 FncErr=1.00D-07 GrdErr=1.00D-07
 Number of steps in this run=      2 maximum allowed number of steps=      2.
 GradGradGradGradGradGradGradGradGradGradGradGradGradGradGradGradGradGrad

 Leave Link  103 at Tue Dec 15 16:14:41 2015, MaxMem=    33554432 cpu:         0.0
 (Enter /home/Applications/g09/g09/l202.exe)
                          Input orientation:                          
 ---------------------------------------------------------------------
 Center     Atomic      Atomic             Coordinates (Angstroms)
 Number     Number       Type             X           Y           Z
 ---------------------------------------------------------------------
      1          6           0        0.980061   -0.714270    0.012440
      2          6           0       -0.382662   -1.098997   -0.013410
      3          8           0       -1.169243    0.049213    0.040169
      4          6           0       -0.347501    1.080171   -0.033517
      5          6           0        0.911503    0.720620    0.048633
      6          1           0        1.789735    1.407645    0.038979
      7          1           0       -0.868993    2.007102    0.000068
      8          1           0       -0.872543   -2.017201   -0.011400
      9          1           0        1.795176   -1.370803   -0.017236
 ---------------------------------------------------------------------
                    Distance matrix (angstroms):
                    1          2          3          4          5
     1  C    0.000000
     2  C    1.416226   0.000000
     3  O    2.281049   1.392827   0.000000
     4  C    2.232611   2.179544   1.320441   0.000000
     5  C    1.436983   2.233768   2.186404   1.311913   0.000000
     6  H    2.271299   3.317425   3.255901   2.163394   1.115073
     7  H    3.290140   3.143970   1.981183   1.064088   2.197171
     8  H    2.265025   1.040714   2.088243   3.141635   3.268346
     9  H    1.047057   2.194737   3.287479   3.255550   2.271402
                    6          7          8          9
     6  H    0.000000
     7  H    2.725747   0.000000
     8  H    4.338183   4.024321   0.000000
     9  H    2.779022   4.302132   2.744921   0.000000
 Stoichiometry    C4H4O
 Framework group  C1[X(C4H4O)]
 Deg. of freedom    21
 Full point group                 C1      NOp   1
 Largest Abelian subgroup         C1      NOp   1
 Largest concise Abelian subgroup C1      NOp   1
                         Standard orientation:                         
 ---------------------------------------------------------------------
 Center     Atomic      Atomic             Coordinates (Angstroms)
 Number     Number       Type             X           Y           Z
 ---------------------------------------------------------------------
      1          6           0       -0.970438    0.756641   -0.000216
      2          6           0       -0.964119   -0.659446    0.018662
      3          8           0        0.356775   -1.098251   -0.032885
      4          6           0        1.120594   -0.024233    0.048534
      5          6           0        0.427731    1.087000   -0.030332
      6          1           0        0.845592    2.120693   -0.014245
      7          1           0        2.155566   -0.269430    0.017029
      8          1           0       -1.711403   -1.383731    0.010699
      9          1           0       -1.826562    1.358707    0.029712
 ---------------------------------------------------------------------
 Rotational constants (GHZ):      9.5975509      9.2136577      4.7062907
 Leave Link  202 at Tue Dec 15 16:14:41 2015, MaxMem=    33554432 cpu:         0.0
 (Enter /home/Applications/g09/g09/l301.exe)
 Standard basis: 3-21G (6D, 7F)
 Ernie: Thresh=  0.10000D-02 Tol=  0.10000D-05 Strict=F.
 There are    53 symmetry adapted cartesian basis functions of A   symmetry.
 There are    53 symmetry adapted basis functions of A   symmetry.
    53 basis functions,    87 primitive gaussians,    53 cartesian basis functions
    18 alpha electrons       18 beta electrons
       nuclear repulsion energy       161.3240298386 Hartrees.
 IExCor=  402 DFT=T Ex+Corr=B3LYP ExCW=0 ScaHFX=  0.200000
 ScaDFX=  0.800000  0.720000  1.000000  0.810000 ScalE2=  1.000000  1.000000
 IRadAn=      0 IRanWt=     -1 IRanGd=            0 ICorTp=0 IEmpDi=  4
 NAtoms=    9 NActive=    9 NUniq=    9 SFac= 1.00D+00 NAtFMM=   60 NAOKFM=F Big=F
 Integral buffers will be    131072 words long.
 Regular integral format.
 Two-electron integral symmetry is turned on.
 Leave Link  301 at Tue Dec 15 16:14:41 2015, MaxMem=    33554432 cpu:         0.0
 (Enter /home/Applications/g09/g09/l302.exe)
 NPDir=0 NMtPBC=     1 NCelOv=     1 NCel=       1 NClECP=     1 NCelD=      1
         NCelK=      1 NCelE2=     1 NClLst=     1 CellRange=     0.0.
 One-electron integrals computed using PRISM.
 NBasis=    53 RedAO= T EigKep=  3.22D-03  NBF=    53
 NBsUse=    53 1.00D-06 EigRej= -1.00D+00 NBFU=    53
 Precomputing XC quadrature grid using
 IXCGrd= 4 IRadAn=           0 IRanWt=          -1 IRanGd=           0 AccXCQ= 0.00D+00.
 Generated NRdTot=       0 NPtTot=           0 NUsed=           0 NTot=          32
 NSgBfM=    53    53    53    53    53 MxSgAt=     9 MxSgA2=     9.
 Leave Link  302 at Tue Dec 15 16:14:42 2015, MaxMem=    33554432 cpu:         0.1
 (Enter /home/Applications/g09/g09/l308.exe)
 Leave Link  308 at Tue Dec 15 16:14:42 2015, MaxMem=    33554432 cpu:         0.0
 (Enter /home/Applications/g09/g09/l303.exe)
 DipDrv:  MaxL=1.
 Leave Link  303 at Tue Dec 15 16:14:42 2015, MaxMem=    33554432 cpu:         0.0
 (Enter /home/Applications/g09/g09/l401.exe)
 ExpMin= 1.83D-01 ExpMax= 3.22D+02 ExpMxC= 3.22D+02 IAcc=1 IRadAn=         1 AccDes= 0.00D+00
 Harris functional with IExCor=  402 and IRadAn=       1 diagonalized for initial guess.
 HarFok:  IExCor=  402 AccDes= 0.00D+00 IRadAn=         1 IDoV= 1 UseB2=F ITyADJ=14
 ICtDFT=  3500011 ScaDFX=  1.000000  1.000000  1.000000  1.000000
 FoFCou: FMM=F IPFlag=           0 FMFlag=      100000 FMFlg1=           0
         NFxFlg=           0 DoJE=T BraDBF=F KetDBF=T FulRan=T
         wScrn=  0.000000 ICntrl=     500 IOpCl=  0 I1Cent=   200000004 NGrid=           0
         NMat0=    1 NMatS0=      1 NMatT0=    0 NMatD0=    1 NMtDS0=    0 NMtDT0=    0
 Petite list used in FoFCou.
 Harris En= -228.727452549719    
 JPrj=0 DoOrth=F DoCkMO=F.
 Leave Link  401 at Tue Dec 15 16:14:42 2015, MaxMem=    33554432 cpu:         0.2
 (Enter /home/Applications/g09/g09/l502.exe)
 Closed shell SCF:
 Using DIIS extrapolation, IDIIS=  1040.
 Integral symmetry usage will be decided dynamically.
 Keep R1 ints in memory in canonical form, NReq=1925595.
 IVT=       27707 IEndB=       27707 NGot=    33554432 MDV=    32502130
 LenX=    32502130 LenY=    32498880
 Requested convergence on RMS density matrix=1.00D-08 within 128 cycles.
 Requested convergence on MAX density matrix=1.00D-06.
 Requested convergence on             energy=1.00D-06.
 No special actions if energy rises.
 FoFCou: FMM=F IPFlag=           0 FMFlag=           0 FMFlg1=           0
         NFxFlg=           0 DoJE=F BraDBF=F KetDBF=F FulRan=T
         wScrn=  0.000000 ICntrl=     600 IOpCl=  0 I1Cent=           0 NGrid=           0
         NMat0=    1 NMatS0=   1431 NMatT0=    0 NMatD0=    1 NMtDS0=    0 NMtDT0=    0
 Symmetry not used in FoFCou.
 Integral accuracy reduced to 1.0D-05 until final iterations.

 Cycle   1  Pass 0  IDiag  1:
 E= -228.658953293932    
 DIIS: error= 3.34D-02 at cycle   1 NSaved=   1.
 NSaved= 1 IEnMin= 1 EnMin= -228.658953293932     IErMin= 1 ErrMin= 3.34D-02
 ErrMax= 3.34D-02  0.00D+00 EMaxC= 1.00D-01 BMatC= 7.46D-02 BMatP= 7.46D-02
 IDIUse=3 WtCom= 6.66D-01 WtEn= 3.34D-01
 Coeff-Com:  0.100D+01
 Coeff-En:   0.100D+01
 Coeff:      0.100D+01
 Gap=     0.227 Goal=   None    Shift=    0.000
 GapD=    0.227 DampG=1.000 DampE=0.500 DampFc=0.5000 IDamp=-1.
 Damping current iteration by 5.00D-01
 RMSDP=1.17D-02 MaxDP=1.16D-01              OVMax= 1.99D-01

 Cycle   2  Pass 0  IDiag  1:
 E= -228.688752612262     Delta-E=       -0.029799318330 Rises=F Damp=T
 DIIS: error= 1.15D-02 at cycle   2 NSaved=   2.
 NSaved= 2 IEnMin= 2 EnMin= -228.688752612262     IErMin= 2 ErrMin= 1.15D-02
 ErrMax= 1.15D-02  0.00D+00 EMaxC= 1.00D-01 BMatC= 9.15D-03 BMatP= 7.46D-02
 IDIUse=3 WtCom= 8.85D-01 WtEn= 1.15D-01
 Coeff-Com:  0.117D+00 0.883D+00
 Coeff-En:   0.207D+00 0.793D+00
 Coeff:      0.127D+00 0.873D+00
 Gap=     0.245 Goal=   None    Shift=    0.000
 RMSDP=4.34D-03 MaxDP=3.57D-02 DE=-2.98D-02 OVMax= 1.63D-01

 Cycle   3  Pass 0  IDiag  1:
 E= -228.726527015172     Delta-E=       -0.037774402910 Rises=F Damp=F
 DIIS: error= 1.65D-02 at cycle   3 NSaved=   3.
 NSaved= 3 IEnMin= 3 EnMin= -228.726527015172     IErMin= 2 ErrMin= 1.15D-02
 ErrMax= 1.65D-02  0.00D+00 EMaxC= 1.00D-01 BMatC= 1.16D-02 BMatP= 9.15D-03
 IDIUse=2 WtCom= 0.00D+00 WtEn= 1.00D+00
 Coeff-En:   0.000D+00 0.000D+00 0.100D+01
 Coeff:      0.000D+00 0.000D+00 0.100D+01
 Gap=     0.236 Goal=   None    Shift=    0.000
 RMSDP=5.96D-03 MaxDP=4.91D-02 DE=-3.78D-02 OVMax= 1.27D-01

 Cycle   4  Pass 0  IDiag  1:
 E= -228.694150191336     Delta-E=        0.032376823836 Rises=F Damp=F
 DIIS: error= 3.48D-02 at cycle   4 NSaved=   4.
 NSaved= 4 IEnMin= 3 EnMin= -228.726527015172     IErMin= 2 ErrMin= 1.15D-02
 ErrMax= 3.48D-02  0.00D+00 EMaxC= 1.00D-01 BMatC= 4.62D-02 BMatP= 9.15D-03
 IDIUse=2 WtCom= 0.00D+00 WtEn= 1.00D+00
 Coeff-En:   0.000D+00 0.000D+00 0.751D+00 0.249D+00
 Coeff:      0.000D+00 0.000D+00 0.751D+00 0.249D+00
 Gap=     0.245 Goal=   None    Shift=    0.000
 RMSDP=3.00D-03 MaxDP=2.32D-02 DE= 3.24D-02 OVMax= 6.95D-02

 Cycle   5  Pass 0  IDiag  1:
 E= -228.734966558504     Delta-E=       -0.040816367168 Rises=F Damp=F
 DIIS: error= 8.10D-03 at cycle   5 NSaved=   5.
 NSaved= 5 IEnMin= 5 EnMin= -228.734966558504     IErMin= 5 ErrMin= 8.10D-03
 ErrMax= 8.10D-03  0.00D+00 EMaxC= 1.00D-01 BMatC= 2.62D-03 BMatP= 9.15D-03
 IDIUse=3 WtCom= 9.19D-01 WtEn= 8.10D-02
 Coeff-Com: -0.962D-02 0.313D-01 0.226D+00-0.107D+00 0.860D+00
 Coeff-En:   0.000D+00 0.000D+00 0.226D+00 0.000D+00 0.774D+00
 Coeff:     -0.884D-02 0.288D-01 0.226D+00-0.984D-01 0.853D+00
 Gap=     0.249 Goal=   None    Shift=    0.000
 RMSDP=1.02D-03 MaxDP=8.34D-03 DE=-4.08D-02 OVMax= 2.17D-02

 Cycle   6  Pass 0  IDiag  1:
 E= -228.737413811428     Delta-E=       -0.002447252924 Rises=F Damp=F
 DIIS: error= 3.54D-04 at cycle   6 NSaved=   6.
 NSaved= 6 IEnMin= 6 EnMin= -228.737413811428     IErMin= 6 ErrMin= 3.54D-04
 ErrMax= 3.54D-04  0.00D+00 EMaxC= 1.00D-01 BMatC= 7.28D-06 BMatP= 2.62D-03
 IDIUse=3 WtCom= 9.96D-01 WtEn= 3.54D-03
 Coeff-Com: -0.516D-02 0.117D-01 0.407D-01-0.416D-01 0.270D+00 0.724D+00
 Coeff-En:   0.000D+00 0.000D+00 0.000D+00 0.000D+00 0.000D+00 0.100D+01
 Coeff:     -0.514D-02 0.116D-01 0.405D-01-0.415D-01 0.269D+00 0.725D+00
 Gap=     0.249 Goal=   None    Shift=    0.000
 RMSDP=6.02D-05 MaxDP=4.57D-04 DE=-2.45D-03 OVMax= 1.18D-03

 Cycle   7  Pass 0  IDiag  1:
 E= -228.737421298150     Delta-E=       -0.000007486722 Rises=F Damp=F
 DIIS: error= 3.24D-05 at cycle   7 NSaved=   7.
 NSaved= 7 IEnMin= 7 EnMin= -228.737421298150     IErMin= 7 ErrMin= 3.24D-05
 ErrMax= 3.24D-05  0.00D+00 EMaxC= 1.00D-01 BMatC= 8.13D-08 BMatP= 7.28D-06
 IDIUse=1 WtCom= 1.00D+00 WtEn= 0.00D+00
 Coeff-Com: -0.130D-02 0.238D-02 0.106D-01-0.108D-01 0.780D-01 0.329D+00
 Coeff-Com:  0.592D+00
 Coeff:     -0.130D-02 0.238D-02 0.106D-01-0.108D-01 0.780D-01 0.329D+00
 Coeff:      0.592D+00
 Gap=     0.249 Goal=   None    Shift=    0.000
 RMSDP=6.74D-06 MaxDP=9.71D-05 DE=-7.49D-06 OVMax= 1.18D-04

 Initial convergence to 1.0D-05 achieved.  Increase integral accuracy.
 Cycle   8  Pass 1  IDiag  1:
 E= -228.737437925070     Delta-E=       -0.000016626921 Rises=F Damp=F
 DIIS: error= 2.08D-05 at cycle   1 NSaved=   1.
 NSaved= 1 IEnMin= 1 EnMin= -228.737437925070     IErMin= 1 ErrMin= 2.08D-05
 ErrMax= 2.08D-05  0.00D+00 EMaxC= 1.00D-01 BMatC= 1.75D-08 BMatP= 1.75D-08
 IDIUse=1 WtCom= 1.00D+00 WtEn= 0.00D+00
 Coeff-Com:  0.100D+01
 Coeff:      0.100D+01
 Gap=     0.249 Goal=   None    Shift=    0.000
 RMSDP=6.74D-06 MaxDP=9.71D-05 DE=-1.66D-05 OVMax= 7.29D-05

 Cycle   9  Pass 1  IDiag  1:
 E= -228.737437932034     Delta-E=       -0.000000006964 Rises=F Damp=F
 DIIS: error= 1.74D-05 at cycle   2 NSaved=   2.
 NSaved= 2 IEnMin= 2 EnMin= -228.737437932034     IErMin= 2 ErrMin= 1.74D-05
 ErrMax= 1.74D-05  0.00D+00 EMaxC= 1.00D-01 BMatC= 1.35D-08 BMatP= 1.75D-08
 IDIUse=1 WtCom= 1.00D+00 WtEn= 0.00D+00
 Coeff-Com:  0.459D+00 0.541D+00
 Coeff:      0.459D+00 0.541D+00
 Gap=     0.249 Goal=   None    Shift=    0.000
 RMSDP=3.32D-06 MaxDP=3.76D-05 DE=-6.96D-09 OVMax= 7.08D-05

 Cycle  10  Pass 1  IDiag  1:
 E= -228.737437943485     Delta-E=       -0.000000011451 Rises=F Damp=F
 DIIS: error= 7.71D-06 at cycle   3 NSaved=   3.
 NSaved= 3 IEnMin= 3 EnMin= -228.737437943485     IErMin= 3 ErrMin= 7.71D-06
 ErrMax= 7.71D-06  0.00D+00 EMaxC= 1.00D-01 BMatC= 2.67D-09 BMatP= 1.35D-08
 IDIUse=1 WtCom= 1.00D+00 WtEn= 0.00D+00
 Coeff-Com:  0.237D-01 0.304D+00 0.672D+00
 Coeff:      0.237D-01 0.304D+00 0.672D+00
 Gap=     0.249 Goal=   None    Shift=    0.000
 RMSDP=1.29D-06 MaxDP=1.25D-05 DE=-1.15D-08 OVMax= 2.83D-05

 Cycle  11  Pass 1  IDiag  1:
 E= -228.737437945900     Delta-E=       -0.000000002415 Rises=F Damp=F
 DIIS: error= 4.04D-06 at cycle   4 NSaved=   4.
 NSaved= 4 IEnMin= 4 EnMin= -228.737437945900     IErMin= 4 ErrMin= 4.04D-06
 ErrMax= 4.04D-06  0.00D+00 EMaxC= 1.00D-01 BMatC= 5.97D-10 BMatP= 2.67D-09
 IDIUse=1 WtCom= 1.00D+00 WtEn= 0.00D+00
 Coeff-Com: -0.161D-01 0.177D+00 0.458D+00 0.381D+00
 Coeff:     -0.161D-01 0.177D+00 0.458D+00 0.381D+00
 Gap=     0.249 Goal=   None    Shift=    0.000
 RMSDP=4.19D-07 MaxDP=4.33D-06 DE=-2.41D-09 OVMax= 8.22D-06

 Cycle  12  Pass 1  IDiag  1:
 E= -228.737437946382     Delta-E=       -0.000000000482 Rises=F Damp=F
 DIIS: error= 1.65D-07 at cycle   5 NSaved=   5.
 NSaved= 5 IEnMin= 5 EnMin= -228.737437946382     IErMin= 5 ErrMin= 1.65D-07
 ErrMax= 1.65D-07  0.00D+00 EMaxC= 1.00D-01 BMatC= 1.15D-12 BMatP= 5.97D-10
 IDIUse=1 WtCom= 1.00D+00 WtEn= 0.00D+00
 Coeff-Com: -0.364D-02 0.297D-01 0.779D-01 0.900D-01 0.806D+00
 Coeff:     -0.364D-02 0.297D-01 0.779D-01 0.900D-01 0.806D+00
 Gap=     0.249 Goal=   None    Shift=    0.000
 RMSDP=2.76D-08 MaxDP=2.77D-07 DE=-4.82D-10 OVMax= 5.56D-07

 Cycle  13  Pass 1  IDiag  1:
 E= -228.737437946382     Delta-E=        0.000000000000 Rises=F Damp=F
 DIIS: error= 7.17D-08 at cycle   6 NSaved=   6.
 NSaved= 6 IEnMin= 6 EnMin= -228.737437946382     IErMin= 6 ErrMin= 7.17D-08
 ErrMax= 7.17D-08  0.00D+00 EMaxC= 1.00D-01 BMatC= 3.26D-13 BMatP= 1.15D-12
 IDIUse=1 WtCom= 1.00D+00 WtEn= 0.00D+00
 Coeff-Com: -0.123D-02 0.601D-02 0.160D-01 0.280D-01 0.438D+00 0.514D+00
 Coeff:     -0.123D-02 0.601D-02 0.160D-01 0.280D-01 0.438D+00 0.514D+00
 Gap=     0.249 Goal=   None    Shift=    0.000
 RMSDP=1.18D-08 MaxDP=2.33D-07 DE=-3.98D-13 OVMax= 2.23D-07

 Cycle  14  Pass 1  IDiag  1:
 E= -228.737437946383     Delta-E=       -0.000000000001 Rises=F Damp=F
 DIIS: error= 1.09D-08 at cycle   7 NSaved=   7.
 NSaved= 7 IEnMin= 7 EnMin= -228.737437946383     IErMin= 7 ErrMin= 1.09D-08
 ErrMax= 1.09D-08  0.00D+00 EMaxC= 1.00D-01 BMatC= 6.15D-15 BMatP= 3.26D-13
 IDIUse=1 WtCom= 1.00D+00 WtEn= 0.00D+00
 Coeff-Com: -0.479D-04-0.434D-03-0.145D-02 0.945D-03 0.701D-01 0.140D+00
 Coeff-Com:  0.791D+00
 Coeff:     -0.479D-04-0.434D-03-0.145D-02 0.945D-03 0.701D-01 0.140D+00
 Coeff:      0.791D+00
 Gap=     0.249 Goal=   None    Shift=    0.000
 RMSDP=2.19D-09 MaxDP=2.17D-08 DE=-1.31D-12 OVMax= 4.68D-08

 SCF Done:  E(RB3LYP) =  -228.737437946     A.U. after   14 cycles
            NFock= 14  Conv=0.22D-08     -V/T= 2.0077
 KE= 2.269973756428D+02 PE=-8.552558208363D+02 EE= 2.381969774085D+02
 Leave Link  502 at Tue Dec 15 16:14:46 2015, MaxMem=    33554432 cpu:         4.2
 (Enter /home/Applications/g09/g09/l801.exe)
 DoSCS=F DFT=T ScalE2(SS,OS)=  1.000000  1.000000
 ExpMin= 1.83D-01 ExpMax= 3.22D+02 ExpMxC= 3.22D+02 IAcc=3 IRadAn=         5 AccDes= 0.00D+00
 HarFok:  IExCor=  205 AccDes= 0.00D+00 IRadAn=         5 IDoV=-2 UseB2=F ITyADJ=14
 ICtDFT= 12500011 ScaDFX=  1.000000  1.000000  1.000000  1.000000
 Largest valence mixing into a core orbital is  1.75D-04
 Largest core mixing into a valence orbital is  4.69D-05
 Range of M.O.s used for correlation:     6    53
 NBasis=    53 NAE=    18 NBE=    18 NFC=     5 NFV=     0
 NROrb=     48 NOA=    13 NOB=    13 NVA=    35 NVB=    35
 Leave Link  801 at Tue Dec 15 16:14:46 2015, MaxMem=    33554432 cpu:         0.2
 (Enter /home/Applications/g09/g09/l914.exe)
 RHF ground state
 MDV=    33554432 DFT=T DoStab=F Mixed=T DoRPA=F DoScal=F NonHer=F
 Keep R1, R2, and R3 ints in memory in canonical form, NReq=5596273.
 FoFCou: FMM=F IPFlag=           0 FMFlag=           0 FMFlg1=           0
         NFxFlg=           0 DoJE=F BraDBF=F KetDBF=F FulRan=T
         wScrn=  0.000000 ICntrl=     600 IOpCl=  0 I1Cent=           0 NGrid=           0
         NMat0=    1 NMatS0=   1431 NMatT0=    0 NMatD0=    1 NMtDS0=    0 NMtDT0=    0
 Symmetry not used in FoFCou.
 Making orbital integer symmetry assigments:
 Orbital symmetries:
       Occupied  (A) (A) (A) (A) (A) (A) (A) (A) (A) (A) (A) (A)
                 (A) (A) (A) (A) (A) (A)
       Virtual   (A) (A) (A) (A) (A) (A) (A) (A) (A) (A) (A) (A)
                 (A) (A) (A) (A) (A) (A) (A) (A) (A) (A) (A) (A)
                 (A) (A) (A) (A) (A) (A) (A) (A) (A) (A) (A)
    60 initial guesses have been made.
 Convergence on wavefunction:    0.000001000000000
 Davidson Disk Diagonalization:  ConvIn= 1.00D-06 SkipCon=T Conv= 1.00D-06.
 Max sub-space:   240 roots to seek:    60 dimension of matrix:          910
 Iteration     1 Dimension    60 NMult     0 NNew     60
 CISAX will form    60 AO SS matrices at one time.
 NMat=    60 NSing=    60 JSym2X= 0.
 New state      1 was old state      2
 New state      2 was old state      1
 New state      3 was old state      5
 New state      4 was old state      6
 New state      5 was old state      7
 New state      6 was old state     10
 New state      7 was old state      8
 New state      8 was old state      4
 New state     10 was old state     11
 New state     11 was old state     14
 New state     14 was old state     15
 New state     15 was old state      3
 Excitation Energies [eV] at current iteration:
 Root      1 :     7.305529745654781
 Root      2 :     8.060605473350876
 Root      3 :     8.614091153467784
 Root      4 :     8.756925396811175
 Root      5 :     9.459394855304163
 Root      6 :     9.746439926286088
 Root      7 :     9.805975967619849
 Root      8 :     9.987998141188342
 Root      9 :    10.029179572230250
 Root     10 :    10.340800905119460
 Root     11 :    10.504655474691520
 Root     12 :    10.635493756557760
 Root     13 :    10.756127475090310
 Root     14 :    10.975862026139540
 Root     15 :    11.022015739608840
 Root     16 :    11.289939395313490
 Root     17 :    11.343017778607650
 Root     18 :    11.370387635976930
 Root     19 :    11.437039910335330
 Root     20 :    11.588075621248710
 Root     21 :    12.136184612975000
 Root     22 :    12.161252567364470
 Root     23 :    12.275901009555140
 Root     24 :    12.537959252130040
 Root     25 :    12.874153656835120
 Root     26 :    13.267915163092970
 Root     27 :    13.562556866418440
 Root     28 :    13.613116120866210
 Root     29 :    13.811481453664910
 Root     30 :    13.914285628125890
 Root     31 :    13.993846285591270
 Root     32 :    14.121032294944040
 Root     33 :    14.180377654315380
 Root     34 :    14.276657535985510
 Root     35 :    14.441144750506880
 Root     36 :    14.670683174294400
 Root     37 :    14.718813359031120
 Root     38 :    14.789417555603440
 Root     39 :    14.916320062895580
 Root     40 :    15.019407861000910
 Root     41 :    15.038845166418370
 Root     42 :    15.186570555361180
 Root     43 :    15.319726852069960
 Root     44 :    15.395756112504580
 Root     45 :    15.497871101355800
 Root     46 :    15.625431176444260
 Root     47 :    15.681504435782890
 Root     48 :    15.865082400075660
 Root     49 :    15.914253054472660
 Root     50 :    16.006006094750610
 Root     51 :    16.095725092969960
 Root     52 :    16.142172873772460
 Root     53 :    16.310359687678630
 Root     54 :    16.464437976245910
 Root     55 :    16.488916834481060
 Root     56 :    16.791093813159080
 Root     57 :    16.914376954157380
 Root     58 :    17.390555798581440
 Root     59 :    17.706613794053120
 Root     60 :    18.057187641489380
 Iteration     2 Dimension   120 NMult    60 NNew     60
 CISAX will form    60 AO SS matrices at one time.
 NMat=    60 NSing=    60 JSym2X= 0.
 Root      1 not converged, maximum delta is    0.296626793532439
 Root      2 not converged, maximum delta is    0.261797351041903
 Root      3 not converged, maximum delta is    0.018910920866897
 Root      4 not converged, maximum delta is    0.027513888465017
 New state      5 was old state      8
 Root      5 not converged, maximum delta is    0.441209929270080
 New state      6 was old state      5
 Root      6 not converged, maximum delta is    0.228493021272513
 New state      7 was old state      6
 Root      7 not converged, maximum delta is    0.079209419982983
 New state      8 was old state      7
 Root      8 not converged, maximum delta is    0.076035154993247
 New state      9 was old state     15
 Root      9 not converged, maximum delta is    0.455301163593717
 New state     10 was old state      9
 Root     10 not converged, maximum delta is    0.406400090685107
 New state     11 was old state     10
 Root     11 not converged, maximum delta is    0.093080396318169
 New state     12 was old state     11
 Root     12 not converged, maximum delta is    0.116963751427516
 New state     13 was old state     12
 Root     13 not converged, maximum delta is    0.106095171967122
 New state     14 was old state     13
 Root     14 not converged, maximum delta is    0.037517375123651
 New state     15 was old state     14
 Root     15 not converged, maximum delta is    0.249678797311413
 Excitation Energies [eV] at current iteration:
 Root      1 :     7.057469365976942   Change is   -0.248060379677839
 Root      2 :     7.359283966326549   Change is   -0.701321507024327
 Root      3 :     8.606943710900998   Change is   -0.007147442566786
 Root      4 :     8.724911618812472   Change is   -0.032013777998704
 Root      5 :     9.356808955676760   Change is   -0.631189185511583
 Root      6 :     9.449953459671214   Change is   -0.009441395632948
 Root      7 :     9.741950006955577   Change is   -0.004489919330513
 Root      8 :     9.797876450909232   Change is   -0.008099516710617
 Root      9 :     9.876139314969972   Change is   -1.145876424638872
 Root     10 :     9.985246458592851   Change is   -0.043933113637401
 Root     11 :    10.344160345222080   Change is    0.003359440102611
 Root     12 :    10.483258236088360   Change is   -0.021397238603156
 Root     13 :    10.640153374086230   Change is    0.004659617528466
 Root     14 :    10.741701872303740   Change is   -0.014425602786575
 Root     15 :    10.976586267235590   Change is    0.000724241096053
 Root     16 :    11.230415847881140   Change is   -0.059523547432348
 Root     17 :    11.316788557840960   Change is   -0.026229220766692
 Root     18 :    11.353720582730450   Change is   -0.016667053246482
 Root     19 :    11.381177638754060   Change is   -0.055862271581275
 Root     20 :    11.558620923519030   Change is   -0.029454697729680
 Root     21 :    11.963856875154090   Change is   -0.172327737820916
 Root     22 :    12.136688048997790   Change is   -0.024564518366684
 Root     23 :    12.213624002081270   Change is   -0.062277007473870
 Root     24 :    12.509695841565420   Change is   -0.028263410564624
 Root     25 :    12.665882238329140   Change is   -0.208271418505980
 Root     26 :    13.058673182154240   Change is   -0.503883684264203
 Root     27 :    13.228539270690700   Change is   -0.039375892402266
 Root     28 :    13.532727209178100   Change is   -0.080388911688109
 Root     29 :    13.595998453617130   Change is   -0.215483000047783
 Root     30 :    13.704547230666960   Change is   -0.736597519839919
 Root     31 :    13.878297214984270   Change is   -0.035988413141618
 Root     32 :    13.960584842774890   Change is   -0.033261442816377
 Root     33 :    14.003728915671240   Change is   -0.117303379272802
 Root     34 :    14.143578495781280   Change is   -0.036799158534105
 Root     35 :    14.201631063460750   Change is   -0.075026472524752
 Root     36 :    14.581872348279580   Change is   -0.088810826014812
 Root     37 :    14.639051495825750   Change is   -0.150366059777684
 Root     38 :    14.688460718507400   Change is   -0.030352640523715
 Root     39 :    14.862340493967650   Change is   -0.053979568927923
 Root     40 :    14.946463236459270   Change is   -0.092381929959101
 Root     41 :    14.967232029168290   Change is   -0.219338526192886
 Root     42 :    14.986531873264860   Change is   -0.032875987736048
 Root     43 :    15.118040771756180   Change is   -0.379830329599613
 Root     44 :    15.277190298698540   Change is   -0.042536553371416
 Root     45 :    15.328507637904040   Change is   -0.067248474600537
 Root     46 :    15.435691734636240   Change is   -0.429390665439416
 Root     47 :    15.572788458896160   Change is   -0.108715976886729
 Root     48 :    15.598343930829150   Change is   -0.027087245615115
 Root     49 :    15.748509317195850   Change is   -0.165743737276811
 Root     50 :    15.821811885770690   Change is   -0.184194208979920
 Root     51 :    15.962037401461130   Change is   -0.180135472311329
 Root     52 :    15.974535741013200   Change is   -0.121189351956760
 Root     53 :    16.144646296138490   Change is   -0.165713391540148
 Root     54 :    16.407097379288890   Change is   -1.299516414764232
 Root     55 :    16.417542326733590   Change is   -0.046895649512319
 Root     56 :    16.452634273499580   Change is   -0.036282560981484
 Root     57 :    16.560042291943680   Change is   -0.830513506637759
 Root     58 :    16.611056242244740   Change is   -0.180037570914340
 Root     59 :    16.662633972863670   Change is   -1.394553668625715
 Root     60 :    16.775752823545190   Change is   -0.138624130612189
 Iteration     3 Dimension   135 NMult   120 NNew     15
 CISAX will form    15 AO SS matrices at one time.
 NMat=    15 NSing=    15 JSym2X= 0.
 Root      1 not converged, maximum delta is    0.001769492406672
 Root      2 not converged, maximum delta is    0.002200523830222
 Root      3 not converged, maximum delta is    0.000105374570645
 Root      4 not converged, maximum delta is    0.000298051650337
 Root      5 not converged, maximum delta is    0.005979320538169
 Root      6 not converged, maximum delta is    0.004534490842556
 Root      7 not converged, maximum delta is    0.001925352149542
 Root      8 not converged, maximum delta is    0.000216754392142
 Root      9 not converged, maximum delta is    0.002689587133282
 Root     10 not converged, maximum delta is    0.000653610649192
 Root     11 not converged, maximum delta is    0.000449367331097
 Root     12 not converged, maximum delta is    0.000543432116888
 Root     13 not converged, maximum delta is    0.000372799702591
 Root     14 not converged, maximum delta is    0.000374807027004
 Root     15 not converged, maximum delta is    0.000342680095742
 Excitation Energies [eV] at current iteration:
 Root      1 :     7.055936920841449   Change is   -0.001532445135493
 Root      2 :     7.357798496587043   Change is   -0.001485469739506
 Root      3 :     8.606933996869493   Change is   -0.000009714031506
 Root      4 :     8.724837014990358   Change is   -0.000074603822113
 Root      5 :     9.354319348820930   Change is   -0.002489606855829
 Root      6 :     9.449604491988389   Change is   -0.000348967682825
 Root      7 :     9.741882458632620   Change is   -0.000067548322956
 Root      8 :     9.797858869048156   Change is   -0.000017581861076
 Root      9 :     9.872037208538870   Change is   -0.004102106431103
 Root     10 :     9.985186608089736   Change is   -0.000059850503116
 Root     11 :    10.344077429665500   Change is   -0.000082915556577
 Root     12 :    10.483135942575560   Change is   -0.000122293512806
 Root     13 :    10.640090275004070   Change is   -0.000063099082164
 Root     14 :    10.741676273093400   Change is   -0.000025599210334
 Root     15 :    10.976553542653650   Change is   -0.000032724581946
 Iteration     4 Dimension   150 NMult   135 NNew     15
 CISAX will form    15 AO SS matrices at one time.
 NMat=    15 NSing=    15 JSym2X= 0.
 Root      1 not converged, maximum delta is    0.000051344075048
 Root      2 not converged, maximum delta is    0.000058655732309
 Root      3 not converged, maximum delta is    0.000003021222458
 Root      4 not converged, maximum delta is    0.000009517892460
 Root      5 not converged, maximum delta is    0.000060510308136
 Root      6 not converged, maximum delta is    0.000023387693535
 Root      7 not converged, maximum delta is    0.000011610831966
 Root      8 not converged, maximum delta is    0.000004910457032
 Root      9 not converged, maximum delta is    0.000096914078393
 Root     10 not converged, maximum delta is    0.000007933451193
 Root     11 not converged, maximum delta is    0.000014166823264
 Root     12 not converged, maximum delta is    0.000013085811604
 Root     13 not converged, maximum delta is    0.000013632822564
 Root     14 not converged, maximum delta is    0.000007944860521
 Root     15 not converged, maximum delta is    0.000011285795747
 Excitation Energies [eV] at current iteration:
 Root      1 :     7.055935259367303   Change is   -0.000001661474147
 Root      2 :     7.357796548523068   Change is   -0.000001948063975
 Root      3 :     8.606933987101080   Change is   -0.000000009768412
 Root      4 :     8.724836924410619   Change is   -0.000000090579740
 Root      5 :     9.354315853458054   Change is   -0.000003495362875
 Root      6 :     9.449604008968473   Change is   -0.000000483019916
 Root      7 :     9.741882360155271   Change is   -0.000000098477348
 Root      8 :     9.797858854761275   Change is   -0.000000014286881
 Root      9 :     9.872030676214154   Change is   -0.000006532324717
 Root     10 :     9.985186559093311   Change is   -0.000000048996424
 Root     11 :    10.344077323859650   Change is   -0.000000105805846
 Root     12 :    10.483135773000200   Change is   -0.000000169575360
 Root     13 :    10.640090188721000   Change is   -0.000000086283063
 Root     14 :    10.741676236961380   Change is   -0.000000036132023
 Root     15 :    10.976553516455430   Change is   -0.000000026198217
 Iteration     5 Dimension   165 NMult   150 NNew     15
 CISAX will form    15 AO SS matrices at one time.
 NMat=    15 NSing=    15 JSym2X= 0.
 Root      1 not converged, maximum delta is    0.000001547591446
 Root      2 not converged, maximum delta is    0.000002360258183
 Root      3 has converged.
 Root      4 has converged.
 Root      5 not converged, maximum delta is    0.000002598319591
 Root      6 not converged, maximum delta is    0.000001065937086
 Root      7 has converged.
 Root      8 has converged.
 Root      9 not converged, maximum delta is    0.000003646400269
 Root     10 has converged.
 Root     11 has converged.
 Root     12 has converged.
 Root     13 has converged.
 Root     14 has converged.
 Root     15 has converged.
 Excitation Energies [eV] at current iteration:
 Root      1 :     7.055935258107063   Change is   -0.000000001260240
 Root      2 :     7.357796546519283   Change is   -0.000000002003785
 Root      3 :     8.606933987093148   Change is   -0.000000000007932
 Root      4 :     8.724836924328072   Change is   -0.000000000082548
 Root      5 :     9.354315850295636   Change is   -0.000000003162419
 Root      6 :     9.449604008481476   Change is   -0.000000000486997
 Root      7 :     9.741882360053737   Change is   -0.000000000101535
 Root      8 :     9.797858854749418   Change is   -0.000000000011858
 Root      9 :     9.872030669505971   Change is   -0.000000006708181
 Root     10 :     9.985186559041885   Change is   -0.000000000051426
 Root     11 :    10.344077323748490   Change is   -0.000000000111165
 Root     12 :    10.483135772823410   Change is   -0.000000000176789
 Root     13 :    10.640090188632830   Change is   -0.000000000088171
 Root     14 :    10.741676236924110   Change is   -0.000000000037263
 Root     15 :    10.976553516427190   Change is   -0.000000000028241
 Iteration     6 Dimension   170 NMult   165 NNew      5
 CISAX will form     5 AO SS matrices at one time.
 NMat=     5 NSing=     5 JSym2X= 0.
 Root      1 has converged.
 Root      2 has converged.
 Root      3 has converged.
 Root      4 has converged.
 Root      5 has converged.
 Root      6 has converged.
 Root      7 has converged.
 Root      8 has converged.
 Root      9 has converged.
 Root     10 has converged.
 Root     11 has converged.
 Root     12 has converged.
 Root     13 has converged.
 Root     14 has converged.
 Root     15 has converged.
 Excitation Energies [eV] at current iteration:
 Root      1 :     7.055935258106850   Change is   -0.000000000000213
 Root      2 :     7.357796546518212   Change is   -0.000000000001071
 Root      3 :     8.606933987093131   Change is   -0.000000000000018
 Root      4 :     8.724836924328033   Change is   -0.000000000000039
 Root      5 :     9.354315850293286   Change is   -0.000000000002350
 Root      6 :     9.449604008481131   Change is   -0.000000000000346
 Root      7 :     9.741882360053662   Change is   -0.000000000000074
 Root      8 :     9.797858854749414   Change is   -0.000000000000003
 Root      9 :     9.872030669500862   Change is   -0.000000000005109
 Root     10 :     9.985186559041884   Change is   -0.000000000000002
 Root     11 :    10.344077323748400   Change is   -0.000000000000085
 Root     12 :    10.483135772823280   Change is   -0.000000000000130
 Root     13 :    10.640090188632790   Change is   -0.000000000000042
 Root     14 :    10.741676236924090   Change is   -0.000000000000026
 Root     15 :    10.976553516427180   Change is   -0.000000000000012
 Convergence achieved on expansion vectors.
 ***********************************************************************
 Excited states from <AA,BB:AA,BB> singles matrix:
 ***********************************************************************
 
 1PDM for each excited state written to RWF  633
 Ground to excited state transition densities written to RWF  633
 Ground to excited state transition electric dipole moments (Au):
       state          X           Y           Z        Dip. S.      Osc.
         1         0.7414      0.2943      0.0008      0.6363      0.1100
         2         0.6760      0.3958      0.0517      0.6164      0.1111
         3         0.0221     -0.0246      0.0051      0.0011      0.0002
         4        -0.1154      0.1267     -0.1364      0.0480      0.0103
         5         0.8832     -0.5936     -0.0259      1.1331      0.2597
         6        -0.3033      0.1255     -0.0952      0.1168      0.0270
         7        -0.0407      0.1603     -0.0311      0.0283      0.0068
         8         0.0629      0.0149     -0.0232      0.0047      0.0011
         9         0.0340      1.2951     -0.1034      1.6891      0.4085
        10         0.0766     -0.0618     -0.0522      0.0124      0.0030
        11        -0.0366      0.1360     -0.0138      0.0200      0.0051
        12        -0.0641     -0.1626     -0.0680      0.0352      0.0090
        13        -0.0309      0.1570      0.0417      0.0273      0.0071
        14         0.0580      0.0280     -0.0119      0.0043      0.0011
        15        -0.0322     -0.0380     -0.0927      0.0111      0.0030
 Ground to excited state transition velocity dipole moments (Au):
       state          X           Y           Z        Dip. S.      Osc.
         1         0.0111     -0.0317     -0.0009      0.0011      0.0029
         2        -0.0136      0.0395      0.0039      0.0018      0.0043
         3         0.0061     -0.0034     -0.0105      0.0002      0.0003
         4         0.0041     -0.0003      0.0697      0.0049      0.0101
         5        -0.0702     -0.0077      0.0159      0.0052      0.0102
         6         0.0166      0.0088      0.0137      0.0005      0.0010
         7        -0.0010     -0.0064      0.0059      0.0001      0.0001
         8        -0.0102     -0.0089     -0.0336      0.0013      0.0024
         9        -0.0350     -0.0544     -0.0024      0.0042      0.0077
        10        -0.0115     -0.0015      0.0273      0.0009      0.0016
        11         0.0053     -0.0028      0.0275      0.0008      0.0014
        12         0.0108      0.0167      0.0485      0.0027      0.0048
        13         0.0052     -0.0188      0.0396      0.0020      0.0033
        14        -0.0127     -0.0081     -0.0040      0.0002      0.0004
        15         0.0159      0.0077     -0.0007      0.0003      0.0005
 Ground to excited state transition magnetic dipole moments (Au):
       state          X           Y           Z
         1         0.0385     -0.0124      0.2877
         2        -0.0947     -0.0045      0.3471
         3         0.0221      0.5548     -0.0014
         4        -1.5345     -0.4089      0.0030
         5        -0.1480     -0.0843     -0.1070
         6         0.0100      0.2667      0.0252
         7         0.2594     -0.2661      0.0040
         8        -0.2811      0.0083     -0.0241
         9         0.0376      0.0304     -0.3043
        10        -0.0623     -0.0046      0.0464
        11         0.0540      0.2147     -0.0488
        12         0.1142     -0.4284      0.0655
        13        -0.1778      0.0369     -0.0619
        14         0.3060      0.2317     -0.0123
        15        -0.0165      0.4293      0.0356
 Ground to excited state transition velocity quadrupole moments (Au):
       state          XX          YY          ZZ          XY          XZ          YZ
         1        -0.0907      0.0446      0.0196      0.0921     -0.0008      0.0036
         2        -0.0903      0.1128     -0.0155      0.1627      0.0027     -0.0082
         3         0.0147     -0.0169      0.0030     -0.0108     -0.0606     -0.0023
         4         0.0216      0.0047     -0.0104      0.0113      0.0504     -0.1819
         5        -0.0137     -0.0163      0.0203     -0.2598      0.0809     -0.0007
         6        -0.0611      0.0541     -0.0076      0.1279      0.1679     -0.0034
         7         0.0310     -0.0059     -0.0114      0.0274      0.0283      0.0065
         8         0.0291     -0.0444      0.0045     -0.0270      0.0711     -0.0308
         9         0.3066     -0.3131     -0.0439     -0.0763      0.0131      0.0009
        10        -0.0552      0.0085      0.0042     -0.0255     -0.0360     -0.1618
        11         0.0347     -0.0248     -0.0033      0.0055     -0.0532      0.0717
        12        -0.0793      0.0584      0.0145      0.0479      0.0056      0.0154
        13         0.0823     -0.0423     -0.0118      0.0006     -0.0139     -0.0723
        14         0.0095     -0.0177      0.0055     -0.0306     -0.0394      0.0438
        15         0.0139      0.0317     -0.0085      0.0274      0.0222     -0.0495
 <0|del|b> * <b|rxdel|0> + <0|del|b> * <b|delr+rdel|0>
 Rotatory Strengths (R) in cgs (10**-40 erg-esu-cm/Gauss)
       state          XX          YY          ZZ    R(velocity)    E-M Angle
         1         0.0317      0.3954      1.0980      0.5083       86.71
         2         2.2031      2.7616      1.4485      2.1377       80.64
         3        -2.1644      0.0230     -1.6884     -1.2766      104.17
         4         1.2445     -8.4288     -6.0256     -4.4033       93.10
         5        -4.6903     13.2355     10.6650      6.4034       50.10
         6         3.0221     -1.3243      4.1163      1.9380       62.71
         7         2.0440     -0.3954      1.2572      0.9686       63.22
         8         2.2387      3.0399      1.8193      2.3660       69.33
         9        -0.0270     -0.7788     -3.5567     -1.4542       96.44
        10         0.5053      4.3841     -1.0506      1.2796       30.30
        11        -1.8031     -0.7673     -0.5063     -1.0256      105.00
        12        -1.5887      2.0682     -5.4898     -1.6701       96.67
        13        -3.0634     -3.4204     -0.8901     -2.4580      118.73
        14        -1.8122     -4.0554     -4.3848     -3.4174      162.61
        15         2.6960     -0.9261      3.4947      1.7549       66.81
 1/2[<0|r|b>*<b|rxdel|0> + (<0|rxdel|b>*<b|r|0>)*]
 Rotatory Strengths (R) in cgs (10**-40 erg-esu-cm/Gauss)
       state          XX          YY          ZZ     R(length)
         1       -20.2106      2.5820     -0.1652     -5.9312
         2        45.2905      1.2554    -12.6900     11.2853
         3        -0.3452      9.6516      0.0049      3.1037
         4      -125.2654     36.6339      0.2892    -29.4475
         5        92.4606    -35.3823     -1.9584     18.3733
         6         2.1379    -23.6622      1.6942     -6.6100
         7         7.4593     30.1635      0.0871     12.5700
         8        12.5148     -0.0871     -0.3949      4.0109
         9        -0.9041    -27.8806    -22.2528    -17.0125
        10         3.3735     -0.2018      1.7158      1.6292
        11         1.3973    -20.6539     -0.4764     -6.5777
        12         5.1750    -49.2764      3.1509    -13.6502
        13        -3.8824     -4.0950      1.8246     -2.0509
        14       -12.5417     -4.5934     -0.1035     -5.7462
        15        -0.3748     11.5425      2.3364      4.5014
  1/2[<0|del|b>*<b|r|0> + (<0|r|b>*<b|del|0>)*] (Au)
       state          X           Y           Z        Dip. S.   Osc.(frdel)
         1         0.0082     -0.0093      0.0000      0.0011      0.0007
         2        -0.0092      0.0156      0.0002     -0.0066     -0.0044
         3         0.0001      0.0001     -0.0001     -0.0002     -0.0001
         4        -0.0005      0.0000     -0.0095      0.0100      0.0067
         5        -0.0620      0.0046     -0.0004      0.0579      0.0386
         6        -0.0050      0.0011     -0.0013      0.0052      0.0035
         7         0.0000     -0.0010     -0.0002      0.0012      0.0008
         8        -0.0006     -0.0001      0.0008      0.0000      0.0000
         9        -0.0012     -0.0704      0.0002      0.0714      0.0476
        10        -0.0009      0.0001     -0.0014      0.0022      0.0015
        11        -0.0002     -0.0004     -0.0004      0.0010      0.0006
        12        -0.0007     -0.0027     -0.0033      0.0067      0.0045
        13        -0.0002     -0.0030      0.0017      0.0015      0.0010
        14        -0.0007     -0.0002      0.0000      0.0009      0.0006
        15        -0.0005     -0.0003      0.0001      0.0007      0.0005

 Excitation energies and oscillator strengths:
 
 Excited State   1:      Singlet-A      7.0559 eV  175.72 nm  f=0.1100  <S**2>=0.000
      17 -> 19         0.38304
      18 -> 19         0.50048
      18 -> 20         0.28336
 This state for optimization and/or second-order correction.
 Total Energy, E(CIS) =  -228.478137086    
 Copying the excited state density for this state as the 1-particle RhoCI density.
 
 Excited State   2:      Singlet-A      7.3578 eV  168.51 nm  f=0.1111  <S**2>=0.000
      17 -> 19        -0.35573
      18 -> 19         0.46091
      18 -> 20        -0.37449
 
 Excited State   3:      Singlet-A      8.6069 eV  144.05 nm  f=0.0002  <S**2>=0.000
      18 -> 21         0.69321
 
 Excited State   4:      Singlet-A      8.7248 eV  142.10 nm  f=0.0103  <S**2>=0.000
      16 -> 19         0.68886
 
 Excited State   5:      Singlet-A      9.3543 eV  132.54 nm  f=0.2597  <S**2>=0.000
      17 -> 19         0.30062
      17 -> 20         0.44284
      18 -> 20        -0.31811
      18 -> 22         0.22737
 
 Excited State   6:      Singlet-A      9.4496 eV  131.21 nm  f=0.0270  <S**2>=0.000
      15 -> 19        -0.13279
      17 -> 20        -0.20541
      18 -> 22         0.61754
      18 -> 23         0.13282
 
 Excited State   7:      Singlet-A      9.7419 eV  127.27 nm  f=0.0068  <S**2>=0.000
      15 -> 19         0.65942
      16 -> 20        -0.12442
      18 -> 22         0.14204
      18 -> 23        -0.11159
 
 Excited State   8:      Singlet-A      9.7979 eV  126.54 nm  f=0.0011  <S**2>=0.000
      17 -> 21         0.60297
      18 -> 22         0.13200
      18 -> 23        -0.27817
      18 -> 24        -0.17551
 
 Excited State   9:      Singlet-A      9.8720 eV  125.59 nm  f=0.4085  <S**2>=0.000
      17 -> 19        -0.28176
      17 -> 20         0.46295
      18 -> 20         0.34999
 
 Excited State  10:      Singlet-A      9.9852 eV  124.17 nm  f=0.0030  <S**2>=0.000
      15 -> 19         0.13259
      17 -> 21         0.33226
      18 -> 23         0.56962
      18 -> 24         0.15848
 
 Excited State  11:      Singlet-A     10.3441 eV  119.86 nm  f=0.0051  <S**2>=0.000
      18 -> 23        -0.22172
      18 -> 24         0.65599
 
 Excited State  12:      Singlet-A     10.4831 eV  118.27 nm  f=0.0090  <S**2>=0.000
      14 -> 19         0.53687
      15 -> 19        -0.10101
      16 -> 20        -0.41124
      17 -> 22         0.10267
 
 Excited State  13:      Singlet-A     10.6401 eV  116.53 nm  f=0.0071  <S**2>=0.000
      17 -> 22         0.68066
 
 Excited State  14:      Singlet-A     10.7417 eV  115.42 nm  f=0.0011  <S**2>=0.000
      13 -> 19        -0.11255
      14 -> 19         0.41981
      16 -> 20         0.53952
 
 Excited State  15:      Singlet-A     10.9766 eV  112.95 nm  f=0.0030  <S**2>=0.000
      18 -> 25         0.67429
      18 -> 26         0.14433
 SavETr:  write IOETrn=   770 NScale= 10 NData=  16 NLR=1 NState=   15 LETran=     280.
 The selected state is a singlet
 CISAX will form     1 AO SS matrices at one time.
 NMat=     1 NSing=     1 JSym2X= 0.
 CISAX will form     1 AO SS matrices at one time.
 NMat=     1 NSing=     1 JSym2X= 0.
 Leave Link  914 at Tue Dec 15 16:15:20 2015, MaxMem=    33554432 cpu:        33.6
 (Enter /home/Applications/g09/g09/l1002.exe)
 Minotr:  Closed shell wavefunction.
          Computing CIS/TD-HF/TD-KS derivatives.
          Using Z-Vector for PSCF gradient.
          Skipping F1 and S1 gradient terms here.
          IDoAtm=111111111
          Frozen-core window.
          Direct CPHF calculation.
          Differentiating once with respect to electric field.
                with respect to dipole field.
          Differentiating once with respect to nuclear coordinates.
          Requested convergence is 1.0D-10 RMS, and 1.0D-09 maximum.
          NewPWx=F KeepS1=T KeepF1=T KeepIn=T MapXYZ=F SortEE=F KeepMc=T.
          MDV=      33554290 using IRadAn=       0.
 Using stored XC quadrature information.
 Keep R1 ints in memory in canonical form, NReq=1898913.
 FoFCou: FMM=F IPFlag=           0 FMFlag=           0 FMFlg1=           0
         NFxFlg=           0 DoJE=F BraDBF=F KetDBF=F FulRan=T
         wScrn=  0.000000 ICntrl=     600 IOpCl=  0 I1Cent=           0 NGrid=           0
         NMat0=    1 NMatS0=   1431 NMatT0=    0 NMatD0=    1 NMtDS0=    0 NMtDT0=    0
 Symmetry not used in FoFCou.
          Solving linear equations separately, MaxMat=       0.
          There are     1 degrees of freedom in the 1st order CPHF.  IDoFFX=0 NUNeed=     1.
 LinEq1:  Iter=  0 NonCon=     1 RMS=4.97D-02 Max=8.07D-01 NDo=     1
 AX will form     1 AO Fock derivatives at one time.
 LinEq1:  Iter=  1 NonCon=     1 RMS=1.70D-02 Max=2.47D-01 NDo=     1
 LinEq1:  Iter=  2 NonCon=     1 RMS=1.36D-02 Max=2.00D-01 NDo=     1
 LinEq1:  Iter=  3 NonCon=     1 RMS=5.19D-03 Max=7.38D-02 NDo=     1
 LinEq1:  Iter=  4 NonCon=     1 RMS=4.02D-03 Max=5.58D-02 NDo=     1
 LinEq1:  Iter=  5 NonCon=     1 RMS=1.36D-03 Max=1.80D-02 NDo=     1
 LinEq1:  Iter=  6 NonCon=     1 RMS=8.37D-04 Max=6.24D-03 NDo=     1
 LinEq1:  Iter=  7 NonCon=     1 RMS=1.64D-04 Max=9.39D-04 NDo=     1
 LinEq1:  Iter=  8 NonCon=     1 RMS=1.98D-05 Max=1.02D-04 NDo=     1
 LinEq1:  Iter=  9 NonCon=     1 RMS=7.24D-06 Max=6.21D-05 NDo=     1
 LinEq1:  Iter= 10 NonCon=     1 RMS=1.25D-06 Max=8.82D-06 NDo=     1
 LinEq1:  Iter= 11 NonCon=     1 RMS=1.42D-07 Max=7.61D-07 NDo=     1
 LinEq1:  Iter= 12 NonCon=     1 RMS=1.76D-08 Max=1.08D-07 NDo=     1
 LinEq1:  Iter= 13 NonCon=     1 RMS=2.37D-09 Max=1.26D-08 NDo=     1
 LinEq1:  Iter= 14 NonCon=     1 RMS=3.06D-10 Max=1.69D-09 NDo=     1
 LinEq1:  Iter= 15 NonCon=     0 RMS=3.54D-11 Max=2.23D-10 NDo=     1
 Linear equations converged to 1.000D-10 1.000D-09 after    15 iterations.
 End of Minotr F.D. properties file   721 does not exist.
 End of Minotr F.D. properties file   722 does not exist.
 End of Minotr F.D. properties file   788 does not exist.
 Leave Link 1002 at Tue Dec 15 16:15:31 2015, MaxMem=    33554432 cpu:        10.8
 (Enter /home/Applications/g09/g09/l601.exe)
 Copying SCF densities to generalized density rwf, IOpCl= 0 IROHF=0.

 **********************************************************************

            Population analysis using the SCF density.

 **********************************************************************

 Orbital symmetries:
       Occupied  (A) (A) (A) (A) (A) (A) (A) (A) (A) (A) (A) (A)
                 (A) (A) (A) (A) (A) (A)
       Virtual   (A) (A) (A) (A) (A) (A) (A) (A) (A) (A) (A) (A)
                 (A) (A) (A) (A) (A) (A) (A) (A) (A) (A) (A) (A)
                 (A) (A) (A) (A) (A) (A) (A) (A) (A) (A) (A)
 The electronic state is 1-A.
 Alpha  occ. eigenvalues --  -19.11349 -10.17669 -10.16795 -10.13107 -10.12250
 Alpha  occ. eigenvalues --   -1.13410  -0.80467  -0.75162  -0.60756  -0.57325
 Alpha  occ. eigenvalues --   -0.54104  -0.45225  -0.44988  -0.42619  -0.39532
 Alpha  occ. eigenvalues --   -0.36212  -0.27726  -0.23133
 Alpha virt. eigenvalues --    0.01786   0.08150   0.13192   0.15913   0.17912
 Alpha virt. eigenvalues --    0.18913   0.21912   0.23367   0.34123   0.42694
 Alpha virt. eigenvalues --    0.47584   0.68159   0.69921   0.70267   0.75374
 Alpha virt. eigenvalues --    0.76927   0.78750   0.79605   0.82360   0.83962
 Alpha virt. eigenvalues --    0.94309   0.98997   1.01030   1.03853   1.17732
 Alpha virt. eigenvalues --    1.22718   1.31915   1.36400   1.50876   1.57715
 Alpha virt. eigenvalues --    1.62906   1.73384   1.96657   2.14349   3.18432
     Molecular Orbital Coefficients:
                           1         2         3         4         5
                           O         O         O         O         O
     Eigenvalues --   -19.11349 -10.17669 -10.16795 -10.13107 -10.12250
   1 1   C  1S          0.00018  -0.01242  -0.00120   0.98364   0.06830
   2        2S          0.00080  -0.00482  -0.00020   0.10987   0.00393
   3        2PX         0.00086   0.00044  -0.00026   0.00151  -0.00104
   4        2PY         0.00099   0.00196   0.00058  -0.00111   0.00023
   5        2PZ         0.00004   0.00001  -0.00001   0.00002   0.00005
   6        3S         -0.00465   0.03243  -0.01412  -0.10106   0.02785
   7        3PX        -0.00647   0.00260  -0.00507  -0.02698   0.02088
   8        3PY         0.00516  -0.01757   0.00913   0.01995  -0.00325
   9        3PZ        -0.00016   0.00013  -0.00015   0.00023  -0.00021
  10 2   C  1S         -0.00048   0.98515   0.02438   0.01201   0.00135
  11        2S         -0.00082   0.10638  -0.00061  -0.00252  -0.00064
  12        2PX         0.00216   0.00225  -0.00088  -0.00035   0.00022
  13        2PY        -0.00106   0.00025  -0.00098  -0.00138  -0.00113
  14        2PZ        -0.00003  -0.00011  -0.00009  -0.00002   0.00010
  15        3S          0.01532  -0.07122   0.01247   0.03537  -0.00506
  16        3PX         0.01382  -0.00518   0.01271   0.00986  -0.00212
  17        3PY         0.00465  -0.01711   0.01536   0.02179  -0.00048
  18        3PZ        -0.00060   0.00024   0.00037  -0.00034  -0.00032
  19 3   O  1S          0.98279   0.00019   0.00033   0.00008   0.00007
  20        2S          0.10798   0.00157   0.00196   0.00038   0.00025
  21        2PX        -0.00099  -0.00091   0.00013  -0.00002  -0.00001
  22        2PY         0.00417   0.00055   0.00050  -0.00004  -0.00013
  23        2PZ         0.00034   0.00009   0.00011  -0.00001   0.00006
  24        3S         -0.06132   0.00006  -0.00083  -0.00315  -0.00420
  25        3PX         0.00272   0.00146  -0.00049   0.00279  -0.00104
  26        3PY        -0.01367  -0.00308  -0.00408  -0.00104  -0.00234
  27        3PZ        -0.00104  -0.00042  -0.00073   0.00000  -0.00031
  28 4   C  1S         -0.00033  -0.02551   0.98503   0.00023   0.00940
  29        2S         -0.00024  -0.00616   0.10711  -0.00028  -0.00432
  30        2PX        -0.00162   0.00128  -0.00260   0.00026   0.00182
  31        2PY        -0.00229  -0.00026  -0.00108  -0.00087  -0.00251
  32        2PZ        -0.00014  -0.00009  -0.00045  -0.00002   0.00011
  33        3S          0.01919   0.02027  -0.07697  -0.01097   0.04452
  34        3PX        -0.01382  -0.02069   0.01393   0.00556  -0.02239
  35        3PY        -0.00637   0.00745  -0.01478  -0.00044   0.01618
  36        3PZ        -0.00124  -0.00027   0.00188   0.00050  -0.00130
  37 5   C  1S          0.00012  -0.00027  -0.00978  -0.06883   0.98360
  38        2S          0.00044  -0.00003  -0.00601  -0.01160   0.10982
  39        2PX        -0.00127  -0.00001  -0.00228   0.00095  -0.00057
  40        2PY         0.00052   0.00060   0.00269   0.00072  -0.00217
  41        2PZ        -0.00003   0.00002  -0.00016   0.00000   0.00029
  42        3S         -0.00467  -0.02003   0.04010   0.04468  -0.10501
  43        3PX         0.00334  -0.00092   0.00931  -0.01887   0.00826
  44        3PY         0.00751   0.01131  -0.01846  -0.01563   0.03077
  45        3PZ         0.00011  -0.00103   0.00104   0.00064  -0.00232
  46 6   H  1S         -0.00095  -0.00033  -0.00112  -0.00007  -0.00303
  47        2S         -0.00254  -0.00113   0.00179   0.00377   0.00455
  48 7   H  1S         -0.00021   0.00158  -0.00376  -0.00007  -0.00025
  49        2S          0.00288   0.00779   0.00882  -0.00029   0.00604
  50 8   H  1S          0.00032  -0.00432   0.00140  -0.00015  -0.00006
  51        2S          0.00409   0.00917   0.00861   0.00578   0.00053
  52 9   H  1S         -0.00091  -0.00101  -0.00048  -0.00438  -0.00037
  53        2S         -0.00303   0.00197  -0.00175   0.00423   0.00559
                           6         7         8         9        10
                           O         O         O         O         O
     Eigenvalues --    -1.13410  -0.80467  -0.75162  -0.60756  -0.57325
   1 1   C  1S         -0.02360   0.13736  -0.07519  -0.12676   0.02416
   2        2S          0.02243  -0.14707   0.08034   0.12925  -0.02550
   3        2PX         0.01660  -0.07689  -0.02839  -0.09415  -0.11895
   4        2PY        -0.02382   0.02979  -0.07073   0.00905  -0.10484
   5        2PZ        -0.00014  -0.00076   0.00079   0.00319   0.00350
   6        3S          0.03503  -0.27694   0.15577   0.42279  -0.06530
   7        3PX         0.02927  -0.03127   0.01642  -0.00856  -0.05458
   8        3PY        -0.02602   0.02724   0.00654  -0.02550  -0.03724
   9        3PZ         0.00032   0.00008  -0.00042   0.00235   0.00204
  10 2   C  1S         -0.06647   0.04558  -0.14922   0.03209  -0.10720
  11        2S          0.07409  -0.05336   0.15945  -0.03190   0.11833
  12        2PX         0.07981   0.02149   0.02837  -0.08123  -0.17903
  13        2PY        -0.00435  -0.10474  -0.00260   0.16751  -0.04564
  14        2PZ        -0.00277  -0.00004  -0.00545   0.00506   0.00213
  15        3S          0.05885  -0.06334   0.36175  -0.13453   0.32799
  16        3PX        -0.02977  -0.00217   0.01791  -0.04212  -0.09864
  17        3PY        -0.02149  -0.03191   0.03750   0.03519  -0.02802
  18        3PZ         0.00089  -0.00023  -0.00157   0.00236   0.00060
  19 3   O  1S         -0.21052  -0.08837  -0.00621  -0.00770   0.04419
  20        2S          0.19126   0.08526   0.00465   0.00959  -0.04372
  21        2PX        -0.01923   0.00946  -0.20906   0.23652   0.06048
  22        2PY         0.11375  -0.02300  -0.06661   0.06194  -0.01867
  23        2PZ         0.00868   0.00319  -0.00186   0.00570   0.00114
  24        3S          0.67158   0.32110   0.02464   0.03007  -0.19664
  25        3PX        -0.03004   0.00327  -0.17478   0.20730   0.05641
  26        3PY         0.14153  -0.00536  -0.05017   0.05104  -0.02267
  27        3PZ         0.01120   0.00266  -0.00186   0.00445   0.00165
  28 4   C  1S         -0.08536   0.06307   0.14258   0.00590  -0.10087
  29        2S          0.09419  -0.07480  -0.15477  -0.01012   0.11134
  30        2PX        -0.07718   0.05398   0.01649   0.02777   0.15755
  31        2PY        -0.06398  -0.13548   0.01693  -0.23222   0.00041
  32        2PZ        -0.00731   0.00389   0.01273  -0.00071  -0.00347
  33        3S          0.05817  -0.09573  -0.35345   0.02966   0.32948
  34        3PX         0.04457   0.02214   0.03191  -0.00613   0.08630
  35        3PY         0.00596  -0.03128  -0.03201  -0.07177   0.00962
  36        3PZ         0.00143   0.00260   0.00691  -0.00086  -0.00409
  37 5   C  1S         -0.02919   0.15513   0.05915   0.08634   0.04933
  38        2S          0.02915  -0.16615  -0.06554  -0.08835  -0.04767
  39        2PX         0.00136   0.03401  -0.08223  -0.13712   0.13358
  40        2PY        -0.03771   0.08302   0.05298   0.03472  -0.04233
  41        2PZ         0.00121  -0.00881  -0.00394  -0.00767  -0.00001
  42        3S          0.05338  -0.31291  -0.09860  -0.29805  -0.16755
  43        3PX        -0.01906   0.01223   0.01642  -0.03884   0.05602
  44        3PY        -0.04419   0.03991  -0.01050   0.04560   0.00880
  45        3PZ         0.00104  -0.00572  -0.00006  -0.00644  -0.00073
  46 6   H  1S          0.00727  -0.05512  -0.02795  -0.07006  -0.03338
  47        2S          0.01391  -0.01276  -0.00517  -0.04099  -0.02574
  48 7   H  1S          0.01724  -0.01562  -0.08676   0.02857   0.16324
  49        2S         -0.02099  -0.00220  -0.03289   0.02376   0.07973
  50 8   H  1S          0.01230  -0.01368   0.09262  -0.05242   0.17973
  51        2S         -0.02211  -0.00543   0.03509  -0.03550   0.08626
  52 9   H  1S          0.00694  -0.05756   0.04257   0.14084  -0.00354
  53        2S          0.01429  -0.01432   0.01187   0.07647  -0.00349
                          11        12        13        14        15
                           O         O         O         O         O
     Eigenvalues --    -0.54104  -0.45225  -0.44988  -0.42619  -0.39532
   1 1   C  1S         -0.03520   0.01226   0.03415  -0.00534   0.02608
   2        2S          0.03184  -0.01404  -0.03681   0.00860  -0.02645
   3        2PX        -0.06980   0.03148   0.09912   0.26664  -0.20573
   4        2PY         0.20100   0.01121   0.00034  -0.16913  -0.17693
   5        2PZ        -0.00068   0.09360  -0.03443  -0.01072   0.00634
   6        3S          0.15830  -0.02887  -0.11748   0.01888  -0.11673
   7        3PX        -0.06305   0.02710   0.06262   0.18974  -0.11299
   8        3PY         0.09795  -0.00019  -0.01541  -0.09965  -0.07911
   9        3PZ        -0.00005   0.06922  -0.02522  -0.00838   0.00252
  10 2   C  1S          0.02717  -0.00920  -0.02223  -0.03240  -0.03156
  11        2S         -0.03250   0.01046   0.02381   0.03690   0.03679
  12        2PX        -0.05279  -0.06113  -0.23593   0.05141   0.04508
  13        2PY        -0.14967  -0.03992  -0.09167   0.13742   0.19673
  14        2PZ        -0.00149   0.16307  -0.04449  -0.00271  -0.00071
  15        3S         -0.05661   0.02319   0.06950   0.10948   0.12552
  16        3PX        -0.03538  -0.04138  -0.15033   0.04709   0.02293
  17        3PY        -0.13153  -0.02648  -0.06485   0.07514   0.18143
  18        3PZ        -0.00160   0.15508  -0.04481  -0.00105  -0.00057
  19 3   O  1S         -0.06016   0.00661  -0.00033   0.00417   0.00472
  20        2S          0.05915  -0.00581   0.00261  -0.00156  -0.00843
  21        2PX         0.00596   0.06830   0.24127   0.02376   0.00076
  22        2PY        -0.19355   0.02255   0.07624  -0.07243   0.17313
  23        2PZ        -0.00711   0.36618  -0.10918   0.00514   0.00099
  24        3S          0.23479  -0.02768  -0.00034  -0.03568   0.01295
  25        3PX         0.00520   0.06458   0.23004   0.02984   0.00219
  26        3PY        -0.17541   0.01956   0.06946  -0.07168   0.18083
  27        3PZ        -0.00731   0.36731  -0.11070   0.00440   0.00259
  28 4   C  1S          0.02538   0.00404   0.03466   0.03014   0.01966
  29        2S         -0.03040  -0.00322  -0.03432  -0.03999  -0.02164
  30        2PX         0.15259  -0.07401  -0.20157   0.23062  -0.03132
  31        2PY        -0.01015  -0.04671  -0.11173  -0.15765  -0.04804
  32        2PZ         0.00435   0.19803  -0.07195   0.01283  -0.00661
  33        3S         -0.06690  -0.01295  -0.12667  -0.10734  -0.05763
  34        3PX         0.12120  -0.06412  -0.12512   0.16529  -0.03719
  35        3PY        -0.06647  -0.01899  -0.05626  -0.12171   0.02570
  36        3PZ         0.00123   0.17965  -0.06204   0.00845  -0.00504
  37 5   C  1S         -0.06525  -0.01248  -0.04640  -0.01034   0.00681
  38        2S          0.06143   0.01510   0.04870   0.00618  -0.01147
  39        2PX         0.00167  -0.02341  -0.06403  -0.18434   0.24206
  40        2PY         0.21510   0.03077   0.05653   0.16620   0.24043
  41        2PZ        -0.00238   0.11349  -0.04055  -0.01067  -0.00762
  42        3S          0.28374   0.03001   0.16159   0.07746  -0.04130
  43        3PX         0.03084  -0.00318  -0.03933  -0.06585   0.16206
  44        3PY         0.10924   0.03907   0.04077   0.07659   0.18599
  45        3PZ         0.00324   0.07858  -0.02789  -0.00309  -0.00769
  46 6   H  1S          0.15052   0.02671   0.06715   0.06798   0.21672
  47        2S          0.08854   0.01202   0.04898   0.06205   0.20695
  48 7   H  1S          0.05219  -0.04817  -0.15242   0.14032  -0.05102
  49        2S          0.01689  -0.02798  -0.11720   0.11862  -0.03968
  50 8   H  1S          0.04469   0.05860   0.18560  -0.04644  -0.08622
  51        2S          0.01194   0.04382   0.13895  -0.04143  -0.07471
  52 9   H  1S          0.12094  -0.02511  -0.09331  -0.21194   0.01249
  53        2S          0.06276  -0.01481  -0.06242  -0.17730   0.01567
                          16        17        18        19        20
                           O         O         O         V         V
     Eigenvalues --    -0.36212  -0.27726  -0.23133   0.01786   0.08150
   1 1   C  1S          0.01677  -0.00216  -0.00010   0.00299  -0.00653
   2        2S         -0.01437   0.00138  -0.00128  -0.00342   0.00753
   3        2PX         0.03598  -0.01547   0.00980  -0.01165   0.00228
   4        2PY         0.19964  -0.01230   0.00518   0.00497   0.00656
   5        2PZ        -0.02140  -0.28049   0.20267  -0.24803  -0.29083
   6        3S         -0.12976   0.02402   0.01780  -0.03412   0.04602
   7        3PX         0.05302  -0.01225   0.02098  -0.02583  -0.01109
   8        3PY         0.15653  -0.01226  -0.00271   0.00479   0.02329
   9        3PZ        -0.01813  -0.29123   0.22251  -0.41556  -0.57949
  10 2   C  1S         -0.01388   0.00158  -0.00385  -0.00304  -0.00302
  11        2S          0.01841  -0.00144   0.00518  -0.00166   0.00477
  12        2PX         0.09836  -0.00090   0.01434   0.00125   0.00595
  13        2PY        -0.19447   0.00576  -0.00396  -0.00123  -0.00248
  14        2PZ        -0.01488  -0.05644   0.33861   0.35754   0.13890
  15        3S          0.05141  -0.01073   0.00912   0.03929   0.02951
  16        3PX         0.02794  -0.00080   0.00684   0.01224   0.00216
  17        3PY        -0.02840  -0.00658  -0.01167   0.00712  -0.00221
  18        3PZ        -0.01131  -0.02304   0.36901   0.54219   0.28056
  19 3   O  1S          0.06922   0.00015   0.00062  -0.00092  -0.00543
  20        2S         -0.06932   0.00011   0.00027  -0.00082   0.00395
  21        2PX        -0.15375   0.00318  -0.00222   0.00002   0.01248
  22        2PY         0.37023  -0.03325  -0.00249   0.00537   0.01314
  23        2PZ         0.00928   0.30528   0.00800  -0.28242   0.07146
  24        3S         -0.26001  -0.00418  -0.00775   0.01021   0.04525
  25        3PX        -0.16360   0.00139  -0.00617   0.00363   0.02498
  26        3PY         0.40124  -0.03682  -0.00599   0.00926   0.02261
  27        3PZ         0.01209   0.34655   0.01322  -0.39334   0.11055
  28 4   C  1S         -0.02232   0.00102   0.00868  -0.00829   0.01156
  29        2S          0.02685  -0.00002  -0.01135   0.00213  -0.00441
  30        2PX         0.05244  -0.00487   0.01519  -0.00171   0.00398
  31        2PY        -0.18082   0.00958   0.00134   0.00509   0.02675
  32        2PZ        -0.01191  -0.08156  -0.31022   0.26668  -0.28348
  33        3S          0.09118  -0.00670  -0.02081   0.08601  -0.11718
  34        3PX         0.02409  -0.00259  -0.00468   0.00199   0.00019
  35        3PY         0.01518  -0.00678   0.00616   0.02165   0.05675
  36        3PZ        -0.00929  -0.03858  -0.32678   0.39436  -0.54688
  37 5   C  1S          0.02125  -0.00697  -0.00361   0.00219   0.00661
  38        2S         -0.02271   0.00883   0.00624  -0.00526  -0.00057
  39        2PX        -0.12585   0.01698   0.00175  -0.00561   0.00250
  40        2PY         0.12101  -0.02292  -0.00887   0.00980  -0.00275
  41        2PZ        -0.02635  -0.29636  -0.18040  -0.08335   0.36790
  42        3S         -0.14067   0.03072  -0.01127  -0.00952  -0.08267
  43        3PX        -0.13626   0.02530   0.00748  -0.03184  -0.00455
  44        3PY         0.06963  -0.01272   0.01060   0.00619   0.00339
  45        3PZ        -0.02639  -0.30709  -0.18679  -0.14667   0.74093
  46 6   H  1S          0.02657  -0.00644  -0.00411  -0.00139   0.00626
  47        2S          0.05376  -0.01238  -0.01128   0.00473   0.02695
  48 7   H  1S          0.10176  -0.00758   0.00896  -0.01144   0.01586
  49        2S          0.09752  -0.01104   0.01752  -0.03501   0.07330
  50 8   H  1S          0.07118  -0.00701  -0.00328  -0.00530  -0.00130
  51        2S          0.07410  -0.01023  -0.00765  -0.00893  -0.01358
  52 9   H  1S          0.04947   0.00197   0.00111  -0.00149  -0.00748
  53        2S          0.06854   0.00168   0.00524  -0.00066  -0.04001
                          21        22        23        24        25
                           V         V         V         V         V
     Eigenvalues --     0.13192   0.15913   0.17912   0.18913   0.21912
   1 1   C  1S          0.04279   0.00980  -0.08405   0.08739  -0.07851
   2        2S         -0.02486  -0.02200   0.07576  -0.06355   0.02470
   3        2PX         0.06959   0.04365   0.06191   0.13684  -0.08863
   4        2PY        -0.11899   0.01963  -0.00388  -0.13708   0.04635
   5        2PZ        -0.00736  -0.00599   0.00222  -0.01329   0.00430
   6        3S         -0.56155   0.04203   0.64513  -1.04426   1.43238
   7        3PX         0.23995   0.32506  -0.08183   0.71373  -0.01688
   8        3PY        -0.33099   0.01765   0.25970  -0.59472   0.14266
   9        3PZ        -0.01486  -0.01306   0.00377  -0.05414   0.00497
  10 2   C  1S          0.02497  -0.12148   0.07692   0.00236  -0.02533
  11        2S         -0.01664   0.08983  -0.06043   0.01610   0.02935
  12        2PX         0.11605   0.14707   0.17812   0.16409   0.25079
  13        2PY        -0.00707  -0.15672   0.10298   0.11125  -0.09804
  14        2PZ         0.00250  -0.01177   0.00351   0.00194  -0.00653
  15        3S         -0.40264   1.17191  -0.93468  -0.42920   0.00176
  16        3PX         0.26922   0.16748   0.80098   0.28875   0.75445
  17        3PY        -0.05468  -0.55485   0.48797   0.27400  -0.37968
  18        3PZ         0.00539  -0.02165   0.00785   0.01573  -0.02266
  19 3   O  1S          0.04152   0.09513  -0.01133   0.00491   0.05377
  20        2S         -0.02751  -0.06654   0.00776  -0.00238  -0.02347
  21        2PX         0.02561   0.15246   0.01741   0.06248   0.20760
  22        2PY        -0.10753  -0.10227   0.02000   0.00805   0.03354
  23        2PZ        -0.01049  -0.00701   0.00427   0.00106  -0.01681
  24        3S         -0.35552  -0.79853   0.10596  -0.05525  -0.57032
  25        3PX         0.05154   0.25289   0.08188   0.06294   0.43977
  26        3PY        -0.20114  -0.16032   0.05761  -0.00662  -0.00973
  27        3PZ        -0.02050  -0.01480   0.01032   0.00103  -0.03507
  28 4   C  1S          0.02795  -0.08158  -0.03961   0.02161   0.08630
  29        2S         -0.01421   0.05814   0.03585  -0.03307  -0.05465
  30        2PX        -0.17585   0.08823   0.18936   0.12265  -0.12588
  31        2PY        -0.05200  -0.11057   0.02866  -0.02362  -0.01899
  32        2PZ         0.00365  -0.02470  -0.00630  -0.00169   0.02154
  33        3S         -0.53347   0.79834   0.40797   0.06947  -1.31102
  34        3PX        -0.38866   0.49620   0.84472   0.15155  -0.46787
  35        3PY        -0.15931  -0.43415   0.08351  -0.13643  -0.27195
  36        3PZ         0.01767  -0.04815  -0.00207  -0.03199   0.07110
  37 5   C  1S          0.05065   0.03467   0.07988  -0.07623  -0.02438
  38        2S         -0.02689  -0.03031  -0.07124   0.05800   0.01682
  39        2PX        -0.06409   0.04009   0.05515   0.04315   0.21670
  40        2PY        -0.21400  -0.01563  -0.01163   0.16169   0.05721
  41        2PZ        -0.00161   0.01068  -0.00798   0.01583  -0.00391
  42        3S         -0.62552  -0.21131  -0.56781   0.78319   0.40066
  43        3PX        -0.16897   0.14482   0.09557   0.30535   1.00740
  44        3PY        -0.59997  -0.18688  -0.39203   0.71867   0.17543
  45        3PZ        -0.00622   0.04604  -0.00024   0.05183  -0.01226
  46 6   H  1S          0.11183   0.02464   0.01677  -0.04254   0.00213
  47        2S          1.17597   0.26228   0.55986  -1.20179  -0.70910
  48 7   H  1S          0.04963  -0.08441  -0.05596  -0.00337  -0.02539
  49        2S          0.73781  -1.14791  -1.12742  -0.26845   1.01025
  50 8   H  1S          0.02588  -0.05910   0.07504   0.01123   0.02058
  51        2S          0.43585  -0.97402   1.55296   0.72111   0.29001
  52 9   H  1S          0.08362   0.04694  -0.01685   0.06119   0.05471
  53        2S          0.87302   0.33417  -0.50575   1.59308  -0.72833
                          26        27        28        29        30
                           V         V         V         V         V
     Eigenvalues --     0.23367   0.34123   0.42694   0.47584   0.68159
   1 1   C  1S         -0.00636   0.09085   0.02666   0.11219   0.05763
   2        2S          0.00935  -0.03266  -0.02824  -0.00616  -0.05184
   3        2PX        -0.23353  -0.10028  -0.18716  -0.14610   0.01802
   4        2PY        -0.12970   0.18490  -0.18487   0.18056   0.36445
   5        2PZ        -0.00847  -0.00105   0.01968   0.01721  -0.00655
   6        3S          0.12114  -1.56772  -0.30249  -2.64087  -0.09083
   7        3PX        -1.16059  -0.39547  -0.93115  -2.01533  -0.13219
   8        3PY        -0.64830   1.66039  -0.98330   1.10540  -0.02077
   9        3PZ        -0.00050  -0.00792   0.06753   0.02350   0.00584
  10 2   C  1S          0.07539  -0.08516  -0.00401  -0.08052  -0.04377
  11        2S         -0.05061   0.00244  -0.00441   0.04546   0.00133
  12        2PX         0.06052   0.09060   0.12176   0.27606  -0.00614
  13        2PY        -0.05266   0.30386  -0.06113  -0.06429   0.17590
  14        2PZ         0.00902  -0.00850  -0.01122   0.00947   0.04399
  15        3S         -1.07949   1.43261  -0.28794   1.33806   0.23295
  16        3PX         0.30305   0.54956   0.71077   0.65457   0.11377
  17        3PY        -0.36376   1.65932  -0.82321   1.34302   0.14786
  18        3PZ         0.02368  -0.03763  -0.03773  -0.02072  -0.04717
  19 3   O  1S          0.06884   0.05688  -0.00335  -0.02120   0.02493
  20        2S         -0.03308  -0.02501  -0.00126   0.00266  -0.06815
  21        2PX        -0.19368  -0.00874   0.24384   0.18654  -0.03282
  22        2PY        -0.10357  -0.16466   0.02845   0.07547  -0.17897
  23        2PZ        -0.00964  -0.00140   0.01295   0.00647   0.00545
  24        3S         -0.71893  -0.71469   0.07899   0.32549   0.09772
  25        3PX        -0.38869  -0.01689   0.63813   0.30197   0.05940
  26        3PY        -0.26945  -0.49353   0.07809   0.26115  -0.08883
  27        3PZ        -0.02544  -0.00900   0.02815   0.00902   0.01599
  28 4   C  1S         -0.07149  -0.06500  -0.04204   0.11036  -0.03630
  29        2S          0.05799   0.00731   0.00474  -0.01361  -0.07609
  30        2PX        -0.07816  -0.16218  -0.03088   0.22943  -0.15299
  31        2PY        -0.23513   0.10062   0.20604   0.15942  -0.56621
  32        2PZ        -0.02938  -0.01443   0.00183  -0.00197   0.03637
  33        3S          0.66725   1.18514   1.67488  -2.48246  -0.19130
  34        3PX        -0.07644  -0.88608  -0.59710   2.00480   0.03692
[...]
     5  C    0.437129  -0.135194  -0.080591   0.458750   5.258994   0.375633
     6  H   -0.026508   0.004789   0.002242  -0.029398   0.375633   0.492883
     7  H    0.002996   0.004697  -0.034621   0.392078  -0.040892  -0.000867
     8  H   -0.036250   0.387938  -0.025407   0.003710   0.002980  -0.000029
     9  H    0.387557  -0.029266   0.001741   0.004671  -0.023818  -0.001002
               7          8          9
     1  C    0.002996  -0.036250   0.387557
     2  C    0.004697   0.387938  -0.029266
     3  O   -0.034621  -0.025407   0.001741
     4  C    0.392078   0.003710   0.004671
     5  C   -0.040892   0.002980  -0.023818
     6  H   -0.000867  -0.000029  -0.001002
     7  H    0.459521  -0.000069  -0.000025
     8  H   -0.000069   0.449934  -0.000165
     9  H   -0.000025  -0.000165   0.468431
 Mulliken charges:
               1
     1  C   -0.247958
     2  C    0.050256
     3  O   -0.483781
     4  C    0.125798
     5  C   -0.252990
     6  H    0.182256
     7  H    0.217183
     8  H    0.217358
     9  H    0.191876
 Sum of Mulliken charges =   0.00000
 Mulliken charges with hydrogens summed into heavy atoms:
               1
     1  C   -0.056081
     2  C    0.267614
     3  O   -0.483781
     4  C    0.342982
     5  C   -0.070734
 Electronic spatial extent (au):  <R**2>=            289.3956
 Charge=              0.0000 electrons
 Dipole moment (field-independent basis, Debye):
    X=             -0.2608    Y=              0.6038    Z=              0.0699  Tot=              0.6614
 Quadrupole moment (field-independent basis, Debye-Ang):
   XX=            -24.0055   YY=            -27.7375   ZZ=            -31.7618
   XY=              1.0522   XZ=             -0.0552   YZ=             -0.0103
 Traceless Quadrupole moment (field-independent basis, Debye-Ang):
   XX=              3.8294   YY=              0.0975   ZZ=             -3.9269
   XY=              1.0522   XZ=             -0.0552   YZ=             -0.0103
 Octapole moment (field-independent basis, Debye-Ang**2):
  XXX=              2.5461  YYY=              0.2166  ZZZ=             -0.2299  XYY=             -2.6647
  XXY=             -2.8455  XXZ=              0.0843  XZZ=              1.2601  YZZ=             -3.3174
  YYZ=              0.0338  XYZ=             -0.0923
 Hexadecapole moment (field-independent basis, Debye-Ang**3):
 XXXX=           -153.6608 YYYY=           -155.0134 ZZZZ=            -30.9774 XXXY=             -4.5155
 XXXZ=             -0.5598 YYYX=              5.5485 YYYZ=              0.1807 ZZZX=             -0.1553
 ZZZY=              0.3190 XXYY=            -47.8850 XXZZ=            -38.5648 YYZZ=            -34.8004
 XXYZ=              0.2616 YYXZ=             -0.0389 ZZXY=             -1.1159
 N-N= 1.613240298386D+02 E-N=-8.552558216754D+02  KE= 2.269973756428D+02
 Orbital energies and kinetic energies (alpha):
                                 1                 2
   1         O               -19.113493         28.828686
   2         O               -10.176693         15.802663
   3         O               -10.167954         15.795909
   4         O               -10.131072         15.807168
   5         O               -10.122502         15.805419
   6         O                -1.134099          2.525407
   7         O                -0.804667          1.797181
   8         O                -0.751616          1.799992
   9         O                -0.607561          1.660305
  10         O                -0.573251          1.373395
  11         O                -0.541036          1.370064
  12         O                -0.452255          1.597695
  13         O                -0.449883          1.548131
  14         O                -0.426188          1.370563
  15         O                -0.395320          1.422404
  16         O                -0.362122          2.235855
  17         O                -0.277264          1.539796
  18         O                -0.231328          1.218054
  19         V                 0.017858          1.813635
  20         V                 0.081498          1.519177
  21         V                 0.131925          1.174617
  22         V                 0.159128          1.886335
  23         V                 0.179116          1.277461
  24         V                 0.189131          1.205896
  25         V                 0.219115          1.736220
  26         V                 0.233668          1.933623
  27         V                 0.341235          1.965163
  28         V                 0.426941          1.822207
  29         V                 0.475841          2.694027
  30         V                 0.681591          2.640054
  31         V                 0.699215          2.503471
  32         V                 0.702672          2.614415
  33         V                 0.753738          2.679294
  34         V                 0.769269          2.531325
  35         V                 0.787500          2.564505
  36         V                 0.796053          2.594506
  37         V                 0.823598          2.684186
  38         V                 0.839616          2.608768
  39         V                 0.943085          2.790098
  40         V                 0.989971          3.310562
  41         V                 1.010298          3.120015
  42         V                 1.038531          3.196106
  43         V                 1.177324          2.726847
  44         V                 1.227179          2.900754
  45         V                 1.319149          2.540460
  46         V                 1.363998          2.964889
  47         V                 1.508760          4.883234
  48         V                 1.577148          3.424923
  49         V                 1.629064          3.711114
  50         V                 1.733840          4.383786
  51         V                 1.966569          4.059708
  52         V                 2.143488          4.264713
  53         V                 3.184322          6.826476
 Total kinetic energy from orbitals= 2.269973756428D+02
 No NMR shielding tensors so no spin-rotation constants.
 Leave Link  601 at Tue Dec 15 16:15:31 2015, MaxMem=    33554432 cpu:         0.1
 (Enter /home/Applications/g09/g09/l701.exe)
 Compute integral first derivatives.
 ... and contract with generalized density number  6.
 Leave Link  701 at Tue Dec 15 16:15:31 2015, MaxMem=    33554432 cpu:         0.1
 (Enter /home/Applications/g09/g09/l702.exe)
 L702 exits ... SP integral derivatives will be done elsewhere.
 Leave Link  702 at Tue Dec 15 16:15:31 2015, MaxMem=    33554432 cpu:         0.0
 (Enter /home/Applications/g09/g09/l703.exe)
 Compute integral first derivatives, UseDBF=F ICtDFT=           0.
 Integral derivatives from FoFJK, PRISM(SPDF).
 Calling FoFJK, ICntrl=  10005127 FMM=F ISym2X=0 I1Cent= 0 IOpClX= 0 NMat=1 NMatS=1 NMatT=0.
 FoFJK:  IHMeth= 1 ICntrl=10005127 DoSepK=F KAlg= 0 I1Cent=   0 FoldK=F
 IRaf=         0 NMat=   1 IRICut=       1 DoRegI=T DoRafI=F ISym2E= 0.
 FoFCou: FMM=F IPFlag=           0 FMFlag=      100000 FMFlg1=         800
         NFxFlg=           0 DoJE=F BraDBF=F KetDBF=F FulRan=T
         wScrn=  0.000000 ICntrl=10005127 IOpCl=  0 I1Cent=           0 NGrid=           0
         NMat0=    1 NMatS0=      1 NMatT0=    0 NMatD0=    1 NMtDS0=    0 NMtDT0=    0
 Symmetry not used in FoFCou.
 Leave Link  703 at Tue Dec 15 16:15:32 2015, MaxMem=    33554432 cpu:         1.3
 (Enter /home/Applications/g09/g09/l716.exe)
 Dipole        = 6.03858416D-01 4.76659322D-01 1.00393334D-02
 ***** Axes restored to original set *****
 -------------------------------------------------------------------
 Center     Atomic                   Forces (Hartrees/Bohr)
 Number     Number              X              Y              Z
 -------------------------------------------------------------------
      1        6           0.015419958   -0.011205834    0.005548818
      2        6           0.032376274   -0.041111561   -0.001279210
      3        8          -0.087048317    0.009856237    0.000194963
      4        6          -0.094117743    0.075322788    0.001604718
      5        6           0.143147991   -0.004609350   -0.005849843
      6        1          -0.019396815   -0.013495554    0.002567906
      7        1           0.004177223    0.013852783   -0.001473138
      8        1          -0.013701334   -0.021663277   -0.000800012
      9        1           0.019142761   -0.006946232   -0.000514201
 -------------------------------------------------------------------
 Cartesian Forces:  Max     0.143147991 RMS     0.042048875
 Z-matrix is all fixed cartesians, so copy forces.
 Force constants in Cartesian coordinates: 
                1             2             3             4             5 
      1  0.840673D+00
      2 -0.847153D-01  0.789028D+00
      3 -0.235544D-03  0.196066D-01  0.186312D+00
      4 -0.410398D+00 -0.789575D-01 -0.778378D-02  0.820068D+00
      5 -0.584007D-01 -0.191676D+00 -0.486016D-02  0.420504D-01  0.874877D+00
      6 -0.595448D-02 -0.405297D-02 -0.837564D-01 -0.563373D-02  0.166148D-01
      7 -0.798997D-02  0.281259D-01  0.195096D-02 -0.252855D+00  0.140746D+00
      8 -0.540377D-02  0.192481D-01  0.199204D-03  0.183239D+00 -0.346265D+00
      9 -0.232296D-04  0.994241D-03  0.433676D-02  0.134638D-01 -0.130840D-01
     10  0.100223D-01  0.460016D-03  0.974668D-03  0.242879D-01  0.167615D-01
     11  0.354304D-01  0.157720D-02  0.460731D-02 -0.194885D-01 -0.134580D-01
     12  0.150305D-02  0.173962D-03 -0.119360D-02 -0.174317D-02 -0.122140D-02
     13 -0.166989D+00  0.223992D-01 -0.720812D-03  0.936313D-02 -0.330382D-01
     14 -0.107927D-02 -0.399247D+00 -0.125312D-01  0.403572D-03 -0.155848D-02
     15 -0.998891D-03 -0.703692D-02 -0.803985D-01 -0.161638D-03 -0.984283D-03
     16  0.171947D-01  0.827788D-03 -0.247327D-03 -0.123338D-05 -0.272009D-05
     17 -0.219933D-01 -0.106499D-02  0.561817D-03  0.000000D+00  0.218659D-05
     18 -0.932711D-03 -0.485524D-03  0.174821D-01 -0.416439D-04 -0.918408D-04
     19  0.581695D-04  0.227538D-04 -0.791899D-03  0.366415D-04  0.365037D-05
     20  0.561264D-04  0.219546D-04 -0.764085D-03  0.385489D-05  0.000000D+00
     21 -0.645835D-03 -0.252627D-03  0.879217D-02  0.462559D-03  0.460820D-04
     22  0.727698D-02 -0.257968D-01  0.317164D-03 -0.185340D+00 -0.126344D+00
     23 -0.388257D-02  0.137602D-01 -0.117792D-03 -0.120875D+00 -0.344497D+00
     24 -0.686109D-04 -0.133530D-02  0.234903D-01  0.214804D-02  0.246839D-02
     25 -0.289850D+00  0.137634D+00  0.653657D-02 -0.516177D-02  0.182233D-01
     26  0.139988D+00 -0.231648D+00 -0.670172D-02 -0.637646D-02  0.225748D-01
     27  0.735626D-02 -0.761144D-02 -0.750652D-01 -0.710446D-03  0.111243D-02
                6             7             8             9            10 
      6  0.166231D+00
      7  0.125322D-01  0.566709D+00
      8 -0.146147D-01  0.725313D-01  0.739781D+00
      9 -0.439157D-01 -0.357466D-01 -0.111226D-01  0.609202D-01
     10 -0.251958D-02 -0.341023D+00 -0.255345D+00  0.269667D-01  0.109525D+01
     11  0.234783D-02 -0.211437D+00 -0.418631D+00  0.266768D-01 -0.101280D-01
     12 -0.102638D-02  0.217573D-01  0.256298D-01 -0.547276D-01  0.589916D-02
     13 -0.968616D-03 -0.882525D-02  0.690044D-02 -0.181494D-02 -0.603171D+00
     14 -0.599461D-03 -0.301562D-01  0.238129D-01 -0.299934D-02  0.129751D+00
     15 -0.187788D-02  0.327946D-02 -0.139803D-02  0.120407D-01 -0.372148D-01
     16  0.105503D-03  0.134079D-04 -0.369244D-04 -0.367094D-03 -0.513293D-02
     17 -0.848102D-04 -0.213393D-04  0.587670D-04  0.584248D-03  0.651655D-02
     18  0.356219D-02 -0.298881D-03  0.823100D-03  0.818307D-02 -0.319811D-02
     19  0.459697D-03  0.215268D-01 -0.172897D-01 -0.183912D-02 -0.180245D+00
     20  0.483627D-04  0.121865D-01 -0.979593D-02 -0.115435D-02  0.111982D+00
     21  0.580317D-02 -0.208308D-02  0.189640D-02  0.330259D-02  0.908822D-02
     22  0.108673D-02  0.224438D-01  0.154040D-01 -0.618234D-03  0.136453D-04
     23  0.177605D-03 -0.119772D-01 -0.822094D-02  0.341264D-03 -0.653497D-05
     24 -0.659155D-01 -0.136884D-02 -0.118123D-02  0.521843D-02  0.340370D-03
     25  0.892294D-03  0.000000D+00  0.106659D-05 -0.213361D-04 -0.563383D-05
     26  0.163306D-03  0.114745D-05  0.118120D-04 -0.236289D-03  0.822236D-05
     27  0.208959D-01 -0.225397D-04 -0.232026D-03  0.464147D-02 -0.336651D-03
               11            12            13            14            15 
     11  0.954161D+00
     12 -0.284275D-01  0.235541D+00
     13  0.104576D+00 -0.342736D-01  0.981646D+00
     14 -0.234100D+00  0.105274D-01 -0.229705D-01  0.783458D+00
     15  0.127024D-01 -0.125774D+00  0.326041D-01 -0.248749D-02  0.219384D+00
     16 -0.179558D-01  0.772594D-04 -0.238259D+00 -0.103490D+00  0.191653D-02
     17  0.228893D-01  0.310535D-03 -0.105296D+00 -0.188332D+00  0.904147D-03
     18 -0.454347D-02  0.291275D-01  0.527604D-02  0.447123D-02 -0.819963D-01
     19  0.119003D+00  0.653212D-02  0.755931D-02  0.266445D-01  0.764877D-03
     20 -0.312442D+00 -0.679890D-02  0.429262D-02  0.148392D-01 -0.839409D-03
     21 -0.132657D-01 -0.907998D-01 -0.109686D-02  0.416605D-02  0.350440D-01
     22  0.135940D-05  0.171192D-03  0.134528D-05  0.296686D-05 -0.115074D-03
     23  0.000000D+00 -0.819865D-04  0.000000D+00 -0.186451D-05  0.723180D-04
     24  0.339090D-04  0.427021D-02 -0.583358D-04 -0.128653D-03  0.499001D-02
     25 -0.220375D-05  0.766969D-04  0.186740D-01  0.894110D-03 -0.745720D-04
     26  0.321629D-05 -0.111936D-03  0.231370D-01  0.112900D-02 -0.932779D-03
     27 -0.131686D-03  0.458305D-02  0.105305D-02 -0.418539D-03  0.185879D-01
               16            17            18            19            20 
     16  0.226241D+00
     17  0.120705D+00  0.166368D+00
     18 -0.189367D-02 -0.147888D-02  0.431750D-01
     19 -0.535640D-04  0.852498D-04  0.119402D-02  0.151117D+00
     20 -0.516827D-04  0.822555D-04  0.115208D-02 -0.128470D+00  0.307294D+00
     21  0.594702D-03 -0.946498D-03 -0.132568D-01 -0.631970D-02  0.835630D-02
     22  0.000000D+00  0.000000D+00  0.000000D+00  0.000000D+00  0.000000D+00
     23  0.000000D+00  0.000000D+00  0.000000D+00  0.000000D+00  0.000000D+00
     24  0.000000D+00  0.000000D+00  0.000000D+00  0.000000D+00  0.000000D+00
     25 -0.311105D-05  0.250086D-05 -0.105041D-03  0.000000D+00  0.000000D+00
     26  0.454046D-05 -0.364992D-05  0.153303D-03  0.000000D+00  0.000000D+00
     27 -0.185902D-03  0.149440D-03 -0.627677D-02  0.000000D+00  0.000000D+00
               21            22            23            24            25 
     21  0.511148D-01
     22  0.000000D+00  0.155605D+00
     23  0.000000D+00  0.136742D+00  0.338954D+00
     24  0.000000D+00 -0.103018D-02 -0.273011D-03  0.361161D-01
     25  0.000000D+00  0.000000D+00  0.000000D+00  0.375541D-04  0.276347D+00
     26  0.000000D+00 -0.959098D-05  0.602741D-05  0.415897D-03 -0.156753D+00
     27  0.000000D+00  0.188397D-03 -0.118398D-03 -0.816954D-02 -0.734217D-02
               26            27 
     26  0.207927D+00
     27  0.725022D-02  0.408032D-01
 Leave Link  716 at Tue Dec 15 16:15:32 2015, MaxMem=    33554432 cpu:         0.0
 (Enter /home/Applications/g09/g09/l103.exe)

 GradGradGradGradGradGradGradGradGradGradGradGradGradGradGradGradGradGrad
 Berny optimization.
 Search for a local minimum.
 Step number   1 out of a maximum of    2
 All quantities printed in internal units (Hartrees-Bohrs-Radians)
 Second derivative matrix not updated -- first step.
 ITU=  0
     Eigenvalues ---    0.01700   0.03282   0.07044   0.07598   0.07819
     Eigenvalues ---    0.08148   0.12952   0.13336   0.16647   0.23040
     Eigenvalues ---    0.25393   0.29353   0.40564   0.44256   0.64430
     Eigenvalues ---    0.84690   1.10127   1.34838   1.39386   1.52051
     Eigenvalues ---    1.81709
 Quadratic step=4.459D-01 exceeds max=3.000D-01 adjusted using Lamda=-7.875D-02.
 Angle between NR and scaled steps=  19.51 degrees.
 Angle between quadratic step and forces=  41.25 degrees.
 Linear search not attempted -- first point.
 TrRot= -0.009868  0.001238 -0.001399 -0.872355 -0.000673  0.872883
 Variable       Old X    -DE/DX   Delta X   Delta X   Delta X     New X
                                 (Linear)    (Quad)   (Total)
    X1        1.85205   0.01542   0.00000   0.07127   0.06211   1.91416
    Y1       -1.34977  -0.01121   0.00000  -0.04090  -0.03863  -1.38840
    Z1        0.02351   0.00555   0.00000   0.01654   0.01669   0.04019
    X2       -0.72313   0.03238   0.00000   0.01638   0.00765  -0.71548
    Y2       -2.07680  -0.04111   0.00000  -0.05118  -0.05032  -2.12713
    Z2       -0.02534  -0.00128   0.00000   0.00501   0.00440  -0.02094
    X3       -2.20955  -0.08705   0.00000  -0.13308  -0.14303  -2.35258
    Y3        0.09300   0.00986   0.00000   0.01579   0.01582   0.10882
    Z3        0.07591   0.00019   0.00000  -0.01966  -0.02213   0.05378
    X4       -0.65668  -0.09412   0.00000  -0.07734  -0.08831  -0.74499
    Y4        2.04123   0.07532   0.00000   0.07995   0.08078   2.12201
    Z4       -0.06334   0.00160   0.00000   0.02595   0.02314  -0.04019
    X5        1.72249   0.14315   0.00000   0.09621   0.08559   1.80808
    Y5        1.36177  -0.00461   0.00000   0.00124   0.00347   1.36524
    Z5        0.09190  -0.00585   0.00000  -0.03037  -0.03169   0.06021
    X6        3.38211  -0.01940   0.00000   0.02267   0.01138   3.39349
    Y6        2.66006  -0.01350   0.00000  -0.02377  -0.02070   2.63937
    Z6        0.07366   0.00257   0.00000  -0.00788  -0.00917   0.06449
    X7       -1.64216   0.00418   0.00000  -0.00082  -0.01276  -1.65492
    Y7        3.79287   0.01385   0.00000   0.12621   0.12659   3.91947
    Z7        0.00013  -0.00147   0.00000   0.01857   0.01445   0.01457
    X8       -1.64887  -0.01370   0.00000  -0.01733  -0.02513  -1.67399
    Y8       -3.81196  -0.02166   0.00000  -0.08513  -0.08479  -3.89675
    Z8       -0.02154  -0.00080   0.00000  -0.00687  -0.00698  -0.02853
    X9        3.39239   0.01914   0.00000   0.11097   0.10250   3.49489
    Y9       -2.59044  -0.00695   0.00000  -0.03530  -0.03223  -2.62267
    Z9       -0.03257  -0.00051   0.00000   0.00982   0.01129  -0.02128
         Item               Value     Threshold  Converged?
 Maximum Force            0.143148     0.000450     NO 
 RMS     Force            0.042049     0.000300     NO 
 Maximum Displacement     0.143030     0.001800     NO 
 RMS     Displacement     0.057484     0.001200     NO 
 Predicted change in Energy=-2.821542D-02
 GradGradGradGradGradGradGradGradGradGradGradGradGradGradGradGradGradGrad

 Leave Link  103 at Tue Dec 15 16:15:32 2015, MaxMem=    33554432 cpu:         0.0
 (Enter /home/Applications/g09/g09/l9999.exe)
 1\1\GINC-DUSTIN-DESKTOP\Force\RB3LYP-FC\3-21G\C4H4O1\DUSTIN\15-Dec-201
 5\0\\#P B3LYP/3-21G CIS(Singlets,NStates=15) pop(full) force\\FuranDFT
 \\0,1\C,0.980061,-0.71427,0.01244\C,-0.382662,-1.098997,-0.01341\O,-1.
 169243,0.049213,0.040169\C,-0.347501,1.080171,-0.033517\C,0.911503,0.7
 2062,0.048633\H,1.789735,1.407645,0.038979\H,-0.868993,2.007102,0.0000
 68\H,-0.872543,-2.017201,-0.0114\H,1.795176,-1.370803,-0.017236\\Versi
 on=ES64L-G09RevD.01\State=1-A\HF=-228.7374379\RMSD=2.187e-09\RMSF=4.20
 5e-02\Dipole=0.2914794,0.7120087,-0.0057653\PG=C01 [X(C4H4O1)]\\@


 SATCHEL PAIGE'S GUIDE TO LONGEVITY

    1.  AVOID FRIED MEATS, WHICH ANGRY UP THE BLOOD.

    2.  IF YOUR STOMACH DISPUTES YOU, LIE DOWN AND PACIFY IT WITH COOL
        THOUGHTS.

    3.  KEEP THE JUICES FLOWING BY JANGLING AROUND GENTLY AS YOU MOVE.

    4.  GO VERY LIGHT ON THE VICES, SUCH AS CARRYING ON IN SOCIETY.
        THE SOCIAL RUMBLE AIN'T RESTFUL.

    5.  AVOID RUNNING AT ALL TIMES.

    6.  DON'T LOOK BACK.  SOMETHING MAY BE GAINING ON YOU.
 Job cpu time:       0 days  0 hours  0 minutes 51.0 seconds.
 File lengths (MBytes):  RWF=     14 Int=      0 D2E=      0 Chk=      3 Scr=      1
 Normal termination of Gaussian 09 at Tue Dec 15 16:15:32 2015.
