 Entering Gaussian System, Link 0=g09
 Input=FuranAM1_95.com
 Output=FuranAM1_95.log
 Initial command:
 /home/Applications/g09/g09/l1.exe "/home/Applications/g09/scratch/Gau-6458.inp" -scrdir="/home/Applications/g09/scratch/"
 Entering Link 1 = /home/Applications/g09/g09/l1.exe PID=      6460.
  
 Copyright (c) 1988,1990,1992,1993,1995,1998,2003,2009,2013,
            Gaussian, Inc.  All Rights Reserved.
  
 This is part of the Gaussian(R) 09 program.  It is based on
 the Gaussian(R) 03 system (copyright 2003, Gaussian, Inc.),
 the Gaussian(R) 98 system (copyright 1998, Gaussian, Inc.),
 the Gaussian(R) 94 system (copyright 1995, Gaussian, Inc.),
 the Gaussian 92(TM) system (copyright 1992, Gaussian, Inc.),
 the Gaussian 90(TM) system (copyright 1990, Gaussian, Inc.),
 the Gaussian 88(TM) system (copyright 1988, Gaussian, Inc.),
 the Gaussian 86(TM) system (copyright 1986, Carnegie Mellon
 University), and the Gaussian 82(TM) system (copyright 1983,
 Carnegie Mellon University). Gaussian is a federally registered
 trademark of Gaussian, Inc.
  
 This software contains proprietary and confidential information,
 including trade secrets, belonging to Gaussian, Inc.
  
 This software is provided under written license and may be
 used, copied, transmitted, or stored only in accord with that
 written license.
  
 The following legend is applicable only to US Government
 contracts under FAR:
  
                    RESTRICTED RIGHTS LEGEND
  
 Use, reproduction and disclosure by the US Government is
 subject to restrictions as set forth in subparagraphs (a)
 and (c) of the Commercial Computer Software - Restricted
 Rights clause in FAR 52.227-19.
  
 Gaussian, Inc.
 340 Quinnipiac St., Bldg. 40, Wallingford CT 06492
  
  
 ---------------------------------------------------------------
 Warning -- This program may not be used in any manner that
 competes with the business of Gaussian, Inc. or will provide
 assistance to any competitor of Gaussian, Inc.  The licensee
 of this program is prohibited from giving any competitor of
 Gaussian, Inc. access to this program.  By using this program,
 the user acknowledges that Gaussian, Inc. is engaged in the
 business of creating and licensing software in the field of
 computational chemistry and represents and warrants to the
 licensee that it is not a competitor of Gaussian, Inc. and that
 it will not use this program in any manner prohibited above.
 ---------------------------------------------------------------
  

 Cite this work as:
 Gaussian 09, Revision D.01,
 M. J. Frisch, G. W. Trucks, H. B. Schlegel, G. E. Scuseria, 
 M. A. Robb, J. R. Cheeseman, G. Scalmani, V. Barone, B. Mennucci, 
 G. A. Petersson, H. Nakatsuji, M. Caricato, X. Li, H. P. Hratchian, 
 A. F. Izmaylov, J. Bloino, G. Zheng, J. L. Sonnenberg, M. Hada, 
 M. Ehara, K. Toyota, R. Fukuda, J. Hasegawa, M. Ishida, T. Nakajima, 
 Y. Honda, O. Kitao, H. Nakai, T. Vreven, J. A. Montgomery, Jr., 
 J. E. Peralta, F. Ogliaro, M. Bearpark, J. J. Heyd, E. Brothers, 
 K. N. Kudin, V. N. Staroverov, T. Keith, R. Kobayashi, J. Normand, 
 K. Raghavachari, A. Rendell, J. C. Burant, S. S. Iyengar, J. Tomasi, 
 M. Cossi, N. Rega, J. M. Millam, M. Klene, J. E. Knox, J. B. Cross, 
 V. Bakken, C. Adamo, J. Jaramillo, R. Gomperts, R. E. Stratmann, 
 O. Yazyev, A. J. Austin, R. Cammi, C. Pomelli, J. W. Ochterski, 
 R. L. Martin, K. Morokuma, V. G. Zakrzewski, G. A. Voth, 
 P. Salvador, J. J. Dannenberg, S. Dapprich, A. D. Daniels, 
 O. Farkas, J. B. Foresman, J. V. Ortiz, J. Cioslowski, 
 and D. J. Fox, Gaussian, Inc., Wallingford CT, 2013.
 
 ******************************************
 Gaussian 09:  ES64L-G09RevD.01 24-Apr-2013
                15-Dec-2015 
 ******************************************
 ------------------------------------------------------------
 #P AM1(Input,print) CIS(Singlets,NStates=15) pop(full) force
 ------------------------------------------------------------
 1/10=7,30=1,38=1/1,3;
 2/12=2,17=6,18=5,40=1/2;
 3/5=2,16=1,25=1,41=700000,71=1,135=100,136=1/1,2,8,3;
 4/35=1/1;
 5/5=2,35=1,38=5/2;
 8/6=1,10=1,108=15/1;
 9/15=2,41=15,42=1,48=1,49=10/14;
 10/5=4/2;
 6/7=3,18=1/1;
 7/12=6,13=5,29=1/1,2,3,16;
 1/10=7,30=1/3;
 99//99;
 Leave Link    1 at Tue Dec 15 16:29:44 2015, MaxMem=           0 cpu:         0.0
 (Enter /home/Applications/g09/g09/l101.exe)
 -----------------
 AM1-Reparam Input
 -----------------
 Symbolic Z-matrix:
 Charge =  0 Multiplicity = 1
 6                     0.91263  -0.76565  -0.04148 
 6                    -0.38441  -1.05311  -0.01761 
 8                    -1.12706  -0.03069  -0.00398 
 6                    -0.3756    1.10642   0.04454 
 6                     0.96609   0.66686   0.00382 
 1                     1.79383   1.3589    0.02973 
 1                    -0.79524   2.04069   0.04626 
 1                    -0.88404  -2.07469   0.00671 
 1                     1.77025  -1.33356   0.029 
 
 NAtoms=      9 NQM=        9 NQMF=       0 NMMI=      0 NMMIF=      0
                NMic=       0 NMicF=      0.
                    Isotopes and Nuclear Properties:
 (Nuclear quadrupole moments (NQMom) in fm**2, nuclear magnetic moments (NMagM)
  in nuclear magnetons)

  Atom         1           2           3           4           5           6           7           8           9
 IAtWgt=          12          12          16          12          12           1           1           1           1
 AtmWgt=  12.0000000  12.0000000  15.9949146  12.0000000  12.0000000   1.0078250   1.0078250   1.0078250   1.0078250
 NucSpn=           0           0           0           0           0           1           1           1           1
 AtZEff=   0.0000000   0.0000000   0.0000000   0.0000000   0.0000000   0.0000000   0.0000000   0.0000000   0.0000000
 NQMom=    0.0000000   0.0000000   0.0000000   0.0000000   0.0000000   0.0000000   0.0000000   0.0000000   0.0000000
 NMagM=    0.0000000   0.0000000   0.0000000   0.0000000   0.0000000   2.7928460   2.7928460   2.7928460   2.7928460
 AtZNuc=   6.0000000   6.0000000   8.0000000   6.0000000   6.0000000   1.0000000   1.0000000   1.0000000   1.0000000
 Leave Link  101 at Tue Dec 15 16:29:44 2015, MaxMem=    33554432 cpu:         0.0
 (Enter /home/Applications/g09/g09/l103.exe)

 GradGradGradGradGradGradGradGradGradGradGradGradGradGradGradGradGradGrad
 Berny optimization.
 Initialization pass.
 Trust Radius=3.00D-01 FncErr=1.00D-07 GrdErr=1.00D-07
 Number of steps in this run=      2 maximum allowed number of steps=      2.
 GradGradGradGradGradGradGradGradGradGradGradGradGradGradGradGradGradGrad

 Leave Link  103 at Tue Dec 15 16:29:44 2015, MaxMem=    33554432 cpu:         0.0
 (Enter /home/Applications/g09/g09/l202.exe)
                          Input orientation:                          
 ---------------------------------------------------------------------
 Center     Atomic      Atomic             Coordinates (Angstroms)
 Number     Number       Type             X           Y           Z
 ---------------------------------------------------------------------
      1          6           0        0.912631   -0.765649   -0.041483
      2          6           0       -0.384409   -1.053108   -0.017610
      3          8           0       -1.127064   -0.030694   -0.003975
      4          6           0       -0.375598    1.106418    0.044535
      5          6           0        0.966090    0.666863    0.003823
      6          1           0        1.793834    1.358896    0.029730
      7          1           0       -0.795242    2.040689    0.046262
      8          1           0       -0.884036   -2.074691    0.006712
      9          1           0        1.770254   -1.333555    0.029003
 ---------------------------------------------------------------------
                    Distance matrix (angstroms):
                    1          2          3          4          5
     1  C    0.000000
     2  C    1.328727   0.000000
     3  O    2.168391   1.263746   0.000000
     4  C    2.274108   2.160438   1.363847   0.000000
     5  C    1.434225   2.186917   2.206341   1.412442   0.000000
     6  H    2.301148   3.250346   3.234771   2.184124   1.079232
     7  H    3.286345   3.121609   2.098394   1.024191   2.234164
     8  H    2.223494   1.137476   2.058422   3.221707   3.307430
     9  H    1.031020   2.173338   3.176946   3.249368   2.156151
                    6          7          8          9
     6  H    0.000000
     7  H    2.677392   0.000000
     8  H    4.354427   4.116528   0.000000
     9  H    2.692554   4.238819   2.755909   0.000000
 Stoichiometry    C4H4O
 Framework group  C1[X(C4H4O)]
 Deg. of freedom    21
 Full point group                 C1      NOp   1
 Largest Abelian subgroup         C1      NOp   1
 Largest concise Abelian subgroup C1      NOp   1
                         Standard orientation:                         
 ---------------------------------------------------------------------
 Center     Atomic      Atomic             Coordinates (Angstroms)
 Number     Number       Type             X           Y           Z
 ---------------------------------------------------------------------
      1          6           0        0.675878    0.981242   -0.020475
      2          6           0        1.064960   -0.289038    0.002296
      3          8           0        0.104754   -1.110560   -0.010340
      4          6           0       -1.089262   -0.452070    0.017828
      5          6           0       -0.756986    0.920529   -0.005822
      6          1           0       -1.513018    1.690538    0.009793
      7          1           0       -1.987048   -0.944526   -0.002989
      8          1           0        2.122285   -0.706192    0.045864
      9          1           0        1.172203    1.880684    0.067091
 ---------------------------------------------------------------------
 Rotational constants (GHZ):      9.6069649      9.5864132      4.7998707
 Leave Link  202 at Tue Dec 15 16:29:44 2015, MaxMem=    33554432 cpu:         0.0
 (Enter /home/Applications/g09/g09/l301.exe)

 Semi-emprical parameters in input format:
 Method=8 CoreType=1 PeptideFC=0.0114510000 RIJScale=0.5291770000
 ****
 H       
 PQN=1 NValence=1 F0ss=0.4721550000 ZetaOverlap=1.1880780000 U=-0.4188110000
 Beta=-0.2268830000 CoreKO=1.0589200000 KON=0,0,0,1.0589200000 KON=1,0,1,1.0589200000
 KON=0,1,1,1.0589200000 KON=2,1,1,1.0589200000 EISol=-0.4188110042 EHeat=0.0830298228
 Alpha=1.5252600000
 GCore=0.0085280000,1.4001430000,2.2676710000
 GCore=0.0003530000,1.4001430000,3.4015070000
 GCore=-0.0012730000,0.5600570000,3.9684250000
 ****
 C       
 PQN=2,2 NValence=4 F0ss=0.4494440000 F0sp=0.4215150000 F0pp=0.3768030000 F2pp=0.1898720000
 G1sp=0.2679030000
 ZetaOverlap=1.8086650000,1.6851160000
 U=-1.9120180000,-1.4557970000
 Beta=-0.5775440000,-0.2836780000 DDN=0,1,0.8236740000 DDN=1,1,0.7268010000
 CoreKO=1.1124280000 KON=0,0,0,1.1124280000 KON=1,0,1,0.8219700000 KON=0,1,1,1.1124280000
 KON=2,1,1,0.7783930000 EISol=-4.4398989268 EHeat=0.2723305520 Alpha=1.4014060000
 DipHyp=1.6472532266
 GCore=0.0007890000,1.4001430000,3.0235620000
 GCore=0.0031890000,1.4001430000,3.4959930000
 GCore=-0.0013930000,1.4001430000,3.8739390000
 GCore=-0.0000880000,1.4001430000,5.0077740000
 ****
 O       
 PQN=2,2 NValence=6 F0ss=0.5666750000 F0sp=0.5321300000 F0pp=0.4958710000 F2pp=0.2358080000
 G1sp=0.4343770000
 ZetaOverlap=3.1080320000,2.5240390000
 U=-3.5951870000,-2.8760900000
 Beta=-1.0757550000,-1.0757550000 DDN=0,1,0.4988900000 DDN=1,1,0.4852320000
 CoreKO=0.8822960000 KON=0,0,0,0.8822960000 KON=1,0,1,0.5019540000 KON=0,1,1,0.8822960000
 KON=2,1,1,0.5515580000 EISol=-11.6164441184 EHeat=0.0949133088 Alpha=2.3576810000
 DipHyp=0.9977225968
 GCore=0.0195120000,1.4001430000,1.6023330000
 GCore=0.0056550000,1.9602000000,2.7307880000
 ****
 
 Standard basis: VSTO-6G (5D, 7F)
 Ernie: Thresh=  0.10000D-02 Tol=  0.10000D-05 Strict=F.
  NNHCO=     0 NNPyr=     0 NCTC=     0               EPep=         0.000000000
    EC=        69.349237736  ECS=         1.918567567   EG=         0.386695777
   EHC=         0.000000000  EAt=       -31.051283842  AtH=         1.516354808
 EPDDG=         0.000000000  ECC=        71.654501080 EAtT=        32.567638650
 There are    24 symmetry adapted cartesian basis functions of A   symmetry.
 There are    24 symmetry adapted basis functions of A   symmetry.
    24 basis functions,   144 primitive gaussians,    24 cartesian basis functions
    13 alpha electrons       13 beta electrons
       nuclear repulsion energy       104.2221397304 Hartrees.
 IExCor=    0 DFT=F Ex=HF Corr=None ExCW=0 ScaHFX=  1.000000
 ScaDFX=  1.000000  1.000000  1.000000  1.000000 ScalE2=  1.000000  1.000000
 IRadAn=      0 IRanWt=     -1 IRanGd=            0 ICorTp=0 IEmpDi=  4
 Integral buffers will be    131072 words long.
 Regular integral format.
 Two-electron integral symmetry is turned off.
 Leave Link  301 at Tue Dec 15 16:29:44 2015, MaxMem=    33554432 cpu:         0.0
 (Enter /home/Applications/g09/g09/l302.exe)
 Do NDO integrals.
 NPDir=0 NMtPBC=     1 NCelOv=     1 NCel=       1 NClECP=     1 NCelD=      1
         NCelK=      1 NCelE2=     1 NClLst=     1 CellRange=     0.0.
 One-electron integrals computed using PRISM.
 NBasis=    24 RedAO= F EigKep=  0.00D+00  NBF=    24
 NBsUse=    24 1.00D-04 EigRej=  0.00D+00 NBFU=    24
 Leave Link  302 at Tue Dec 15 16:29:44 2015, MaxMem=    33554432 cpu:         0.0
 (Enter /home/Applications/g09/g09/l308.exe)
 Leave Link  308 at Tue Dec 15 16:29:44 2015, MaxMem=    33554432 cpu:         0.0
 (Enter /home/Applications/g09/g09/l303.exe)
 DipDrv:  MaxL=1.
 Leave Link  303 at Tue Dec 15 16:29:44 2015, MaxMem=    33554432 cpu:         0.0
 (Enter /home/Applications/g09/g09/l401.exe)
 Simple Huckel Guess.
 JPrj=0 DoOrth=F DoCkMO=F.
 Leave Link  401 at Tue Dec 15 16:29:44 2015, MaxMem=    33554432 cpu:         0.0
 (Enter /home/Applications/g09/g09/l502.exe)
 Closed shell SCF:
 Using DIIS extrapolation, IDIIS=  1040.
 Overlap will be assumed to be unity.
 Two-electron integral symmetry not used.
 Keep J ints in memory in canonical form, NReq=888082.
 IVT=       79475 IEndB=       79475 NGot=    33554432 MDV=    33473473
 LenX=    33473473 LenY=    33472456
 Requested convergence on RMS density matrix=1.00D-08 within 128 cycles.
 Requested convergence on MAX density matrix=1.00D-06.
 Requested convergence on             energy=1.00D-06.
 No special actions if energy rises.
 FoFCou: FMM=F IPFlag=           0 FMFlag=           0 FMFlg1=           0
         NFxFlg=           0 DoJE=F BraDBF=F KetDBF=F FulRan=T
         wScrn=  0.000000 ICntrl=     600 IOpCl=  2 I1Cent=           0 NGrid=           0
         NMat0=    1 NMatS0=     54 NMatT0=    0 NMatD0=    1 NMtDS0=    0 NMtDT0=    0
 Symmetry not used in FoFCou.

 Cycle   1  Pass 1  IDiag  1:
 E= 0.357980353429383    
 DIIS: error= 5.83D-02 at cycle   1 NSaved=   1.
 NSaved= 1 IEnMin= 1 EnMin= 0.357980353429383     IErMin= 1 ErrMin= 5.83D-02
 ErrMax= 5.83D-02  0.00D+00 EMaxC= 1.00D-01 BMatC= 1.13D-01 BMatP= 1.13D-01
 IDIUse=3 WtCom= 4.17D-01 WtEn= 5.83D-01
 Coeff-Com:  0.100D+01
 Coeff-En:   0.100D+01
 Coeff:      0.100D+01
 GapD=    2.000 DampG=2.000 DampE=0.500 DampFc=1.0000 IDamp=-1.
 RMSDP=1.94D-02 MaxDP=1.66D-01              OVMax= 0.00D+00

 Cycle   2  Pass 1  IDiag  1:
 E= 0.785870970107112E-01 Delta-E=       -0.279393256419 Rises=F Damp=F
 DIIS: error= 2.02D-02 at cycle   2 NSaved=   2.
 NSaved= 2 IEnMin= 2 EnMin= 0.785870970107112E-01 IErMin= 2 ErrMin= 2.02D-02
 ErrMax= 2.02D-02  0.00D+00 EMaxC= 1.00D-01 BMatC= 9.79D-03 BMatP= 1.13D-01
 IDIUse=3 WtCom= 7.98D-01 WtEn= 2.02D-01
 Coeff-Com: -0.353D+00 0.135D+01
 Coeff-En:   0.000D+00 0.100D+01
 Coeff:     -0.282D+00 0.128D+01
 RMSDP=8.28D-03 MaxDP=7.45D-02 DE=-2.79D-01 OVMax= 0.00D+00

 Cycle   3  Pass 1  IDiag  1:
 E= 0.469197813690698E-01 Delta-E=       -0.031667315642 Rises=F Damp=F
 DIIS: error= 4.08D-03 at cycle   3 NSaved=   3.
 NSaved= 3 IEnMin= 3 EnMin= 0.469197813690698E-01 IErMin= 3 ErrMin= 4.08D-03
 ErrMax= 4.08D-03  0.00D+00 EMaxC= 1.00D-01 BMatC= 4.42D-04 BMatP= 9.79D-03
 IDIUse=3 WtCom= 9.59D-01 WtEn= 4.08D-02
 Coeff-Com:  0.120D+00-0.571D+00 0.145D+01
 Coeff-En:   0.000D+00 0.000D+00 0.100D+01
 Coeff:      0.115D+00-0.548D+00 0.143D+01
 RMSDP=2.74D-03 MaxDP=3.26D-02 DE=-3.17D-02 OVMax= 0.00D+00

 Cycle   4  Pass 1  IDiag  3:
 E= 0.444883113771652E-01 Delta-E=       -0.002431469992 Rises=F Damp=F
 DIIS: error= 1.23D-03 at cycle   4 NSaved=   4.
 NSaved= 4 IEnMin= 4 EnMin= 0.444883113771652E-01 IErMin= 4 ErrMin= 1.23D-03
 ErrMax= 1.23D-03  0.00D+00 EMaxC= 1.00D-01 BMatC= 3.53D-05 BMatP= 4.42D-04
 IDIUse=3 WtCom= 9.88D-01 WtEn= 1.23D-02
 Coeff-Com:  0.116D-01-0.283D-01-0.298D+00 0.131D+01
 Coeff-En:   0.000D+00 0.000D+00 0.000D+00 0.100D+01
 Coeff:      0.115D-01-0.280D-01-0.294D+00 0.131D+01
 Gap=     0.380 Goal=   None    Shift=    0.000
 RMSDP=9.72D-04 MaxDP=1.23D-02 DE=-2.43D-03 OVMax= 9.92D-03

 Cycle   5  Pass 1  IDiag  3:
 E= 0.442671410098114E-01 Delta-E=       -0.000221170367 Rises=F Damp=F
 DIIS: error= 1.72D-04 at cycle   5 NSaved=   5.
 NSaved= 5 IEnMin= 5 EnMin= 0.442671410098114E-01 IErMin= 5 ErrMin= 1.72D-04
 ErrMax= 1.72D-04  0.00D+00 EMaxC= 1.00D-01 BMatC= 1.52D-06 BMatP= 3.53D-05
 IDIUse=3 WtCom= 9.98D-01 WtEn= 1.72D-03
 Coeff-Com: -0.679D-02 0.239D-01 0.621D-01-0.504D+00 0.142D+01
 Coeff-En:   0.000D+00 0.000D+00 0.000D+00 0.000D+00 0.100D+01
 Coeff:     -0.678D-02 0.238D-01 0.620D-01-0.503D+00 0.142D+01
 Gap=     0.379 Goal=   None    Shift=    0.000
 RMSDP=2.09D-04 MaxDP=1.93D-03 DE=-2.21D-04 OVMax= 1.76D-03

 Cycle   6  Pass 1  IDiag  3:
 E= 0.442571627100676E-01 Delta-E=       -0.000009978300 Rises=F Damp=F
 DIIS: error= 6.37D-05 at cycle   6 NSaved=   6.
 NSaved= 6 IEnMin= 6 EnMin= 0.442571627100676E-01 IErMin= 6 ErrMin= 6.37D-05
 ErrMax= 6.37D-05  0.00D+00 EMaxC= 1.00D-01 BMatC= 1.14D-07 BMatP= 1.52D-06
 IDIUse=1 WtCom= 1.00D+00 WtEn= 0.00D+00
 Coeff-Com:  0.283D-02-0.102D-01-0.159D-01 0.177D+00-0.669D+00 0.152D+01
 Coeff:      0.283D-02-0.102D-01-0.159D-01 0.177D+00-0.669D+00 0.152D+01
 Gap=     0.379 Goal=   None    Shift=    0.000
 RMSDP=6.64D-05 MaxDP=4.93D-04 DE=-9.98D-06 OVMax= 7.97D-04

 Cycle   7  Pass 1  IDiag  3:
 E= 0.442562249218810E-01 Delta-E=       -0.000000937788 Rises=F Damp=F
 DIIS: error= 2.70D-05 at cycle   7 NSaved=   7.
 NSaved= 7 IEnMin= 7 EnMin= 0.442562249218810E-01 IErMin= 7 ErrMin= 2.70D-05
 ErrMax= 2.70D-05  0.00D+00 EMaxC= 1.00D-01 BMatC= 1.19D-08 BMatP= 1.14D-07
 IDIUse=1 WtCom= 1.00D+00 WtEn= 0.00D+00
 Coeff-Com: -0.488D-03 0.137D-02 0.375D-02-0.348D-01 0.159D+00-0.671D+00
 Coeff-Com:  0.154D+01
 Coeff:     -0.488D-03 0.137D-02 0.375D-02-0.348D-01 0.159D+00-0.671D+00
 Coeff:      0.154D+01
 Gap=     0.380 Goal=   None    Shift=    0.000
 RMSDP=2.76D-05 MaxDP=2.40D-04 DE=-9.38D-07 OVMax= 3.16D-04

 Cycle   8  Pass 1  IDiag  3:
 E= 0.442561067377198E-01 Delta-E=       -0.000000118184 Rises=F Damp=F
 DIIS: error= 7.05D-06 at cycle   8 NSaved=   8.
 NSaved= 8 IEnMin= 8 EnMin= 0.442561067377198E-01 IErMin= 8 ErrMin= 7.05D-06
 ErrMax= 7.05D-06  0.00D+00 EMaxC= 1.00D-01 BMatC= 7.65D-10 BMatP= 1.19D-08
 IDIUse=1 WtCom= 1.00D+00 WtEn= 0.00D+00
 Coeff-Com:  0.798D-04 0.112D-04-0.221D-02 0.122D-01-0.546D-01 0.275D+00
 Coeff-Com: -0.852D+00 0.162D+01
 Coeff:      0.798D-04 0.112D-04-0.221D-02 0.122D-01-0.546D-01 0.275D+00
 Coeff:     -0.852D+00 0.162D+01
 Gap=     0.380 Goal=   None    Shift=    0.000
 RMSDP=7.71D-06 MaxDP=7.06D-05 DE=-1.18D-07 OVMax= 8.07D-05

 Cycle   9  Pass 1  IDiag  3:
 E= 0.442560991339604E-01 Delta-E=       -0.000000007604 Rises=F Damp=F
 DIIS: error= 9.89D-07 at cycle   9 NSaved=   9.
 NSaved= 9 IEnMin= 9 EnMin= 0.442560991339604E-01 IErMin= 9 ErrMin= 9.89D-07
 ErrMax= 9.89D-07  0.00D+00 EMaxC= 1.00D-01 BMatC= 3.11D-11 BMatP= 7.65D-10
 IDIUse=1 WtCom= 1.00D+00 WtEn= 0.00D+00
 Coeff-Com:  0.122D-04-0.161D-03 0.607D-03-0.210D-02 0.108D-01-0.766D-01
 Coeff-Com:  0.282D+00-0.680D+00 0.147D+01
 Coeff:      0.122D-04-0.161D-03 0.607D-03-0.210D-02 0.108D-01-0.766D-01
 Coeff:      0.282D+00-0.680D+00 0.147D+01
 Gap=     0.380 Goal=   None    Shift=    0.000
 RMSDP=1.14D-06 MaxDP=9.40D-06 DE=-7.60D-09 OVMax= 1.49D-05

 Cycle  10  Pass 1  IDiag  3:
 E= 0.442560989135785E-01 Delta-E=       -0.000000000220 Rises=F Damp=F
 DIIS: error= 2.85D-07 at cycle  10 NSaved=  10.
 NSaved=10 IEnMin=10 EnMin= 0.442560989135785E-01 IErMin=10 ErrMin= 2.85D-07
 ErrMax= 2.85D-07  0.00D+00 EMaxC= 1.00D-01 BMatC= 1.65D-12 BMatP= 3.11D-11
 IDIUse=1 WtCom= 1.00D+00 WtEn= 0.00D+00
 Coeff-Com: -0.113D-04 0.889D-04-0.247D-03 0.630D-03-0.304D-02 0.251D-01
 Coeff-Com: -0.984D-01 0.251D+00-0.697D+00 0.152D+01
 Coeff:     -0.113D-04 0.889D-04-0.247D-03 0.630D-03-0.304D-02 0.251D-01
 Coeff:     -0.984D-01 0.251D+00-0.697D+00 0.152D+01
 Gap=     0.380 Goal=   None    Shift=    0.000
 RMSDP=2.39D-07 MaxDP=1.50D-06 DE=-2.20D-10 OVMax= 2.84D-06

 Cycle  11  Pass 1  IDiag  3:
 E= 0.442560989033609E-01 Delta-E=       -0.000000000010 Rises=F Damp=F
 DIIS: error= 4.60D-08 at cycle  11 NSaved=  11.
 NSaved=11 IEnMin=11 EnMin= 0.442560989033609E-01 IErMin=11 ErrMin= 4.60D-08
 ErrMax= 4.60D-08  0.00D+00 EMaxC= 1.00D-01 BMatC= 5.21D-14 BMatP= 1.65D-12
 IDIUse=1 WtCom= 1.00D+00 WtEn= 0.00D+00
 Coeff-Com:  0.350D-05-0.286D-04 0.826D-04-0.224D-03 0.989D-03-0.800D-02
 Coeff-Com:  0.311D-01-0.778D-01 0.224D+00-0.600D+00 0.143D+01
 Coeff:      0.350D-05-0.286D-04 0.826D-04-0.224D-03 0.989D-03-0.800D-02
 Coeff:      0.311D-01-0.778D-01 0.224D+00-0.600D+00 0.143D+01
 Gap=     0.380 Goal=   None    Shift=    0.000
 RMSDP=3.61D-08 MaxDP=2.44D-07 DE=-1.02D-11 OVMax= 2.69D-07

 Cycle  12  Pass 1  IDiag  3:
 E= 0.442560989029914E-01 Delta-E=        0.000000000000 Rises=F Damp=F
 DIIS: error= 5.24D-09 at cycle  12 NSaved=  12.
 NSaved=12 IEnMin=12 EnMin= 0.442560989029914E-01 IErMin=12 ErrMin= 5.24D-09
 ErrMax= 5.24D-09  0.00D+00 EMaxC= 1.00D-01 BMatC= 2.10D-15 BMatP= 5.21D-14
 IDIUse=1 WtCom= 1.00D+00 WtEn= 0.00D+00
 Coeff-Com: -0.773D-06 0.663D-05-0.200D-04 0.583D-04-0.235D-03 0.186D-02
 Coeff-Com: -0.705D-02 0.170D-01-0.497D-01 0.145D+00-0.479D+00 0.137D+01
 Coeff:     -0.773D-06 0.663D-05-0.200D-04 0.583D-04-0.235D-03 0.186D-02
 Coeff:     -0.705D-02 0.170D-01-0.497D-01 0.145D+00-0.479D+00 0.137D+01
 Gap=     0.380 Goal=   None    Shift=    0.000
 RMSDP=7.56D-09 MaxDP=4.08D-08 DE=-3.69D-13 OVMax= 5.69D-08

 Cycle  13  Pass 2  IDiag  1:
 SCF Done:  E(RAM1) =  0.442560989030E-01 A.U. after   13 cycles
            NFock= 12  Conv=0.76D-08     -V/T= 1.0027
 KE=-1.665958886780D+01 PE=-1.721907595716D+02 EE= 8.467246480788D+01
 Leave Link  502 at Tue Dec 15 16:29:44 2015, MaxMem=    33554432 cpu:         0.0
 (Enter /home/Applications/g09/g09/l801.exe)
 Range of M.O.s used for correlation:     1    24
 NBasis=    24 NAE=    13 NBE=    13 NFC=     0 NFV=     0
 NROrb=     24 NOA=    13 NOB=    13 NVA=    11 NVB=    11
 Leave Link  801 at Tue Dec 15 16:29:44 2015, MaxMem=    33554432 cpu:         0.0
 (Enter /home/Applications/g09/g09/l914.exe)
 RHF ground state
 MDV=    33554432 DFT=F DoStab=F Mixed=F DoRPA=F DoScal=F NonHer=F
 Making orbital integer symmetry assigments:
 Orbital symmetries:
       Occupied  (A) (A) (A) (A) (A) (A) (A) (A) (A) (A) (A) (A)
                 (A)
       Virtual   (A) (A) (A) (A) (A) (A) (A) (A) (A) (A) (A)
    60 initial guesses have been made.
 Convergence on wavefunction:    0.000001000000000
 Davidson Disk Diagonalization:  ConvIn= 1.00D-06 SkipCon=T Conv= 1.00D-06.
 Max sub-space:   240 roots to seek:    60 dimension of matrix:          286
 Iteration     1 Dimension    60 NMult     0 NNew     60
 CISAX will form    60 AO SS matrices at one time.
 NMat=    60 NSing=    60 JSym2X= 0.
 FoFJK:  IHMeth= 8 ICntrl=       0 DoSepK=F KAlg= 0 I1Cent=   0 FoldK=F
 IRaf=         1 NMat= 120 IRICut=       1 DoRegI=T DoRafI=F ISym2E= 0.
 FoFCou: FMM=F IPFlag=           0 FMFlag=      100000 FMFlg1=           0
         NFxFlg=           0 DoJE=F BraDBF=F KetDBF=F FulRan=T
         wScrn=  0.000000 ICntrl=       0 IOpCl=  0 I1Cent=           0 NGrid=           0
         NMat0=  120 NMatS0=     60 NMatT0=    0 NMatD0=  120 NMtDS0=    0 NMtDT0=    0
 Symmetry not used in FoFCou.
 New state      2 was old state      4
 New state      3 was old state      2
 New state      4 was old state      8
 New state      5 was old state      6
 New state      6 was old state      9
 New state      7 was old state      3
 New state      8 was old state      5
 New state      9 was old state      7
 New state     11 was old state     12
 New state     12 was old state     19
 New state     13 was old state     14
 New state     14 was old state     11
 New state     15 was old state     16
 Excitation Energies [eV] at current iteration:
 Root      1 :     4.546069276063276
 Root      2 :     4.696114966152034
 Root      3 :     5.029922370261236
 Root      4 :     5.909301093947058
 Root      5 :     5.978399311210937
 Root      6 :     6.225028795905414
 Root      7 :     6.258380520404247
 Root      8 :     6.481437068106510
 Root      9 :     6.536234431947303
 Root     10 :     6.924597423486550
 Root     11 :     7.042814908024156
 Root     12 :     7.396835090162942
 Root     13 :     7.511508389466949
 Root     14 :     7.580387878980880
 Root     15 :     7.719530235751574
 Root     16 :     7.782389211483654
 Root     17 :     7.915118255631955
 Root     18 :     8.189620762457826
 Root     19 :     8.197349502281600
 Root     20 :     8.262461429687677
 Root     21 :     8.555165068584369
 Root     22 :     8.762932591229690
 Root     23 :     8.832086443874974
 Root     24 :     8.989952805325672
 Root     25 :     9.203970690845829
 Root     26 :     9.262007859931911
 Root     27 :     9.482116292338183
 Root     28 :     9.520720205207180
 Root     29 :     9.703542668412508
 Root     30 :     9.739326151422173
 Root     31 :     9.988621163927874
 Root     32 :    10.070332191427830
 Root     33 :    10.122941317035440
 Root     34 :    10.148540073152680
 Root     35 :    10.206874025787670
 Root     36 :    10.375512888472570
 Root     37 :    10.544410022188510
 Root     38 :    10.719073347580220
 Root     39 :    10.825345477809570
 Root     40 :    11.203164110510610
 Root     41 :    11.241698051883640
 Root     42 :    11.367468111648910
 Root     43 :    11.406191555552590
 Root     44 :    11.548454095439720
 Root     45 :    11.552103476225580
 Root     46 :    11.570330242827670
 Root     47 :    11.697934225144450
 Root     48 :    11.842290185666130
 Root     49 :    11.953696087103610
 Root     50 :    12.053179014003650
 Root     51 :    12.402319569878590
 Root     52 :    12.512364643855750
 Root     53 :    12.589140581250690
 Root     54 :    12.758607981858720
 Root     55 :    13.112689998396190
 Root     56 :    13.301091215683420
 Root     57 :    13.375721580007110
 Root     58 :    13.548919931324980
 Root     59 :    13.663095262175740
 Root     60 :    13.913778795992530
 Iteration     2 Dimension   120 NMult    60 NNew     60
 CISAX will form    60 AO SS matrices at one time.
 NMat=    60 NSing=    60 JSym2X= 0.
 Root      1 not converged, maximum delta is    0.024260066036301
 Root      2 not converged, maximum delta is    0.032697064019914
 Root      3 not converged, maximum delta is    0.011732213704417
 Root      4 not converged, maximum delta is    0.081607216408879
 Root      5 not converged, maximum delta is    0.058665247687847
 Root      6 not converged, maximum delta is    0.060113958676163
 Root      7 not converged, maximum delta is    0.101096541359574
 Root      8 not converged, maximum delta is    0.095389941644802
 Root      9 not converged, maximum delta is    0.034822823027930
 Root     10 not converged, maximum delta is    0.032764506035260
 Root     11 not converged, maximum delta is    0.032763794724982
 Root     12 not converged, maximum delta is    0.069895823387823
 Root     13 not converged, maximum delta is    0.098216693333098
 Root     14 not converged, maximum delta is    0.080667604750108
 Root     15 not converged, maximum delta is    0.173790636341323
 Excitation Energies [eV] at current iteration:
 Root      1 :     4.487699765087874   Change is   -0.058369510975403
 Root      2 :     4.662586637287487   Change is   -0.033528328864546
 Root      3 :     5.019177006973652   Change is   -0.010745363287584
 Root      4 :     5.825014402859218   Change is   -0.084286691087840
 Root      5 :     5.903290466765473   Change is   -0.075108844445465
 Root      6 :     6.115784942108092   Change is   -0.109243853797321
 Root      7 :     6.140514611099881   Change is   -0.117865909304366
 Root      8 :     6.386885984364822   Change is   -0.094551083741689
 Root      9 :     6.497565593842834   Change is   -0.038668838104469
 Root     10 :     6.862217777797979   Change is   -0.062379645688571
 Root     11 :     6.972869266150687   Change is   -0.069945641873469
 Root     12 :     7.306574903047104   Change is   -0.090260187115838
 Root     13 :     7.421674904270268   Change is   -0.089833485196680
 Root     14 :     7.521247713375877   Change is   -0.059140165605002
 Root     15 :     7.665741409657964   Change is   -0.053788826093610
 Root     16 :     7.696356849699909   Change is   -0.086032361783744
 Root     17 :     7.844162866314868   Change is   -0.070955389317087
 Root     18 :     7.922440414177002   Change is   -0.274909088104599
 Root     19 :     8.099991154855335   Change is   -0.089629607602491
 Root     20 :     8.158808030558458   Change is   -0.103653399129220
 Root     21 :     8.417034175643176   Change is   -0.138130892941194
 Root     22 :     8.646911774220452   Change is   -0.116020817009238
 Root     23 :     8.782571542719836   Change is   -0.049514901155139
 Root     24 :     8.875506976586816   Change is   -0.328463714259012
 Root     25 :     8.924277569144971   Change is   -0.065675236180701
 Root     26 :     9.160894077765150   Change is   -0.359826127442030
 Root     27 :     9.179782501303610   Change is   -0.082225358628301
 Root     28 :     9.284867324210195   Change is   -0.454458827211976
 Root     29 :     9.446151371975382   Change is   -0.035964920362801
 Root     30 :     9.602751199496616   Change is   -0.100791468915891
 Root     31 :     9.630991085870917   Change is   -0.357630078056955
 Root     32 :     9.729396958101789   Change is   -0.477477067685877
 Root     33 :     9.784952792401114   Change is   -0.363587280751562
 Root     34 :     9.872333671484595   Change is   -0.250607645550841
 Root     35 :     9.973066153600490   Change is   -0.571343868588017
 Root     36 :    10.020914173292920   Change is   -0.049418018134904
 Root     37 :    10.180602372884410   Change is   -0.194910515588160
 Root     38 :    10.243698195286370   Change is   -0.475375152293849
 Root     39 :    10.379190367788490   Change is   -0.446155110021084
 Root     40 :    10.780787506724810   Change is   -0.460910545158834
 Root     41 :    10.881396983597610   Change is   -0.486071128051302
 Root     42 :    10.942161375387850   Change is   -0.261002735122756
 Root     43 :    11.154873051447820   Change is   -0.393581043991899
 Root     44 :    11.203023262000660   Change is   -0.367306980827011
 Root     45 :    11.268841407707540   Change is   -0.137350147845051
 Root     46 :    11.312657646485080   Change is   -0.239445829740498
 Root     47 :    11.370920270974550   Change is   -0.327013954169905
 Root     48 :    11.555208025597340   Change is   -0.287082160068789
 Root     49 :    11.642549695519710   Change is   -0.410629318483933
 Root     50 :    11.783474083895830   Change is   -0.170222003207778
 Root     51 :    11.982866029557120   Change is   -0.419453540321473
 Root     52 :    12.216661448240510   Change is   -0.295703195615241
 Root     53 :    12.466883653851660   Change is   -0.122256927399035
 Root     54 :    12.501733793244080   Change is   -0.256874188614638
 Root     55 :    12.633561551436720   Change is   -0.479128446959476
 Root     56 :    12.865360185148180   Change is   -0.435731030535236
 Root     57 :    13.241846715460790   Change is   -0.133874864546316
 Root     58 :    13.358518168312550   Change is   -0.190401763012424
 Root     59 :    13.366095106693580
 Root     60 :    13.499622822217670   Change is   -0.414155973774857
 Iteration     3 Dimension   135 NMult   120 NNew     15
 CISAX will form    15 AO SS matrices at one time.
 NMat=    15 NSing=    15 JSym2X= 0.
 Root      1 not converged, maximum delta is    0.000585561764582
 Root      2 not converged, maximum delta is    0.000161689662626
 Root      3 not converged, maximum delta is    0.000332553354110
 Root      4 not converged, maximum delta is    0.000095559165013
 Root      5 not converged, maximum delta is    0.000212058366167
 Root      6 not converged, maximum delta is    0.003561752079804
 Root      7 not converged, maximum delta is    0.002956470474949
 Root      8 not converged, maximum delta is    0.001967417802755
 Root      9 not converged, maximum delta is    0.000388406981556
 Root     10 not converged, maximum delta is    0.000200801119624
 Root     11 not converged, maximum delta is    0.000243014985024
 Root     12 not converged, maximum delta is    0.000288466518621
 Root     13 not converged, maximum delta is    0.000421893078397
 Root     14 not converged, maximum delta is    0.000146523643436
 Root     15 not converged, maximum delta is    0.000427722335704
 Excitation Energies [eV] at current iteration:
 Root      1 :     4.487614867521057   Change is   -0.000084897566816
 Root      2 :     4.662579372118820   Change is   -0.000007265168667
 Root      3 :     5.019150835891356   Change is   -0.000026171082296
 Root      4 :     5.825012213796635   Change is   -0.000002189062583
 Root      5 :     5.903277183851914   Change is   -0.000013282913559
 Root      6 :     6.115723491470632   Change is   -0.000061450637459
 Root      7 :     6.139961190966861   Change is   -0.000553420133019
 Root      8 :     6.386138779961455   Change is   -0.000747204403366
 Root      9 :     6.497556585698550   Change is   -0.000009008144283
 Root     10 :     6.862209467453917   Change is   -0.000008310344062
 Root     11 :     6.972860201881597   Change is   -0.000009064269091
 Root     12 :     7.306553223935633   Change is   -0.000021679111472
 Root     13 :     7.421630274061576   Change is   -0.000044630208692
 Root     14 :     7.521243383758880   Change is   -0.000004329616997
 Root     15 :     7.665716097609359   Change is   -0.000025312048606
 Iteration     4 Dimension   143 NMult   135 NNew      8
 CISAX will form     8 AO SS matrices at one time.
 NMat=     8 NSing=     8 JSym2X= 0.
 Root      1 not converged, maximum delta is    0.000015816392147
 Root      2 not converged, maximum delta is    0.000003667076692
 Root      3 not converged, maximum delta is    0.000012566997182
 Root      4 not converged, maximum delta is    0.000004172382993
 Root      5 not converged, maximum delta is    0.000009810172464
 Root      6 not converged, maximum delta is    0.000035232551809
 Root      7 not converged, maximum delta is    0.000104502153428
 Root      8 not converged, maximum delta is    0.000079199139884
 Root      9 not converged, maximum delta is    0.000008452488218
 Root     10 not converged, maximum delta is    0.000015283955737
 Root     11 not converged, maximum delta is    0.000009431703908
 Root     12 not converged, maximum delta is    0.000014241093604
 Root     13 not converged, maximum delta is    0.000021030939192
 Root     14 not converged, maximum delta is    0.000007185768888
 Root     15 not converged, maximum delta is    0.000017632031694
 Excitation Energies [eV] at current iteration:
 Root      1 :     4.487614706589098   Change is   -0.000000160931960
 Root      2 :     4.662579364502720   Change is   -0.000000007616101
 Root      3 :     5.019150801549875   Change is   -0.000000034341481
 Root      4 :     5.825012208532577   Change is   -0.000000005264058
 Root      5 :     5.903277135660281   Change is   -0.000000048191633
 Root      6 :     6.115723191670202   Change is   -0.000000299800431
 Root      7 :     6.139958801572097   Change is   -0.000002389394764
 Root      8 :     6.386135890833386   Change is   -0.000002889128070
 Root      9 :     6.497556548630088   Change is   -0.000000037068462
 Root     10 :     6.862209414622131   Change is   -0.000000052831786
 Root     11 :     6.972860175300001   Change is   -0.000000026581596
 Root     12 :     7.306553151850021   Change is   -0.000000072085612
 Root     13 :     7.421630149046531   Change is   -0.000000125015045
 Root     14 :     7.521243372966801   Change is   -0.000000010792079
 Root     15 :     7.665716006522579   Change is   -0.000000091086780
 Convergence achieved on expansion vectors.
 ***********************************************************************
 Excited states from <AA,BB:AA,BB> singles matrix:
 ***********************************************************************
 
 1PDM for each excited state written to RWF  633
 Ground to excited state transition densities written to RWF  633
 Ground to excited state transition electric dipole moments (Au):
       state          X           Y           Z        Dip. S.      Osc.
         1         0.8106      0.2311     -0.0083      0.7106      0.0781
         2        -0.1624     -0.1023      0.0454      0.0389      0.0044
         3        -0.0378      0.2754     -0.0275      0.0780      0.0096
         4        -0.0411      0.0092      0.0756      0.0075      0.0011
         5         0.0688      0.1703      0.1003      0.0438      0.0063
         6         0.1577     -0.3631     -0.0187      0.1570      0.0235
         7        -0.6159      1.1901     -0.0324      1.7968      0.2703
         8        -0.7567     -0.9415      0.0577      1.4625      0.2288
         9        -0.1050     -0.0578      0.0369      0.0157      0.0025
        10        -0.0118      0.0362      0.1123      0.0141      0.0024
        11        -0.0607     -0.0203      0.0286      0.0049      0.0008
        12        -0.0666      0.0389     -0.0703      0.0109      0.0019
        13        -0.0498      0.0256     -0.0237      0.0037      0.0007
        14         0.0359      0.0023      0.1921      0.0382      0.0070
        15        -0.0013      0.0694     -0.1142      0.0179      0.0034
 Ground to excited state transition velocity dipole moments (Au):
       state          X           Y           Z        Dip. S.      Osc.
         1        -0.0314     -0.0242     -0.0043      0.0016      0.0064
         2         0.0046      0.0068     -0.0071      0.0001      0.0005
         3        -0.0204     -0.0169      0.0058      0.0007      0.0027
         4         0.0063      0.0000     -0.0171      0.0003      0.0010
         5        -0.0099     -0.0317     -0.0748      0.0067      0.0206
         6        -0.0253      0.0800      0.0362      0.0084      0.0248
         7         0.1037     -0.2485      0.0221      0.0730      0.2157
         8         0.1253      0.2088      0.0080      0.0594      0.1686
         9         0.0186      0.0147     -0.1688      0.0291      0.0811
        10         0.0040     -0.0095      0.0210      0.0005      0.0014
        11         0.0030      0.0037     -0.0601      0.0036      0.0094
        12         0.0154     -0.0093     -0.0229      0.0008      0.0021
        13         0.0066     -0.0092      0.0421      0.0019      0.0046
        14        -0.0071      0.0026     -0.0120      0.0002      0.0005
        15         0.0032     -0.0169      0.1183      0.0143      0.0338
 Ground to excited state transition magnetic dipole moments (Au):
       state          X           Y           Z
         1        -0.0395     -0.1001      0.5630
         2        -0.0804     -0.5881     -0.0871
         3         0.0280     -0.0626     -0.0556
         4         0.3658     -0.0576     -0.0036
         5         0.0144     -0.0478      0.0073
         6        -0.1165     -0.1540      0.0306
         7        -0.1044     -0.0034     -0.1278
         8        -0.0126      0.0527     -0.0222
         9         0.1115      0.2681     -0.0117
        10         1.6252     -0.1943      0.0127
        11        -0.2215     -0.7487     -0.0210
        12        -0.4713     -0.9609     -0.0493
        13         0.0402      0.0358     -0.0373
        14         0.0895      0.0734      0.0275
        15         0.6617     -0.0764      0.0026
 Ground to excited state transition velocity quadrupole moments (Au):
       state          XX          YY          ZZ          XY          XZ          YZ
         1        -0.0098      0.0050      0.0177      0.4855     -0.0473      0.0017
         2        -0.0044      0.0027     -0.0150     -0.0969     -0.1664     -0.0081
         3         0.1099     -0.1393      0.0652     -0.1539     -0.0165      0.0023
         4        -0.0044      0.0134     -0.0170      0.0353      0.0918      0.2547
         5         0.0521     -0.0306      0.0027     -0.0248     -0.0092      0.0887
         6        -0.1024      0.0480      0.0216     -0.0511      0.0953     -0.2091
         7         0.3284     -0.1658     -0.0175      0.3124      0.0328     -0.0722
         8        -0.2707      0.1796      0.0274      0.4050     -0.0201      0.0041
         9        -0.0006      0.0264     -0.0034      0.0542     -0.0185      0.0853
        10         0.0169      0.0007      0.0060      0.0424      0.0041     -0.1062
        11        -0.0020     -0.0173      0.0014      0.0051      0.3583      0.0528
        12         0.0259      0.0116      0.0071      0.0176     -0.1517     -0.0561
        13         0.0135     -0.0016     -0.0183     -0.0099     -0.0110      0.1871
        14        -0.0189      0.0083      0.0073      0.0026     -0.0019     -0.0168
        15         0.0081     -0.0183      0.0120     -0.0187     -0.0900      0.3537
 <0|del|b> * <b|rxdel|0> + <0|del|b> * <b|delr+rdel|0>
 Rotatory Strengths (R) in cgs (10**-40 erg-esu-cm/Gauss)
       state          XX          YY          ZZ    R(velocity)    E-M Angle
         1        -6.9013      1.8375     10.4277      1.7880       86.86
         2        -3.1703     -0.9915    -11.2071     -5.1229      124.85
         3        -0.8269     -0.0936      1.5645      0.2146       85.97
         4        -0.8898      7.5126      1.1456      2.5895       69.62
         5         4.1252     -5.5594      4.1401      0.9020       78.41
         6       -32.5437     17.5894    -11.0656     -8.6733      117.58
         7        20.4828    -43.9385    -16.7145    -13.3900      106.71
         8        27.5257     -6.7846      7.1165      9.2858       49.60
         9        -4.3947     21.8920      6.1375      7.8783       80.73
        10         4.2647      7.7483     12.3591      8.1240       76.89
        11        -4.3329      1.4567     -3.1414     -2.0059       92.66
        12        10.9032     -8.6799      5.2590      2.4941       84.77
        13        -3.1360      0.4357     -1.5438     -1.4147      124.99
        14        -0.2119     -1.0479     -0.7327     -0.6642      117.40
        15        -2.6737      7.2720      4.7773      3.1252       87.31
 1/2[<0|r|b>*<b|rxdel|0> + (<0|rxdel|b>*<b|r|0>)*]
 Rotatory Strengths (R) in cgs (10**-40 erg-esu-cm/Gauss)
       state          XX          YY          ZZ     R(length)
         1        22.6625     16.3489      3.3095     14.1070
         2        -9.2308    -42.5425      2.7959    -16.3258
         3         0.7488     12.1903     -1.0820      3.9524
         4        10.6299      0.3744      0.1921      3.7321
         5        -0.6995      5.7622     -0.5161      1.5155
         6        12.9925    -39.5332      0.4042     -8.7122
         7       -45.4744      2.8199     -2.9275    -15.1940
         8        -6.7442     35.0916      0.9045      9.7506
         9         8.2810     10.9601      0.3064      6.5158
        10        13.5649      4.9715     -1.0103      5.8420
        11        -9.5138    -10.7290      0.4248     -6.6060
        12       -22.1870     26.4316     -2.4517      0.5976
        13         1.4139     -0.6483     -0.6261      0.0465
        14        -2.2686     -0.1178     -3.7348     -2.0404
        15         0.6080      3.7510      0.2115      1.5235
  1/2[<0|del|b>*<b|r|0> + (<0|r|b>*<b|del|0>)*] (Au)
       state          X           Y           Z        Dip. S.   Osc.(frdel)
         1        -0.0255     -0.0056      0.0000      0.0310      0.0207
         2        -0.0008     -0.0007     -0.0003      0.0018      0.0012
         3         0.0008     -0.0047     -0.0002      0.0041      0.0027
         4        -0.0003      0.0000     -0.0013      0.0016      0.0010
         5        -0.0007     -0.0054     -0.0075      0.0136      0.0090
         6        -0.0040     -0.0290     -0.0007      0.0337      0.0225
         7        -0.0639     -0.2958     -0.0007      0.3603      0.2402
         8        -0.0948     -0.1966      0.0005      0.2909      0.1940
         9        -0.0019     -0.0008     -0.0062      0.0090      0.0060
        10         0.0000     -0.0003      0.0024     -0.0020     -0.0013
        11        -0.0002     -0.0001     -0.0017      0.0020      0.0013
        12        -0.0010     -0.0004      0.0016     -0.0002     -0.0001
        13        -0.0003     -0.0002     -0.0010      0.0016      0.0010
        14        -0.0003      0.0000     -0.0023      0.0026      0.0017
        15         0.0000     -0.0012     -0.0135      0.0147      0.0098

 Excitation energies and oscillator strengths:
 
 Excited State   1:      Singlet-A      4.4876 eV  276.28 nm  f=0.0781  <S**2>=0.000
      12 -> 15         0.22593
      13 -> 14         0.64837
      13 -> 16         0.12308
 This state for optimization and/or second-order correction.
 Total Energy, E(CIS) =  0.209172912013    
 Copying the excited state density for this state as the 1-particle RhoCI density.
 
 Excited State   2:      Singlet-A      4.6626 eV  265.91 nm  f=0.0044  <S**2>=0.000
      13 -> 14        -0.12155
      13 -> 15        -0.12447
      13 -> 16         0.65719
      13 -> 17        -0.10730
 
 Excited State   3:      Singlet-A      5.0192 eV  247.02 nm  f=0.0096  <S**2>=0.000
      12 -> 14        -0.40608
      13 -> 15         0.56006
      13 -> 16         0.12944
 
 Excited State   4:      Singlet-A      5.8250 eV  212.85 nm  f=0.0011  <S**2>=0.000
      12 -> 18         0.20976
      12 -> 19         0.13211
      12 -> 21         0.11805
      13 -> 18         0.49068
      13 -> 19         0.26618
      13 -> 21         0.20754
      13 -> 23         0.18613
 
 Excited State   5:      Singlet-A      5.9033 eV  210.03 nm  f=0.0063  <S**2>=0.000
       7 -> 16        -0.14577
      12 -> 15        -0.12060
      12 -> 16         0.64180
      12 -> 17        -0.10370
 
 Excited State   6:      Singlet-A      6.1157 eV  202.73 nm  f=0.0235  <S**2>=0.000
      12 -> 14        -0.14637
      12 -> 18         0.18141
      12 -> 19        -0.18236
      12 -> 21        -0.10646
      12 -> 23         0.12796
      13 -> 15        -0.11041
      13 -> 17         0.12077
      13 -> 18        -0.24100
      13 -> 19         0.40437
      13 -> 21         0.22374
      13 -> 23        -0.19123
 
 Excited State   7:      Singlet-A      6.1400 eV  201.93 nm  f=0.2703  <S**2>=0.000
      12 -> 14         0.48397
      12 -> 15         0.24095
      13 -> 15         0.35060
      13 -> 19         0.11298
 
 Excited State   8:      Singlet-A      6.3861 eV  194.15 nm  f=0.2288  <S**2>=0.000
      12 -> 14        -0.19424
      12 -> 15         0.59017
      12 -> 16         0.13032
      13 -> 14        -0.20457
      13 -> 15        -0.11489
 
 Excited State   9:      Singlet-A      6.4976 eV  190.82 nm  f=0.0025  <S**2>=0.000
      11 -> 14         0.11191
      12 -> 17        -0.16200
      13 -> 17         0.58844
      13 -> 18         0.18535
      13 -> 19        -0.16607
 
 Excited State  10:      Singlet-A      6.8622 eV  180.68 nm  f=0.0024  <S**2>=0.000
       9 -> 14        -0.11608
       9 -> 15         0.11589
      10 -> 14        -0.30705
      10 -> 15        -0.18165
      11 -> 14         0.53869
      12 -> 17         0.10893
 
 Excited State  11:      Singlet-A      6.9729 eV  177.81 nm  f=0.0008  <S**2>=0.000
      12 -> 17         0.43399
      12 -> 18         0.17069
      12 -> 19        -0.23447
      12 -> 20         0.24426
      12 -> 21         0.17208
      12 -> 22         0.14805
      12 -> 23        -0.14472
      13 -> 19        -0.18472
      13 -> 21         0.16106
 
 Excited State  12:      Singlet-A      7.3066 eV  169.69 nm  f=0.0019  <S**2>=0.000
       9 -> 14         0.29043
      10 -> 14        -0.24400
      10 -> 15         0.14297
      11 -> 15         0.46787
      12 -> 20        -0.10286
      13 -> 19        -0.10623
      13 -> 21         0.17746
 
 Excited State  13:      Singlet-A      7.4216 eV  167.06 nm  f=0.0007  <S**2>=0.000
       9 -> 15        -0.11149
      10 -> 14        -0.21736
      11 -> 14        -0.12474
      11 -> 15         0.15601
      12 -> 17         0.12071
      12 -> 18        -0.17307
      12 -> 19         0.16321
      12 -> 20         0.25576
      13 -> 17         0.17960
      13 -> 19         0.33831
      13 -> 20         0.10715
      13 -> 21        -0.22354
 
 Excited State  14:      Singlet-A      7.5212 eV  164.85 nm  f=0.0070  <S**2>=0.000
      11 -> 15        -0.11142
      12 -> 17         0.12429
      12 -> 19         0.29764
      13 -> 20         0.47649
      13 -> 21         0.24748
      13 -> 23        -0.14582
 
 Excited State  15:      Singlet-A      7.6657 eV  161.74 nm  f=0.0034  <S**2>=0.000
       9 -> 15         0.13007
      10 -> 14         0.15936
      12 -> 18         0.38038
      12 -> 19         0.22804
      12 -> 22        -0.21678
      13 -> 17         0.10852
      13 -> 18        -0.25647
      13 -> 22         0.12781
      13 -> 23         0.18392
      13 -> 24         0.17211
 SavETr:  write IOETrn=   770 NScale= 10 NData=  16 NLR=1 NState=   15 LETran=     280.
 The selected state is a singlet
 CISAX will form     1 AO SS matrices at one time.
 NMat=     1 NSing=     1 JSym2X= 0.
 Leave Link  914 at Tue Dec 15 16:29:45 2015, MaxMem=    33554432 cpu:         0.1
 (Enter /home/Applications/g09/g09/l1002.exe)
 Minotr:  Closed shell wavefunction.
          Computing CIS/TD-HF/TD-KS derivatives.
          Using Z-Vector for PSCF gradient.
          Skipping F1 and S1 gradient terms here.
          IDoAtm=111111111
          Direct CPHF calculation.
          Differentiating once with respect to electric field.
                with respect to dipole field.
          Differentiating once with respect to nuclear coordinates.
          Electric field/nuclear overlap derivatives assumed to be zero.
          Requested convergence is 1.0D-10 RMS, and 1.0D-09 maximum.
          NewPWx=T KeepS1=F KeepF1=F KeepIn=T MapXYZ=F SortEE=F KeepMc=T.
          MDV=      33495423 using IRadAn=       0.
 Keep J ints in memory in canonical form, NReq=871704.
 FoFCou: FMM=F IPFlag=           0 FMFlag=           0 FMFlg1=           0
         NFxFlg=           0 DoJE=F BraDBF=F KetDBF=F FulRan=T
         wScrn=  0.000000 ICntrl=     600 IOpCl=  2 I1Cent=           0 NGrid=           0
         NMat0=    1 NMatS0=     54 NMatT0=    0 NMatD0=    1 NMtDS0=    0 NMtDT0=    0
 Symmetry not used in FoFCou.
          Solving linear equations separately, MaxMat=       0.
          There are     1 degrees of freedom in the 1st order CPHF.  IDoFFX=0 NUNeed=     1.
 LinEq1:  Iter=  0 NonCon=     1 RMS=1.17D-02 Max=6.58D-02 NDo=     1
 AX will form     1 AO Fock derivatives at one time.
 LinEq1:  Iter=  1 NonCon=     1 RMS=2.39D-03 Max=1.24D-02 NDo=     1
 LinEq1:  Iter=  2 NonCon=     1 RMS=3.46D-04 Max=1.82D-03 NDo=     1
 LinEq1:  Iter=  3 NonCon=     1 RMS=4.56D-05 Max=1.89D-04 NDo=     1
 LinEq1:  Iter=  4 NonCon=     1 RMS=4.43D-06 Max=1.38D-05 NDo=     1
 LinEq1:  Iter=  5 NonCon=     1 RMS=5.80D-07 Max=2.93D-06 NDo=     1
 LinEq1:  Iter=  6 NonCon=     1 RMS=8.87D-08 Max=3.48D-07 NDo=     1
 LinEq1:  Iter=  7 NonCon=     1 RMS=1.53D-08 Max=6.42D-08 NDo=     1
 LinEq1:  Iter=  8 NonCon=     1 RMS=2.11D-09 Max=6.98D-09 NDo=     1
 LinEq1:  Iter=  9 NonCon=     1 RMS=2.65D-10 Max=1.04D-09 NDo=     1
 LinEq1:  Iter= 10 NonCon=     0 RMS=3.82D-11 Max=1.59D-10 NDo=     1
 Linear equations converged to 1.000D-10 1.000D-09 after    10 iterations.
 End of Minotr F.D. properties file   721 does not exist.
 End of Minotr F.D. properties file   722 does not exist.
 End of Minotr F.D. properties file   788 does not exist.
 Leave Link 1002 at Tue Dec 15 16:29:45 2015, MaxMem=    33554432 cpu:         0.0
 (Enter /home/Applications/g09/g09/l601.exe)
 Copying SCF densities to generalized density rwf, IOpCl= 0 IROHF=0.

 **********************************************************************

            Population analysis using the SCF density.

 **********************************************************************

 Orbital symmetries:
       Occupied  (A) (A) (A) (A) (A) (A) (A) (A) (A) (A) (A) (A)
                 (A)
       Virtual   (A) (A) (A) (A) (A) (A) (A) (A) (A) (A) (A)
 The electronic state is 1-A.
 Alpha  occ. eigenvalues --   -1.61426  -1.24105  -1.11013  -0.83715  -0.81299
 Alpha  occ. eigenvalues --   -0.69757  -0.62852  -0.58058  -0.50841  -0.50321
 Alpha  occ. eigenvalues --   -0.48480  -0.38957  -0.34444
 Alpha virt. eigenvalues --    0.03507   0.06358   0.08807   0.13781   0.15364
 Alpha virt. eigenvalues --    0.15877   0.17638   0.18965   0.19702   0.20801
 Alpha virt. eigenvalues --    0.23488
     Molecular Orbital Coefficients:
                           1         2         3         4         5
                           O         O         O         O         O
     Eigenvalues --    -1.61426  -1.24105  -1.11013  -0.83715  -0.81299
   1 1   C  1S          0.26393  -0.50526  -0.25876  -0.33084  -0.23244
   2        1PX        -0.05336   0.08523  -0.14496  -0.20181   0.20423
   3        1PY        -0.11833   0.04466   0.10959  -0.01122  -0.29168
   4        1PZ         0.00319  -0.00683  -0.00383  -0.00798  -0.00342
   5 2   C  1S          0.39759  -0.13042  -0.48572   0.07076   0.38658
   6        1PX        -0.20327  -0.04361  -0.01613  -0.08068   0.12043
   7        1PY        -0.04645  -0.27255  -0.00388  -0.36395   0.01611
   8        1PZ        -0.00196  -0.00038   0.00168  -0.00160   0.00394
   9 3   O  1S          0.66517   0.54254   0.03466  -0.04843  -0.29959
  10        1PX         0.01394   0.02912  -0.38085   0.50034   0.02110
  11        1PY         0.20769  -0.04438  -0.03025   0.05203   0.19282
  12        1PZ         0.00375   0.00158   0.00131  -0.00209   0.00679
  13 4   C  1S          0.32195  -0.13258   0.54528  -0.08226   0.39123
  14        1PX         0.18089   0.05441   0.01762  -0.13802  -0.15421
  15        1PY        -0.00111  -0.20065   0.00367   0.34969  -0.00820
  16        1PZ        -0.00459   0.00012  -0.00604   0.00340   0.00045
  17 5   C  1S          0.24244  -0.46918   0.28293   0.39056  -0.25347
  18        1PX         0.07009  -0.10411  -0.13306  -0.19582  -0.17090
  19        1PY        -0.09737   0.03044  -0.12919   0.01235  -0.27517
  20        1PZ         0.00064  -0.00128   0.00194   0.00252   0.00286
  21 6   H  1S          0.04968  -0.14459   0.11235   0.24695  -0.15653
  22 7   H  1S          0.06937  -0.03735   0.22073  -0.06444   0.26463
  23 8   H  1S          0.07708  -0.02909  -0.18367   0.05813   0.22403
  24 9   H  1S          0.05788  -0.17086  -0.09699  -0.20634  -0.19160
                           6         7         8         9        10
                           O         O         O         O         O
     Eigenvalues --    -0.69757  -0.62852  -0.58058  -0.50841  -0.50321
   1 1   C  1S         -0.10511  -0.01146  -0.17415  -0.03838  -0.01937
   2        1PX        -0.17887  -0.00541   0.02454   0.35445   0.14964
   3        1PY        -0.23064   0.01336  -0.22916   0.43289  -0.22237
   4        1PZ        -0.01233   0.21986  -0.01189   0.02311  -0.00374
   5 2   C  1S         -0.08786   0.00102   0.15746   0.00106   0.06978
   6        1PX        -0.36360  -0.00092   0.39498   0.03610  -0.29612
   7        1PY         0.10053  -0.01172   0.15478  -0.21069   0.23173
   8        1PZ        -0.01408   0.43348   0.00092  -0.00532  -0.00484
   9 3   O  1S         -0.18817  -0.01178   0.05809  -0.11085  -0.02622
  10        1PX        -0.08828  -0.00727  -0.39008  -0.07018  -0.03354
  11        1PY         0.49345   0.01228  -0.14415   0.46227   0.21431
  12        1PZ        -0.00877   0.78213  -0.01254  -0.03672   0.01884
  13 4   C  1S         -0.11753   0.00220  -0.14830   0.06287  -0.08947
  14        1PX         0.36291   0.03206   0.36360   0.25110  -0.15585
  15        1PY         0.12614   0.00021   0.03411   0.08292  -0.31376
  16        1PZ        -0.00700   0.33950  -0.01128  -0.01647   0.00935
  17 5   C  1S         -0.06078   0.00188   0.18982  -0.05444  -0.01020
  18        1PX         0.17376   0.00424  -0.16905  -0.31377  -0.29144
  19        1PY        -0.18375   0.00168   0.09310   0.01994   0.47354
  20        1PZ        -0.00597   0.18506  -0.00417   0.01028   0.00296
  21 6   H  1S         -0.18348   0.00120   0.23509   0.14641   0.43505
  22 7   H  1S         -0.28899  -0.02041  -0.32520  -0.16164   0.17649
  23 8   H  1S         -0.25968   0.01206   0.30052   0.09624  -0.24909
  24 9   H  1S         -0.22984   0.00948  -0.23463   0.41724  -0.10400
                          11        12        13        14        15
                           O         O         O         V         V
     Eigenvalues --    -0.48480  -0.38957  -0.34444   0.03507   0.06358
   1 1   C  1S          0.05872  -0.02147   0.01075   0.00529  -0.03271
   2        1PX         0.41845  -0.03003   0.00672  -0.00256  -0.01473
   3        1PY        -0.17143  -0.02040   0.01065   0.00820  -0.02724
   4        1PZ         0.02112   0.61433  -0.36274  -0.12782   0.64640
   5 2   C  1S         -0.09448   0.00511  -0.00164  -0.00577   0.03103
   6        1PX        -0.13466  -0.00293   0.01738  -0.01278   0.00468
   7        1PY         0.32670   0.00705  -0.01418   0.01523  -0.02676
   8        1PZ        -0.00084   0.15778  -0.55262   0.46779  -0.50775
   9 3   O  1S          0.17666   0.00105  -0.00402   0.00637  -0.02372
  10        1PX         0.11411  -0.00612   0.00117  -0.00131   0.00997
  11        1PY        -0.29000   0.00085   0.00183   0.00962  -0.04123
  12        1PZ         0.00369  -0.46976   0.03729  -0.38458   0.12297
  13 4   C  1S         -0.02429  -0.00203   0.01833   0.01015   0.02347
  14        1PX        -0.04976  -0.00728   0.01585  -0.00820   0.03218
  15        1PY         0.41180  -0.01075  -0.00435   0.00540  -0.04074
  16        1PZ         0.01803   0.16204   0.64510   0.62794   0.21437
  17 5   C  1S         -0.02819   0.00005  -0.00369  -0.00491   0.01030
  18        1PX        -0.36574   0.02600   0.00960  -0.01147  -0.00208
  19        1PY        -0.32538   0.01457   0.00829   0.00270  -0.00628
  20        1PZ         0.02811   0.58963   0.37922  -0.47041  -0.50001
  21 6   H  1S         -0.01068   0.00016   0.00214  -0.00113   0.00285
  22 7   H  1S         -0.16447   0.00832  -0.00797  -0.01024  -0.02325
  23 8   H  1S         -0.28430   0.00523   0.00249   0.01409  -0.04144
  24 9   H  1S          0.08544  -0.00704  -0.00439  -0.00452   0.03898
                          16        17        18        19        20
                           V         V         V         V         V
     Eigenvalues --     0.08807   0.13781   0.15364   0.15877   0.17638
   1 1   C  1S          0.02218   0.21471  -0.23977   0.09618   0.08529
   2        1PX        -0.04274  -0.22550  -0.26216   0.32089  -0.41777
   3        1PY         0.03805  -0.11952  -0.00323  -0.29041   0.07901
   4        1PZ         0.06050   0.00747  -0.03732   0.00237  -0.00239
   5 2   C  1S         -0.28703  -0.25327   0.23323  -0.30513   0.16615
   6        1PX         0.07818  -0.41942  -0.25368   0.03851   0.25393
   7        1PY         0.32244  -0.04823   0.02208  -0.23132  -0.00722
   8        1PZ        -0.06309  -0.01780   0.00368   0.01107   0.00241
   9 3   O  1S          0.24682  -0.07381  -0.05118  -0.03579   0.05684
  10        1PX        -0.11221   0.02501  -0.24959   0.13840  -0.11718
  11        1PY         0.42141  -0.14358  -0.10326   0.01179   0.07340
  12        1PZ         0.03213   0.00308  -0.00360  -0.00873   0.00306
  13 4   C  1S         -0.28774   0.17096  -0.37414  -0.27036  -0.11097
  14        1PX        -0.31881  -0.06631  -0.06307   0.31603  -0.05200
  15        1PY         0.31934  -0.12310  -0.25261  -0.18593   0.19369
  16        1PZ         0.02388  -0.01144   0.01107   0.01176   0.00622
  17 5   C  1S          0.02479  -0.28069   0.25183   0.10883  -0.42450
  18        1PX        -0.02871  -0.19128  -0.30096   0.18311  -0.01328
  19        1PY         0.02454  -0.13010  -0.31180  -0.34990  -0.31289
  20        1PZ        -0.03687   0.00501   0.02031  -0.00536  -0.00234
  21 6   H  1S         -0.11119   0.24122  -0.20431   0.27713   0.51963
  22 7   H  1S          0.25361  -0.29957   0.15773   0.41140   0.13027
  23 8   H  1S          0.41474   0.53780   0.03680   0.11356  -0.27560
  24 9   H  1S         -0.07018   0.03025   0.38734   0.01079   0.06035
                          21        22        23        24
                           V         V         V         V
     Eigenvalues --     0.18965   0.19702   0.20801   0.23488
   1 1   C  1S          0.43893   0.25162  -0.11442  -0.08032
   2        1PX        -0.00595  -0.08276   0.25032  -0.24710
   3        1PY        -0.00635   0.33759   0.53032   0.10847
   4        1PZ         0.02567   0.02843   0.01955  -0.01018
   5 2   C  1S         -0.09438   0.10472   0.17435  -0.12363
   6        1PX         0.26551  -0.20751  -0.19750   0.27343
   7        1PY        -0.28824  -0.01383   0.24322   0.49783
   8        1PZ         0.00355  -0.01311  -0.01590   0.00566
   9 3   O  1S          0.04445  -0.09289  -0.00363   0.04546
  10        1PX        -0.05533  -0.01564  -0.02430   0.55822
  11        1PY         0.19653  -0.20046  -0.02647   0.10124
  12        1PZ         0.00126  -0.00328   0.00344  -0.00249
  13 4   C  1S         -0.09919  -0.09027  -0.06847   0.11030
  14        1PX        -0.24972   0.42786  -0.17074   0.27899
  15        1PY        -0.30647   0.18646  -0.21608  -0.33935
  16        1PZ         0.00552   0.00363   0.00279  -0.00936
  17 5   C  1S          0.13388  -0.11343   0.12000   0.02154
  18        1PX        -0.37965  -0.32369   0.27298  -0.19240
  19        1PY        -0.20782   0.12077  -0.34933  -0.09422
  20        1PZ         0.00539  -0.00591  -0.00575   0.00919
  21 6   H  1S         -0.18578  -0.15554   0.24235  -0.04688
  22 7   H  1S         -0.21340   0.40834  -0.13649  -0.00562
  23 8   H  1S         -0.18266   0.05855   0.07388   0.01534
  24 9   H  1S         -0.33999  -0.39873  -0.37169   0.06793
     Density Matrix:
                           1         2         3         4         5
   1 1   C  1S          1.20555
   2        1PX         0.04606   0.94053
   3        1PY         0.06307   0.04320   0.97171
   4        1PZ        -0.01420  -0.00596  -0.00138   1.11751
   5 2   C  1S          0.31597   0.18689  -0.46889   0.00613   1.22362
   6        1PX        -0.12522   0.07486   0.16850  -0.01896   0.11949
   7        1PY         0.45643   0.27765  -0.53113   0.01912   0.00021
   8        1PZ        -0.02775  -0.02052  -0.00419   0.78544   0.00627
   9 3   O  1S          0.00598   0.04021  -0.01066   0.00421   0.12934
  10        1PX         0.00913  -0.03083   0.02691  -0.00383   0.32678
  11        1PY        -0.08558   0.00217   0.06973   0.00390   0.31616
  12        1PZ         0.00972   0.00859   0.00484  -0.26150   0.00238
  13 4   C  1S         -0.03315   0.01053   0.03036  -0.00752   0.01783
  14        1PX        -0.02771  -0.04438   0.03018  -0.00974   0.01263
  15        1PY        -0.01119   0.08701  -0.02324   0.00687  -0.04191
  16        1PZ         0.00568   0.00450  -0.00056  -0.11931  -0.00121
  17 5   C  1S          0.26287  -0.48330   0.00991  -0.00180  -0.02613
  18        1PX         0.43385  -0.66510   0.02898   0.00600  -0.00346
  19        1PY         0.05208  -0.11127   0.11763   0.00022   0.01849
  20        1PZ        -0.01867   0.00060  -0.00998   0.53254   0.00154
  21 6   H  1S         -0.04909   0.07611  -0.00039  -0.00026   0.05133
  22 7   H  1S          0.03996  -0.05604  -0.00506   0.00463   0.04976
  23 8   H  1S         -0.05913  -0.02890   0.08069   0.00332   0.58825
  24 9   H  1S          0.59108   0.40497   0.65839   0.04167  -0.05584
                           6         7         8         9        10
   6        1PX         0.92028
   7        1PY        -0.08640   0.89691
   8        1PZ        -0.00527   0.00632   1.03691
   9 3   O  1S         -0.24065  -0.20168  -0.00401   1.82643
  10        1PX        -0.33136  -0.42760  -0.00968   0.00833   1.15199
  11        1PY        -0.52966  -0.25722  -0.01130  -0.31348  -0.03385
  12        1PZ        -0.01544  -0.00452   0.48909  -0.00649   0.00792
  13 4   C  1S          0.00363  -0.04336  -0.01169   0.10475  -0.35178
  14        1PX         0.05396   0.02256  -0.00411   0.24637  -0.53406
  15        1PY        -0.02453  -0.02075  -0.00144  -0.14782   0.38969
  16        1PZ         0.00706  -0.00787  -0.36731  -0.00898   0.01834
  17 5   C  1S          0.01288  -0.01503   0.00562  -0.00536   0.00855
  18        1PX        -0.03598  -0.07092   0.00148  -0.03712  -0.02496
  19        1PY        -0.01118  -0.03414  -0.00429  -0.00610  -0.05098
  20        1PZ         0.00192   0.00501  -0.07263   0.00072   0.00117
  21 6   H  1S         -0.01375   0.05729  -0.00315   0.02414  -0.05530
  22 7   H  1S         -0.07686  -0.04787   0.00436  -0.04525   0.05653
  23 8   H  1S          0.67902  -0.32619   0.01976  -0.05800  -0.04254
  24 9   H  1S          0.03201  -0.05470   0.01204   0.02184   0.04245
                          11        12        13        14        15
  11        1PY         1.38811
  12        1PZ        -0.01077   1.67162
  13 4   C  1S          0.21558   0.01341   1.25417
  14        1PX         0.44379   0.01806  -0.10721   0.86777
  15        1PY        -0.13169  -0.01004  -0.00077   0.09874   0.90947
  16        1PZ        -0.01539   0.42898   0.01507   0.01065  -0.00295
  17 5   C  1S         -0.08490  -0.00166   0.28069   0.08956   0.43894
  18        1PX        -0.02235  -0.00818  -0.13386   0.08915  -0.23222
  19        1PY         0.06187  -0.00034  -0.47959  -0.12573  -0.60202
  20        1PZ        -0.00165  -0.23640   0.01906   0.00797   0.00756
  21 6   H  1S          0.07121   0.00182  -0.05568  -0.03678  -0.05377
  22 7   H  1S         -0.05624  -0.00496   0.63300  -0.60276  -0.40118
  23 8   H  1S         -0.05735  -0.00459   0.06529   0.11820  -0.05988
  24 9   H  1S          0.08236  -0.00500   0.05128   0.01156   0.05759
                          16        17        18        19        20
  16        1PZ         1.11721
  17 5   C  1S         -0.00964   1.23870
  18        1PX         0.01623  -0.03458   0.95544
  19        1PY         0.01579   0.06440  -0.04133   0.95238
  20        1PZ         0.80691  -0.00253   0.00799   0.00820   1.05339
  21 6   H  1S          0.00351   0.58293  -0.51689   0.58080   0.00869
  22 7   H  1S         -0.01088  -0.05598   0.02204   0.09339  -0.00692
  23 8   H  1S         -0.00602   0.04890   0.06772   0.01339  -0.00132
  24 9   H  1S         -0.00657  -0.03973  -0.04882   0.00680   0.00735
                          21        22        23        24
  21 6   H  1S          0.84249
  22 7   H  1S          0.01544   0.80651
  23 8   H  1S         -0.01247  -0.02847   0.80830
  24 9   H  1S         -0.00469  -0.01153   0.00667   0.84297
    Full Mulliken population analysis:
                           1         2         3         4         5
   1 1   C  1S          1.20555
   2        1PX         0.00000   0.94053
   3        1PY         0.00000   0.00000   0.97171
   4        1PZ         0.00000   0.00000   0.00000   1.11751
   5 2   C  1S          0.00000   0.00000   0.00000   0.00000   1.22362
   6        1PX         0.00000   0.00000   0.00000   0.00000   0.00000
   7        1PY         0.00000   0.00000   0.00000   0.00000   0.00000
   8        1PZ         0.00000   0.00000   0.00000   0.00000   0.00000
   9 3   O  1S          0.00000   0.00000   0.00000   0.00000   0.00000
  10        1PX         0.00000   0.00000   0.00000   0.00000   0.00000
  11        1PY         0.00000   0.00000   0.00000   0.00000   0.00000
  12        1PZ         0.00000   0.00000   0.00000   0.00000   0.00000
  13 4   C  1S          0.00000   0.00000   0.00000   0.00000   0.00000
  14        1PX         0.00000   0.00000   0.00000   0.00000   0.00000
  15        1PY         0.00000   0.00000   0.00000   0.00000   0.00000
  16        1PZ         0.00000   0.00000   0.00000   0.00000   0.00000
  17 5   C  1S          0.00000   0.00000   0.00000   0.00000   0.00000
  18        1PX         0.00000   0.00000   0.00000   0.00000   0.00000
  19        1PY         0.00000   0.00000   0.00000   0.00000   0.00000
  20        1PZ         0.00000   0.00000   0.00000   0.00000   0.00000
  21 6   H  1S          0.00000   0.00000   0.00000   0.00000   0.00000
  22 7   H  1S          0.00000   0.00000   0.00000   0.00000   0.00000
  23 8   H  1S          0.00000   0.00000   0.00000   0.00000   0.00000
  24 9   H  1S          0.00000   0.00000   0.00000   0.00000   0.00000
                           6         7         8         9        10
   6        1PX         0.92028
   7        1PY         0.00000   0.89691
   8        1PZ         0.00000   0.00000   1.03691
   9 3   O  1S          0.00000   0.00000   0.00000   1.82643
  10        1PX         0.00000   0.00000   0.00000   0.00000   1.15199
  11        1PY         0.00000   0.00000   0.00000   0.00000   0.00000
  12        1PZ         0.00000   0.00000   0.00000   0.00000   0.00000
  13 4   C  1S          0.00000   0.00000   0.00000   0.00000   0.00000
  14        1PX         0.00000   0.00000   0.00000   0.00000   0.00000
  15        1PY         0.00000   0.00000   0.00000   0.00000   0.00000
  16        1PZ         0.00000   0.00000   0.00000   0.00000   0.00000
  17 5   C  1S          0.00000   0.00000   0.00000   0.00000   0.00000
  18        1PX         0.00000   0.00000   0.00000   0.00000   0.00000
  19        1PY         0.00000   0.00000   0.00000   0.00000   0.00000
  20        1PZ         0.00000   0.00000   0.00000   0.00000   0.00000
  21 6   H  1S          0.00000   0.00000   0.00000   0.00000   0.00000
  22 7   H  1S          0.00000   0.00000   0.00000   0.00000   0.00000
  23 8   H  1S          0.00000   0.00000   0.00000   0.00000   0.00000
  24 9   H  1S          0.00000   0.00000   0.00000   0.00000   0.00000
                          11        12        13        14        15
  11        1PY         1.38811
  12        1PZ         0.00000   1.67162
  13 4   C  1S          0.00000   0.00000   1.25417
  14        1PX         0.00000   0.00000   0.00000   0.86777
  15        1PY         0.00000   0.00000   0.00000   0.00000   0.90947
  16        1PZ         0.00000   0.00000   0.00000   0.00000   0.00000
  17 5   C  1S          0.00000   0.00000   0.00000   0.00000   0.00000
  18        1PX         0.00000   0.00000   0.00000   0.00000   0.00000
  19        1PY         0.00000   0.00000   0.00000   0.00000   0.00000
  20        1PZ         0.00000   0.00000   0.00000   0.00000   0.00000
  21 6   H  1S          0.00000   0.00000   0.00000   0.00000   0.00000
  22 7   H  1S          0.00000   0.00000   0.00000   0.00000   0.00000
  23 8   H  1S          0.00000   0.00000   0.00000   0.00000   0.00000
  24 9   H  1S          0.00000   0.00000   0.00000   0.00000   0.00000
                          16        17        18        19        20
  16        1PZ         1.11721
  17 5   C  1S          0.00000   1.23870
  18        1PX         0.00000   0.00000   0.95544
  19        1PY         0.00000   0.00000   0.00000   0.95238
  20        1PZ         0.00000   0.00000   0.00000   0.00000   1.05339
  21 6   H  1S          0.00000   0.00000   0.00000   0.00000   0.00000
  22 7   H  1S          0.00000   0.00000   0.00000   0.00000   0.00000
  23 8   H  1S          0.00000   0.00000   0.00000   0.00000   0.00000
  24 9   H  1S          0.00000   0.00000   0.00000   0.00000   0.00000
                          21        22        23        24
  21 6   H  1S          0.84249
  22 7   H  1S          0.00000   0.80651
  23 8   H  1S          0.00000   0.00000   0.80830
  24 9   H  1S          0.00000   0.00000   0.00000   0.84297
     Gross orbital populations:
                           1
   1 1   C  1S          1.20555
   2        1PX         0.94053
   3        1PY         0.97171
   4        1PZ         1.11751
   5 2   C  1S          1.22362
   6        1PX         0.92028
   7        1PY         0.89691
   8        1PZ         1.03691
   9 3   O  1S          1.82643
  10        1PX         1.15199
  11        1PY         1.38811
  12        1PZ         1.67162
  13 4   C  1S          1.25417
  14        1PX         0.86777
  15        1PY         0.90947
  16        1PZ         1.11721
  17 5   C  1S          1.23870
  18        1PX         0.95544
  19        1PY         0.95238
  20        1PZ         1.05339
  21 6   H  1S          0.84249
  22 7   H  1S          0.80651
  23 8   H  1S          0.80830
  24 9   H  1S          0.84297
          Condensed to atoms (all electrons):
               1          2          3          4          5          6
     1  C    4.235313   0.000000   0.000000   0.000000   0.000000   0.000000
     2  C    0.000000   4.077721   0.000000   0.000000   0.000000   0.000000
     3  O    0.000000   0.000000   6.038145   0.000000   0.000000   0.000000
     4  C    0.000000   0.000000   0.000000   4.148629   0.000000   0.000000
     5  C    0.000000   0.000000   0.000000   0.000000   4.199920   0.000000
     6  H    0.000000   0.000000   0.000000   0.000000   0.000000   0.842490
     7  H    0.000000   0.000000   0.000000   0.000000   0.000000   0.000000
     8  H    0.000000   0.000000   0.000000   0.000000   0.000000   0.000000
     9  H    0.000000   0.000000   0.000000   0.000000   0.000000   0.000000
               7          8          9
     1  C    0.000000   0.000000   0.000000
     2  C    0.000000   0.000000   0.000000
     3  O    0.000000   0.000000   0.000000
     4  C    0.000000   0.000000   0.000000
     5  C    0.000000   0.000000   0.000000
     6  H    0.000000   0.000000   0.000000
     7  H    0.806513   0.000000   0.000000
     8  H    0.000000   0.808299   0.000000
     9  H    0.000000   0.000000   0.842970
 Mulliken charges:
               1
     1  C   -0.235313
     2  C   -0.077721
     3  O   -0.038145
     4  C   -0.148629
     5  C   -0.199920
     6  H    0.157510
     7  H    0.193487
     8  H    0.191701
     9  H    0.157030
 Sum of Mulliken charges =   0.00000
 Mulliken charges with hydrogens summed into heavy atoms:
               1
     1  C   -0.078283
     2  C    0.113980
     3  O   -0.038145
     4  C    0.044858
     5  C   -0.042409
 Charge=              0.0000 electrons
 Dipole moment (field-independent basis, Debye):
    X=              0.0501    Y=              0.0741    Z=              0.1117  Tot=              0.1431
 N-N= 1.042221397304D+02 E-N=-1.721907594764D+02  KE=-1.665958886780D+01
 Orbital energies and kinetic energies (alpha):
                                 1                 2
   1         O                -1.614264         -1.339653
   2         O                -1.241055         -1.059863
   3         O                -1.110126         -0.964050
   4         O                -0.837151         -0.708375
   5         O                -0.812990         -0.724878
   6         O                -0.697573         -0.608946
   7         O                -0.628524         -0.502309
   8         O                -0.580585         -0.515874
   9         O                -0.508409         -0.426366
  10         O                -0.503212         -0.434151
  11         O                -0.484804         -0.394484
  12         O                -0.389574         -0.339839
  13         O                -0.344445         -0.311006
  14         V                 0.035065         -0.188419
  15         V                 0.063579         -0.188819
  16         V                 0.088073         -0.200429
  17         V                 0.137809         -0.224402
  18         V                 0.153639         -0.177520
  19         V                 0.158773         -0.170823
  20         V                 0.176384         -0.192796
  21         V                 0.189654         -0.149625
  22         V                 0.197016         -0.160334
  23         V                 0.208015         -0.131020
  24         V                 0.234880         -0.022367
 Total kinetic energy from orbitals=-1.665958886780D+01
 Leave Link  601 at Tue Dec 15 16:29:45 2015, MaxMem=    33554432 cpu:         0.0
 (Enter /home/Applications/g09/g09/l701.exe)
 Compute integral first derivatives.
 ... and contract with generalized density number  6.
 Leave Link  701 at Tue Dec 15 16:29:45 2015, MaxMem=    33554432 cpu:         0.0
 (Enter /home/Applications/g09/g09/l702.exe)
 L702 exits ... SP integral derivatives will be done elsewhere.
 Leave Link  702 at Tue Dec 15 16:29:45 2015, MaxMem=    33554432 cpu:         0.0
 (Enter /home/Applications/g09/g09/l703.exe)
 Compute integral first derivatives, UseDBF=F ICtDFT=           0.
 Integral derivatives from FoFJK, PRISM(SPDF).
 Calling FoFJK, ICntrl=  10005127 FMM=F ISym2X=0 I1Cent= 0 IOpClX= 0 NMat=1 NMatS=1 NMatT=0.
 FoFJK:  IHMeth= 8 ICntrl=10005127 DoSepK=F KAlg= 0 I1Cent=   0 FoldK=F
 IRaf=         0 NMat=   1 IRICut=       1 DoRegI=T DoRafI=F ISym2E= 0.
 FoFCou: FMM=F IPFlag=           0 FMFlag=      100000 FMFlg1=         800
         NFxFlg=           0 DoJE=F BraDBF=F KetDBF=F FulRan=T
         wScrn=  0.000000 ICntrl=10005127 IOpCl=  0 I1Cent=           0 NGrid=           0
         NMat0=    1 NMatS0=      1 NMatT0=    0 NMatD0=    1 NMtDS0=    0 NMtDT0=    0
 Symmetry not used in FoFCou.
 Leave Link  703 at Tue Dec 15 16:29:45 2015, MaxMem=    33554432 cpu:         0.0
 (Enter /home/Applications/g09/g09/l716.exe)
 Dipole        = 1.55057286D-01 1.45508878D-01 1.26586306D-01
 ***** Axes restored to original set *****
 -------------------------------------------------------------------
 Center     Atomic                   Forces (Hartrees/Bohr)
 Number     Number              X              Y              Z
 -------------------------------------------------------------------
      1        6           0.112157013    0.074607268    0.001424151
      2        6          -0.023074809   -0.209979917    0.000382996
      3        8          -0.203579277    0.090003341   -0.003761586
      4        6           0.046688019    0.020660181   -0.003055282
      5        6           0.044875791   -0.000325115    0.000166267
      6        1           0.008802193   -0.004069139    0.000132783
      7        1          -0.026972907    0.038864676    0.004249020
      8        1           0.005931149    0.022545066    0.002068007
      9        1           0.035172829   -0.032306361   -0.001606356
 -------------------------------------------------------------------
 Cartesian Forces:  Max     0.209979917 RMS     0.067259055
 Z-matrix is all fixed cartesians, so copy forces.
 Force constants in Cartesian coordinates: 
                1             2             3             4             5 
      1  0.104938D+01
      2 -0.469277D-01  0.796208D+00
      3  0.120158D-01 -0.243320D-02  0.236366D+00
      4 -0.578431D+00 -0.996481D-01  0.785026D-02  0.107802D+01
      5 -0.725173D-01 -0.216177D+00  0.206272D-02 -0.124032D+00  0.101598D+01
      6  0.130999D-01  0.280434D-02 -0.121346D+00 -0.161719D-01 -0.100194D-03
      7 -0.728824D-02  0.328925D-01  0.754674D-04 -0.389082D+00  0.275815D+00
      8 -0.530152D-02  0.239195D-01  0.311721D-04  0.324505D+00 -0.555565D+00
      9  0.775222D-03 -0.238665D-02  0.124403D-01  0.502426D-02 -0.568599D-02
     10  0.107821D-01 -0.392243D-03 -0.184386D-03  0.274051D-01  0.198903D-01
     11  0.327672D-01 -0.118272D-02 -0.108363D-02 -0.181015D-01 -0.131393D-01
     12  0.139198D-02 -0.157403D-03 -0.309096D-02 -0.255425D-03 -0.772043D-04
     13 -0.165579D+00  0.905076D-03 -0.124050D-02  0.791433D-02 -0.358203D-01
     14 -0.205613D-01 -0.403057D+00 -0.915313D-02 -0.295437D-03  0.130430D-02
     15 -0.146883D-02 -0.143779D-01 -0.797110D-01 -0.460731D-04  0.959894D-03
     16  0.185661D-01 -0.694726D-03  0.590578D-04  0.000000D+00  0.000000D+00
     17 -0.221481D-01  0.850853D-03 -0.769082D-03 -0.357724D-05  0.454825D-05
     18 -0.157619D-02 -0.531242D-03  0.186569D-01  0.113780D-03 -0.144665D-03
     19  0.354769D-05 -0.581611D-05  0.179711D-03  0.460542D-05  0.625071D-05
     20  0.140544D-05 -0.230408D-05  0.711935D-04  0.230015D-05  0.312188D-05
     21  0.101742D-03 -0.166797D-03  0.515383D-02 -0.125260D-03 -0.170009D-03
     22  0.576782D-02 -0.259527D-01  0.869948D-03 -0.141886D+00 -0.809235D-01
     23 -0.282292D-02  0.127625D-01  0.303168D-03 -0.765552D-01 -0.258892D+00
     24 -0.860420D-04  0.292988D-02  0.306044D-01  0.290255D-02  0.374291D-02
     25 -0.333203D+00  0.139824D+00 -0.196254D-01 -0.394657D-02  0.175810D-01
     26  0.137510D+00 -0.213322D+00  0.109708D-01 -0.587206D-02  0.264771D-01
     27 -0.242536D-01  0.143190D-01 -0.990742D-01  0.707810D-03 -0.587463D-03
                6             7             8             9            10 
      6  0.217553D+00
      7  0.344246D-02  0.628694D+00
      8 -0.543667D-02 -0.121719D+00  0.919450D+00
      9 -0.612198D-01  0.550749D-02  0.204602D-01  0.715977D-01
     10  0.135279D-02 -0.269865D+00 -0.204031D+00 -0.117360D-01  0.824051D+00
     11 -0.926021D-03 -0.158111D+00 -0.391489D+00 -0.152084D-01 -0.291426D-01
     12 -0.683235D-03 -0.873717D-02 -0.143491D-01 -0.500071D-01 -0.537765D-03
     13 -0.145192D-02 -0.947262D-02  0.622958D-02  0.540095D-03 -0.408989D+00
     14  0.137475D-03 -0.287650D-01  0.189692D-01  0.116545D-02  0.902213D-01
     15 -0.323985D-03 -0.159015D-02  0.494994D-03  0.625133D-02  0.114656D-01
     16 -0.222574D-04  0.000000D+00 -0.298372D-05  0.578775D-04 -0.588244D-02
     17 -0.139588D-03 -0.317576D-05  0.121681D-04 -0.236034D-03  0.699917D-02
     18  0.443985D-02  0.599509D-04 -0.229705D-03  0.445578D-02  0.984264D-03
     19 -0.217864D-03  0.243725D-01 -0.161377D-01  0.725999D-03 -0.177489D+00
     20 -0.108811D-03  0.109453D-01 -0.724684D-02  0.318045D-03  0.116459D+00
     21  0.592552D-02  0.109967D-02 -0.912507D-03  0.435498D-02 -0.125861D-02
     22  0.269289D-02  0.226421D-01  0.164577D-01 -0.828324D-03 -0.491927D-05
     23  0.398818D-02 -0.110745D-01 -0.805039D-02  0.461183D-03 -0.142652D-05
     24 -0.757276D-01 -0.375103D-04 -0.586562D-04  0.235524D-02 -0.160970D-03
     25 -0.272406D-02 -0.122605D-05  0.000000D+00 -0.666353D-04 -0.755137D-05
     26 -0.218722D-03  0.204635D-04  0.000000D+00  0.111218D-02 -0.209119D-05
     27  0.313821D-01  0.179792D-03  0.000000D+00  0.977162D-02  0.750309D-04
               11            12            13            14            15 
     11  0.964257D+00
     12  0.207783D-01  0.173974D+00
     13  0.698221D-01  0.927877D-02  0.807463D+00
     14 -0.197232D+00 -0.543229D-02  0.542689D-01  0.784817D+00
     15 -0.606536D-02 -0.823648D-01 -0.401220D-02  0.221080D-01  0.180588D+00
     16 -0.178919D-01 -0.685747D-03 -0.256634D+00 -0.121063D+00 -0.441155D-02
     17  0.213555D-01  0.934544D-04 -0.124492D+00 -0.215830D+00 -0.557760D-02
     18  0.120623D-02  0.194137D-01 -0.503074D-02 -0.638912D-02 -0.709314D-01
     19  0.120652D+00 -0.304830D-03  0.877922D-02  0.268206D-01 -0.249591D-03
     20 -0.382572D+00 -0.817361D-03  0.394307D-02  0.120499D-01 -0.152922D-03
     21  0.164029D-02 -0.686573D-01  0.146387D-03 -0.159821D-02  0.220796D-01
     22 -0.667668D-05  0.232711D-03  0.259238D-05 -0.329606D-05  0.101158D-03
     23 -0.193615D-05  0.674829D-04  0.292354D-05 -0.371711D-05  0.114080D-03
     24 -0.218476D-03  0.761483D-02  0.176049D-03 -0.223836D-03  0.686965D-02
     25  0.123798D-04 -0.382520D-03  0.165169D-01 -0.623075D-03  0.211608D-03
     26  0.342832D-05 -0.105931D-03  0.251408D-01 -0.101718D-02  0.249688D-02
     27 -0.123006D-03  0.380075D-02  0.159406D-02 -0.614310D-03  0.175427D-01
               16            17            18            19            20 
     16  0.243957D+00
     17  0.139654D+00  0.193607D+00
     18  0.507096D-02  0.601603D-02  0.381514D-01
     19 -0.350872D-05  0.143091D-04 -0.270123D-03  0.144333D+00
     20 -0.139000D-05  0.566864D-05 -0.107011D-03 -0.131350D+00  0.377762D+00
     21 -0.100624D-03  0.410364D-03 -0.774671D-02  0.136698D-03  0.796866D-03
     22  0.000000D+00  0.000000D+00  0.000000D+00  0.000000D+00  0.000000D+00
     23  0.000000D+00  0.000000D+00  0.000000D+00  0.000000D+00  0.000000D+00
     24  0.000000D+00  0.000000D+00  0.000000D+00  0.000000D+00  0.000000D+00
     25 -0.324895D-05 -0.203760D-04  0.648093D-03  0.000000D+00  0.000000D+00
     26  0.000000D+00 -0.564269D-05  0.179476D-03  0.000000D+00  0.000000D+00
     27  0.322818D-04  0.202457D-03 -0.643949D-02  0.000000D+00  0.000000D+00
               21            22            23            24            25 
     21  0.388900D-01
     22  0.000000D+00  0.113477D+00
     23  0.000000D+00  0.904497D-01  0.254210D+00
     24  0.000000D+00 -0.288090D-02 -0.472266D-02  0.410157D-01
     25  0.000000D+00  0.127852D-05  0.144184D-05  0.868246D-04  0.320643D+00
     26  0.000000D+00 -0.213392D-04 -0.240652D-04 -0.144915D-02 -0.156775D+00
     27  0.000000D+00 -0.187486D-03 -0.211437D-03 -0.127322D-01  0.218521D-01
               26            27 
     26  0.187888D+00
     27 -0.129855D-01  0.557488D-01
 Leave Link  716 at Tue Dec 15 16:29:45 2015, MaxMem=    33554432 cpu:         0.0
 (Enter /home/Applications/g09/g09/l103.exe)

 GradGradGradGradGradGradGradGradGradGradGradGradGradGradGradGradGradGrad
 Berny optimization.
 Search for a local minimum.
 Step number   1 out of a maximum of    2
 All quantities printed in internal units (Hartrees-Bohrs-Radians)
 Second derivative matrix not updated -- first step.
 ITU=  0
     Eigenvalues ---    0.01777   0.03539   0.07244   0.07399   0.08132
     Eigenvalues ---    0.09690   0.13194   0.14624   0.16594   0.25183
     Eigenvalues ---    0.28313   0.29597   0.41302   0.43772   0.65274
     Eigenvalues ---    0.85445   1.20812   1.37065   1.43526   1.57758
     Eigenvalues ---    1.99381
 Quadratic step=5.347D-01 exceeds max=3.000D-01 adjusted using Lamda=-2.750D-01.
 Angle between NR and scaled steps=  19.98 degrees.
 Angle between quadratic step and forces=  28.83 degrees.
 Linear search not attempted -- first point.
 TrRot= -0.012165  0.000605 -0.001418 -0.470690 -0.001026  0.470551
 Variable       Old X    -DE/DX   Delta X   Delta X   Delta X     New X
                                 (Linear)    (Quad)   (Total)
    X1        1.72462   0.11216   0.00000   0.10422   0.09192   1.81654
    Y1       -1.44687   0.07461   0.00000   0.03819   0.03851  -1.40835
    Z1       -0.07839   0.00142   0.00000   0.00439   0.00530  -0.07310
    X2       -0.72643  -0.02307   0.00000  -0.03879  -0.05122  -0.77765
    Y2       -1.99009  -0.20998   0.00000  -0.10445  -0.10375  -2.09383
    Z2       -0.03328   0.00038   0.00000   0.00137   0.00022  -0.03305
    X3       -2.12984  -0.20358   0.00000  -0.19040  -0.20255  -2.33240
    Y3       -0.05800   0.09000   0.00000   0.02633   0.02725  -0.03075
    Z3       -0.00751  -0.00376   0.00000  -0.00582  -0.00935  -0.01686
    X4       -0.70978   0.04669   0.00000   0.02358   0.01163  -0.69814
    Y4        2.09083   0.02066   0.00000   0.01749   0.01823   2.10905
    Z4        0.08416  -0.00306   0.00000  -0.00771  -0.01073   0.07343
    X5        1.82565   0.04488   0.00000   0.07729   0.06530   1.89094
    Y5        1.26019  -0.00033   0.00000   0.01562   0.01597   1.27615
    Z5        0.00722   0.00017   0.00000   0.00105   0.00078   0.00800
    X6        3.38985   0.00880   0.00000   0.05849   0.04663   3.43648
    Y6        2.56794  -0.00407   0.00000   0.00528   0.00543   2.57338
    Z6        0.05618   0.00013   0.00000   0.00151   0.00205   0.05823
    X7       -1.50279  -0.02697   0.00000  -0.02543  -0.03714  -1.53993
    Y7        3.85634   0.03886   0.00000   0.06294   0.06380   3.92015
    Z7        0.08742   0.00425   0.00000   0.01516   0.01052   0.09794
    X8       -1.67059   0.00593   0.00000   0.00026  -0.01247  -1.68306
    Y8       -3.92060   0.02255   0.00000  -0.01832  -0.01747  -3.93807
    Z8        0.01268   0.00207   0.00000   0.00741   0.00630   0.01899
    X9        3.34530   0.03517   0.00000   0.10047   0.08791   3.43320
    Y9       -2.52005  -0.03231   0.00000  -0.04812  -0.04797  -2.56803
    Z9        0.05481  -0.00161   0.00000  -0.00802  -0.00509   0.04972
         Item               Value     Threshold  Converged?
 Maximum Force            0.209980     0.000450     NO 
 RMS     Force            0.067259     0.000300     NO 
 Maximum Displacement     0.202554     0.001800     NO 
 RMS     Displacement     0.057295     0.001200     NO 
 Predicted change in Energy=-5.831558D-02
 GradGradGradGradGradGradGradGradGradGradGradGradGradGradGradGradGradGrad

 Leave Link  103 at Tue Dec 15 16:29:45 2015, MaxMem=    33554432 cpu:         0.0
 (Enter /home/Applications/g09/g09/l9999.exe)
 1\1\GINC-DUSTIN-DESKTOP\Force\RAM1-FC\STO-3G\C4H4O1\DUSTIN\15-Dec-2015
 \0\\#P AM1(Input,print) CIS(Singlets,NStates=15) pop(full) force\\AM1-
 Reparam Input\\0,1\C,0.912631,-0.765649,-0.041483\C,-0.384409,-1.05310
 8,-0.01761\O,-1.127064,-0.030694,-0.003975\C,-0.375598,1.106418,0.0445
 35\C,0.96609,0.666863,0.003823\H,1.793834,1.358896,0.02973\H,-0.795242
 ,2.040689,0.046262\H,-0.884036,-2.074691,0.006712\H,1.770254,-1.333555
 ,0.029003\\Version=ES64L-G09RevD.01\State=1-A\HF=0.0442561\RMSD=7.560e
 -09\RMSF=6.726e-02\Dipole=0.1334339,-0.1688125,0.1222188\PG=C01 [X(C4H
 4O1)]\\@


 EDUCATION DOESN'T COST 
           ... IT PAYS!

 -- POSTMARK, UNIV. OF MISSISSIPPI, DEC 78
 Job cpu time:       0 days  0 hours  0 minutes  0.4 seconds.
 File lengths (MBytes):  RWF=      7 Int=      0 D2E=      0 Chk=      2 Scr=      1
 Normal termination of Gaussian 09 at Tue Dec 15 16:29:45 2015.
