 Entering Gaussian System, Link 0=g09
 Input=FuranDFT_95.com
 Output=FuranDFT_95.log
 Initial command:
 /home/Applications/g09/g09/l1.exe "/home/Applications/g09/scratch/Gau-6464.inp" -scrdir="/home/Applications/g09/scratch/"
 Entering Link 1 = /home/Applications/g09/g09/l1.exe PID=      6466.
  
 Copyright (c) 1988,1990,1992,1993,1995,1998,2003,2009,2013,
            Gaussian, Inc.  All Rights Reserved.
  
 This is part of the Gaussian(R) 09 program.  It is based on
 the Gaussian(R) 03 system (copyright 2003, Gaussian, Inc.),
 the Gaussian(R) 98 system (copyright 1998, Gaussian, Inc.),
 the Gaussian(R) 94 system (copyright 1995, Gaussian, Inc.),
 the Gaussian 92(TM) system (copyright 1992, Gaussian, Inc.),
 the Gaussian 90(TM) system (copyright 1990, Gaussian, Inc.),
 the Gaussian 88(TM) system (copyright 1988, Gaussian, Inc.),
 the Gaussian 86(TM) system (copyright 1986, Carnegie Mellon
 University), and the Gaussian 82(TM) system (copyright 1983,
 Carnegie Mellon University). Gaussian is a federally registered
 trademark of Gaussian, Inc.
  
 This software contains proprietary and confidential information,
 including trade secrets, belonging to Gaussian, Inc.
  
 This software is provided under written license and may be
 used, copied, transmitted, or stored only in accord with that
 written license.
  
 The following legend is applicable only to US Government
 contracts under FAR:
  
                    RESTRICTED RIGHTS LEGEND
  
 Use, reproduction and disclosure by the US Government is
 subject to restrictions as set forth in subparagraphs (a)
 and (c) of the Commercial Computer Software - Restricted
 Rights clause in FAR 52.227-19.
  
 Gaussian, Inc.
 340 Quinnipiac St., Bldg. 40, Wallingford CT 06492
  
  
 ---------------------------------------------------------------
 Warning -- This program may not be used in any manner that
 competes with the business of Gaussian, Inc. or will provide
 assistance to any competitor of Gaussian, Inc.  The licensee
 of this program is prohibited from giving any competitor of
 Gaussian, Inc. access to this program.  By using this program,
 the user acknowledges that Gaussian, Inc. is engaged in the
 business of creating and licensing software in the field of
 computational chemistry and represents and warrants to the
 licensee that it is not a competitor of Gaussian, Inc. and that
 it will not use this program in any manner prohibited above.
 ---------------------------------------------------------------
  

 Cite this work as:
 Gaussian 09, Revision D.01,
 M. J. Frisch, G. W. Trucks, H. B. Schlegel, G. E. Scuseria, 
 M. A. Robb, J. R. Cheeseman, G. Scalmani, V. Barone, B. Mennucci, 
 G. A. Petersson, H. Nakatsuji, M. Caricato, X. Li, H. P. Hratchian, 
 A. F. Izmaylov, J. Bloino, G. Zheng, J. L. Sonnenberg, M. Hada, 
 M. Ehara, K. Toyota, R. Fukuda, J. Hasegawa, M. Ishida, T. Nakajima, 
 Y. Honda, O. Kitao, H. Nakai, T. Vreven, J. A. Montgomery, Jr., 
 J. E. Peralta, F. Ogliaro, M. Bearpark, J. J. Heyd, E. Brothers, 
 K. N. Kudin, V. N. Staroverov, T. Keith, R. Kobayashi, J. Normand, 
 K. Raghavachari, A. Rendell, J. C. Burant, S. S. Iyengar, J. Tomasi, 
 M. Cossi, N. Rega, J. M. Millam, M. Klene, J. E. Knox, J. B. Cross, 
 V. Bakken, C. Adamo, J. Jaramillo, R. Gomperts, R. E. Stratmann, 
 O. Yazyev, A. J. Austin, R. Cammi, C. Pomelli, J. W. Ochterski, 
 R. L. Martin, K. Morokuma, V. G. Zakrzewski, G. A. Voth, 
 P. Salvador, J. J. Dannenberg, S. Dapprich, A. D. Daniels, 
 O. Farkas, J. B. Foresman, J. V. Ortiz, J. Cioslowski, 
 and D. J. Fox, Gaussian, Inc., Wallingford CT, 2013.
 
 ******************************************
 Gaussian 09:  ES64L-G09RevD.01 24-Apr-2013
                15-Dec-2015 
 ******************************************
 -------------------------------------------------------
 #P B3LYP/3-21G CIS(Singlets,NStates=15) pop(full) force
 -------------------------------------------------------
 1/10=7,30=1,38=1/1,3;
 2/12=2,17=6,18=5,40=1/2;
 3/5=5,11=9,16=1,25=1,30=1,71=1,74=-5/1,2,8,3;
 4//1;
 5/5=2,38=5/2;
 8/6=1,10=1,108=15/1;
 9/15=2,41=15,42=1,48=1/14;
 10/5=4/2;
 6/7=3,18=1/1;
 7/12=6,13=5,29=1/1,2,3,16;
 1/10=7,30=1/3;
 99//99;
 Leave Link    1 at Tue Dec 15 16:29:45 2015, MaxMem=           0 cpu:         0.0
 (Enter /home/Applications/g09/g09/l101.exe)
 --------
 FuranDFT
 --------
 Symbolic Z-matrix:
 Charge =  0 Multiplicity = 1
 6                     0.91263  -0.76565  -0.04148 
 6                    -0.38441  -1.05311  -0.01761 
 8                    -1.12706  -0.03069  -0.00398 
 6                    -0.3756    1.10642   0.04454 
 6                     0.96609   0.66686   0.00382 
 1                     1.79383   1.3589    0.02973 
 1                    -0.79524   2.04069   0.04626 
 1                    -0.88404  -2.07469   0.00671 
 1                     1.77025  -1.33356   0.029 
 
 NAtoms=      9 NQM=        9 NQMF=       0 NMMI=      0 NMMIF=      0
                NMic=       0 NMicF=      0.
                    Isotopes and Nuclear Properties:
 (Nuclear quadrupole moments (NQMom) in fm**2, nuclear magnetic moments (NMagM)
  in nuclear magnetons)

  Atom         1           2           3           4           5           6           7           8           9
 IAtWgt=          12          12          16          12          12           1           1           1           1
 AtmWgt=  12.0000000  12.0000000  15.9949146  12.0000000  12.0000000   1.0078250   1.0078250   1.0078250   1.0078250
 NucSpn=           0           0           0           0           0           1           1           1           1
 AtZEff=   0.0000000   0.0000000   0.0000000   0.0000000   0.0000000   0.0000000   0.0000000   0.0000000   0.0000000
 NQMom=    0.0000000   0.0000000   0.0000000   0.0000000   0.0000000   0.0000000   0.0000000   0.0000000   0.0000000
 NMagM=    0.0000000   0.0000000   0.0000000   0.0000000   0.0000000   2.7928460   2.7928460   2.7928460   2.7928460
 AtZNuc=   6.0000000   6.0000000   8.0000000   6.0000000   6.0000000   1.0000000   1.0000000   1.0000000   1.0000000
 Leave Link  101 at Tue Dec 15 16:29:45 2015, MaxMem=    33554432 cpu:         0.0
 (Enter /home/Applications/g09/g09/l103.exe)

 GradGradGradGradGradGradGradGradGradGradGradGradGradGradGradGradGradGrad
 Berny optimization.
 Initialization pass.
 Trust Radius=3.00D-01 FncErr=1.00D-07 GrdErr=1.00D-07
 Number of steps in this run=      2 maximum allowed number of steps=      2.
 GradGradGradGradGradGradGradGradGradGradGradGradGradGradGradGradGradGrad

 Leave Link  103 at Tue Dec 15 16:29:45 2015, MaxMem=    33554432 cpu:         0.0
 (Enter /home/Applications/g09/g09/l202.exe)
                          Input orientation:                          
 ---------------------------------------------------------------------
 Center     Atomic      Atomic             Coordinates (Angstroms)
 Number     Number       Type             X           Y           Z
 ---------------------------------------------------------------------
      1          6           0        0.912631   -0.765649   -0.041483
      2          6           0       -0.384409   -1.053108   -0.017610
      3          8           0       -1.127064   -0.030694   -0.003975
      4          6           0       -0.375598    1.106418    0.044535
      5          6           0        0.966090    0.666863    0.003823
      6          1           0        1.793834    1.358896    0.029730
      7          1           0       -0.795242    2.040689    0.046262
      8          1           0       -0.884036   -2.074691    0.006712
      9          1           0        1.770254   -1.333555    0.029003
 ---------------------------------------------------------------------
                    Distance matrix (angstroms):
                    1          2          3          4          5
     1  C    0.000000
     2  C    1.328727   0.000000
     3  O    2.168391   1.263746   0.000000
     4  C    2.274108   2.160438   1.363847   0.000000
     5  C    1.434225   2.186917   2.206341   1.412442   0.000000
     6  H    2.301148   3.250346   3.234771   2.184124   1.079232
     7  H    3.286345   3.121609   2.098394   1.024191   2.234164
     8  H    2.223494   1.137476   2.058422   3.221707   3.307430
     9  H    1.031020   2.173338   3.176946   3.249368   2.156151
                    6          7          8          9
     6  H    0.000000
     7  H    2.677392   0.000000
     8  H    4.354427   4.116528   0.000000
     9  H    2.692554   4.238819   2.755909   0.000000
 Stoichiometry    C4H4O
 Framework group  C1[X(C4H4O)]
 Deg. of freedom    21
 Full point group                 C1      NOp   1
 Largest Abelian subgroup         C1      NOp   1
 Largest concise Abelian subgroup C1      NOp   1
                         Standard orientation:                         
 ---------------------------------------------------------------------
 Center     Atomic      Atomic             Coordinates (Angstroms)
 Number     Number       Type             X           Y           Z
 ---------------------------------------------------------------------
      1          6           0        0.675878    0.981242   -0.020475
      2          6           0        1.064960   -0.289038    0.002296
      3          8           0        0.104754   -1.110560   -0.010340
      4          6           0       -1.089262   -0.452070    0.017828
      5          6           0       -0.756986    0.920529   -0.005822
      6          1           0       -1.513018    1.690538    0.009793
      7          1           0       -1.987048   -0.944526   -0.002989
      8          1           0        2.122285   -0.706192    0.045864
      9          1           0        1.172203    1.880684    0.067091
 ---------------------------------------------------------------------
 Rotational constants (GHZ):      9.6069649      9.5864132      4.7998707
 Leave Link  202 at Tue Dec 15 16:29:45 2015, MaxMem=    33554432 cpu:         0.0
 (Enter /home/Applications/g09/g09/l301.exe)
 Standard basis: 3-21G (6D, 7F)
 Ernie: Thresh=  0.10000D-02 Tol=  0.10000D-05 Strict=F.
 There are    53 symmetry adapted cartesian basis functions of A   symmetry.
 There are    53 symmetry adapted basis functions of A   symmetry.
    53 basis functions,    87 primitive gaussians,    53 cartesian basis functions
    18 alpha electrons       18 beta electrons
       nuclear repulsion energy       163.0517262049 Hartrees.
 IExCor=  402 DFT=T Ex+Corr=B3LYP ExCW=0 ScaHFX=  0.200000
 ScaDFX=  0.800000  0.720000  1.000000  0.810000 ScalE2=  1.000000  1.000000
 IRadAn=      0 IRanWt=     -1 IRanGd=            0 ICorTp=0 IEmpDi=  4
 NAtoms=    9 NActive=    9 NUniq=    9 SFac= 1.00D+00 NAtFMM=   60 NAOKFM=F Big=F
 Integral buffers will be    131072 words long.
 Regular integral format.
 Two-electron integral symmetry is turned on.
 Leave Link  301 at Tue Dec 15 16:29:45 2015, MaxMem=    33554432 cpu:         0.0
 (Enter /home/Applications/g09/g09/l302.exe)
 NPDir=0 NMtPBC=     1 NCelOv=     1 NCel=       1 NClECP=     1 NCelD=      1
         NCelK=      1 NCelE2=     1 NClLst=     1 CellRange=     0.0.
 One-electron integrals computed using PRISM.
 NBasis=    53 RedAO= T EigKep=  3.31D-03  NBF=    53
 NBsUse=    53 1.00D-06 EigRej= -1.00D+00 NBFU=    53
 Precomputing XC quadrature grid using
 IXCGrd= 4 IRadAn=           0 IRanWt=          -1 IRanGd=           0 AccXCQ= 0.00D+00.
 Generated NRdTot=       0 NPtTot=           0 NUsed=           0 NTot=          32
 NSgBfM=    53    53    53    53    53 MxSgAt=     9 MxSgA2=     9.
 Leave Link  302 at Tue Dec 15 16:29:45 2015, MaxMem=    33554432 cpu:         0.1
 (Enter /home/Applications/g09/g09/l308.exe)
 Leave Link  308 at Tue Dec 15 16:29:45 2015, MaxMem=    33554432 cpu:         0.0
 (Enter /home/Applications/g09/g09/l303.exe)
 DipDrv:  MaxL=1.
 Leave Link  303 at Tue Dec 15 16:29:45 2015, MaxMem=    33554432 cpu:         0.0
 (Enter /home/Applications/g09/g09/l401.exe)
 ExpMin= 1.83D-01 ExpMax= 3.22D+02 ExpMxC= 3.22D+02 IAcc=1 IRadAn=         1 AccDes= 0.00D+00
 Harris functional with IExCor=  402 and IRadAn=       1 diagonalized for initial guess.
 HarFok:  IExCor=  402 AccDes= 0.00D+00 IRadAn=         1 IDoV= 1 UseB2=F ITyADJ=14
 ICtDFT=  3500011 ScaDFX=  1.000000  1.000000  1.000000  1.000000
 FoFCou: FMM=F IPFlag=           0 FMFlag=      100000 FMFlg1=           0
         NFxFlg=           0 DoJE=T BraDBF=F KetDBF=T FulRan=T
         wScrn=  0.000000 ICntrl=     500 IOpCl=  0 I1Cent=   200000004 NGrid=           0
         NMat0=    1 NMatS0=      1 NMatT0=    0 NMatD0=    1 NMtDS0=    0 NMtDT0=    0
 Petite list used in FoFCou.
 Harris En= -228.717807832708    
 JPrj=0 DoOrth=F DoCkMO=F.
 Leave Link  401 at Tue Dec 15 16:29:45 2015, MaxMem=    33554432 cpu:         0.2
 (Enter /home/Applications/g09/g09/l502.exe)
 Closed shell SCF:
 Using DIIS extrapolation, IDIIS=  1040.
 Integral symmetry usage will be decided dynamically.
 Keep R1 ints in memory in canonical form, NReq=1925595.
 IVT=       27707 IEndB=       27707 NGot=    33554432 MDV=    32502130
 LenX=    32502130 LenY=    32498880
 Requested convergence on RMS density matrix=1.00D-08 within 128 cycles.
 Requested convergence on MAX density matrix=1.00D-06.
 Requested convergence on             energy=1.00D-06.
 No special actions if energy rises.
 FoFCou: FMM=F IPFlag=           0 FMFlag=           0 FMFlg1=           0
         NFxFlg=           0 DoJE=F BraDBF=F KetDBF=F FulRan=T
         wScrn=  0.000000 ICntrl=     600 IOpCl=  0 I1Cent=           0 NGrid=           0
         NMat0=    1 NMatS0=   1431 NMatT0=    0 NMatD0=    1 NMtDS0=    0 NMtDT0=    0
 Symmetry not used in FoFCou.
 Integral accuracy reduced to 1.0D-05 until final iterations.

 Cycle   1  Pass 0  IDiag  1:
 E= -228.640810342600    
 DIIS: error= 3.38D-02 at cycle   1 NSaved=   1.
 NSaved= 1 IEnMin= 1 EnMin= -228.640810342600     IErMin= 1 ErrMin= 3.38D-02
 ErrMax= 3.38D-02  0.00D+00 EMaxC= 1.00D-01 BMatC= 8.05D-02 BMatP= 8.05D-02
 IDIUse=3 WtCom= 6.62D-01 WtEn= 3.38D-01
 Coeff-Com:  0.100D+01
 Coeff-En:   0.100D+01
 Coeff:      0.100D+01
 Gap=     0.240 Goal=   None    Shift=    0.000
 GapD=    0.240 DampG=1.000 DampE=0.500 DampFc=0.5000 IDamp=-1.
 Damping current iteration by 5.00D-01
 RMSDP=1.26D-02 MaxDP=1.31D-01              OVMax= 1.91D-01

 Cycle   2  Pass 0  IDiag  1:
 E= -228.674106360618     Delta-E=       -0.033296018017 Rises=F Damp=T
 DIIS: error= 1.03D-02 at cycle   2 NSaved=   2.
 NSaved= 2 IEnMin= 2 EnMin= -228.674106360618     IErMin= 2 ErrMin= 1.03D-02
 ErrMax= 1.03D-02  0.00D+00 EMaxC= 1.00D-01 BMatC= 8.89D-03 BMatP= 8.05D-02
 IDIUse=3 WtCom= 8.97D-01 WtEn= 1.03D-01
 Coeff-Com:  0.104D+00 0.896D+00
 Coeff-En:   0.188D+00 0.812D+00
 Coeff:      0.113D+00 0.887D+00
 Gap=     0.258 Goal=   None    Shift=    0.000
 RMSDP=4.31D-03 MaxDP=3.99D-02 DE=-3.33D-02 OVMax= 1.67D-01

 Cycle   3  Pass 0  IDiag  1:
 E= -228.715044511367     Delta-E=       -0.040938150749 Rises=F Damp=F
 DIIS: error= 1.45D-02 at cycle   3 NSaved=   3.
 NSaved= 3 IEnMin= 3 EnMin= -228.715044511367     IErMin= 2 ErrMin= 1.03D-02
 ErrMax= 1.45D-02  0.00D+00 EMaxC= 1.00D-01 BMatC= 1.12D-02 BMatP= 8.89D-03
 IDIUse=2 WtCom= 0.00D+00 WtEn= 1.00D+00
 Coeff-En:   0.000D+00 0.000D+00 0.100D+01
 Coeff:      0.000D+00 0.000D+00 0.100D+01
 Gap=     0.247 Goal=   None    Shift=    0.000
 RMSDP=5.83D-03 MaxDP=4.64D-02 DE=-4.09D-02 OVMax= 1.22D-01

 Cycle   4  Pass 0  IDiag  1:
 E= -228.686376135596     Delta-E=        0.028668375771 Rises=F Damp=F
 DIIS: error= 3.00D-02 at cycle   4 NSaved=   4.
 NSaved= 4 IEnMin= 3 EnMin= -228.715044511367     IErMin= 2 ErrMin= 1.03D-02
 ErrMax= 3.00D-02  0.00D+00 EMaxC= 1.00D-01 BMatC= 4.17D-02 BMatP= 8.89D-03
 IDIUse=2 WtCom= 0.00D+00 WtEn= 1.00D+00
 Coeff-En:   0.000D+00 0.000D+00 0.743D+00 0.257D+00
 Coeff:      0.000D+00 0.000D+00 0.743D+00 0.257D+00
 Gap=     0.254 Goal=   None    Shift=    0.000
 RMSDP=2.96D-03 MaxDP=2.25D-02 DE= 2.87D-02 OVMax= 6.69D-02

 Cycle   5  Pass 0  IDiag  1:
 E= -228.723452879637     Delta-E=       -0.037076744041 Rises=F Damp=F
 DIIS: error= 6.73D-03 at cycle   5 NSaved=   5.
 NSaved= 5 IEnMin= 5 EnMin= -228.723452879637     IErMin= 5 ErrMin= 6.73D-03
 ErrMax= 6.73D-03  0.00D+00 EMaxC= 1.00D-01 BMatC= 2.22D-03 BMatP= 8.89D-03
 IDIUse=3 WtCom= 9.33D-01 WtEn= 6.73D-02
 Coeff-Com: -0.791D-02 0.261D-01 0.227D+00-0.907D-01 0.845D+00
 Coeff-En:   0.000D+00 0.000D+00 0.202D+00 0.000D+00 0.798D+00
 Coeff:     -0.738D-02 0.244D-01 0.226D+00-0.846D-01 0.842D+00
 Gap=     0.257 Goal=   None    Shift=    0.000
 RMSDP=9.50D-04 MaxDP=7.21D-03 DE=-3.71D-02 OVMax= 1.97D-02

 Cycle   6  Pass 0  IDiag  1:
 E= -228.725532596745     Delta-E=       -0.002079717108 Rises=F Damp=F
 DIIS: error= 3.48D-04 at cycle   6 NSaved=   6.
 NSaved= 6 IEnMin= 6 EnMin= -228.725532596745     IErMin= 6 ErrMin= 3.48D-04
 ErrMax= 3.48D-04  0.00D+00 EMaxC= 1.00D-01 BMatC= 6.32D-06 BMatP= 2.22D-03
 IDIUse=3 WtCom= 9.97D-01 WtEn= 3.48D-03
 Coeff-Com: -0.552D-02 0.128D-01 0.549D-01-0.507D-01 0.342D+00 0.646D+00
 Coeff-En:   0.000D+00 0.000D+00 0.000D+00 0.000D+00 0.000D+00 0.100D+01
 Coeff:     -0.550D-02 0.128D-01 0.547D-01-0.505D-01 0.341D+00 0.647D+00
 Gap=     0.257 Goal=   None    Shift=    0.000
 RMSDP=5.58D-05 MaxDP=5.08D-04 DE=-2.08D-03 OVMax= 1.09D-03

 Cycle   7  Pass 0  IDiag  1:
 E= -228.725538834853     Delta-E=       -0.000006238107 Rises=F Damp=F
 DIIS: error= 8.30D-05 at cycle   7 NSaved=   7.
 NSaved= 7 IEnMin= 7 EnMin= -228.725538834853     IErMin= 7 ErrMin= 8.30D-05
 ErrMax= 8.30D-05  0.00D+00 EMaxC= 1.00D-01 BMatC= 3.13D-07 BMatP= 6.32D-06
 IDIUse=1 WtCom= 1.00D+00 WtEn= 0.00D+00
 Coeff-Com: -0.247D-02 0.524D-02 0.195D-01-0.228D-01 0.147D+00 0.376D+00
 Coeff-Com:  0.477D+00
 Coeff:     -0.247D-02 0.524D-02 0.195D-01-0.228D-01 0.147D+00 0.376D+00
 Coeff:      0.477D+00
 Gap=     0.257 Goal=   None    Shift=    0.000
 RMSDP=1.10D-05 MaxDP=1.45D-04 DE=-6.24D-06 OVMax= 3.48D-04

 Cycle   8  Pass 0  IDiag  1:
 E= -228.725539136068     Delta-E=       -0.000000301215 Rises=F Damp=F
 DIIS: error= 1.72D-05 at cycle   8 NSaved=   8.
 NSaved= 8 IEnMin= 8 EnMin= -228.725539136068     IErMin= 8 ErrMin= 1.72D-05
 ErrMax= 1.72D-05  0.00D+00 EMaxC= 1.00D-01 BMatC= 1.91D-08 BMatP= 3.13D-07
 IDIUse=1 WtCom= 1.00D+00 WtEn= 0.00D+00
 Coeff-Com: -0.140D-03-0.352D-04 0.215D-02-0.233D-02 0.190D-01 0.101D+00
 Coeff-Com:  0.227D+00 0.653D+00
 Coeff:     -0.140D-03-0.352D-04 0.215D-02-0.233D-02 0.190D-01 0.101D+00
 Coeff:      0.227D+00 0.653D+00
 Gap=     0.257 Goal=   None    Shift=    0.000
 RMSDP=2.42D-06 MaxDP=2.55D-05 DE=-3.01D-07 OVMax= 3.70D-05

 Initial convergence to 1.0D-05 achieved.  Increase integral accuracy.
 Cycle   9  Pass 1  IDiag  1:
 E= -228.725574578217     Delta-E=       -0.000035442149 Rises=F Damp=F
 DIIS: error= 2.12D-05 at cycle   1 NSaved=   1.
 NSaved= 1 IEnMin= 1 EnMin= -228.725574578217     IErMin= 1 ErrMin= 2.12D-05
 ErrMax= 2.12D-05  0.00D+00 EMaxC= 1.00D-01 BMatC= 1.05D-08 BMatP= 1.05D-08
 IDIUse=1 WtCom= 1.00D+00 WtEn= 0.00D+00
 Coeff-Com:  0.100D+01
 Coeff:      0.100D+01
 Gap=     0.257 Goal=   None    Shift=    0.000
 RMSDP=2.42D-06 MaxDP=2.55D-05 DE=-3.54D-05 OVMax= 2.50D-05

 Cycle  10  Pass 1  IDiag  1:
 E= -228.725574591064     Delta-E=       -0.000000012847 Rises=F Damp=F
 DIIS: error= 5.55D-06 at cycle   2 NSaved=   2.
 NSaved= 2 IEnMin= 2 EnMin= -228.725574591064     IErMin= 2 ErrMin= 5.55D-06
 ErrMax= 5.55D-06  0.00D+00 EMaxC= 1.00D-01 BMatC= 1.39D-09 BMatP= 1.05D-08
 IDIUse=1 WtCom= 1.00D+00 WtEn= 0.00D+00
 Coeff-Com:  0.141D+00 0.859D+00
 Coeff:      0.141D+00 0.859D+00
 Gap=     0.257 Goal=   None    Shift=    0.000
 RMSDP=1.74D-06 MaxDP=1.52D-05 DE=-1.28D-08 OVMax= 3.64D-05

 Cycle  11  Pass 1  IDiag  1:
 E= -228.725574589523     Delta-E=        0.000000001542 Rises=F Damp=F
 DIIS: error= 9.01D-06 at cycle   3 NSaved=   3.
 NSaved= 3 IEnMin= 2 EnMin= -228.725574591064     IErMin= 2 ErrMin= 5.55D-06
 ErrMax= 9.01D-06  0.00D+00 EMaxC= 1.00D-01 BMatC= 3.06D-09 BMatP= 1.39D-09
 IDIUse=1 WtCom= 1.00D+00 WtEn= 0.00D+00
 Coeff-Com: -0.201D-01 0.607D+00 0.413D+00
 Coeff:     -0.201D-01 0.607D+00 0.413D+00
 Gap=     0.257 Goal=   None    Shift=    0.000
 RMSDP=1.12D-06 MaxDP=1.14D-05 DE= 1.54D-09 OVMax= 2.33D-05

 Cycle  12  Pass 1  IDiag  1:
 E= -228.725574592397     Delta-E=       -0.000000002874 Rises=F Damp=F
 DIIS: error= 6.95D-07 at cycle   4 NSaved=   4.
 NSaved= 4 IEnMin= 4 EnMin= -228.725574592397     IErMin= 4 ErrMin= 6.95D-07
 ErrMax= 6.95D-07  0.00D+00 EMaxC= 1.00D-01 BMatC= 2.73D-11 BMatP= 1.39D-09
 IDIUse=1 WtCom= 1.00D+00 WtEn= 0.00D+00
 Coeff-Com: -0.128D-01 0.271D+00 0.201D+00 0.541D+00
 Coeff:     -0.128D-01 0.271D+00 0.201D+00 0.541D+00
 Gap=     0.257 Goal=   None    Shift=    0.000
 RMSDP=1.07D-07 MaxDP=1.21D-06 DE=-2.87D-09 OVMax= 1.79D-06

 Cycle  13  Pass 1  IDiag  1:
 E= -228.725574592420     Delta-E=       -0.000000000024 Rises=F Damp=F
 DIIS: error= 1.98D-07 at cycle   5 NSaved=   5.
 NSaved= 5 IEnMin= 5 EnMin= -228.725574592420     IErMin= 5 ErrMin= 1.98D-07
 ErrMax= 1.98D-07  0.00D+00 EMaxC= 1.00D-01 BMatC= 1.81D-12 BMatP= 2.73D-11
 IDIUse=1 WtCom= 1.00D+00 WtEn= 0.00D+00
 Coeff-Com: -0.487D-02 0.808D-01 0.639D-01 0.256D+00 0.604D+00
 Coeff:     -0.487D-02 0.808D-01 0.639D-01 0.256D+00 0.604D+00
 Gap=     0.257 Goal=   None    Shift=    0.000
 RMSDP=2.66D-08 MaxDP=3.35D-07 DE=-2.38D-11 OVMax= 7.77D-07

 Cycle  14  Pass 1  IDiag  1:
 E= -228.725574592423     Delta-E=       -0.000000000003 Rises=F Damp=F
 DIIS: error= 6.73D-08 at cycle   6 NSaved=   6.
 NSaved= 6 IEnMin= 6 EnMin= -228.725574592423     IErMin= 6 ErrMin= 6.73D-08
 ErrMax= 6.73D-08  0.00D+00 EMaxC= 1.00D-01 BMatC= 2.02D-13 BMatP= 1.81D-12
 IDIUse=1 WtCom= 1.00D+00 WtEn= 0.00D+00
 Coeff-Com: -0.653D-03 0.703D-02 0.672D-02 0.643D-01 0.300D+00 0.623D+00
 Coeff:     -0.653D-03 0.703D-02 0.672D-02 0.643D-01 0.300D+00 0.623D+00
 Gap=     0.257 Goal=   None    Shift=    0.000
 RMSDP=1.13D-08 MaxDP=1.24D-07 DE=-3.07D-12 OVMax= 2.98D-07

 Cycle  15  Pass 1  IDiag  1:
 E= -228.725574592422     Delta-E=        0.000000000001 Rises=F Damp=F
 DIIS: error= 2.15D-08 at cycle   7 NSaved=   7.
 NSaved= 7 IEnMin= 6 EnMin= -228.725574592423     IErMin= 7 ErrMin= 2.15D-08
 ErrMax= 2.15D-08  0.00D+00 EMaxC= 1.00D-01 BMatC= 1.83D-14 BMatP= 2.02D-13
 IDIUse=1 WtCom= 1.00D+00 WtEn= 0.00D+00
 Coeff-Com: -0.153D-03-0.503D-03-0.118D-05 0.202D-01 0.122D+00 0.332D+00
 Coeff-Com:  0.526D+00
 Coeff:     -0.153D-03-0.503D-03-0.118D-05 0.202D-01 0.122D+00 0.332D+00
 Coeff:      0.526D+00
 Gap=     0.257 Goal=   None    Shift=    0.000
 RMSDP=3.22D-09 MaxDP=3.34D-08 DE= 1.42D-12 OVMax= 7.97D-08

 SCF Done:  E(RB3LYP) =  -228.725574592     A.U. after   15 cycles
            NFock= 15  Conv=0.32D-08     -V/T= 2.0069
 KE= 2.271648084501D+02 PE=-8.587079343613D+02 EE= 2.397658251139D+02
 Leave Link  502 at Tue Dec 15 16:29:48 2015, MaxMem=    33554432 cpu:         3.3
 (Enter /home/Applications/g09/g09/l801.exe)
 DoSCS=F DFT=T ScalE2(SS,OS)=  1.000000  1.000000
 ExpMin= 1.83D-01 ExpMax= 3.22D+02 ExpMxC= 3.22D+02 IAcc=3 IRadAn=         5 AccDes= 0.00D+00
 HarFok:  IExCor=  205 AccDes= 0.00D+00 IRadAn=         5 IDoV=-2 UseB2=F ITyADJ=14
 ICtDFT= 12500011 ScaDFX=  1.000000  1.000000  1.000000  1.000000
 Largest valence mixing into a core orbital is  1.72D-04
 Largest core mixing into a valence orbital is  4.31D-05
 Range of M.O.s used for correlation:     6    53
 NBasis=    53 NAE=    18 NBE=    18 NFC=     5 NFV=     0
 NROrb=     48 NOA=    13 NOB=    13 NVA=    35 NVB=    35
 Leave Link  801 at Tue Dec 15 16:29:49 2015, MaxMem=    33554432 cpu:         0.2
 (Enter /home/Applications/g09/g09/l914.exe)
 RHF ground state
 MDV=    33554432 DFT=T DoStab=F Mixed=T DoRPA=F DoScal=F NonHer=F
 Keep R1, R2, and R3 ints in memory in canonical form, NReq=5596273.
 FoFCou: FMM=F IPFlag=           0 FMFlag=           0 FMFlg1=           0
         NFxFlg=           0 DoJE=F BraDBF=F KetDBF=F FulRan=T
         wScrn=  0.000000 ICntrl=     600 IOpCl=  0 I1Cent=           0 NGrid=           0
         NMat0=    1 NMatS0=   1431 NMatT0=    0 NMatD0=    1 NMtDS0=    0 NMtDT0=    0
 Symmetry not used in FoFCou.
 Making orbital integer symmetry assigments:
 Orbital symmetries:
       Occupied  (A) (A) (A) (A) (A) (A) (A) (A) (A) (A) (A) (A)
                 (A) (A) (A) (A) (A) (A)
       Virtual   (A) (A) (A) (A) (A) (A) (A) (A) (A) (A) (A) (A)
                 (A) (A) (A) (A) (A) (A) (A) (A) (A) (A) (A) (A)
                 (A) (A) (A) (A) (A) (A) (A) (A) (A) (A) (A)
    60 initial guesses have been made.
 Convergence on wavefunction:    0.000001000000000
 Davidson Disk Diagonalization:  ConvIn= 1.00D-06 SkipCon=T Conv= 1.00D-06.
 Max sub-space:   240 roots to seek:    60 dimension of matrix:          910
 Iteration     1 Dimension    60 NMult     0 NNew     60
 CISAX will form    60 AO SS matrices at one time.
 NMat=    60 NSing=    60 JSym2X= 0.
 New state      1 was old state      2
 New state      2 was old state      1
 New state      3 was old state      6
 New state      4 was old state      5
 New state      5 was old state      7
 New state      6 was old state      8
 New state      7 was old state      9
 New state      8 was old state      4
 New state      9 was old state     11
 New state     10 was old state     13
 New state     11 was old state     12
 New state     12 was old state     10
 New state     13 was old state     14
 New state     14 was old state     15
 New state     15 was old state      3
 Excitation Energies [eV] at current iteration:
 Root      1 :     7.398290306387590
 Root      2 :     8.330502460938527
 Root      3 :     8.704637696611204
 Root      4 :     8.784783368379250
 Root      5 :     9.233707235470526
 Root      6 :     9.871904229312712
 Root      7 :    10.047142806430590
 Root      8 :    10.085232405948810
 Root      9 :    10.192351187263550
 Root     10 :    10.238922014703630
 Root     11 :    10.458501515083760
 Root     12 :    10.588932371246090
 Root     13 :    10.649810697283240
 Root     14 :    10.962148642691580
 Root     15 :    11.086527169993740
 Root     16 :    11.373244332388810
 Root     17 :    11.473269584342750
 Root     18 :    11.771569999374260
 Root     19 :    11.855670219511340
 Root     20 :    11.948905331546420
 Root     21 :    12.042792685173380
 Root     22 :    12.172101238464900
 Root     23 :    12.300630880058170
 Root     24 :    12.592333902370500
 Root     25 :    12.928753122922900
 Root     26 :    13.440347156836210
 Root     27 :    13.601099205394660
 Root     28 :    13.661656892880070
 Root     29 :    13.853540288915020
 Root     30 :    14.008320445461000
 Root     31 :    14.048266019295730
 Root     32 :    14.383930679902950
 Root     33 :    14.410309281200560
 Root     34 :    14.591206541572470
 Root     35 :    14.616606013227700
 Root     36 :    14.782693776164330
 Root     37 :    15.002686268288460
 Root     38 :    15.079934254917460
 Root     39 :    15.101286101319110
 Root     40 :    15.318027410256890
 Root     41 :    15.371516160770400
 Root     42 :    15.519486787842190
 Root     43 :    15.648012107437810
 Root     44 :    15.679386103680330
 Root     45 :    15.805518747139570
 Root     46 :    15.889260465937020
 Root     47 :    15.937884953726320
 Root     48 :    16.018870722043230
 Root     49 :    16.057271572337690
 Root     50 :    16.138809549403740
 Root     51 :    16.252165037033780
 Root     52 :    16.329720162192540
 Root     53 :    16.597423341544210
 Root     54 :    16.602045097345690
 Root     55 :    16.726080256672690
 Root     56 :    17.077205608669840
 Root     57 :    17.245969599924080
 Root     58 :    17.581491472387120
 Root     59 :    17.927365994716040
 Root     60 :    18.272857538119950
 Iteration     2 Dimension   120 NMult    60 NNew     60
 CISAX will form    60 AO SS matrices at one time.
 NMat=    60 NSing=    60 JSym2X= 0.
 Root      1 not converged, maximum delta is    0.205499630093697
 Root      2 not converged, maximum delta is    0.169951759817909
 Root      3 not converged, maximum delta is    0.071078223927388
 Root      4 not converged, maximum delta is    0.068092672101476
 Root      5 not converged, maximum delta is    0.065410770685172
 New state      6 was old state      8
 Root      6 not converged, maximum delta is    0.369284561804432
 New state      7 was old state      6
 Root      7 not converged, maximum delta is    0.146973060245422
 New state      8 was old state     15
 Root      8 not converged, maximum delta is    0.344652586714968
 New state      9 was old state      7
 Root      9 not converged, maximum delta is    0.327015983821454
 New state     10 was old state      9
 Root     10 not converged, maximum delta is    0.354488678899510
 New state     11 was old state     10
 Root     11 not converged, maximum delta is    0.333324902975601
 New state     12 was old state     11
 Root     12 not converged, maximum delta is    0.149511084684353
 New state     13 was old state     12
 Root     13 not converged, maximum delta is    0.060894749313831
 New state     14 was old state     13
 Root     14 not converged, maximum delta is    0.062588394764930
 New state     15 was old state     14
 Root     15 not converged, maximum delta is    0.206954034970423
 Excitation Energies [eV] at current iteration:
 Root      1 :     7.217748255185114   Change is   -0.180542051202477
 Root      2 :     7.550997672651222   Change is   -0.779504788287305
 Root      3 :     8.684684460239719   Change is   -0.019953236371485
 Root      4 :     8.758711325764134   Change is   -0.026072042615117
 Root      5 :     9.209459617695682   Change is   -0.024247617774844
 Root      6 :     9.432572857013779   Change is   -0.652659548935026
 Root      7 :     9.863324388278741   Change is   -0.008579841033971
 Root      8 :     9.927703910419039   Change is   -1.158823259574702
 Root      9 :    10.049463076564680   Change is    0.002320270134088
 Root     10 :    10.173113734007240   Change is   -0.019237453256310
 Root     11 :    10.197917781690090   Change is   -0.041004233013536
 Root     12 :    10.460881258156310   Change is    0.002379743072553
 Root     13 :    10.579435661716640   Change is   -0.009496709529455
 Root     14 :    10.635569595595930   Change is   -0.014241101687310
 Root     15 :    10.972171340791990   Change is    0.010022698100412
 Root     16 :    11.365086990867000   Change is   -0.008157341521811
 Root     17 :    11.455996391781860   Change is   -0.017273192560891
 Root     18 :    11.742930473103460   Change is   -0.028639526270804
 Root     19 :    11.836224637751150   Change is   -0.019445581760184
 Root     20 :    11.918041313271050   Change is   -0.030864018275370
 Root     21 :    11.997107585955000   Change is   -0.045685099218382
 Root     22 :    12.138161092764040   Change is   -0.033940145700860
 Root     23 :    12.216694033666790   Change is   -0.083936846391376
 Root     24 :    12.471400564800880   Change is   -0.120933337569626
 Root     25 :    12.903826587630350   Change is   -0.024926535292546
 Root     26 :    13.278861015927970   Change is   -0.574679272987043
 Root     27 :    13.410874417063480   Change is   -0.029472739772734
 Root     28 :    13.556117239705010   Change is   -0.044981965689647
 Root     29 :    13.614967812597950   Change is   -0.046689080282112
 Root     30 :    13.914147755688960   Change is   -0.094172689772040
 Root     31 :    13.961756374662260   Change is   -0.086509644633475
 Root     32 :    14.135822710439970   Change is   -0.248107969462975
 Root     33 :    14.232545542440580   Change is   -0.847388712476882
 Root     34 :    14.367358534267500   Change is   -0.042950746933064
 Root     35 :    14.520173733606590   Change is   -0.071032807965874
 Root     36 :    14.553525471544430   Change is   -0.229168304619899
 Root     37 :    14.573662016684950   Change is   -0.042943996542746
 Root     38 :    14.895696206972060   Change is   -0.106990061316396
 Root     39 :    15.077914190428030   Change is   -0.023371910891076
 Root     40 :    15.213595961927840   Change is   -0.104431448329047
 Root     41 :    15.294965660682570   Change is   -0.076550500087835
 Root     42 :    15.362975849956140   Change is   -0.316410253724193
 Root     43 :    15.424035838298250   Change is   -0.095450949543935
 Root     44 :    15.501343133631340   Change is   -0.304175613508230
 Root     45 :    15.619047511978330   Change is   -0.028964595459479
 Root     46 :    15.751010651184480   Change is   -0.267860070858755
 Root     47 :    15.814331903964120   Change is   -0.074928561972904
 Root     48 :    15.842660606085710   Change is   -0.095224347640605
 Root     49 :    15.877951111907490   Change is   -0.179320460430204
 Root     50 :    15.927518894251620   Change is   -0.402201267940924
 Root     51 :    15.942989669147200   Change is   -0.195819880256540
 Root     52 :    16.223465252919920   Change is   -0.028699784113862
 Root     53 :    16.235193667253650   Change is   -0.366851430092040
 Root     54 :    16.533229803898440   Change is   -0.064193537645770
 Root     55 :    16.644607054112200   Change is   -0.081473202560485
 Root     56 :    16.739165279915530   Change is   -0.338040328754310
 Root     57 :    16.910235674387950   Change is   -1.017130320328095
 Root     58 :    17.044717703200520   Change is   -0.536773769186605
 Root     59 :    17.153762651930150   Change is   -1.119094886189802
 Root     60 :    17.222282595346280   Change is   -0.023687004577797
 Iteration     3 Dimension   135 NMult   120 NNew     15
 CISAX will form    15 AO SS matrices at one time.
 NMat=    15 NSing=    15 JSym2X= 0.
 Root      1 not converged, maximum delta is    0.001327081566989
 Root      2 not converged, maximum delta is    0.002471267294532
 Root      3 not converged, maximum delta is    0.000151217734594
 Root      4 not converged, maximum delta is    0.000256717783097
 Root      5 not converged, maximum delta is    0.000952738060820
 Root      6 not converged, maximum delta is    0.002765320692493
 Root      7 not converged, maximum delta is    0.005657096203726
 Root      8 not converged, maximum delta is    0.006543922811876
 Root      9 not converged, maximum delta is    0.000402613460929
 Root     10 not converged, maximum delta is    0.000885345673688
 Root     11 not converged, maximum delta is    0.000562837294215
 Root     12 not converged, maximum delta is    0.000594797330883
 Root     13 not converged, maximum delta is    0.000261676408107
 Root     14 not converged, maximum delta is    0.000227863672087
 Root     15 not converged, maximum delta is    0.000260148031527
 Excitation Energies [eV] at current iteration:
 Root      1 :     7.216520686713032   Change is   -0.001227568472082
 Root      2 :     7.549178626622484   Change is   -0.001819046028737
 Root      3 :     8.684667455132272   Change is   -0.000017005107447
 Root      4 :     8.758683980552433   Change is   -0.000027345211701
 Root      5 :     9.209324355258092   Change is   -0.000135262437591
 Root      6 :     9.429992336214836   Change is   -0.002580520798944
 Root      7 :     9.863152801657725   Change is   -0.000171586621016
 Root      8 :     9.924205222121143   Change is   -0.003498688297896
 Root      9 :    10.049448782198920   Change is   -0.000014294365758
 Root     10 :    10.172987382212180   Change is   -0.000126351795060
 Root     11 :    10.197863061581560   Change is   -0.000054720108531
 Root     12 :    10.460712995905240   Change is   -0.000168262251067
 Root     13 :    10.579403519181320   Change is   -0.000032142535320
 Root     14 :    10.635542774771500   Change is   -0.000026820824435
 Root     15 :    10.972135135328400   Change is   -0.000036205463595
 Iteration     4 Dimension   150 NMult   135 NNew     15
 CISAX will form    15 AO SS matrices at one time.
 NMat=    15 NSing=    15 JSym2X= 0.
 Root      1 not converged, maximum delta is    0.000056031132495
 Root      2 not converged, maximum delta is    0.000074739823470
 Root      3 not converged, maximum delta is    0.000005330887567
 Root      4 not converged, maximum delta is    0.000006109319008
 Root      5 not converged, maximum delta is    0.000013638306813
 Root      6 not converged, maximum delta is    0.000067728664769
 Root      7 not converged, maximum delta is    0.000016125438024
 Root      8 not converged, maximum delta is    0.000077695301241
 Root      9 not converged, maximum delta is    0.000004850693552
 Root     10 not converged, maximum delta is    0.000016422160170
 Root     11 not converged, maximum delta is    0.000008499284574
 Root     12 not converged, maximum delta is    0.000018631838784
 Root     13 not converged, maximum delta is    0.000007210435932
 Root     14 not converged, maximum delta is    0.000005987272254
 Root     15 not converged, maximum delta is    0.000006510105993
 Excitation Energies [eV] at current iteration:
 Root      1 :     7.216519196022553   Change is   -0.000001490690479
 Root      2 :     7.549176522462142   Change is   -0.000002104160342
 Root      3 :     8.684667442518343   Change is   -0.000000012613928
 Root      4 :     8.758683959569520   Change is   -0.000000020982913
 Root      5 :     9.209324168340125   Change is   -0.000000186917966
 Root      6 :     9.429988567238674   Change is   -0.000003768976162
 Root      7 :     9.863152525748518   Change is   -0.000000275909206
 Root      8 :     9.924199672754796   Change is   -0.000005549366348
 Root      9 :    10.049448769818270   Change is   -0.000000012380650
 Root     10 :    10.172987202697540   Change is   -0.000000179514640
 Root     11 :    10.197862996025060   Change is   -0.000000065556500
 Root     12 :    10.460712748474130   Change is   -0.000000247431106
 Root     13 :    10.579403487234140   Change is   -0.000000031947180
 Root     14 :    10.635542748594510   Change is   -0.000000026176990
 Root     15 :    10.972135101351780   Change is   -0.000000033976619
 Iteration     5 Dimension   165 NMult   150 NNew     15
 CISAX will form    15 AO SS matrices at one time.
 NMat=    15 NSing=    15 JSym2X= 0.
 Root      1 not converged, maximum delta is    0.000001289451112
 Root      2 not converged, maximum delta is    0.000002212117303
 Root      3 has converged.
 Root      4 has converged.
 Root      5 has converged.
 Root      6 not converged, maximum delta is    0.000002391235592
 Root      7 has converged.
 Root      8 not converged, maximum delta is    0.000002758195951
 Root      9 has converged.
 Root     10 has converged.
 Root     11 has converged.
 Root     12 has converged.
 Root     13 has converged.
 Root     14 has converged.
 Root     15 has converged.
 Excitation Energies [eV] at current iteration:
 Root      1 :     7.216519194647320   Change is   -0.000000001375232
 Root      2 :     7.549176520667849   Change is   -0.000000001794292
 Root      3 :     8.684667442508621   Change is   -0.000000000009723
 Root      4 :     8.758683959553577   Change is   -0.000000000015942
 Root      5 :     9.209324168181377   Change is   -0.000000000158748
 Root      6 :     9.429988563790410   Change is   -0.000000003448265
 Root      7 :     9.863152525522755   Change is   -0.000000000225763
 Root      8 :     9.924199668040504   Change is   -0.000000004714291
 Root      9 :    10.049448769806090   Change is   -0.000000000012179
 Root     10 :    10.172987202528620   Change is   -0.000000000168925
 Root     11 :    10.197862995965870   Change is   -0.000000000059193
 Root     12 :    10.460712748238520   Change is   -0.000000000235610
 Root     13 :    10.579403487198630   Change is   -0.000000000035502
 Root     14 :    10.635542748569780   Change is   -0.000000000024730
 Root     15 :    10.972135101311010   Change is   -0.000000000040769
 Iteration     6 Dimension   169 NMult   165 NNew      4
 CISAX will form     4 AO SS matrices at one time.
 NMat=     4 NSing=     4 JSym2X= 0.
 Root      1 has converged.
 Root      2 has converged.
 Root      3 has converged.
 Root      4 has converged.
 Root      5 has converged.
 Root      6 has converged.
 Root      7 has converged.
 Root      8 has converged.
 Root      9 has converged.
 Root     10 has converged.
 Root     11 has converged.
 Root     12 has converged.
 Root     13 has converged.
 Root     14 has converged.
 Root     15 has converged.
 Excitation Energies [eV] at current iteration:
 Root      1 :     7.216519194646878   Change is   -0.000000000000443
 Root      2 :     7.549176520666963   Change is   -0.000000000000887
 Root      3 :     8.684667442508632   Change is    0.000000000000012
 Root      4 :     8.758683959553585   Change is    0.000000000000008
 Root      5 :     9.209324168181242   Change is   -0.000000000000134
 Root      6 :     9.429988563787463   Change is   -0.000000000002947
 Root      7 :     9.863152525522628   Change is   -0.000000000000127
 Root      8 :     9.924199668037154   Change is   -0.000000000003350
 Root      9 :    10.049448769806080   Change is   -0.000000000000011
 Root     10 :    10.172987202528510   Change is   -0.000000000000109
 Root     11 :    10.197862995965820   Change is   -0.000000000000041
 Root     12 :    10.460712748238320   Change is   -0.000000000000205
 Root     13 :    10.579403487198610   Change is   -0.000000000000026
 Root     14 :    10.635542748569760   Change is   -0.000000000000023
 Root     15 :    10.972135101310990   Change is   -0.000000000000024
 Convergence achieved on expansion vectors.
 ***********************************************************************
 Excited states from <AA,BB:AA,BB> singles matrix:
 ***********************************************************************
 
 1PDM for each excited state written to RWF  633
 Ground to excited state transition densities written to RWF  633
 Ground to excited state transition electric dipole moments (Au):
       state          X           Y           Z        Dip. S.      Osc.
         1         0.5876      0.0999     -0.0246      0.3558      0.0629
         2         0.9624      0.1972     -0.0135      0.9653      0.1785
         3        -0.0483      0.0345     -0.1232      0.0187      0.0040
         4        -0.0650      0.0388     -0.0493      0.0082      0.0017
         5        -0.0758      0.2257     -0.0561      0.0599      0.0135
         6         0.7896     -0.8181     -0.0206      1.2932      0.2988
         7         0.1249      0.2518     -0.0570      0.0823      0.0199
         8         0.3239      1.2446     -0.0438      1.6560      0.4026
         9         0.0254      0.0049     -0.0003      0.0007      0.0002
        10         0.0460     -0.2142      0.0744      0.0535      0.0133
        11         0.0814      0.0835      0.1393      0.0330      0.0083
        12        -0.0961     -0.2213      0.0305      0.0592      0.0152
        13         0.0494     -0.0680     -0.0565      0.0102      0.0027
        14        -0.0345     -0.0128      0.0465      0.0035      0.0009
        15        -0.0475      0.0771     -0.1359      0.0267      0.0072
 Ground to excited state transition velocity dipole moments (Au):
       state          X           Y           Z        Dip. S.      Osc.
         1        -0.0020     -0.0374      0.0002      0.0014      0.0035
         2        -0.0083      0.0226      0.0009      0.0006      0.0014
         3         0.0033      0.0002      0.0660      0.0044      0.0091
         4         0.0066     -0.0006      0.0284      0.0009      0.0018
         5         0.0103     -0.0039      0.0198      0.0005      0.0010
         6        -0.0797      0.0198      0.0148      0.0070      0.0134
         7        -0.0154     -0.0117     -0.0578      0.0037      0.0068
         8        -0.0240     -0.0596      0.0174      0.0044      0.0081
         9         0.0008      0.0032      0.0093      0.0001      0.0002
        10        -0.0086      0.0115     -0.0366      0.0015      0.0028
        11        -0.0118     -0.0045     -0.0424      0.0020      0.0035
        12         0.0125      0.0115      0.0133      0.0005      0.0008
        13        -0.0047      0.0045     -0.0134      0.0002      0.0004
        14         0.0105     -0.0019     -0.0016      0.0001      0.0002
        15         0.0127     -0.0093      0.0214      0.0007      0.0012
 Ground to excited state transition magnetic dipole moments (Au):
       state          X           Y           Z
         1         0.0086      0.0139      0.1829
         2        -0.0785     -0.0344      0.3145
         3        -1.2727     -0.2801     -0.0107
         4        -0.9415      0.0795     -0.0087
         5         0.0988      0.4886      0.0055
         6        -0.0311     -0.0256     -0.1288
         7        -0.1189      0.1317     -0.0744
         8         0.0728     -0.0653     -0.2872
         9         0.0779      0.3170      0.0057
        10         0.1278      0.7180      0.0377
        11        -0.1243      0.4879      0.0161
        12        -0.3468      0.0543      0.0740
        13        -0.1105      0.0436      0.0097
        14        -0.3420     -0.2134     -0.0156
        15         0.1496      0.2126     -0.0501
 Ground to excited state transition velocity quadrupole moments (Au):
       state          XX          YY          ZZ          XY          XZ          YZ
         1        -0.0328     -0.0244      0.0229      0.0718     -0.0044     -0.0015
         2        -0.0678      0.0251      0.0005      0.2402     -0.0082     -0.0056
         3         0.0154      0.0004     -0.0006     -0.0105      0.1264     -0.1625
         4         0.0138     -0.0057     -0.0058     -0.0199     -0.1051     -0.0734
         5         0.0149     -0.0240     -0.0052      0.0607      0.0552     -0.0289
         6        -0.1215      0.0932      0.0178     -0.2789      0.0143     -0.0050
         7         0.0557     -0.0536     -0.0111     -0.0479      0.0783     -0.0162
         8         0.3229     -0.2461     -0.0435     -0.2040     -0.0031      0.0017
         9        -0.0244     -0.0054      0.0029     -0.0173     -0.0969     -0.0452
        10        -0.0435      0.0362      0.0101      0.0021     -0.0069      0.0590
        11         0.0145     -0.0247     -0.0038     -0.0270     -0.0545     -0.0451
        12        -0.0532      0.0375      0.0048      0.0609     -0.0007     -0.1428
        13        -0.0190      0.0209     -0.0047     -0.0146      0.0285     -0.1180
        14        -0.0048      0.0117      0.0093      0.0138      0.0511      0.0167
        15         0.0326     -0.0118     -0.0048      0.0233      0.0103     -0.0360
 <0|del|b> * <b|rxdel|0> + <0|del|b> * <b|delr+rdel|0>
 Rotatory Strengths (R) in cgs (10**-40 erg-esu-cm/Gauss)
       state          XX          YY          ZZ    R(velocity)    E-M Angle
         1        -0.8560      0.0061     -0.4982     -0.4494       94.22
         2        -0.1005      0.9738     -0.4606      0.1376       88.82
         3        -1.6484     -5.2105     -4.0565     -3.6384       93.28
         4        -1.0055     -6.9820     -6.2562     -4.7479      103.60
         5        -0.4148     -0.3923     -0.8711     -0.5594       94.07
         6        -6.9647      5.2003      1.8953      0.0436       90.00
         7         6.2917      3.5284     -0.8510      2.9897       66.93
         8        -4.7081     -3.1416      2.2945     -1.8517       98.15
         9         1.1498      0.2298      0.7569      0.7122       69.78
        10         6.5348     -2.7570      7.2032      3.6603       78.35
        11        -1.8660      0.1651     -0.9556     -0.8855       93.62
        12         2.2363     -5.4797     -1.7824     -1.6753      110.63
        13         0.1212      0.6704      0.2628      0.3515       70.86
        14         0.4552     -3.0363     -3.1184     -1.8998      136.54
        15        -2.1609     -0.1133      0.2467     -0.6758       99.44
 1/2[<0|r|b>*<b|rxdel|0> + (<0|rxdel|b>*<b|r|0>)*]
 Rotatory Strengths (R) in cgs (10**-40 erg-esu-cm/Gauss)
       state          XX          YY          ZZ     R(length)
         1        -3.5544     -0.9808      3.1818     -0.4512
         2        53.4068      4.7999      3.0042     20.4036
         3       -43.5080      6.8416     -0.9312    -12.5326
         4       -43.2446     -2.1835     -0.3016    -15.2432
         5         5.2977    -78.0033      0.2190    -24.1622
         6        17.3572    -14.8147     -1.8737      0.2229
         7        10.5010    -23.4485     -3.0004     -5.3159
         8       -16.6836     57.4371     -8.8907     10.6209
         9        -1.3970     -1.1085      0.0013     -0.8347
        10        -4.1597    108.7816     -1.9846     34.2124
        11         7.1561    -28.8151     -1.5870     -7.7487
        12       -23.5695      8.5056     -1.5960     -5.5533
        13         3.8593      2.0958      0.3893      2.1148
        14        -8.3404     -1.9344      0.5114     -3.2545
        15         5.0236    -11.5931     -4.8191     -3.7962
  1/2[<0|del|b>*<b|r|0> + (<0|r|b>*<b|del|0>)*] (Au)
       state          X           Y           Z        Dip. S.   Osc.(frdel)
         1        -0.0012     -0.0037      0.0000      0.0049      0.0033
         2        -0.0080      0.0045      0.0000      0.0035      0.0023
         3        -0.0002      0.0000     -0.0081      0.0083      0.0055
         4        -0.0004      0.0000     -0.0014      0.0018      0.0012
         5        -0.0008     -0.0009     -0.0011      0.0028      0.0019
         6        -0.0629     -0.0162     -0.0003      0.0795      0.0530
         7        -0.0019     -0.0029      0.0033      0.0016      0.0011
         8        -0.0078     -0.0742     -0.0008      0.0828      0.0552
         9         0.0000      0.0000      0.0000      0.0000      0.0000
        10        -0.0004     -0.0025     -0.0027      0.0056      0.0037
        11        -0.0010     -0.0004     -0.0059      0.0072      0.0048
        12        -0.0012     -0.0025      0.0004      0.0033      0.0022
        13        -0.0002     -0.0003      0.0008     -0.0002     -0.0001
        14        -0.0004      0.0000     -0.0001      0.0004      0.0003
        15        -0.0006     -0.0007     -0.0029      0.0042      0.0028

 Excitation energies and oscillator strengths:
 
 Excited State   1:      Singlet-A      7.2165 eV  171.81 nm  f=0.0629  <S**2>=0.000
      17 -> 19         0.44617
      18 -> 19         0.36715
      18 -> 20         0.38599
 This state for optimization and/or second-order correction.
 Total Energy, E(CIS) =  -228.460372380    
 Copying the excited state density for this state as the 1-particle RhoCI density.
 
 Excited State   2:      Singlet-A      7.5492 eV  164.24 nm  f=0.1785  <S**2>=0.000
      17 -> 19        -0.23538
      18 -> 19         0.57162
      18 -> 20        -0.30279
 
 Excited State   3:      Singlet-A      8.6847 eV  142.76 nm  f=0.0040  <S**2>=0.000
      16 -> 19         0.56238
      18 -> 21        -0.41523
 
 Excited State   4:      Singlet-A      8.7587 eV  141.56 nm  f=0.0017  <S**2>=0.000
      16 -> 19         0.41674
      18 -> 21         0.56131
 
 Excited State   5:      Singlet-A      9.2093 eV  134.63 nm  f=0.0135  <S**2>=0.000
      18 -> 22         0.67935
 
 Excited State   6:      Singlet-A      9.4300 eV  131.48 nm  f=0.2988  <S**2>=0.000
      17 -> 19         0.34012
      17 -> 20         0.46960
      18 -> 20        -0.31486
      18 -> 22         0.13467
 
 Excited State   7:      Singlet-A      9.8632 eV  125.70 nm  f=0.0199  <S**2>=0.000
      17 -> 20         0.12296
      17 -> 21         0.59916
      18 -> 23        -0.29098
 
 Excited State   8:      Singlet-A      9.9242 eV  124.93 nm  f=0.4026  <S**2>=0.000
      17 -> 19        -0.27504
      17 -> 20         0.45821
      17 -> 21        -0.17730
      18 -> 20         0.33279
 
 Excited State   9:      Singlet-A     10.0494 eV  123.37 nm  f=0.0002  <S**2>=0.000
      15 -> 19         0.30126
      16 -> 20         0.12584
      17 -> 21         0.25597
      18 -> 23         0.55822
 
 Excited State  10:      Singlet-A     10.1730 eV  121.88 nm  f=0.0133  <S**2>=0.000
      14 -> 19         0.22051
      15 -> 19         0.44478
      16 -> 20         0.35857
      17 -> 21        -0.17272
      18 -> 23        -0.26735
 
 Excited State  11:      Singlet-A     10.1979 eV  121.58 nm  f=0.0083  <S**2>=0.000
      14 -> 19         0.29727
      15 -> 19        -0.43779
      16 -> 20         0.44307
      18 -> 23         0.11284
 
 Excited State  12:      Singlet-A     10.4607 eV  118.52 nm  f=0.0152  <S**2>=0.000
      17 -> 22         0.67200
      18 -> 24         0.14296
 
 Excited State  13:      Singlet-A     10.5794 eV  117.19 nm  f=0.0027  <S**2>=0.000
      14 -> 19         0.14020
      16 -> 20        -0.14479
      17 -> 22        -0.13273
      18 -> 24         0.62775
      18 -> 25         0.17668
 
 Excited State  14:      Singlet-A     10.6355 eV  116.58 nm  f=0.0009  <S**2>=0.000
      14 -> 19         0.56561
      16 -> 20        -0.35111
      18 -> 24        -0.20006
 
 Excited State  15:      Singlet-A     10.9721 eV  113.00 nm  f=0.0072  <S**2>=0.000
      18 -> 24        -0.16812
      18 -> 25         0.66795
 SavETr:  write IOETrn=   770 NScale= 10 NData=  16 NLR=1 NState=   15 LETran=     280.
 The selected state is a singlet
 CISAX will form     1 AO SS matrices at one time.
 NMat=     1 NSing=     1 JSym2X= 0.
 CISAX will form     1 AO SS matrices at one time.
 NMat=     1 NSing=     1 JSym2X= 0.
 Leave Link  914 at Tue Dec 15 16:30:15 2015, MaxMem=    33554432 cpu:        26.7
 (Enter /home/Applications/g09/g09/l1002.exe)
 Minotr:  Closed shell wavefunction.
          Computing CIS/TD-HF/TD-KS derivatives.
          Using Z-Vector for PSCF gradient.
          Skipping F1 and S1 gradient terms here.
          IDoAtm=111111111
          Frozen-core window.
          Direct CPHF calculation.
          Differentiating once with respect to electric field.
                with respect to dipole field.
          Differentiating once with respect to nuclear coordinates.
          Requested convergence is 1.0D-10 RMS, and 1.0D-09 maximum.
          NewPWx=F KeepS1=T KeepF1=T KeepIn=T MapXYZ=F SortEE=F KeepMc=T.
          MDV=      33554290 using IRadAn=       0.
 Using stored XC quadrature information.
 Keep R1 ints in memory in canonical form, NReq=1898913.
 FoFCou: FMM=F IPFlag=           0 FMFlag=           0 FMFlg1=           0
         NFxFlg=           0 DoJE=F BraDBF=F KetDBF=F FulRan=T
         wScrn=  0.000000 ICntrl=     600 IOpCl=  0 I1Cent=           0 NGrid=           0
         NMat0=    1 NMatS0=   1431 NMatT0=    0 NMatD0=    1 NMtDS0=    0 NMtDT0=    0
 Symmetry not used in FoFCou.
          Solving linear equations separately, MaxMat=       0.
          There are     1 degrees of freedom in the 1st order CPHF.  IDoFFX=0 NUNeed=     1.
 LinEq1:  Iter=  0 NonCon=     1 RMS=3.81D-02 Max=6.08D-01 NDo=     1
 AX will form     1 AO Fock derivatives at one time.
 LinEq1:  Iter=  1 NonCon=     1 RMS=1.18D-02 Max=1.46D-01 NDo=     1
 LinEq1:  Iter=  2 NonCon=     1 RMS=9.18D-03 Max=1.44D-01 NDo=     1
 LinEq1:  Iter=  3 NonCon=     1 RMS=3.49D-03 Max=4.20D-02 NDo=     1
 LinEq1:  Iter=  4 NonCon=     1 RMS=2.52D-03 Max=3.28D-02 NDo=     1
 LinEq1:  Iter=  5 NonCon=     1 RMS=8.00D-04 Max=7.72D-03 NDo=     1
 LinEq1:  Iter=  6 NonCon=     1 RMS=3.94D-04 Max=3.88D-03 NDo=     1
 LinEq1:  Iter=  7 NonCon=     1 RMS=1.72D-04 Max=1.99D-03 NDo=     1
 LinEq1:  Iter=  8 NonCon=     1 RMS=6.95D-05 Max=4.33D-04 NDo=     1
 LinEq1:  Iter=  9 NonCon=     1 RMS=9.47D-06 Max=5.71D-05 NDo=     1
 LinEq1:  Iter= 10 NonCon=     1 RMS=1.20D-06 Max=7.31D-06 NDo=     1
 LinEq1:  Iter= 11 NonCon=     1 RMS=1.87D-07 Max=1.17D-06 NDo=     1
 LinEq1:  Iter= 12 NonCon=     1 RMS=1.69D-08 Max=1.02D-07 NDo=     1
 LinEq1:  Iter= 13 NonCon=     1 RMS=1.55D-09 Max=1.16D-08 NDo=     1
 LinEq1:  Iter= 14 NonCon=     1 RMS=1.79D-10 Max=8.53D-10 NDo=     1
 LinEq1:  Iter= 15 NonCon=     0 RMS=1.93D-11 Max=1.06D-10 NDo=     1
 Linear equations converged to 1.000D-10 1.000D-09 after    15 iterations.
 End of Minotr F.D. properties file   721 does not exist.
 End of Minotr F.D. properties file   722 does not exist.
 End of Minotr F.D. properties file   788 does not exist.
 Leave Link 1002 at Tue Dec 15 16:30:30 2015, MaxMem=    33554432 cpu:        14.4
 (Enter /home/Applications/g09/g09/l601.exe)
 Copying SCF densities to generalized density rwf, IOpCl= 0 IROHF=0.

 **********************************************************************

            Population analysis using the SCF density.

 **********************************************************************

 Orbital symmetries:
       Occupied  (A) (A) (A) (A) (A) (A) (A) (A) (A) (A) (A) (A)
                 (A) (A) (A) (A) (A) (A)
       Virtual   (A) (A) (A) (A) (A) (A) (A) (A) (A) (A) (A) (A)
                 (A) (A) (A) (A) (A) (A) (A) (A) (A) (A) (A) (A)
                 (A) (A) (A) (A) (A) (A) (A) (A) (A) (A) (A)
 The electronic state is 1-A.
 Alpha  occ. eigenvalues --  -19.12076 -10.17782 -10.17153 -10.12684 -10.11223
 Alpha  occ. eigenvalues --   -1.16635  -0.80270  -0.76263  -0.61100  -0.57191
 Alpha  occ. eigenvalues --   -0.55096  -0.47080  -0.46249  -0.41442  -0.40150
 Alpha  occ. eigenvalues --   -0.35148  -0.27544  -0.23032
 Alpha virt. eigenvalues --    0.02716   0.08207   0.13208   0.15627   0.18276
 Alpha virt. eigenvalues --    0.19833   0.22006   0.25242   0.35693   0.41777
 Alpha virt. eigenvalues --    0.49514   0.69603   0.69785   0.71681   0.74909
 Alpha virt. eigenvalues --    0.76943   0.78396   0.78827   0.82965   0.83993
 Alpha virt. eigenvalues --    0.93304   0.98914   1.00140   1.05386   1.19364
 Alpha virt. eigenvalues --    1.21278   1.34048   1.38063   1.50336   1.57344
 Alpha virt. eigenvalues --    1.61656   1.73399   1.97231   2.10707   3.25251
     Molecular Orbital Coefficients:
                           1         2         3         4         5
                           O         O         O         O         O
     Eigenvalues --   -19.12076 -10.17782 -10.17153 -10.12684 -10.11223
   1 1   C  1S          0.00015  -0.00728  -0.00066  -0.04044   0.98518
   2        2S          0.00059  -0.00518  -0.00016  -0.00838   0.11052
   3        2PX        -0.00116  -0.00144   0.00005   0.00101  -0.00097
   4        2PY         0.00072   0.00301   0.00071   0.00051  -0.00162
   5        2PZ        -0.00006  -0.00001  -0.00004   0.00004   0.00019
   6        3S         -0.00677   0.03575  -0.01682   0.03862  -0.10608
   7        3PX         0.00658   0.00555   0.00298  -0.01964   0.01726
   8        3PY         0.00968  -0.01878   0.01192  -0.01003   0.02981
   9        3PZ         0.00043   0.00032   0.00007   0.00004  -0.00072
  10 2   C  1S         -0.00015   0.98493   0.02997   0.00023   0.00698
  11        2S          0.00023   0.10709  -0.00002  -0.00065  -0.00426
  12        2PX        -0.00212  -0.00339   0.00092   0.00014   0.00079
  13        2PY        -0.00193  -0.00067  -0.00054  -0.00087  -0.00246
  14        2PZ         0.00003  -0.00002   0.00003   0.00002   0.00007
  15        3S          0.02345  -0.07336   0.01792  -0.00877   0.04608
  16        3PX        -0.01896   0.00783  -0.01817   0.00241  -0.01703
  17        3PY        -0.00203  -0.01740   0.01011  -0.00063   0.01986
  18        3PZ        -0.00064   0.00015  -0.00041   0.00009  -0.00058
  19 3   O  1S          0.98289   0.00040   0.00028   0.00007   0.00007
  20        2S          0.10903   0.00191   0.00198   0.00027   0.00026
  21        2PX         0.00003  -0.00024  -0.00057  -0.00005   0.00002
  22        2PY         0.00439   0.00007   0.00074  -0.00013  -0.00007
  23        2PZ         0.00009   0.00003   0.00002   0.00001   0.00000
  24        3S         -0.06577  -0.00288  -0.00164  -0.00369  -0.00437
  25        3PX        -0.00103  -0.00219   0.00066   0.00249  -0.00223
  26        3PY        -0.01503  -0.00465  -0.00443  -0.00115  -0.00221
  27        3PZ        -0.00026  -0.00023  -0.00009  -0.00010   0.00002
  28 4   C  1S         -0.00038  -0.03109   0.98493   0.01228   0.00102
  29        2S         -0.00034  -0.00638   0.10645  -0.00247  -0.00032
  30        2PX         0.00211  -0.00106   0.00223  -0.00065  -0.00007
  31        2PY        -0.00159  -0.00077  -0.00045  -0.00141  -0.00111
  32        2PZ        -0.00005  -0.00004  -0.00019  -0.00001   0.00002
  33        3S          0.01426   0.01488  -0.07081   0.03374  -0.00740
  34        3PX         0.01502   0.01619  -0.00734   0.01445  -0.00446
  35        3PY         0.00233   0.01266  -0.01457   0.01809  -0.00122
  36        3PZ        -0.00026   0.00010   0.00056  -0.00030   0.00007
  37 5   C  1S          0.00016  -0.00024  -0.01266   0.98517   0.03993
  38        2S          0.00062  -0.00016  -0.00482   0.10961   0.00069
  39        2PX         0.00106  -0.00010   0.00101   0.00125  -0.00107
  40        2PY         0.00100   0.00053   0.00190  -0.00143   0.00046
  41        2PZ         0.00000   0.00001  -0.00002   0.00003   0.00004
  42        3S         -0.00441  -0.01408   0.03200  -0.09817   0.03319
  43        3PX        -0.00378  -0.00090  -0.00222  -0.01950   0.02137
  44        3PY         0.00564   0.00928  -0.01672   0.02295  -0.00862
  45        3PZ        -0.00022  -0.00026   0.00011  -0.00015  -0.00022
  46 6   H  1S         -0.00075  -0.00020  -0.00114  -0.00368  -0.00011
  47        2S         -0.00207  -0.00081   0.00148   0.00506   0.00542
  48 7   H  1S          0.00062   0.00169  -0.00433  -0.00019  -0.00022
  49        2S          0.00491   0.00843   0.01047   0.00580  -0.00038
  50 8   H  1S          0.00038  -0.00239   0.00133   0.00010  -0.00033
  51        2S          0.00413   0.00828   0.00737   0.00090   0.00461
  52 9   H  1S         -0.00118  -0.00110  -0.00065  -0.00039  -0.00448
  53        2S         -0.00451   0.00160  -0.00243   0.00389   0.00462
                           6         7         8         9        10
                           O         O         O         O         O
     Eigenvalues --    -1.16635  -0.80270  -0.76263  -0.61100  -0.57191
   1 1   C  1S         -0.02631  -0.15558   0.05950   0.09740   0.03664
   2        2S          0.02573   0.16560  -0.06524  -0.09925  -0.03497
   3        2PX        -0.00689  -0.05494  -0.04811  -0.11757   0.12802
   4        2PY        -0.03427  -0.06585   0.06131   0.03101  -0.10870
   5        2PZ         0.00075   0.00559  -0.00225  -0.00690  -0.00188
   6        3S          0.05156   0.31723  -0.10128  -0.32506  -0.12359
   7        3PX        -0.03517  -0.02421   0.02439  -0.02612   0.05106
   8        3PY        -0.05160  -0.03873  -0.01357   0.04184  -0.02500
   9        3PZ        -0.00179   0.00368  -0.00096  -0.00523  -0.00189
  10 2   C  1S         -0.09039  -0.05418   0.13954   0.00451  -0.10440
  11        2S          0.09814   0.06493  -0.15346  -0.00542   0.11631
  12        2PX        -0.10136  -0.01395   0.04241  -0.05730   0.12841
  13        2PY        -0.05134   0.15243   0.02879  -0.21973   0.01198
  14        2PZ        -0.00136  -0.00055   0.00155  -0.00094   0.00235
  15        3S          0.03643   0.08025  -0.33095   0.01647   0.33433
  16        3PX         0.06550  -0.01576   0.01938  -0.02509   0.07961
  17        3PY        -0.00475   0.03496  -0.04221  -0.05236   0.01282
  18        3PZ         0.00250  -0.00065   0.00059  -0.00061   0.00251
  19 3   O  1S         -0.21180   0.08521  -0.00996   0.00825   0.04370
  20        2S          0.19109  -0.08268   0.00697  -0.00525  -0.04376
  21        2PX         0.01363  -0.02054  -0.25774   0.25316   0.05290
  22        2PY         0.12048   0.03013  -0.02644   0.02961  -0.02966
  23        2PZ         0.00245  -0.00105   0.00106  -0.00147   0.00053
  24        3S          0.68382  -0.31261   0.03837  -0.03437  -0.19498
  25        3PX         0.00649  -0.01463  -0.21377   0.22133   0.04913
  26        3PY         0.15105   0.01240  -0.01285   0.01935  -0.03127
  27        3PZ         0.00290  -0.00076   0.00107  -0.00132   0.00050
  28 4   C  1S         -0.06525  -0.04925  -0.15219   0.00359  -0.10557
  29        2S          0.07113   0.05743   0.16330  -0.00172   0.11565
  30        2PX         0.07835   0.00369   0.04349  -0.07105  -0.19535
  31        2PY        -0.01865   0.10194  -0.02508   0.19306  -0.02074
  32        2PZ        -0.00193  -0.00114  -0.00484   0.00111  -0.00187
  33        3S          0.05134   0.07233   0.35973  -0.04654   0.32839
  34        3PX        -0.04089   0.00982   0.02217  -0.03560  -0.09970
  35        3PY        -0.01764   0.03121   0.03094   0.05811  -0.00875
  36        3PZ        -0.00003  -0.00053  -0.00238   0.00047  -0.00202
  37 5   C  1S         -0.02313  -0.13842  -0.05970  -0.12405   0.04157
  38        2S          0.02169   0.14720   0.06370   0.12679  -0.04264
  39        2PX         0.01044   0.06967  -0.04612  -0.10364  -0.12060
  40        2PY        -0.02765  -0.04546  -0.06346  -0.01056  -0.08216
  41        2PZ         0.00005   0.00098   0.00088   0.00181   0.00108
  42        3S          0.03703   0.27540   0.11952   0.40176  -0.12997
  43        3PX         0.02047   0.02444   0.02234  -0.02091  -0.06020
  44        3PY        -0.03182  -0.03153   0.00435  -0.03296  -0.02428
  45        3PZ         0.00105   0.00045  -0.00022   0.00175   0.00066
  46 6   H  1S          0.00609   0.05361   0.03181   0.12315  -0.02241
  47        2S          0.01190   0.01395   0.01047   0.06748  -0.01524
  48 7   H  1S          0.01031   0.01833   0.09234  -0.01443   0.19280
  49        2S         -0.02803   0.00760   0.03036  -0.01176   0.09652
  50 8   H  1S          0.01092   0.01259  -0.06755   0.00601   0.13528
  51        2S         -0.02780   0.00490  -0.02647   0.00796   0.07062
  52 9   H  1S          0.00869   0.06748  -0.02848  -0.09245  -0.04770
  53        2S          0.02373   0.01488  -0.00420  -0.04855  -0.03084
                          11        12        13        14        15
                           O         O         O         O         O
     Eigenvalues --    -0.55096  -0.47080  -0.46249  -0.41442  -0.40150
   1 1   C  1S         -0.05927   0.01132   0.04431  -0.00552  -0.01135
   2        2S          0.05490  -0.01198  -0.04769   0.00969   0.01177
   3        2PX         0.03755   0.00906   0.04144  -0.05789  -0.30656
   4        2PY         0.23640  -0.00330  -0.08614  -0.25382  -0.05735
   5        2PZ         0.01068   0.10346  -0.02359  -0.00715  -0.01095
   6        3S          0.26371  -0.03603  -0.13860   0.01570   0.08885
   7        3PX         0.03198   0.00958   0.03056  -0.06575  -0.16942
   8        3PY         0.10774   0.00249  -0.05755  -0.14624  -0.07217
   9        3PZ         0.00856   0.06953  -0.01695  -0.00552  -0.00712
  10 2   C  1S          0.02490  -0.00710  -0.03771  -0.02366   0.01050
  11        2S         -0.03025   0.00609   0.03350   0.03237  -0.01667
  12        2PX         0.13147   0.04304   0.24968  -0.13340   0.12128
  13        2PY        -0.10087   0.00061   0.06646   0.19040  -0.06705
  14        2PZ         0.00716   0.21364  -0.03262   0.00372   0.00639
  15        3S         -0.05986   0.03225   0.15918   0.07819  -0.03925
  16        3PX         0.09782   0.02475   0.14798  -0.10156   0.07867
  17        3PY        -0.10915  -0.00201  -0.00077   0.10153  -0.12847
  18        3PZ         0.00419   0.18128  -0.02834   0.00696   0.00619
  19 3   O  1S         -0.05794   0.00228  -0.01376  -0.01619  -0.01136
  20        2S          0.05771  -0.00253   0.01125   0.01605   0.01523
  21        2PX         0.02910  -0.03583  -0.21481  -0.02280   0.01153
  22        2PY        -0.19884  -0.00277  -0.08749  -0.05973  -0.23912
  23        2PZ         0.00380   0.38884  -0.06875   0.02814   0.00925
  24        3S          0.22309  -0.01002   0.05222   0.06502   0.00150
  25        3PX         0.02842  -0.03405  -0.20233  -0.03084   0.01187
  26        3PY        -0.18161  -0.00214  -0.08075  -0.06340  -0.24547
  27        3PZ         0.00347   0.38800  -0.06961   0.02927   0.00888
  28 4   C  1S          0.01249   0.00146   0.03364   0.04873   0.00528
  29        2S         -0.01717  -0.00100  -0.03634  -0.05636  -0.00766
  30        2PX        -0.11663   0.05218   0.21786  -0.12855  -0.04361
  31        2PY        -0.09922   0.01688   0.04470  -0.21630  -0.03637
  32        2PZ         0.00279   0.16022  -0.02965   0.01377   0.00160
  33        3S         -0.00152  -0.00827  -0.10751  -0.17746  -0.02668
  34        3PX        -0.06961   0.03514   0.13012  -0.09610  -0.01990
  35        3PY        -0.09633   0.01399   0.01579  -0.16473  -0.08625
  36        3PZ         0.00127   0.14619  -0.02710   0.01316   0.00183
  37 5   C  1S         -0.03861  -0.00682  -0.04849  -0.01209  -0.03146
  38        2S          0.03747   0.00749   0.05059   0.00855   0.03368
  39        2PX        -0.03408  -0.01736  -0.10651  -0.02574   0.31574
  40        2PY         0.17668  -0.00515   0.03796   0.26648  -0.05907
  41        2PZ         0.00218   0.08745  -0.01483   0.00089  -0.00858
  42        3S          0.14673   0.02383   0.17994   0.06655   0.13582
  43        3PX        -0.05709  -0.00902  -0.06833  -0.06004   0.19344
  44        3PY         0.10108   0.00000   0.03382   0.14685  -0.06662
  45        3PZ         0.00202   0.06491  -0.01120   0.00285  -0.00483
  46 6   H  1S          0.10579   0.01275   0.11270   0.16211  -0.14815
  47        2S          0.04839   0.00763   0.07585   0.14184  -0.13981
  48 7   H  1S          0.06318  -0.03801  -0.18205   0.08825   0.03720
  49        2S          0.02310  -0.02382  -0.13508   0.07450   0.02774
  50 8   H  1S          0.05093   0.03479   0.16277  -0.10005   0.08746
  51        2S          0.01866   0.02637   0.12768  -0.09587   0.08195
  52 9   H  1S          0.16692  -0.00719  -0.08731  -0.16652  -0.13503
  53        2S          0.08957  -0.00844  -0.05758  -0.14257  -0.12507
                          16        17        18        19        20
                           O         O         O         V         V
     Eigenvalues --    -0.35148  -0.27544  -0.23032   0.02716   0.08207
   1 1   C  1S          0.02837  -0.00592  -0.00237  -0.00166   0.01149
   2        2S         -0.02764   0.00654   0.00301   0.00182  -0.01061
   3        2PX        -0.14587   0.01660   0.00217   0.00134  -0.01159
   4        2PY         0.13055   0.01019   0.00896   0.00500  -0.01972
   5        2PZ        -0.00813  -0.29969  -0.18701  -0.06923   0.36513
   6        3S         -0.17814   0.02176   0.00005  -0.00788  -0.06091
   7        3PX        -0.13461   0.01757   0.00748   0.00924  -0.05251
   8        3PY         0.09188   0.00912   0.01547   0.03435  -0.09341
   9        3PZ        -0.00986  -0.31401  -0.19641  -0.12163   0.73436
  10 2   C  1S         -0.02663   0.00168   0.00040   0.00119  -0.00553
  11        2S          0.03039  -0.00203  -0.00160  -0.00376   0.00870
  12        2PX         0.04938   0.00077   0.01117  -0.00786   0.00491
  13        2PY        -0.18678  -0.00248  -0.00978   0.00636  -0.00174
  14        2PZ         0.00301  -0.06989  -0.31078   0.27297  -0.28789
  15        3S          0.10627  -0.00564   0.00738   0.01706  -0.00784
  16        3PX         0.06494   0.00201   0.00724  -0.03524   0.04368
  17        3PY        -0.00710  -0.00169  -0.00272   0.02603  -0.03759
  18        3PZ         0.00143  -0.03554  -0.32405   0.41141  -0.54357
  19 3   O  1S          0.06227  -0.00025   0.00173  -0.00142   0.00610
  20        2S         -0.06180   0.00009  -0.00188   0.00077  -0.00499
  21        2PX        -0.08395   0.00421  -0.00083   0.00088   0.00357
  22        2PY         0.35691  -0.00269   0.00580   0.00224  -0.00897
  23        2PZ        -0.00147   0.28607   0.01496  -0.28812   0.08379
  24        3S         -0.23275   0.00256  -0.00726   0.00964  -0.04393
  25        3PX        -0.09167   0.00508  -0.00222  -0.00210   0.01059
  26        3PY         0.39169  -0.00276   0.00694   0.00166  -0.01034
  27        3PZ        -0.00132   0.32791   0.02387  -0.41228   0.12984
  28 4   C  1S         -0.00986  -0.00096  -0.00530  -0.00279  -0.00354
  29        2S          0.01493   0.00120   0.00634   0.00106   0.00232
  30        2PX         0.04566   0.00290   0.00762  -0.00490   0.01065
  31        2PY        -0.22191   0.00808  -0.00238   0.00097  -0.01631
  32        2PZ        -0.01071  -0.07107   0.34538   0.35232   0.13501
  33        3S          0.02016   0.00596   0.02010   0.02184   0.03309
  34        3PX         0.00653   0.00136   0.00090  -0.02069   0.02726
  35        3PY        -0.06058   0.00660  -0.00341  -0.00471  -0.03267
  36        3PZ        -0.00941  -0.04324   0.38079   0.54824   0.27483
  37 5   C  1S          0.00793   0.00013   0.00112   0.00175  -0.00346
  38        2S         -0.00733  -0.00043  -0.00223  -0.00360   0.00503
  39        2PX         0.11626  -0.01410   0.00542  -0.00704   0.00302
  40        2PY         0.19603  -0.01005   0.00329   0.00355  -0.00314
  41        2PZ        -0.01310  -0.29184   0.18695  -0.25032  -0.29023
  42        3S         -0.06582   0.00342   0.00528   0.00504   0.00172
  43        3PX         0.12679  -0.00960   0.01217  -0.00192  -0.02329
  44        3PY         0.13293  -0.00515  -0.00053  -0.01033   0.00472
  45        3PZ        -0.01091  -0.30136   0.20319  -0.43065  -0.57666
  46 6   H  1S          0.04206  -0.00216  -0.00142  -0.00174   0.00138
  47        2S          0.06812  -0.00318   0.00028   0.00371  -0.00208
  48 7   H  1S          0.07405  -0.00425  -0.00311  -0.00737  -0.00433
  49        2S          0.07661  -0.00634  -0.00613  -0.02656  -0.01150
  50 8   H  1S          0.13604  -0.00509   0.00157   0.00383  -0.00512
  51        2S          0.14647  -0.00699   0.00403   0.02296  -0.03701
  52 9   H  1S         -0.00518   0.00383  -0.00180  -0.00354   0.02413
  53        2S          0.01795   0.00683  -0.00353  -0.02193   0.11207
                          21        22        23        24        25
                           V         V         V         V         V
     Eigenvalues --     0.13208   0.15627   0.18276   0.19833   0.22006
   1 1   C  1S         -0.00357   0.03777   0.02682   0.10990  -0.04115
   2        2S          0.01684  -0.02537  -0.03110  -0.08718   0.02725
   3        2PX        -0.08298  -0.04836   0.04195  -0.00847   0.23362
   4        2PY        -0.10019  -0.09574   0.04132  -0.17071   0.03004
   5        2PZ        -0.00303  -0.03022  -0.00181  -0.03612   0.01334
   6        3S         -0.20810  -0.42777  -0.08963  -1.18127   0.65980
   7        3PX        -0.11137  -0.15784   0.01760  -0.26175   1.09461
   8        3PY        -0.19283  -0.46228  -0.03713  -0.97326   0.10974
   9        3PZ        -0.01063  -0.08651  -0.00499  -0.12417   0.05928
  10 2   C  1S          0.09674  -0.04579  -0.01890  -0.01911   0.08109
  11        2S         -0.06805   0.03516   0.01147   0.03666  -0.05280
  12        2PX        -0.21733  -0.01811   0.19494  -0.08927  -0.09731
  13        2PY         0.11107  -0.11147  -0.02703   0.04420  -0.06316
  14        2PZ        -0.01311   0.02007   0.00733   0.01107  -0.00254
  15        3S         -1.03347   0.29551   0.27060  -0.24153  -1.09348
  16        3PX        -0.69270   0.11399   0.65968   0.03737  -0.37977
  17        3PY         0.24794  -0.46991  -0.04510   0.00684  -0.28077
  18        3PZ        -0.03206   0.05885   0.02025   0.05782  -0.02022
  19 3   O  1S         -0.03609   0.09267  -0.02763   0.02125   0.05840
  20        2S          0.02911  -0.06524   0.01964  -0.01126  -0.02510
  21        2PX        -0.03673   0.07443  -0.04165   0.00758   0.21231
  22        2PY        -0.00632  -0.13889   0.02686  -0.03018  -0.00441
  23        2PZ         0.00623  -0.01165  -0.00528  -0.00628  -0.00559
  24        3S          0.26181  -0.78692   0.23986  -0.20634  -0.61847
  25        3PX        -0.08326   0.11597  -0.02881   0.09474   0.43094
  26        3PY        -0.03714  -0.23739   0.04880  -0.06435  -0.07399
  27        3PZ         0.01107  -0.02285  -0.01121  -0.01496  -0.00960
  28 4   C  1S          0.07183  -0.05530   0.10662   0.02171  -0.01690
  29        2S         -0.05162   0.04363  -0.07625  -0.03259   0.02820
  30        2PX        -0.02649   0.17287   0.20670   0.01367   0.23478
  31        2PY         0.08862  -0.12374   0.13693  -0.07409  -0.16598
  32        2PZ         0.00716  -0.00798   0.01300   0.00044  -0.00219
  33        3S         -0.77595   0.36460  -1.40557  -0.04284  -0.20839
  34        3PX        -0.01311   0.24964   0.92695   0.34030   0.63914
  35        3PY         0.22059  -0.39196   0.51847  -0.20454  -0.68735
  36        3PZ         0.01655  -0.01836   0.03596  -0.01463   0.00087
  37 5   C  1S          0.04466   0.06080  -0.02997  -0.10562  -0.07243
  38        2S         -0.02601  -0.04702   0.04056   0.07220   0.01656
  39        2PX         0.01370   0.09183   0.07367  -0.09069  -0.02831
  40        2PY        -0.10335  -0.16160  -0.08598   0.09888   0.00185
  41        2PZ        -0.00157   0.01001  -0.00510   0.01239   0.00067
  42        3S         -0.51715  -0.68136  -0.02325   1.17204   1.34290
  43        3PX         0.06441   0.41430   0.03638  -0.45511   0.15084
  44        3PY        -0.29499  -0.48400  -0.05881   0.66990  -0.19829
  45        3PZ        -0.00638   0.03190  -0.01936   0.05480  -0.01429
  46 6   H  1S          0.04116   0.09723  -0.00576  -0.03671   0.06533
  47        2S          0.60203   1.21262   0.13641  -1.38027  -0.25423
  48 7   H  1S          0.04507  -0.03061   0.07511   0.02076   0.00832
  49        2S          0.59967  -0.16487   1.99918   0.21162   0.34558
  50 8   H  1S          0.11856  -0.04274  -0.02825  -0.01446  -0.02734
  51        2S          1.43044  -0.47667  -0.81169   0.08327   0.67252
  52 9   H  1S          0.04502   0.06948  -0.00333   0.04694  -0.00781
  53        2S          0.48283   0.87784   0.03295   1.68703  -1.01312
                          26        27        28        29        30
                           V         V         V         V         V
     Eigenvalues --     0.25242   0.35693   0.41777   0.49514   0.69603
   1 1   C  1S         -0.08039  -0.02988   0.04996  -0.13592   0.00737
   2        2S          0.01592   0.01656   0.01664   0.03770   0.04365
   3        2PX        -0.09547  -0.10654  -0.16741  -0.17956   0.20767
   4        2PY         0.07063  -0.04588   0.17995  -0.19486  -0.11352
   5        2PZ         0.00143  -0.00788   0.00350  -0.02807   0.33747
   6        3S          1.65792   0.32440  -1.71847   3.22130   0.09374
   7        3PX        -0.77529   0.25361  -1.11264  -1.69525  -0.24013
   8        3PY         0.12865  -0.74287   2.12029  -2.09003   0.02726
   9        3PZ         0.02153  -0.02201  -0.01284  -0.00173  -0.14820
  10 2   C  1S         -0.06139   0.04966  -0.05640   0.11310   0.02044
  11        2S          0.04622   0.01155   0.02664   0.00674   0.02514
  12        2PX        -0.14206   0.12994  -0.01438   0.23534   0.10877
  13        2PY        -0.14197  -0.18275   0.18173   0.10525   0.23108
  14        2PZ        -0.00091   0.00929  -0.00473  -0.00009   0.64321
  15        3S          0.60306  -1.01360   1.87748  -2.56538  -0.09807
  16        3PX        -0.42695   0.81002  -0.15159   1.79711   0.07025
  17        3PY        -0.68959  -0.27111   2.38978  -0.88813  -0.30007
  18        3PZ        -0.01059   0.03822  -0.04277   0.06345  -0.61833
  19 3   O  1S          0.06451  -0.06771  -0.01055  -0.02946  -0.01550
  20        2S         -0.02816   0.02544   0.00474   0.00488   0.03213
  21        2PX        -0.20116  -0.02328   0.21262   0.26414   0.02989
  22        2PY        -0.03668   0.14800  -0.03017   0.05380   0.06002
  23        2PZ        -0.00211  -0.00057   0.00233  -0.00299   0.05291
[...]
     7  H    0.002353   0.003463  -0.024409   0.390104  -0.036935  -0.000061
     8  H   -0.046317   0.381365  -0.033302   0.004339   0.003549  -0.000022
     9  H    0.390810  -0.024490   0.002642   0.004972  -0.034240  -0.001099
               7          8          9
     1  C    0.002353  -0.046317   0.390810
     2  C    0.003463   0.381365  -0.024490
     3  O   -0.024409  -0.033302   0.002642
     4  C    0.390104   0.004339   0.004972
     5  C   -0.036935   0.003549  -0.034240
     6  H   -0.000061  -0.000022  -0.001099
     7  H    0.444786  -0.000034  -0.000033
     8  H   -0.000034   0.484499  -0.000720
     9  H   -0.000033  -0.000720   0.474898
 Mulliken charges:
               1
     1  C   -0.280590
     2  C    0.183767
     3  O   -0.507858
     4  C    0.054729
     5  C   -0.250276
     6  H    0.185558
     7  H    0.220766
     8  H    0.206644
     9  H    0.187260
 Sum of Mulliken charges =   0.00000
 Mulliken charges with hydrogens summed into heavy atoms:
               1
     1  C   -0.093330
     2  C    0.390411
     3  O   -0.507858
     4  C    0.275495
     5  C   -0.064718
 Electronic spatial extent (au):  <R**2>=            285.4902
 Charge=              0.0000 electrons
 Dipole moment (field-independent basis, Debye):
    X=             -0.1465    Y=              0.4988    Z=              0.1176  Tot=              0.5330
 Quadrupole moment (field-independent basis, Debye-Ang):
   XX=            -23.8152   YY=            -28.0098   ZZ=            -31.6818
   XY=              0.2801   XZ=              0.2200   YZ=              0.1614
 Traceless Quadrupole moment (field-independent basis, Debye-Ang):
   XX=              4.0204   YY=             -0.1742   ZZ=             -3.8462
   XY=              0.2801   XZ=              0.2200   YZ=              0.1614
 Octapole moment (field-independent basis, Debye-Ang**2):
  XXX=             -0.2138  YYY=              1.5018  ZZZ=              0.0479  XYY=             -0.9125
  XXY=             -4.1424  XXZ=              0.3399  XZZ=              0.5263  YZZ=             -3.4180
  YYZ=              0.3821  XYZ=              0.0666
 Hexadecapole moment (field-independent basis, Debye-Ang**3):
 XXXX=           -154.0407 YYYY=           -153.8702 ZZZZ=            -30.8195 XXXY=             -1.4212
 XXXZ=              0.8334 YYYX=              2.0532 YYYZ=              0.8089 ZZZX=              0.2469
 ZZZY=              0.2994 XXYY=            -45.8979 XXZZ=            -38.8709 YYZZ=            -33.6503
 XXYZ=              0.2949 YYXZ=              0.4555 ZZXY=             -0.1780
 N-N= 1.630517262049D+02 E-N=-8.587079347804D+02  KE= 2.271648084501D+02
 Orbital energies and kinetic energies (alpha):
                                 1                 2
   1         O               -19.120759         28.827388
   2         O               -10.177824         15.797098
   3         O               -10.171528         15.800275
   4         O               -10.126836         15.807402
   5         O               -10.112227         15.803504
   6         O                -1.166349          2.580431
   7         O                -0.802698          1.773293
   8         O                -0.762627          1.893829
   9         O                -0.610995          1.697028
  10         O                -0.571906          1.379222
  11         O                -0.550959          1.367162
  12         O                -0.470797          1.648376
  13         O                -0.462495          1.472979
  14         O                -0.414422          1.388860
  15         O                -0.401504          1.550269
  16         O                -0.351479          2.099664
  17         O                -0.275439          1.474798
  18         O                -0.230325          1.220825
  19         V                 0.027159          1.833935
  20         V                 0.082065          1.527761
  21         V                 0.132077          1.249899
  22         V                 0.156273          1.641842
  23         V                 0.182760          1.200176
  24         V                 0.198328          1.275202
  25         V                 0.220060          1.766918
  26         V                 0.252422          1.840171
  27         V                 0.356929          2.020648
  28         V                 0.417766          1.650789
  29         V                 0.495139          2.917825
  30         V                 0.696035          2.519775
  31         V                 0.697850          2.598139
  32         V                 0.716811          2.753719
  33         V                 0.749086          2.565869
  34         V                 0.769426          2.510870
  35         V                 0.783964          2.697819
  36         V                 0.788273          2.591409
  37         V                 0.829649          2.930148
  38         V                 0.839931          2.597088
  39         V                 0.933044          2.856397
  40         V                 0.989136          3.153128
  41         V                 1.001401          3.171629
  42         V                 1.053856          3.179876
  43         V                 1.193644          2.709805
  44         V                 1.212782          2.846293
  45         V                 1.340478          2.563703
  46         V                 1.380635          2.949672
  47         V                 1.503365          4.956936
  48         V                 1.573442          3.508555
  49         V                 1.616564          3.654405
  50         V                 1.733986          4.326492
  51         V                 1.972310          4.107397
  52         V                 2.107071          4.180637
  53         V                 3.252506          6.838901
 Total kinetic energy from orbitals= 2.271648084501D+02
 No NMR shielding tensors so no spin-rotation constants.
 Leave Link  601 at Tue Dec 15 16:30:30 2015, MaxMem=    33554432 cpu:         0.1
 (Enter /home/Applications/g09/g09/l701.exe)
 Compute integral first derivatives.
 ... and contract with generalized density number  6.
 Leave Link  701 at Tue Dec 15 16:30:30 2015, MaxMem=    33554432 cpu:         0.1
 (Enter /home/Applications/g09/g09/l702.exe)
 L702 exits ... SP integral derivatives will be done elsewhere.
 Leave Link  702 at Tue Dec 15 16:30:30 2015, MaxMem=    33554432 cpu:         0.0
 (Enter /home/Applications/g09/g09/l703.exe)
 Compute integral first derivatives, UseDBF=F ICtDFT=           0.
 Integral derivatives from FoFJK, PRISM(SPDF).
 Calling FoFJK, ICntrl=  10005127 FMM=F ISym2X=0 I1Cent= 0 IOpClX= 0 NMat=1 NMatS=1 NMatT=0.
 FoFJK:  IHMeth= 1 ICntrl=10005127 DoSepK=F KAlg= 0 I1Cent=   0 FoldK=F
 IRaf=         0 NMat=   1 IRICut=       1 DoRegI=T DoRafI=F ISym2E= 0.
 FoFCou: FMM=F IPFlag=           0 FMFlag=      100000 FMFlg1=         800
         NFxFlg=           0 DoJE=F BraDBF=F KetDBF=F FulRan=T
         wScrn=  0.000000 ICntrl=10005127 IOpCl=  0 I1Cent=           0 NGrid=           0
         NMat0=    1 NMatS0=      1 NMatT0=    0 NMatD0=    1 NMtDS0=    0 NMtDT0=    0
 Symmetry not used in FoFCou.
 Leave Link  703 at Tue Dec 15 16:30:32 2015, MaxMem=    33554432 cpu:         2.0
 (Enter /home/Applications/g09/g09/l716.exe)
 Dipole        = 4.47367416D-01 2.87873934D-01 4.02744370D-02
 ***** Axes restored to original set *****
 -------------------------------------------------------------------
 Center     Atomic                   Forces (Hartrees/Bohr)
 Number     Number              X              Y              Z
 -------------------------------------------------------------------
      1        6           0.082120173    0.032354578    0.001374339
      2        6          -0.060079289   -0.171692509   -0.002268705
      3        8          -0.133207946    0.029038616    0.001329071
      4        6           0.046479674    0.026825725    0.001352797
      5        6           0.047283805    0.058383286   -0.000876385
      6        1           0.003170358   -0.010106641   -0.000814856
      7        1          -0.023615578    0.032869617    0.000387330
      8        1           0.014493047    0.032656177   -0.001338844
      9        1           0.023355756   -0.030328850    0.000855254
 -------------------------------------------------------------------
 Cartesian Forces:  Max     0.171692509 RMS     0.051817761
 Z-matrix is all fixed cartesians, so copy forces.
 Force constants in Cartesian coordinates: 
                1             2             3             4             5 
      1  0.104938D+01
      2 -0.469277D-01  0.796208D+00
      3  0.120158D-01 -0.243320D-02  0.236366D+00
      4 -0.578431D+00 -0.996481D-01  0.785026D-02  0.107802D+01
      5 -0.725173D-01 -0.216177D+00  0.206272D-02 -0.124032D+00  0.101598D+01
      6  0.130999D-01  0.280434D-02 -0.121346D+00 -0.161719D-01 -0.100194D-03
      7 -0.728824D-02  0.328925D-01  0.754674D-04 -0.389082D+00  0.275815D+00
      8 -0.530152D-02  0.239195D-01  0.311721D-04  0.324505D+00 -0.555565D+00
      9  0.775222D-03 -0.238665D-02  0.124403D-01  0.502426D-02 -0.568599D-02
     10  0.107821D-01 -0.392243D-03 -0.184386D-03  0.274051D-01  0.198903D-01
     11  0.327672D-01 -0.118272D-02 -0.108363D-02 -0.181015D-01 -0.131393D-01
     12  0.139198D-02 -0.157403D-03 -0.309096D-02 -0.255425D-03 -0.772043D-04
     13 -0.165579D+00  0.905076D-03 -0.124050D-02  0.791433D-02 -0.358203D-01
     14 -0.205613D-01 -0.403057D+00 -0.915313D-02 -0.295437D-03  0.130430D-02
     15 -0.146883D-02 -0.143779D-01 -0.797110D-01 -0.460731D-04  0.959894D-03
     16  0.185661D-01 -0.694726D-03  0.590578D-04  0.000000D+00  0.000000D+00
     17 -0.221481D-01  0.850853D-03 -0.769082D-03 -0.357724D-05  0.454825D-05
     18 -0.157619D-02 -0.531242D-03  0.186569D-01  0.113780D-03 -0.144665D-03
     19  0.354769D-05 -0.581611D-05  0.179711D-03  0.460542D-05  0.625071D-05
     20  0.140544D-05 -0.230408D-05  0.711935D-04  0.230015D-05  0.312188D-05
     21  0.101742D-03 -0.166797D-03  0.515383D-02 -0.125260D-03 -0.170009D-03
     22  0.576782D-02 -0.259527D-01  0.869948D-03 -0.141886D+00 -0.809235D-01
     23 -0.282292D-02  0.127625D-01  0.303168D-03 -0.765552D-01 -0.258892D+00
     24 -0.860420D-04  0.292988D-02  0.306044D-01  0.290255D-02  0.374291D-02
     25 -0.333203D+00  0.139824D+00 -0.196254D-01 -0.394657D-02  0.175810D-01
     26  0.137510D+00 -0.213322D+00  0.109708D-01 -0.587206D-02  0.264771D-01
     27 -0.242536D-01  0.143190D-01 -0.990742D-01  0.707810D-03 -0.587463D-03
                6             7             8             9            10 
      6  0.217553D+00
      7  0.344246D-02  0.628694D+00
      8 -0.543667D-02 -0.121719D+00  0.919450D+00
      9 -0.612198D-01  0.550749D-02  0.204602D-01  0.715977D-01
     10  0.135279D-02 -0.269865D+00 -0.204031D+00 -0.117360D-01  0.824051D+00
     11 -0.926021D-03 -0.158111D+00 -0.391489D+00 -0.152084D-01 -0.291426D-01
     12 -0.683235D-03 -0.873717D-02 -0.143491D-01 -0.500071D-01 -0.537765D-03
     13 -0.145192D-02 -0.947262D-02  0.622958D-02  0.540095D-03 -0.408989D+00
     14  0.137475D-03 -0.287650D-01  0.189692D-01  0.116545D-02  0.902213D-01
     15 -0.323985D-03 -0.159015D-02  0.494994D-03  0.625133D-02  0.114656D-01
     16 -0.222574D-04  0.000000D+00 -0.298372D-05  0.578775D-04 -0.588244D-02
     17 -0.139588D-03 -0.317576D-05  0.121681D-04 -0.236034D-03  0.699917D-02
     18  0.443985D-02  0.599509D-04 -0.229705D-03  0.445578D-02  0.984264D-03
     19 -0.217864D-03  0.243725D-01 -0.161377D-01  0.725999D-03 -0.177489D+00
     20 -0.108811D-03  0.109453D-01 -0.724684D-02  0.318045D-03  0.116459D+00
     21  0.592552D-02  0.109967D-02 -0.912507D-03  0.435498D-02 -0.125861D-02
     22  0.269289D-02  0.226421D-01  0.164577D-01 -0.828324D-03 -0.491927D-05
     23  0.398818D-02 -0.110745D-01 -0.805039D-02  0.461183D-03 -0.142652D-05
     24 -0.757276D-01 -0.375103D-04 -0.586562D-04  0.235524D-02 -0.160970D-03
     25 -0.272406D-02 -0.122605D-05  0.000000D+00 -0.666353D-04 -0.755137D-05
     26 -0.218722D-03  0.204635D-04  0.000000D+00  0.111218D-02 -0.209119D-05
     27  0.313821D-01  0.179792D-03  0.000000D+00  0.977162D-02  0.750309D-04
               11            12            13            14            15 
     11  0.964257D+00
     12  0.207783D-01  0.173974D+00
     13  0.698221D-01  0.927877D-02  0.807463D+00
     14 -0.197232D+00 -0.543229D-02  0.542689D-01  0.784817D+00
     15 -0.606536D-02 -0.823648D-01 -0.401220D-02  0.221080D-01  0.180588D+00
     16 -0.178919D-01 -0.685747D-03 -0.256634D+00 -0.121063D+00 -0.441155D-02
     17  0.213555D-01  0.934544D-04 -0.124492D+00 -0.215830D+00 -0.557760D-02
     18  0.120623D-02  0.194137D-01 -0.503074D-02 -0.638912D-02 -0.709314D-01
     19  0.120652D+00 -0.304830D-03  0.877922D-02  0.268206D-01 -0.249591D-03
     20 -0.382572D+00 -0.817361D-03  0.394307D-02  0.120499D-01 -0.152922D-03
     21  0.164029D-02 -0.686573D-01  0.146387D-03 -0.159821D-02  0.220796D-01
     22 -0.667668D-05  0.232711D-03  0.259238D-05 -0.329606D-05  0.101158D-03
     23 -0.193615D-05  0.674829D-04  0.292354D-05 -0.371711D-05  0.114080D-03
     24 -0.218476D-03  0.761483D-02  0.176049D-03 -0.223836D-03  0.686965D-02
     25  0.123798D-04 -0.382520D-03  0.165169D-01 -0.623075D-03  0.211608D-03
     26  0.342832D-05 -0.105931D-03  0.251408D-01 -0.101718D-02  0.249688D-02
     27 -0.123006D-03  0.380075D-02  0.159406D-02 -0.614310D-03  0.175427D-01
               16            17            18            19            20 
     16  0.243957D+00
     17  0.139654D+00  0.193607D+00
     18  0.507096D-02  0.601603D-02  0.381514D-01
     19 -0.350872D-05  0.143091D-04 -0.270123D-03  0.144333D+00
     20 -0.139000D-05  0.566864D-05 -0.107011D-03 -0.131350D+00  0.377762D+00
     21 -0.100624D-03  0.410364D-03 -0.774671D-02  0.136698D-03  0.796866D-03
     22  0.000000D+00  0.000000D+00  0.000000D+00  0.000000D+00  0.000000D+00
     23  0.000000D+00  0.000000D+00  0.000000D+00  0.000000D+00  0.000000D+00
     24  0.000000D+00  0.000000D+00  0.000000D+00  0.000000D+00  0.000000D+00
     25 -0.324895D-05 -0.203760D-04  0.648093D-03  0.000000D+00  0.000000D+00
     26  0.000000D+00 -0.564269D-05  0.179476D-03  0.000000D+00  0.000000D+00
     27  0.322818D-04  0.202457D-03 -0.643949D-02  0.000000D+00  0.000000D+00
               21            22            23            24            25 
     21  0.388900D-01
     22  0.000000D+00  0.113477D+00
     23  0.000000D+00  0.904497D-01  0.254210D+00
     24  0.000000D+00 -0.288090D-02 -0.472266D-02  0.410157D-01
     25  0.000000D+00  0.127852D-05  0.144184D-05  0.868246D-04  0.320643D+00
     26  0.000000D+00 -0.213392D-04 -0.240652D-04 -0.144915D-02 -0.156775D+00
     27  0.000000D+00 -0.187486D-03 -0.211437D-03 -0.127322D-01  0.218521D-01
               26            27 
     26  0.187888D+00
     27 -0.129855D-01  0.557488D-01
 Leave Link  716 at Tue Dec 15 16:30:32 2015, MaxMem=    33554432 cpu:         0.0
 (Enter /home/Applications/g09/g09/l103.exe)

 GradGradGradGradGradGradGradGradGradGradGradGradGradGradGradGradGradGrad
 Berny optimization.
 Search for a local minimum.
 Step number   1 out of a maximum of    2
 All quantities printed in internal units (Hartrees-Bohrs-Radians)
 Second derivative matrix not updated -- first step.
 ITU=  0
     Eigenvalues ---    0.01776   0.03421   0.07237   0.07303   0.08045
     Eigenvalues ---    0.09104   0.13158   0.13546   0.16503   0.23710
     Eigenvalues ---    0.27700   0.29227   0.40951   0.42245   0.64467
     Eigenvalues ---    0.85446   1.20658   1.37139   1.43305   1.57614
     Eigenvalues ---    1.99699
 Quadratic step=4.494D-01 exceeds max=3.000D-01 adjusted using Lamda=-1.400D-01.
 Angle between NR and scaled steps=  17.20 degrees.
 Angle between quadratic step and forces=  32.16 degrees.
 Linear search not attempted -- first point.
 TrRot= -0.010314 -0.001016  0.000877  0.793322  0.000474 -0.792315
 Variable       Old X    -DE/DX   Delta X   Delta X   Delta X     New X
                                 (Linear)    (Quad)   (Total)
    X1        1.72462   0.08212   0.00000   0.06972   0.06083   1.78545
    Y1       -1.44687   0.03235   0.00000   0.01610   0.01686  -1.43000
    Z1       -0.07839   0.00137   0.00000   0.00966   0.01042  -0.06797
    X2       -0.72643  -0.06008   0.00000  -0.06996  -0.07816  -0.80459
    Y2       -1.99009  -0.17169   0.00000  -0.12082  -0.12265  -2.11274
    Z2       -0.03328  -0.00227   0.00000  -0.00906  -0.00720  -0.04048
    X3       -2.12984  -0.13321   0.00000  -0.14385  -0.15408  -2.28393
    Y3       -0.05800   0.02904   0.00000  -0.01462  -0.01792  -0.07593
    Z3       -0.00751   0.00133   0.00000   0.00836   0.01002   0.00250
    X4       -0.70978   0.04648   0.00000   0.02675   0.01432  -0.69545
    Y4        2.09083   0.02683   0.00000   0.03538   0.03370   2.12453
    Z4        0.08416   0.00135   0.00000  -0.00257  -0.00218   0.08198
    X5        1.82565   0.04728   0.00000   0.09104   0.07937   1.90502
    Y5        1.26019   0.05838   0.00000   0.08405   0.08497   1.34515
    Z5        0.00722  -0.00088   0.00000  -0.00393  -0.00414   0.00308
    X6        3.38985   0.00317   0.00000   0.08916   0.07625   3.46611
    Y6        2.56794  -0.01011   0.00000   0.02167   0.02417   2.59211
    Z6        0.05618  -0.00081   0.00000  -0.00362  -0.00477   0.05141
    X7       -1.50279  -0.02362   0.00000  -0.04263  -0.05687  -1.55966
    Y7        3.85634   0.03287   0.00000   0.07337   0.07083   3.92717
    Z7        0.08742   0.00039   0.00000   0.00239   0.00245   0.08988
    X8       -1.67059   0.01449   0.00000  -0.00027  -0.00663  -1.67721
    Y8       -3.92060   0.03266   0.00000  -0.01387  -0.01656  -3.93716
    Z8        0.01268  -0.00134   0.00000  -0.01132  -0.00856   0.00413
    X9        3.34530   0.02336   0.00000   0.07265   0.06497   3.41026
    Y9       -2.52005  -0.03033   0.00000  -0.07584  -0.07339  -2.59344
    Z9        0.05481   0.00086   0.00000   0.00335   0.00397   0.05877
         Item               Value     Threshold  Converged?
 Maximum Force            0.171693     0.000450     NO 
 RMS     Force            0.051818     0.000300     NO 
 Maximum Displacement     0.154084     0.001800     NO 
 RMS     Displacement     0.057425     0.001200     NO 
 Predicted change in Energy=-4.051926D-02
 GradGradGradGradGradGradGradGradGradGradGradGradGradGradGradGradGradGrad

 Leave Link  103 at Tue Dec 15 16:30:32 2015, MaxMem=    33554432 cpu:         0.0
 (Enter /home/Applications/g09/g09/l9999.exe)
 1\1\GINC-DUSTIN-DESKTOP\Force\RB3LYP-FC\3-21G\C4H4O1\DUSTIN\15-Dec-201
 5\0\\#P B3LYP/3-21G CIS(Singlets,NStates=15) pop(full) force\\FuranDFT
 \\0,1\C,0.912631,-0.765649,-0.041483\C,-0.384409,-1.053108,-0.01761\O,
 -1.127064,-0.030694,-0.003975\C,-0.375598,1.106418,0.044535\C,0.96609,
 0.666863,0.003823\H,1.793834,1.358896,0.02973\H,-0.795242,2.040689,0.0
 46262\H,-0.884036,-2.074691,0.006712\H,1.770254,-1.333555,0.029003\\Ve
 rsion=ES64L-G09RevD.01\State=1-A\HF=-228.7255746\RMSD=3.217e-09\RMSF=5
 .182e-02\Dipole=0.2516247,-0.4695648,0.0287215\PG=C01 [X(C4H4O1)]\\@


 FROM WHENCE IT HAPPENS, THAT THEY WHICH TRUST TO BOOKS, DO AS THEY THAT CAST UP MANY LITTLE SUMMS INTO GREATER,
 WITHOUT CONSIDERING WETHER THOSE LITTLE SUMMES WERE RIGHTLY CAST UP OR NOT...
 AND AT LAST FINDING THE ERROUR VISIBLE, AND NOT MISTRUSTING THEIR FIRST GROUNDS,
 KNOW NOT WHICH WAY TO CLEERE THEMSELVES...
 BUT SPEND TIME IN FLUTTERING OVER THEIR BOOKES....
 AS BIRDS THAT ENTERING BY THE CHIMNEY, AND FINDING THEMSELVES INCLOSED IN A CHAMBER,
 FLUTTER AT THE FALSE LIGHT OF A GLASSE WINDOW,
 FOR WANT OF WIT TO CONSIDER WHICH WAY THEY CAME IN....
           LEVIATHAN
 Job cpu time:       0 days  0 hours  0 minutes 47.3 seconds.
 File lengths (MBytes):  RWF=     14 Int=      0 D2E=      0 Chk=      3 Scr=      1
 Normal termination of Gaussian 09 at Tue Dec 15 16:30:32 2015.
