 Entering Gaussian System, Link 0=g09
 Input=FuranAM1_71P10.com
 Output=FuranAM1_71P10.log
 Initial command:
 /home/Applications/g09/g09/l1.exe "/home/Applications/g09/scratch/Gau-9543.inp" -scrdir="/home/Applications/g09/scratch/"
 Entering Link 1 = /home/Applications/g09/g09/l1.exe PID=      9545.
  
 Copyright (c) 1988,1990,1992,1993,1995,1998,2003,2009,2013,
            Gaussian, Inc.  All Rights Reserved.
  
 This is part of the Gaussian(R) 09 program.  It is based on
 the Gaussian(R) 03 system (copyright 2003, Gaussian, Inc.),
 the Gaussian(R) 98 system (copyright 1998, Gaussian, Inc.),
 the Gaussian(R) 94 system (copyright 1995, Gaussian, Inc.),
 the Gaussian 92(TM) system (copyright 1992, Gaussian, Inc.),
 the Gaussian 90(TM) system (copyright 1990, Gaussian, Inc.),
 the Gaussian 88(TM) system (copyright 1988, Gaussian, Inc.),
 the Gaussian 86(TM) system (copyright 1986, Carnegie Mellon
 University), and the Gaussian 82(TM) system (copyright 1983,
 Carnegie Mellon University). Gaussian is a federally registered
 trademark of Gaussian, Inc.
  
 This software contains proprietary and confidential information,
 including trade secrets, belonging to Gaussian, Inc.
  
 This software is provided under written license and may be
 used, copied, transmitted, or stored only in accord with that
 written license.
  
 The following legend is applicable only to US Government
 contracts under FAR:
  
                    RESTRICTED RIGHTS LEGEND
  
 Use, reproduction and disclosure by the US Government is
 subject to restrictions as set forth in subparagraphs (a)
 and (c) of the Commercial Computer Software - Restricted
 Rights clause in FAR 52.227-19.
  
 Gaussian, Inc.
 340 Quinnipiac St., Bldg. 40, Wallingford CT 06492
  
  
 ---------------------------------------------------------------
 Warning -- This program may not be used in any manner that
 competes with the business of Gaussian, Inc. or will provide
 assistance to any competitor of Gaussian, Inc.  The licensee
 of this program is prohibited from giving any competitor of
 Gaussian, Inc. access to this program.  By using this program,
 the user acknowledges that Gaussian, Inc. is engaged in the
 business of creating and licensing software in the field of
 computational chemistry and represents and warrants to the
 licensee that it is not a competitor of Gaussian, Inc. and that
 it will not use this program in any manner prohibited above.
 ---------------------------------------------------------------
  

 Cite this work as:
 Gaussian 09, Revision D.01,
 M. J. Frisch, G. W. Trucks, H. B. Schlegel, G. E. Scuseria, 
 M. A. Robb, J. R. Cheeseman, G. Scalmani, V. Barone, B. Mennucci, 
 G. A. Petersson, H. Nakatsuji, M. Caricato, X. Li, H. P. Hratchian, 
 A. F. Izmaylov, J. Bloino, G. Zheng, J. L. Sonnenberg, M. Hada, 
 M. Ehara, K. Toyota, R. Fukuda, J. Hasegawa, M. Ishida, T. Nakajima, 
 Y. Honda, O. Kitao, H. Nakai, T. Vreven, J. A. Montgomery, Jr., 
 J. E. Peralta, F. Ogliaro, M. Bearpark, J. J. Heyd, E. Brothers, 
 K. N. Kudin, V. N. Staroverov, T. Keith, R. Kobayashi, J. Normand, 
 K. Raghavachari, A. Rendell, J. C. Burant, S. S. Iyengar, J. Tomasi, 
 M. Cossi, N. Rega, J. M. Millam, M. Klene, J. E. Knox, J. B. Cross, 
 V. Bakken, C. Adamo, J. Jaramillo, R. Gomperts, R. E. Stratmann, 
 O. Yazyev, A. J. Austin, R. Cammi, C. Pomelli, J. W. Ochterski, 
 R. L. Martin, K. Morokuma, V. G. Zakrzewski, G. A. Voth, 
 P. Salvador, J. J. Dannenberg, S. Dapprich, A. D. Daniels, 
 O. Farkas, J. B. Foresman, J. V. Ortiz, J. Cioslowski, 
 and D. J. Fox, Gaussian, Inc., Wallingford CT, 2013.
 
 ******************************************
 Gaussian 09:  ES64L-G09RevD.01 24-Apr-2013
                15-Dec-2015 
 ******************************************
 ------------------------------------------------------------
 #P AM1(Input,print) CIS(Singlets,NStates=15) pop(full) force
 ------------------------------------------------------------
 1/10=7,30=1,38=1/1,3;
 2/12=2,17=6,18=5,40=1/2;
 3/5=2,16=1,25=1,41=700000,71=1,135=100,136=1/1,2,8,3;
 4/35=1/1;
 5/5=2,35=1,38=5/2;
 8/6=1,10=1,108=15/1;
 9/15=2,41=15,42=1,48=1,49=10/14;
 10/5=4/2;
 6/7=3,18=1/1;
 7/12=6,13=5,29=1/1,2,3,16;
 1/10=7,30=1/3;
 99//99;
 Leave Link    1 at Tue Dec 15 17:07:43 2015, MaxMem=           0 cpu:         0.0
 (Enter /home/Applications/g09/g09/l101.exe)
 -----------------
 AM1-Reparam Input
 -----------------
 Symbolic Z-matrix:
 Charge =  0 Multiplicity = 1
 6                     0.97025  -0.67191   0.01071 
 6                    -0.30749  -1.13293   0.04843 
 8                    -1.2003    0.04902   0.02194 
 6                    -0.39127   1.11928   0.02752 
 6                     0.93065   0.71084   0.02005 
 1                     1.80688   1.40564   0.03406 
 1                    -0.88385   2.06422  -0.01528 
 1                    -0.82021  -2.0706    0.03492 
 1                     1.83574  -1.38373   0.00481 
 
 NAtoms=      9 NQM=        9 NQMF=       0 NMMI=      0 NMMIF=      0
                NMic=       0 NMicF=      0.
                    Isotopes and Nuclear Properties:
 (Nuclear quadrupole moments (NQMom) in fm**2, nuclear magnetic moments (NMagM)
  in nuclear magnetons)

  Atom         1           2           3           4           5           6           7           8           9
 IAtWgt=          12          12          16          12          12           1           1           1           1
 AtmWgt=  12.0000000  12.0000000  15.9949146  12.0000000  12.0000000   1.0078250   1.0078250   1.0078250   1.0078250
 NucSpn=           0           0           0           0           0           1           1           1           1
 AtZEff=   0.0000000   0.0000000   0.0000000   0.0000000   0.0000000   0.0000000   0.0000000   0.0000000   0.0000000
 NQMom=    0.0000000   0.0000000   0.0000000   0.0000000   0.0000000   0.0000000   0.0000000   0.0000000   0.0000000
 NMagM=    0.0000000   0.0000000   0.0000000   0.0000000   0.0000000   2.7928460   2.7928460   2.7928460   2.7928460
 AtZNuc=   6.0000000   6.0000000   8.0000000   6.0000000   6.0000000   1.0000000   1.0000000   1.0000000   1.0000000
 Leave Link  101 at Tue Dec 15 17:07:43 2015, MaxMem=    33554432 cpu:         0.0
 (Enter /home/Applications/g09/g09/l103.exe)

 GradGradGradGradGradGradGradGradGradGradGradGradGradGradGradGradGradGrad
 Berny optimization.
 Initialization pass.
 Trust Radius=3.00D-01 FncErr=1.00D-07 GrdErr=1.00D-07
 Number of steps in this run=      2 maximum allowed number of steps=      2.
 GradGradGradGradGradGradGradGradGradGradGradGradGradGradGradGradGradGrad

 Leave Link  103 at Tue Dec 15 17:07:43 2015, MaxMem=    33554432 cpu:         0.0
 (Enter /home/Applications/g09/g09/l202.exe)
                          Input orientation:                          
 ---------------------------------------------------------------------
 Center     Atomic      Atomic             Coordinates (Angstroms)
 Number     Number       Type             X           Y           Z
 ---------------------------------------------------------------------
      1          6           0        0.970251   -0.671909    0.010708
      2          6           0       -0.307486   -1.132931    0.048433
      3          8           0       -1.200297    0.049015    0.021937
      4          6           0       -0.391270    1.119277    0.027521
      5          6           0        0.930653    0.710840    0.020048
      6          1           0        1.806884    1.405644    0.034064
      7          1           0       -0.883853    2.064222   -0.015275
      8          1           0       -0.820213   -2.070597    0.034916
      9          1           0        1.835736   -1.383728    0.004806
 ---------------------------------------------------------------------
                    Distance matrix (angstroms):
                    1          2          3          4          5
     1  C    0.000000
     2  C    1.358888   0.000000
     3  O    2.287168   1.481489   0.000000
     4  C    2.249971   2.253863   1.341647   0.000000
     5  C    1.383347   2.221100   2.231359   1.383603   0.000000
     6  H    2.239805   3.303805   3.299049   2.216739   1.118360
     7  H    3.305267   3.249315   2.040240   1.066485   2.263918
     8  H    2.272152   1.068779   2.153459   3.218593   3.286662
     9  H    1.120618   2.158287   3.357163   3.350389   2.281803
                    6          7          8          9
     6  H    0.000000
     7  H    2.770600   0.000000
     8  H    4.357280   4.135613   0.000000
     9  H    2.789675   4.391461   2.743494   0.000000
 Stoichiometry    C4H4O
 Framework group  C1[X(C4H4O)]
 Deg. of freedom    21
 Full point group                 C1      NOp   1
 Largest Abelian subgroup         C1      NOp   1
 Largest concise Abelian subgroup C1      NOp   1
                         Standard orientation:                         
 ---------------------------------------------------------------------
 Center     Atomic      Atomic             Coordinates (Angstroms)
 Number     Number       Type             X           Y           Z
 ---------------------------------------------------------------------
      1          6           0       -1.066028    0.549571    0.013166
      2          6           0       -0.878971   -0.796044   -0.016967
      3          8           0        0.582850   -1.035453    0.006998
      4          6           0        1.153102    0.178886   -0.007447
      5          6           0        0.175993    1.158476   -0.003216
      6          1           0        0.382676    2.257368   -0.024410
      7          1           0        2.218832    0.183356    0.032427
      8          1           0       -1.469872   -1.686384    0.003517
      9          1           0       -2.099014    0.983952    0.019260
 ---------------------------------------------------------------------
 Rotational constants (GHZ):      9.5286189      8.8356892      4.5852987
 Leave Link  202 at Tue Dec 15 17:07:43 2015, MaxMem=    33554432 cpu:         0.0
 (Enter /home/Applications/g09/g09/l301.exe)

 Semi-emprical parameters in input format:
 Method=8 CoreType=1 PeptideFC=0.0106250000 RIJScale=0.5404210000
 ****
 H       
 PQN=1 NValence=1 F0ss=0.4721550000 ZetaOverlap=1.0856700000 U=-0.3858490000
 Beta=-0.2268830000 CoreKO=1.0354420000 KON=0,0,0,1.0458670000 KON=1,0,1,1.0589200000
 KON=0,1,1,1.1438880000 KON=2,1,1,1.0589200000 EISol=-0.4188110042 EHeat=0.0830298228
 Alpha=1.4046640000
 GCore=0.0085280000,1.5127750000,2.2676710000
 GCore=0.0003530000,1.4368830000,3.4779940000
 GCore=-0.0013010000,0.5600570000,3.5861320000
 ****
 C       
 PQN=2,2 NValence=4 F0ss=0.4494440000 F0sp=0.4261420000 F0pp=0.3497590000 F2pp=0.1878900000
 G1sp=0.2701540000
 ZetaOverlap=1.8086650000,1.3781170000
 U=-1.6741410000,-1.4557970000
 Beta=-0.5453250000,-0.2836780000 DDN=0,1,0.7474020000 DDN=1,1,0.7964360000
 CoreKO=1.1124280000 KON=0,0,0,1.1124280000 KON=1,0,1,0.8159680000 KON=0,1,1,1.1124280000
 KON=2,1,1,0.8516400000 EISol=-4.4398989268 EHeat=0.2723305520 Alpha=1.3653470000
 DipHyp=1.4947180026
 GCore=0.0007890000,1.3361580000,2.6678360000
 GCore=0.0031890000,1.4001430000,3.2045450000
 GCore=-0.0015090000,1.3827320000,3.8739390000
 GCore=-0.0001030000,1.2700780000,4.6088130000
 ****
 O       
 PQN=2,2 NValence=6 F0ss=0.6666250000 F0sp=0.5321300000 F0pp=0.4958710000 F2pp=0.2358080000
 G1sp=0.4343770000
 ZetaOverlap=2.7336680000,2.5240390000
 U=-3.5951870000,-1.8323600000
 Beta=-1.1573400000,-1.2481890000 DDN=0,1,0.4953610000 DDN=1,1,0.5211070000
 CoreKO=0.8515990000 KON=0,0,0,0.8822960000 KON=1,0,1,0.5019540000 KON=0,1,1,0.8671530000
 KON=2,1,1,0.5515580000 EISol=-11.6164441184 EHeat=0.0949133088 Alpha=2.4031680000
 DipHyp=0.9906650029
 GCore=0.0204720000,1.2640290000,1.6023330000
 GCore=0.0052790000,1.9602000000,2.5761670000
 ****
 
 Standard basis: VSTO-6G (5D, 7F)
 Ernie: Thresh=  0.10000D-02 Tol=  0.10000D-05 Strict=F.
  NNHCO=     0 NNPyr=     0 NCTC=     0               EPep=         0.000000000
    EC=        68.314488073  ECS=         1.972293596   EG=         0.361750738
   EHC=         0.000000000  EAt=       -31.051283842  AtH=         1.516354808
 EPDDG=         0.000000000  ECC=        70.648532407 EAtT=        32.567638650
 There are    24 symmetry adapted cartesian basis functions of A   symmetry.
 There are    24 symmetry adapted basis functions of A   symmetry.
    24 basis functions,   144 primitive gaussians,    24 cartesian basis functions
    13 alpha electrons       13 beta electrons
       nuclear repulsion energy       103.2161710577 Hartrees.
 IExCor=    0 DFT=F Ex=HF Corr=None ExCW=0 ScaHFX=  1.000000
 ScaDFX=  1.000000  1.000000  1.000000  1.000000 ScalE2=  1.000000  1.000000
 IRadAn=      0 IRanWt=     -1 IRanGd=            0 ICorTp=0 IEmpDi=  4
 Integral buffers will be    131072 words long.
 Regular integral format.
 Two-electron integral symmetry is turned off.
 Leave Link  301 at Tue Dec 15 17:07:43 2015, MaxMem=    33554432 cpu:         0.0
 (Enter /home/Applications/g09/g09/l302.exe)
 Do NDO integrals.
 NPDir=0 NMtPBC=     1 NCelOv=     1 NCel=       1 NClECP=     1 NCelD=      1
         NCelK=      1 NCelE2=     1 NClLst=     1 CellRange=     0.0.
 One-electron integrals computed using PRISM.
 NBasis=    24 RedAO= F EigKep=  0.00D+00  NBF=    24
 NBsUse=    24 1.00D-04 EigRej=  0.00D+00 NBFU=    24
 Leave Link  302 at Tue Dec 15 17:07:44 2015, MaxMem=    33554432 cpu:         0.0
 (Enter /home/Applications/g09/g09/l308.exe)
 Leave Link  308 at Tue Dec 15 17:07:44 2015, MaxMem=    33554432 cpu:         0.0
 (Enter /home/Applications/g09/g09/l303.exe)
 DipDrv:  MaxL=1.
 Leave Link  303 at Tue Dec 15 17:07:44 2015, MaxMem=    33554432 cpu:         0.0
 (Enter /home/Applications/g09/g09/l401.exe)
 Simple Huckel Guess.
 JPrj=0 DoOrth=F DoCkMO=F.
 Leave Link  401 at Tue Dec 15 17:07:44 2015, MaxMem=    33554432 cpu:         0.0
 (Enter /home/Applications/g09/g09/l502.exe)
 Closed shell SCF:
 Using DIIS extrapolation, IDIIS=  1040.
 Overlap will be assumed to be unity.
 Two-electron integral symmetry not used.
 Keep J ints in memory in canonical form, NReq=888082.
 IVT=       79475 IEndB=       79475 NGot=    33554432 MDV=    33473473
 LenX=    33473473 LenY=    33472456
 Requested convergence on RMS density matrix=1.00D-08 within 128 cycles.
 Requested convergence on MAX density matrix=1.00D-06.
 Requested convergence on             energy=1.00D-06.
 No special actions if energy rises.
 FoFCou: FMM=F IPFlag=           0 FMFlag=           0 FMFlg1=           0
         NFxFlg=           0 DoJE=F BraDBF=F KetDBF=F FulRan=T
         wScrn=  0.000000 ICntrl=     600 IOpCl=  2 I1Cent=           0 NGrid=           0
         NMat0=    1 NMatS0=     54 NMatT0=    0 NMatD0=    1 NMtDS0=    0 NMtDT0=    0
 Symmetry not used in FoFCou.

 Cycle   1  Pass 1  IDiag  1:
 E=  5.74145925240163    
 DIIS: error= 2.00D-01 at cycle   1 NSaved=   1.
 NSaved= 1 IEnMin= 1 EnMin=  5.74145925240163     IErMin= 1 ErrMin= 2.00D-01
 ErrMax= 2.00D-01  0.00D+00 EMaxC= 1.00D-01 BMatC= 6.65D-01 BMatP= 6.65D-01
 IDIUse=3 WtCom= 0.00D+00 WtEn= 1.00D+00
 Coeff-Com:  0.100D+01
 Coeff-En:   0.100D+01
 Coeff:      0.100D+01
 GapD=    2.000 DampG=2.000 DampE=0.250 DampFc=0.5000 IDamp=-1.
 Damping current iteration by 5.00D-01
 RMSDP=7.31D-02 MaxDP=7.84D-01              OVMax= 0.00D+00

 Cycle   2  Pass 1  IDiag  1:
 E=  4.30643333116741     Delta-E=       -1.435025921234 Rises=F Damp=T
 DIIS: error= 1.07D-01 at cycle   2 NSaved=   2.
 NSaved= 2 IEnMin= 2 EnMin=  4.30643333116741     IErMin= 2 ErrMin= 1.07D-01
 ErrMax= 1.07D-01  0.00D+00 EMaxC= 1.00D-01 BMatC= 2.07D-01 BMatP= 6.65D-01
 IDIUse=3 WtCom= 0.00D+00 WtEn= 1.00D+00
 Coeff-Com: -0.109D+01 0.209D+01
 Coeff-En:   0.000D+00 0.100D+01
 Coeff:      0.000D+00 0.100D+01
 RMSDP=3.90D-02 MaxDP=3.96D-01 DE=-1.44D+00 OVMax= 0.00D+00

 Cycle   3  Pass 1  IDiag  1:
 E=  2.65382749134362     Delta-E=       -1.652605839824 Rises=F Damp=F
 DIIS: error= 2.02D-02 at cycle   3 NSaved=   3.
 NSaved= 3 IEnMin= 3 EnMin=  2.65382749134362     IErMin= 3 ErrMin= 2.02D-02
 ErrMax= 2.02D-02  0.00D+00 EMaxC= 1.00D-01 BMatC= 1.41D-02 BMatP= 2.07D-01
 IDIUse=3 WtCom= 7.98D-01 WtEn= 2.02D-01
 Coeff-Com:  0.205D+00-0.495D+00 0.129D+01
 Coeff-En:   0.000D+00 0.000D+00 0.100D+01
 Coeff:      0.163D+00-0.395D+00 0.123D+01
 RMSDP=1.02D-02 MaxDP=5.13D-02 DE=-1.65D+00 OVMax= 0.00D+00

 Cycle   4  Pass 1  IDiag  1:
 E=  2.60434989438384     Delta-E=       -0.049477596960 Rises=F Damp=F
 DIIS: error= 5.18D-03 at cycle   4 NSaved=   4.
 NSaved= 4 IEnMin= 4 EnMin=  2.60434989438384     IErMin= 4 ErrMin= 5.18D-03
 ErrMax= 5.18D-03  0.00D+00 EMaxC= 1.00D-01 BMatC= 1.13D-03 BMatP= 1.41D-02
 IDIUse=3 WtCom= 9.48D-01 WtEn= 5.18D-02
 Coeff-Com: -0.136D-01 0.148D-01-0.308D+00 0.131D+01
 Coeff-En:   0.000D+00 0.000D+00 0.000D+00 0.100D+01
 Coeff:     -0.129D-01 0.140D-01-0.292D+00 0.129D+01
 RMSDP=3.81D-03 MaxDP=2.03D-02 DE=-4.95D-02 OVMax= 0.00D+00

 Cycle   5  Pass 1  IDiag  3:
 E=  2.59959689654043     Delta-E=       -0.004752997843 Rises=F Damp=F
 DIIS: error= 1.21D-03 at cycle   5 NSaved=   5.
 NSaved= 5 IEnMin= 5 EnMin=  2.59959689654043     IErMin= 5 ErrMin= 1.21D-03
 ErrMax= 1.21D-03  0.00D+00 EMaxC= 1.00D-01 BMatC= 4.07D-05 BMatP= 1.13D-03
 IDIUse=3 WtCom= 9.88D-01 WtEn= 1.21D-02
 Coeff-Com:  0.105D-01-0.168D-01 0.123D+00-0.582D+00 0.147D+01
 Coeff-En:   0.000D+00 0.000D+00 0.000D+00 0.000D+00 0.100D+01
 Coeff:      0.103D-01-0.166D-01 0.122D+00-0.575D+00 0.146D+01
 Gap=     0.397 Goal=   None    Shift=    0.000
 RMSDP=8.43D-04 MaxDP=4.86D-03 DE=-4.75D-03 OVMax= 9.35D-03

 Cycle   6  Pass 1  IDiag  3:
 E=  2.59940222909368     Delta-E=       -0.000194667447 Rises=F Damp=F
 DIIS: error= 1.85D-04 at cycle   6 NSaved=   6.
 NSaved= 6 IEnMin= 6 EnMin=  2.59940222909368     IErMin= 6 ErrMin= 1.85D-04
 ErrMax= 1.85D-04  0.00D+00 EMaxC= 1.00D-01 BMatC= 9.97D-07 BMatP= 4.07D-05
 IDIUse=3 WtCom= 9.98D-01 WtEn= 1.85D-03
 Coeff-Com: -0.144D-02 0.300D-02-0.318D-01 0.152D+00-0.477D+00 0.136D+01
 Coeff-En:   0.000D+00 0.000D+00 0.000D+00 0.000D+00 0.000D+00 0.100D+01
 Coeff:     -0.144D-02 0.299D-02-0.317D-01 0.152D+00-0.476D+00 0.136D+01
 Gap=     0.398 Goal=   None    Shift=    0.000
 RMSDP=1.28D-04 MaxDP=7.57D-04 DE=-1.95D-04 OVMax= 1.13D-03

 Cycle   7  Pass 1  IDiag  3:
 E=  2.59939761275486     Delta-E=       -0.000004616339 Rises=F Damp=F
 DIIS: error= 3.46D-05 at cycle   7 NSaved=   7.
 NSaved= 7 IEnMin= 7 EnMin=  2.59939761275486     IErMin= 7 ErrMin= 3.46D-05
 ErrMax= 3.46D-05  0.00D+00 EMaxC= 1.00D-01 BMatC= 3.58D-08 BMatP= 9.97D-07
 IDIUse=1 WtCom= 1.00D+00 WtEn= 0.00D+00
 Coeff-Com:  0.124D-03-0.363D-03 0.773D-02-0.400D-01 0.143D+00-0.543D+00
 Coeff-Com:  0.143D+01
 Coeff:      0.124D-03-0.363D-03 0.773D-02-0.400D-01 0.143D+00-0.543D+00
 Coeff:      0.143D+01
 Gap=     0.398 Goal=   None    Shift=    0.000
 RMSDP=2.48D-05 MaxDP=1.40D-04 DE=-4.62D-06 OVMax= 1.58D-04

 Cycle   8  Pass 1  IDiag  3:
 E=  2.59939744679896     Delta-E=       -0.000000165956 Rises=F Damp=F
 DIIS: error= 7.21D-06 at cycle   8 NSaved=   8.
 NSaved= 8 IEnMin= 8 EnMin=  2.59939744679896     IErMin= 8 ErrMin= 7.21D-06
 ErrMax= 7.21D-06  0.00D+00 EMaxC= 1.00D-01 BMatC= 1.05D-09 BMatP= 3.58D-08
 IDIUse=1 WtCom= 1.00D+00 WtEn= 0.00D+00
 Coeff-Com: -0.116D-05 0.126D-04-0.107D-02 0.682D-02-0.302D-01 0.143D+00
 Coeff-Com: -0.493D+00 0.137D+01
 Coeff:     -0.116D-05 0.126D-04-0.107D-02 0.682D-02-0.302D-01 0.143D+00
 Coeff:     -0.493D+00 0.137D+01
 Gap=     0.398 Goal=   None    Shift=    0.000
 RMSDP=4.15D-06 MaxDP=3.12D-05 DE=-1.66D-07 OVMax= 3.57D-05

 Cycle   9  Pass 1  IDiag  3:
 E=  2.59939744215978     Delta-E=       -0.000000004639 Rises=F Damp=F
 DIIS: error= 1.17D-06 at cycle   9 NSaved=   9.
 NSaved= 9 IEnMin= 9 EnMin=  2.59939744215978     IErMin= 9 ErrMin= 1.17D-06
 ErrMax= 1.17D-06  0.00D+00 EMaxC= 1.00D-01 BMatC= 3.02D-11 BMatP= 1.05D-09
 IDIUse=1 WtCom= 1.00D+00 WtEn= 0.00D+00
 Coeff-Com:  0.367D-05-0.578D-05 0.885D-04-0.951D-03 0.594D-02-0.344D-01
 Coeff-Com:  0.132D+00-0.471D+00 0.137D+01
 Coeff:      0.367D-05-0.578D-05 0.885D-04-0.951D-03 0.594D-02-0.344D-01
 Coeff:      0.132D+00-0.471D+00 0.137D+01
 Gap=     0.398 Goal=   None    Shift=    0.000
 RMSDP=7.45D-07 MaxDP=6.39D-06 DE=-4.64D-09 OVMax= 7.38D-06

 Cycle  10  Pass 1  IDiag  3:
 E=  2.59939744200824     Delta-E=       -0.000000000152 Rises=F Damp=F
 DIIS: error= 2.40D-07 at cycle  10 NSaved=  10.
 NSaved=10 IEnMin=10 EnMin=  2.59939744200824     IErMin=10 ErrMin= 2.40D-07
 ErrMax= 2.40D-07  0.00D+00 EMaxC= 1.00D-01 BMatC= 1.67D-12 BMatP= 3.02D-11
 IDIUse=1 WtCom= 1.00D+00 WtEn= 0.00D+00
 Coeff-Com: -0.905D-06 0.138D-05-0.323D-04 0.408D-03-0.272D-02 0.162D-01
 Coeff-Com: -0.624D-01 0.225D+00-0.756D+00 0.158D+01
 Coeff:     -0.905D-06 0.138D-05-0.323D-04 0.408D-03-0.272D-02 0.162D-01
 Coeff:     -0.624D-01 0.225D+00-0.756D+00 0.158D+01
 Gap=     0.398 Goal=   None    Shift=    0.000
 RMSDP=2.19D-07 MaxDP=2.01D-06 DE=-1.52D-10 OVMax= 2.32D-06

 Cycle  11  Pass 1  IDiag  3:
 E=  2.59939744199716     Delta-E=       -0.000000000011 Rises=F Damp=F
 DIIS: error= 7.02D-08 at cycle  11 NSaved=  11.
 NSaved=11 IEnMin=11 EnMin=  2.59939744199716     IErMin=11 ErrMin= 7.02D-08
 ErrMax= 7.02D-08  0.00D+00 EMaxC= 1.00D-01 BMatC= 1.02D-13 BMatP= 1.67D-12
 IDIUse=1 WtCom= 1.00D+00 WtEn= 0.00D+00
 Coeff-Com:  0.438D-07-0.500D-07 0.148D-04-0.179D-03 0.117D-02-0.694D-02
 Coeff-Com:  0.267D-01-0.958D-01 0.330D+00-0.858D+00 0.160D+01
 Coeff:      0.438D-07-0.500D-07 0.148D-04-0.179D-03 0.117D-02-0.694D-02
 Coeff:      0.267D-01-0.958D-01 0.330D+00-0.858D+00 0.160D+01
 Gap=     0.398 Goal=   None    Shift=    0.000
 RMSDP=6.02D-08 MaxDP=5.19D-07 DE=-1.11D-11 OVMax= 6.09D-07

 Cycle  12  Pass 1  IDiag  3:
 E=  2.59939744199660     Delta-E=       -0.000000000001 Rises=F Damp=F
 DIIS: error= 8.74D-09 at cycle  12 NSaved=  12.
 NSaved=12 IEnMin=12 EnMin=  2.59939744199660     IErMin=12 ErrMin= 8.74D-09
 ErrMax= 8.74D-09  0.00D+00 EMaxC= 1.00D-01 BMatC= 2.20D-15 BMatP= 1.02D-13
 IDIUse=1 WtCom= 1.00D+00 WtEn= 0.00D+00
 Coeff-Com:  0.316D-07-0.680D-07-0.340D-05 0.444D-04-0.296D-03 0.179D-02
 Coeff-Com: -0.692D-02 0.251D-01-0.871D-01 0.240D+00-0.550D+00 0.138D+01
 Coeff:      0.316D-07-0.680D-07-0.340D-05 0.444D-04-0.296D-03 0.179D-02
 Coeff:     -0.692D-02 0.251D-01-0.871D-01 0.240D+00-0.550D+00 0.138D+01
 Gap=     0.398 Goal=   None    Shift=    0.000
 RMSDP=6.94D-09 MaxDP=4.90D-08 DE=-5.54D-13 OVMax= 5.18D-08

 Cycle  13  Pass 2  IDiag  1:
 SCF Done:  E(RAM1) =   2.59939744200     A.U. after   13 cycles
            NFock= 12  Conv=0.69D-08     -V/T= 1.1818
 KE=-1.429808623038D+01 PE=-1.683257212462D+02 EE= 8.200703386092D+01
 Leave Link  502 at Tue Dec 15 17:07:44 2015, MaxMem=    33554432 cpu:         0.0
 (Enter /home/Applications/g09/g09/l801.exe)
 Range of M.O.s used for correlation:     1    24
 NBasis=    24 NAE=    13 NBE=    13 NFC=     0 NFV=     0
 NROrb=     24 NOA=    13 NOB=    13 NVA=    11 NVB=    11
 Leave Link  801 at Tue Dec 15 17:07:44 2015, MaxMem=    33554432 cpu:         0.0
 (Enter /home/Applications/g09/g09/l914.exe)
 RHF ground state
 MDV=    33554432 DFT=F DoStab=F Mixed=F DoRPA=F DoScal=F NonHer=F
 Making orbital integer symmetry assigments:
 Orbital symmetries:
       Occupied  (A) (A) (A) (A) (A) (A) (A) (A) (A) (A) (A) (A)
                 (A)
       Virtual   (A) (A) (A) (A) (A) (A) (A) (A) (A) (A) (A)
    60 initial guesses have been made.
 Convergence on wavefunction:    0.000001000000000
 Davidson Disk Diagonalization:  ConvIn= 1.00D-06 SkipCon=T Conv= 1.00D-06.
 Max sub-space:   240 roots to seek:    60 dimension of matrix:          286
 Iteration     1 Dimension    60 NMult     0 NNew     60
 CISAX will form    60 AO SS matrices at one time.
 NMat=    60 NSing=    60 JSym2X= 0.
 FoFJK:  IHMeth= 8 ICntrl=       0 DoSepK=F KAlg= 0 I1Cent=   0 FoldK=F
 IRaf=         1 NMat= 120 IRICut=       1 DoRegI=T DoRafI=F ISym2E= 0.
 FoFCou: FMM=F IPFlag=           0 FMFlag=      100000 FMFlg1=           0
         NFxFlg=           0 DoJE=F BraDBF=F KetDBF=F FulRan=T
         wScrn=  0.000000 ICntrl=       0 IOpCl=  0 I1Cent=           0 NGrid=           0
         NMat0=  120 NMatS0=     60 NMatT0=    0 NMatD0=  120 NMtDS0=    0 NMtDT0=    0
 Symmetry not used in FoFCou.
 New state      6 was old state      7
 New state      7 was old state      6
 New state     10 was old state     19
 New state     14 was old state     20
 New state     15 was old state     16
 Excitation Energies [eV] at current iteration:
 Root      1 :     5.292016481802894
 Root      2 :     6.239796318200309
 Root      3 :     6.817299897169132
 Root      4 :     6.867538041012213
 Root      5 :     7.207071473385129
 Root      6 :     8.030893986669257
 Root      7 :     8.556310082302824
 Root      8 :     9.089055154020809
 Root      9 :     9.567843370167745
 Root     10 :     9.627449542110270
 Root     11 :     9.637155578119547
 Root     12 :     9.971157862241151
 Root     13 :    10.095230762314460
 Root     14 :    10.608463058204900
 Root     15 :    10.730151142227860
 Root     16 :    10.816318949074320
 Root     17 :    10.936844821698750
 Root     18 :    11.030224465856230
 Root     19 :    11.296550543725640
 Root     20 :    11.620795168422550
 Root     21 :    12.063095625910180
 Root     22 :    12.126284749004690
 Root     23 :    12.310397109886580
 Root     24 :    12.435043928676640
 Root     25 :    12.813232802680130
 Root     26 :    12.967381391182490
 Root     27 :    13.212201616294020
 Root     28 :    13.435193401178080
 Root     29 :    13.490970507609930
 Root     30 :    13.734879985891350
 Root     31 :    13.883743834906650
 Root     32 :    13.961767628120040
 Root     33 :    14.085643083696350
 Root     34 :    14.187141456364920
 Root     35 :    14.334948737651880
 Root     36 :    14.579279398392600
 Root     37 :    14.700491927600160
 Root     38 :    15.144194976104200
 Root     39 :    15.299369546938000
 Root     40 :    15.399129435467000
 Root     41 :    15.452355701052700
 Root     42 :    15.768469395413860
 Root     43 :    15.829909580712800
 Root     44 :    15.945817892896430
 Root     45 :    16.230694356638700
 Root     46 :    16.402204478974510
 Root     47 :    16.437230777047330
 Root     48 :    16.635541956224860
 Root     49 :    16.708486022091360
 Root     50 :    16.951949070981560
 Root     51 :    16.983740978858930
 Root     52 :    17.181596360482950
 Root     53 :    17.247639226109020
 Root     54 :    17.290680053062450
 Root     55 :    17.556988874196590
 Root     56 :    17.736666990278250
 Root     57 :    17.787213223262960
 Root     58 :    17.859965148695130
 Root     59 :    18.495984438376660
 Root     60 :    18.555475102302820
 Iteration     2 Dimension   120 NMult    60 NNew     60
 CISAX will form    60 AO SS matrices at one time.
 NMat=    60 NSing=    60 JSym2X= 0.
 Root      1 not converged, maximum delta is    0.014671294264595
 Root      2 not converged, maximum delta is    0.022011453063024
 Root      3 not converged, maximum delta is    0.073800940811754
 Root      4 not converged, maximum delta is    0.072340672603853
 Root      5 not converged, maximum delta is    0.014355346369540
 Root      6 not converged, maximum delta is    0.008309468894485
 Root      7 not converged, maximum delta is    0.013402663749967
 Root      8 not converged, maximum delta is    0.009290710934861
 New state      9 was old state     10
 Root      9 not converged, maximum delta is    0.160297026246409
 New state     10 was old state      9
 Root     10 not converged, maximum delta is    0.089604053652954
 Root     11 not converged, maximum delta is    0.148899948840686
 Root     12 not converged, maximum delta is    0.046360937249447
 Root     13 not converged, maximum delta is    0.053139724385061
 Root     14 not converged, maximum delta is    0.074844816872984
 Root     15 not converged, maximum delta is    0.170465734122660
 Excitation Energies [eV] at current iteration:
 Root      1 :     5.225917249555484   Change is   -0.066099232247411
 Root      2 :     6.221094545878912   Change is   -0.018701772321398
 Root      3 :     6.787684285052060   Change is   -0.029615612117072
 Root      4 :     6.847871083089360   Change is   -0.019666957922853
 Root      5 :     7.198149072132898   Change is   -0.008922401252232
 Root      6 :     8.028632805734693   Change is   -0.002261180934564
 Root      7 :     8.534803782208931   Change is   -0.021506300093894
 Root      8 :     9.082593549183432   Change is   -0.006461604837376
 Root      9 :     9.355640309437964   Change is   -0.271809232672307
 Root     10 :     9.495182240095316   Change is   -0.072661130072429
 Root     11 :     9.620344940744420   Change is   -0.016810637375126
 Root     12 :     9.943247519193003   Change is   -0.027910343048148
 Root     13 :     9.990659721915749   Change is   -0.104571040398713
 Root     14 :    10.408284648222570   Change is   -0.200178409982336
 Root     15 :    10.698774833718370   Change is   -0.031376308509497
 Root     16 :    10.714086838179320   Change is   -0.222757983519431
 Root     17 :    10.795149887937240   Change is   -0.021169061137071
 Root     18 :    10.824558109854160   Change is   -0.205666356002066
 Root     19 :    11.245937121436550   Change is   -0.050613422289082
 Root     20 :    11.602428141468990   Change is   -0.018367026953559
 Root     21 :    11.822994327578980   Change is   -0.240101298331204
 Root     22 :    12.072700877229880   Change is   -0.053583871774811
 Root     23 :    12.077683575666870   Change is   -0.232713534219701
 Root     24 :    12.177971481854720   Change is   -0.257072446821915
 Root     25 :    12.716093887843340   Change is   -0.251287503339147
 Root     26 :    12.790827409064300   Change is   -0.022405393615833
 Root     27 :    13.149895873127510   Change is   -0.062305743166512
 Root     28 :    13.271626135179280   Change is   -0.219344372430655
 Root     29 :    13.314717981789450   Change is   -0.120475419388628
 Root     30 :    13.555215040328530   Change is   -0.179664945562822
 Root     31 :    13.684149397298360   Change is   -0.199594437608289
 Root     32 :    13.810864025840400   Change is   -0.150903602279639
 Root     33 :    13.836329636265700   Change is   -0.249313447430658
 Root     34 :    13.943213828558140   Change is   -0.243927627806778
 Root     35 :    14.245812004107940   Change is   -0.089136733543945
 Root     36 :    14.562623283828350   Change is   -0.016656114564247
 Root     37 :    14.608766704598370   Change is   -0.091725223001791
 Root     38 :    14.725675313604840   Change is   -0.573694233333164
 Root     39 :    14.831366659505860   Change is   -0.620989041546841
 Root     40 :    14.946437598055060   Change is   -0.197757378049134
 Root     41 :    15.281498834152150   Change is   -0.117630601314857
 Root     42 :    15.392745781546460   Change is   -0.437163799166341
 Root     43 :    15.485407373701170   Change is   -0.283062021712691
 Root     44 :    15.839497054447960   Change is   -0.106320838448468
 Root     45 :    15.963324019649780   Change is   -0.267370336988924
 Root     46 :    16.082197958164990   Change is   -0.355032818882343
 Root     47 :    16.294629297008480   Change is   -0.107575181966034
 Root     48 :    16.451404392318590   Change is   -0.500544678662967
 Root     49 :    16.515130980188530   Change is   -0.120410976036326
 Root     50 :    16.670296696851700   Change is   -0.313444282007223
 Root     51 :    16.692382936176990   Change is   -0.016103085914375
 Root     52 :    16.884841215177690   Change is   -0.405838837884756
 Root     53 :    17.040147984319950   Change is   -0.141448376162997
 Root     54 :    17.072707035737810   Change is   -0.484281838458777
 Root     55 :    17.219116761255430   Change is   -0.028522464853588
 Root     56 :    17.429189495312930   Change is   -0.358023727950031
 Root     57 :    17.601789214750920   Change is   -0.134877775527332
 Root     58 :    17.671093305942550   Change is   -0.188871842752578
 Root     59 :    18.053210100006140
 Root     60 :    18.337861190686600   Change is   -0.217613911616225
 Iteration     3 Dimension   135 NMult   120 NNew     15
 CISAX will form    15 AO SS matrices at one time.
 NMat=    15 NSing=    15 JSym2X= 0.
 Root      1 not converged, maximum delta is    0.000829075952164
 Root      2 not converged, maximum delta is    0.000019641392128
 Root      3 not converged, maximum delta is    0.000020295977653
 Root      4 not converged, maximum delta is    0.000018903371322
 Root      5 not converged, maximum delta is    0.000043088517886
 Root      6 not converged, maximum delta is    0.000034588824686
 Root      7 not converged, maximum delta is    0.000785813753941
 Root      8 not converged, maximum delta is    0.000085907149893
 Root      9 not converged, maximum delta is    0.001421346450328
 Root     10 not converged, maximum delta is    0.000814657307681
 Root     11 not converged, maximum delta is    0.000156367929923
 Root     12 not converged, maximum delta is    0.000578302403356
 Root     13 not converged, maximum delta is    0.001588783420920
 Root     14 not converged, maximum delta is    0.002471945991136
 Root     15 not converged, maximum delta is    0.009517366458711
 Excitation Energies [eV] at current iteration:
 Root      1 :     5.225772048630441   Change is   -0.000145200925042
 Root      2 :     6.221094406345858   Change is   -0.000000139533053
 Root      3 :     6.787684166193715   Change is   -0.000000118858345
 Root      4 :     6.847870986986733   Change is   -0.000000096102627
 Root      5 :     7.198148638018560   Change is   -0.000000434114337
 Root      6 :     8.028632524915329   Change is   -0.000000280819366
 Root      7 :     8.534742607259785   Change is   -0.000061174949146
 Root      8 :     9.082590690622006   Change is   -0.000002858561428
 Root      9 :     9.355214200343106   Change is   -0.000426109094858
 Root     10 :     9.494935289025952   Change is   -0.000246951069366
 Root     11 :     9.620337772997217   Change is   -0.000007167747204
 Root     12 :     9.943233825211797   Change is   -0.000013693981207
 Root     13 :     9.990231060221760   Change is   -0.000428661693989
 Root     14 :    10.407062030373070   Change is   -0.001222617849493
 Root     15 :    10.698436710177290   Change is   -0.000338123541083
 Iteration     4 Dimension   143 NMult   135 NNew      8
 CISAX will form     8 AO SS matrices at one time.
 NMat=     8 NSing=     8 JSym2X= 0.
 Root      1 not converged, maximum delta is    0.000013778043039
 Root      2 not converged, maximum delta is    0.000001263139968
 Root      3 has converged.
 Root      4 has converged.
 Root      5 has converged.
 Root      6 not converged, maximum delta is    0.000002281878557
 Root      7 not converged, maximum delta is    0.000018476702484
 Root      8 not converged, maximum delta is    0.000004511270612
 Root      9 not converged, maximum delta is    0.000081521958421
 Root     10 not converged, maximum delta is    0.000083171301650
 Root     11 not converged, maximum delta is    0.000009156912381
 Root     12 not converged, maximum delta is    0.000018321901794
 Root     13 not converged, maximum delta is    0.000088110400107
 Root     14 not converged, maximum delta is    0.000077158275956
 Root     15 not converged, maximum delta is    0.000111937292436
 Excitation Energies [eV] at current iteration:
 Root      1 :     5.225771990999848   Change is   -0.000000057630593
 Root      2 :     6.221094406052603   Change is   -0.000000000293255
 Root      3 :     6.787684166092117   Change is   -0.000000000101599
 Root      4 :     6.847870986772122   Change is   -0.000000000214611
 Root      5 :     7.198148637866740   Change is   -0.000000000151821
 Root      6 :     8.028632524162990   Change is   -0.000000000752337
 Root      7 :     8.534742488413313   Change is   -0.000000118846472
 Root      8 :     9.082590684786910   Change is   -0.000000005835095
 Root      9 :     9.355213204133909   Change is   -0.000000996209196
 Root     10 :     9.494934531701404   Change is   -0.000000757324548
 Root     11 :     9.620337754829073   Change is   -0.000000018168144
 Root     12 :     9.943233763023471   Change is   -0.000000062188325
 Root     13 :     9.990229154249402   Change is   -0.000001905972357
 Root     14 :    10.407061022865270   Change is   -0.000001007507800
 Root     15 :    10.698435301872970   Change is   -0.000001408304310
 Convergence achieved on expansion vectors.
 ***********************************************************************
 Excited states from <AA,BB:AA,BB> singles matrix:
 ***********************************************************************
 
 1PDM for each excited state written to RWF  633
 Ground to excited state transition densities written to RWF  633
 Ground to excited state transition electric dipole moments (Au):
       state          X           Y           Z        Dip. S.      Osc.
         1         1.3702      0.8713     -0.0123      2.6367      0.3376
         2         0.0120     -0.0048      0.1018      0.0105      0.0016
         3         0.0167      0.0152      0.1265      0.0165      0.0027
         4         0.0292      0.0026     -0.0212      0.0013      0.0002
         5        -0.0452     -0.0379      0.1430      0.0239      0.0042
         6         0.0057      0.0097     -0.0029      0.0001      0.0000
         7         0.3555     -0.6122     -0.0229      0.5016      0.1049
         8        -0.0777     -0.0406     -0.1646      0.0348      0.0077
         9        -0.6474     -0.1087      0.0206      0.4313      0.0989
        10        -0.7144     -0.2622      0.0215      0.5796      0.1348
        11         0.1418      0.0573      0.0458      0.0255      0.0060
        12        -0.0217     -0.0135     -0.0487      0.0030      0.0007
        13         0.6945      0.5139     -0.0026      0.7464      0.1827
        14        -0.1486      0.4641     -0.0177      0.2378      0.0606
        15         0.2109     -0.5482      0.0807      0.3516      0.0922
 Ground to excited state transition velocity dipole moments (Au):
       state          X           Y           Z        Dip. S.      Osc.
         1        -0.1739     -0.1215      0.0031      0.0450      0.1563
         2        -0.0007      0.0008     -0.0993      0.0099      0.0288
         3        -0.0037      0.0033     -0.1722      0.0297      0.0793
         4        -0.0061     -0.0006      0.0290      0.0009      0.0023
         5         0.0077      0.0052      0.0118      0.0002      0.0006
         6        -0.0016     -0.0048      0.0024      0.0000      0.0001
         7        -0.1386      0.1998      0.0042      0.0591      0.1257
         8         0.0165      0.0045     -0.0536      0.0032      0.0063
         9         0.0578     -0.0341      0.0000      0.0045      0.0087
        10         0.1093      0.0521     -0.0126      0.0148      0.0283
        11        -0.0226     -0.0081      0.0073      0.0006      0.0012
        12         0.0050     -0.0042     -0.1252      0.0157      0.0287
        13        -0.1347     -0.0529     -0.0158      0.0212      0.0385
        14         0.0049     -0.0645      0.0092      0.0043      0.0074
        15        -0.0082      0.0859      0.0803      0.0139      0.0236
 Ground to excited state transition magnetic dipole moments (Au):
       state          X           Y           Z
         1        -0.0147      0.0105      0.6423
         2        -0.2674      0.1586      0.0048
         3        -0.1433     -0.4414      0.0060
         4         0.4523     -0.6893      0.0150
         5        -0.7338     -0.3572     -0.0235
         6        -0.3793      0.5486      0.0126
         7        -0.0047      0.0510     -0.0373
         8         0.4184      0.3790     -0.0373
         9        -0.0197     -0.0137     -0.0767
        10        -0.1103      0.0376     -0.1931
        11        -0.4145      0.3080      0.0188
        12        -0.0386      0.1985      0.0054
        13         0.0057     -0.0025      0.0847
        14         0.0124     -0.0110      0.0304
        15         0.0744     -0.2367     -0.0633
 Ground to excited state transition velocity quadrupole moments (Au):
       state          XX          YY          ZZ          XY          XZ          YZ
         1         0.2595     -0.2561      0.0018     -0.1339     -0.0034      0.0131
         2         0.0064      0.0010     -0.0035     -0.0002     -0.1372     -0.1560
         3         0.0033     -0.0125      0.0070     -0.0129      0.1403     -0.0052
         4        -0.0012     -0.0069      0.0016     -0.0072     -0.2256     -0.1219
         5        -0.0059      0.0187      0.0015      0.0047     -0.0755      0.1081
         6        -0.0051     -0.0098      0.0057      0.0012     -0.4558     -0.3004
         7        -0.0255      0.0433     -0.0062     -0.3091     -0.0094      0.0034
         8         0.0069      0.0359      0.0053      0.0296     -0.2006      0.2238
         9        -0.1201      0.0954      0.0086      0.1933     -0.0010     -0.0160
        10         0.0179      0.2729      0.0697      0.1897     -0.0331     -0.0494
        11         0.0253     -0.0236     -0.0124     -0.0290     -0.1266     -0.2134
        12        -0.0486     -0.0240     -0.0264     -0.0210     -0.2639      0.0168
        13         0.5149      0.0005      0.1269      0.0275     -0.0348      0.0073
        14         0.2929      0.0484     -0.0373      0.2006      0.0153      0.0021
        15         0.2857      0.4394      0.1423     -0.0732     -0.1364     -0.1397
 <0|del|b> * <b|rxdel|0> + <0|del|b> * <b|delr+rdel|0>
 Rotatory Strengths (R) in cgs (10**-40 erg-esu-cm/Gauss)
       state          XX          YY          ZZ    R(velocity)    E-M Angle
         1        -0.1767      4.9919      7.3130      4.0427       88.62
         2        -0.3366     -0.3327      0.1408     -0.1762       90.32
         3        -1.0314     -3.8458     -0.6965     -1.8579       91.41
         4         0.7111     -1.9510     -4.1803     -1.8067       94.53
         5        -2.2654     -6.9096    -11.7237     -6.9663      129.59
         6        -5.7187      1.2977     -0.3848     -1.6019      122.76
         7        11.9733      1.4777     10.6387      8.0299       46.13
         8         3.1853     15.0436      4.2530      7.4940       70.53
         9         0.4466     -2.1322      0.2952     -0.4635       97.20
        10         3.7770    -12.7738     -6.5028     -5.1665      106.18
        11        -3.6142     14.5331      3.0657      4.6615       57.38
        12        -0.0012     -3.3010     -0.0010     -1.1011       93.86
        13        -3.3513     -2.5641      2.1047     -1.2702       99.21
        14         3.5382     -1.3873     -0.2124      0.6462       62.38
        15       -17.6121      1.1904    -30.3956    -15.6058      149.56
 1/2[<0|r|b>*<b|rxdel|0> + (<0|rxdel|b>*<b|r|0>)*]
 Rotatory Strengths (R) in cgs (10**-40 erg-esu-cm/Gauss)
       state          XX          YY          ZZ     R(length)
         1        14.2550     -6.4813      5.5781      4.4506
         2         2.2726      0.5392     -0.3445      0.8224
         3         1.6896      4.7470     -0.5344      1.9674
         4        -9.3396      1.2716      0.2245     -2.6145
         5       -23.4727     -9.5674      2.3803    -10.2199
         6         1.5369     -3.7760      0.0258     -0.7377
         7         1.1710     22.0902     -0.6038      7.5525
         8        22.9962     10.8680     -4.3437      9.8401
         9        -9.0305     -1.0495      1.1190     -2.9870
        10       -55.7104      6.9782      2.9354    -15.2656
        11        41.5705    -12.4767     -0.6070      9.4956
        12        -0.5917      1.9013      0.1848      0.4982
        13        -2.8165      0.9067      0.1566     -0.5844
        14         1.3078      3.5964      0.3797      1.7613
        15       -11.0942    -91.7660      3.6144    -33.0819
  1/2[<0|del|b>*<b|r|0> + (<0|r|b>*<b|del|0>)*] (Au)
       state          X           Y           Z        Dip. S.   Osc.(frdel)
         1        -0.2383     -0.1058      0.0000      0.3442      0.2295
         2         0.0000      0.0000     -0.0101      0.0101      0.0067
         3        -0.0001      0.0001     -0.0218      0.0218      0.0145
         4        -0.0002      0.0000     -0.0006      0.0008      0.0005
         5        -0.0003     -0.0002      0.0017     -0.0011     -0.0008
         6         0.0000      0.0000      0.0000      0.0001      0.0000
         7        -0.0493     -0.1223     -0.0001      0.1717      0.1145
         8        -0.0013     -0.0002      0.0088     -0.0074     -0.0049
         9        -0.0374      0.0037      0.0000      0.0337      0.0225
        10        -0.0781     -0.0137     -0.0003      0.0920      0.0613
        11        -0.0032     -0.0005      0.0003      0.0033      0.0022
        12        -0.0001      0.0001      0.0061     -0.0060     -0.0040
        13        -0.0936     -0.0272      0.0000      0.1207      0.0805
        14        -0.0007     -0.0299     -0.0002      0.0308      0.0205
        15        -0.0017     -0.0471      0.0065      0.0423      0.0282

 Excitation energies and oscillator strengths:
 
 Excited State   1:      Singlet-A      5.2258 eV  237.26 nm  f=0.3376  <S**2>=0.000
      13 -> 14         0.69730
 This state for optimization and/or second-order correction.
 Total Energy, E(CIS) =   2.79144103735    
 Copying the excited state density for this state as the 1-particle RhoCI density.
 
 Excited State   2:      Singlet-A      6.2211 eV  199.30 nm  f=0.0016  <S**2>=0.000
      10 -> 15         0.11539
      13 -> 15         0.67269
      13 -> 18        -0.10784
      13 -> 19        -0.10205
 
 Excited State   3:      Singlet-A      6.7877 eV  182.66 nm  f=0.0027  <S**2>=0.000
      10 -> 16        -0.10761
      11 -> 14         0.13098
      12 -> 14         0.13225
      13 -> 16         0.65050
 
 Excited State   4:      Singlet-A      6.8479 eV  181.06 nm  f=0.0002  <S**2>=0.000
      11 -> 14        -0.13250
      12 -> 14         0.67561
      13 -> 16        -0.11006
 
 Excited State   5:      Singlet-A      7.1981 eV  172.24 nm  f=0.0042  <S**2>=0.000
      11 -> 14         0.67730
      12 -> 14         0.10962
      13 -> 16        -0.14660
 
 Excited State   6:      Singlet-A      8.0286 eV  154.43 nm  f=0.0000  <S**2>=0.000
      13 -> 17         0.67102
      13 -> 21         0.12563
 
 Excited State   7:      Singlet-A      8.5347 eV  145.27 nm  f=0.1049  <S**2>=0.000
      10 -> 14         0.68498
 
 Excited State   8:      Singlet-A      9.0826 eV  136.51 nm  f=0.0077  <S**2>=0.000
       7 -> 15        -0.11938
      10 -> 15         0.29572
      10 -> 16        -0.10859
      13 -> 18         0.60424
 
 Excited State   9:      Singlet-A      9.3552 eV  132.53 nm  f=0.0989  <S**2>=0.000
       9 -> 15        -0.14770
      10 -> 14        -0.12876
      11 -> 15        -0.32006
      11 -> 16        -0.31035
      11 -> 18         0.24565
      12 -> 15        -0.16317
      12 -> 16         0.12361
      12 -> 17         0.34103
 
 Excited State  10:      Singlet-A      9.4949 eV  130.58 nm  f=0.1348  <S**2>=0.000
      11 -> 15        -0.39070
      11 -> 19         0.10209
      12 -> 15         0.52049
      12 -> 18        -0.11187
 
 Excited State  11:      Singlet-A      9.6203 eV  128.88 nm  f=0.0060  <S**2>=0.000
      10 -> 15         0.13963
      10 -> 16         0.29622
      13 -> 17        -0.12706
      13 -> 19         0.57908
 
 Excited State  12:      Singlet-A      9.9432 eV  124.69 nm  f=0.0007  <S**2>=0.000
       7 -> 15        -0.12836
      10 -> 15         0.57039
      13 -> 15        -0.17412
      13 -> 18        -0.25645
      13 -> 19        -0.18347
 
 Excited State  13:      Singlet-A      9.9902 eV  124.11 nm  f=0.1827  <S**2>=0.000
      11 -> 15        -0.15980
      11 -> 16         0.35264
      11 -> 19         0.13838
      12 -> 15        -0.10690
      12 -> 16         0.50836
      12 -> 19         0.10451
 
 Excited State  14:      Singlet-A     10.4071 eV  119.13 nm  f=0.0606  <S**2>=0.000
       8 -> 16        -0.19803
       9 -> 15         0.21659
      11 -> 15         0.13277
      11 -> 16        -0.11399
      11 -> 17         0.37338
      11 -> 19        -0.12936
      12 -> 15         0.21900
      12 -> 16         0.31112
      12 -> 18         0.13457
      12 -> 20        -0.10873
 
 Excited State  15:      Singlet-A     10.6984 eV  115.89 nm  f=0.0922  <S**2>=0.000
       8 -> 14        -0.11981
       9 -> 14         0.34241
      10 -> 16         0.36409
      11 -> 15         0.15986
      11 -> 17        -0.20258
      12 -> 15         0.12564
      12 -> 16         0.10709
      12 -> 17         0.16147
      13 -> 18         0.11125
      13 -> 19        -0.17331
 SavETr:  write IOETrn=   770 NScale= 10 NData=  16 NLR=1 NState=   15 LETran=     280.
 The selected state is a singlet
 CISAX will form     1 AO SS matrices at one time.
 NMat=     1 NSing=     1 JSym2X= 0.
 Leave Link  914 at Tue Dec 15 17:07:44 2015, MaxMem=    33554432 cpu:         0.1
 (Enter /home/Applications/g09/g09/l1002.exe)
 Minotr:  Closed shell wavefunction.
          Computing CIS/TD-HF/TD-KS derivatives.
          Using Z-Vector for PSCF gradient.
          Skipping F1 and S1 gradient terms here.
          IDoAtm=111111111
          Direct CPHF calculation.
          Differentiating once with respect to electric field.
                with respect to dipole field.
          Differentiating once with respect to nuclear coordinates.
          Electric field/nuclear overlap derivatives assumed to be zero.
          Requested convergence is 1.0D-10 RMS, and 1.0D-09 maximum.
          NewPWx=T KeepS1=F KeepF1=F KeepIn=T MapXYZ=F SortEE=F KeepMc=T.
          MDV=      33495423 using IRadAn=       0.
 Keep J ints in memory in canonical form, NReq=871704.
 FoFCou: FMM=F IPFlag=           0 FMFlag=           0 FMFlg1=           0
         NFxFlg=           0 DoJE=F BraDBF=F KetDBF=F FulRan=T
         wScrn=  0.000000 ICntrl=     600 IOpCl=  2 I1Cent=           0 NGrid=           0
         NMat0=    1 NMatS0=     54 NMatT0=    0 NMatD0=    1 NMtDS0=    0 NMtDT0=    0
 Symmetry not used in FoFCou.
          Solving linear equations separately, MaxMat=       0.
          There are     1 degrees of freedom in the 1st order CPHF.  IDoFFX=0 NUNeed=     1.
 LinEq1:  Iter=  0 NonCon=     1 RMS=1.01D-02 Max=7.90D-02 NDo=     1
 AX will form     1 AO Fock derivatives at one time.
 LinEq1:  Iter=  1 NonCon=     1 RMS=9.25D-04 Max=3.84D-03 NDo=     1
 LinEq1:  Iter=  2 NonCon=     1 RMS=1.33D-04 Max=1.22D-03 NDo=     1
 LinEq1:  Iter=  3 NonCon=     1 RMS=1.66D-05 Max=6.24D-05 NDo=     1
 LinEq1:  Iter=  4 NonCon=     1 RMS=2.60D-06 Max=9.06D-06 NDo=     1
 LinEq1:  Iter=  5 NonCon=     1 RMS=2.96D-07 Max=1.50D-06 NDo=     1
 LinEq1:  Iter=  6 NonCon=     1 RMS=3.86D-08 Max=2.03D-07 NDo=     1
 LinEq1:  Iter=  7 NonCon=     1 RMS=4.43D-09 Max=1.57D-08 NDo=     1
 LinEq1:  Iter=  8 NonCon=     1 RMS=4.01D-10 Max=1.20D-09 NDo=     1
 LinEq1:  Iter=  9 NonCon=     0 RMS=4.12D-11 Max=1.85D-10 NDo=     1
 Linear equations converged to 1.000D-10 1.000D-09 after     9 iterations.
 End of Minotr F.D. properties file   721 does not exist.
 End of Minotr F.D. properties file   722 does not exist.
 End of Minotr F.D. properties file   788 does not exist.
 Leave Link 1002 at Tue Dec 15 17:07:44 2015, MaxMem=    33554432 cpu:         0.0
 (Enter /home/Applications/g09/g09/l601.exe)
 Copying SCF densities to generalized density rwf, IOpCl= 0 IROHF=0.

 **********************************************************************

            Population analysis using the SCF density.

 **********************************************************************

 Orbital symmetries:
       Occupied  (A) (A) (A) (A) (A) (A) (A) (A) (A) (A) (A) (A)
                 (A)
       Virtual   (A) (A) (A) (A) (A) (A) (A) (A) (A) (A) (A)
 The electronic state is 1-A.
 Alpha  occ. eigenvalues --   -1.83250  -1.11831  -0.86324  -0.78212  -0.74566
 Alpha  occ. eigenvalues --   -0.66036  -0.61935  -0.55625  -0.54397  -0.43891
 Alpha  occ. eigenvalues --   -0.42637  -0.42116  -0.29668
 Alpha virt. eigenvalues --    0.10123   0.16396   0.19613   0.25796   0.27529
 Alpha virt. eigenvalues --    0.30461   0.36111   0.41052   0.45634   0.53336
 Alpha virt. eigenvalues --    0.57055
     Molecular Orbital Coefficients:
                           1         2         3         4         5
                           O         O         O         O         O
     Eigenvalues --    -1.83250  -1.11831  -0.86324  -0.78212  -0.74566
   1 1   C  1S          0.06895   0.46490  -0.24420  -0.19470  -0.22672
   2        1PX         0.08341   0.22841   0.14461   0.21502   0.05544
   3        1PY        -0.06053  -0.04657   0.19609   0.17495  -0.39816
   4        1PZ        -0.00054  -0.00480   0.00128  -0.00065   0.00292
   5 2   C  1S          0.17741   0.25717  -0.43118  -0.01835   0.43184
   6        1PX         0.22325   0.04789   0.02153   0.34250   0.13923
   7        1PY        -0.00247   0.30995   0.02686  -0.30131  -0.28052
   8        1PZ         0.00423   0.00531  -0.01167  -0.00265   0.01194
   9 3   O  1S          0.86471  -0.26342  -0.07191   0.12897  -0.23188
  10        1PX        -0.00449  -0.07897   0.16581  -0.19261  -0.13625
  11        1PY         0.04178   0.13207   0.12173  -0.15374   0.08097
  12        1PZ        -0.00034  -0.00086   0.00033  -0.00141  -0.00123
  13 4   C  1S          0.23428   0.22761   0.54167  -0.23499   0.24637
  14        1PX        -0.14431  -0.29007   0.09236  -0.14916   0.04244
  15        1PY        -0.23629   0.17920  -0.01601   0.56673   0.04718
  16        1PZ         0.00353   0.00152   0.01192  -0.01237   0.00551
  17 5   C  1S          0.07309   0.46133   0.22882   0.26274  -0.14462
  18        1PX         0.00443  -0.10863   0.29715   0.11765   0.33494
  19        1PY        -0.11112  -0.20823  -0.03169   0.15896  -0.21636
  20        1PZ         0.00064   0.00132   0.00124  -0.00473   0.00087
  21 6   H  1S          0.00327   0.13126   0.12596   0.20888  -0.14193
  22 7   H  1S          0.05330   0.01881   0.32524  -0.15563   0.16093
  23 8   H  1S          0.04067   0.03209  -0.24416  -0.00649   0.29893
  24 9   H  1S          0.00338   0.13135  -0.14498  -0.15677  -0.20814
                           6         7         8         9        10
                           O         O         O         O         O
     Eigenvalues --    -0.66036  -0.61935  -0.55625  -0.54397  -0.43891
   1 1   C  1S          0.19713  -0.00828   0.02929   0.11143  -0.00082
   2        1PX        -0.22475   0.02392  -0.04727   0.17405  -0.03734
   3        1PY         0.02738   0.00500  -0.32819   0.18531  -0.00769
   4        1PZ         0.02502   0.38889  -0.00467  -0.00525   0.31516
   5 2   C  1S          0.17083  -0.02109  -0.05589   0.14451  -0.00154
   6        1PX        -0.33393   0.03080   0.17347   0.58216   0.02711
   7        1PY        -0.11339   0.00345   0.54376  -0.07016   0.01215
   8        1PZ         0.03724   0.47786   0.00485  -0.00597   0.68284
   9 3   O  1S          0.17952  -0.01164   0.15058  -0.15932  -0.01164
  10        1PX         0.05125  -0.00797  -0.05564  -0.11670  -0.00464
  11        1PY        -0.16093   0.00930  -0.09397   0.00150   0.01113
  12        1PZ         0.01724   0.18784   0.00256  -0.00740  -0.02494
  13 4   C  1S          0.09777  -0.01884  -0.12947  -0.01854   0.01705
  14        1PX         0.45584  -0.02771   0.27103   0.49015  -0.01050
  15        1PY         0.30964  -0.01281   0.42554  -0.21656  -0.02438
  16        1PZ         0.04698   0.63390  -0.00689  -0.00816  -0.64779
  17 5   C  1S          0.16262  -0.01191  -0.17397  -0.03213   0.00158
  18        1PX         0.08465  -0.01443   0.16614  -0.37380   0.03299
  19        1PY         0.22201  -0.01435  -0.17088   0.10775   0.03990
  20        1PZ         0.02595   0.42127  -0.00474  -0.00160  -0.07723
  21 6   H  1S          0.22439  -0.02102  -0.18003   0.00620   0.03306
  22 7   H  1S          0.33799  -0.01958   0.11092   0.26489  -0.00977
  23 8   H  1S          0.27245  -0.02383  -0.34732  -0.09409  -0.01525
  24 9   H  1S          0.23545  -0.01579  -0.04330   0.01131   0.02185
                          11        12        13        14        15
                           O         O         O         V         V
     Eigenvalues --    -0.42637  -0.42116  -0.29668   0.10123   0.16396
   1 1   C  1S         -0.10139   0.00388   0.00605   0.00708  -0.07150
   2        1PX         0.29631   0.53528   0.00509   0.00650  -0.14732
   3        1PY        -0.39719   0.03090  -0.01550  -0.01438  -0.06300
   4        1PZ        -0.01747   0.02210   0.49900   0.70599  -0.00207
   5 2   C  1S          0.11735  -0.10533   0.00822  -0.00248  -0.00023
   6        1PX        -0.13744  -0.38702  -0.00098  -0.00084  -0.04822
   7        1PY         0.28035  -0.09564   0.00737  -0.00559  -0.01624
   8        1PZ        -0.00030   0.05092  -0.47308  -0.23420   0.00177
   9 3   O  1S          0.00004   0.11354   0.00126   0.00037   0.00753
  10        1PX         0.04923   0.09396   0.00221   0.00074  -0.06915
  11        1PY         0.02310  -0.10870  -0.00118  -0.00058   0.04311
  12        1PZ         0.00537  -0.00017  -0.15008  -0.00228  -0.00288
  13 4   C  1S         -0.10305  -0.09775  -0.00021  -0.00345  -0.06703
  14        1PX         0.07070   0.19686   0.00488  -0.00395  -0.49549
  15        1PY        -0.23497   0.12116  -0.00414   0.00271   0.15167
  16        1PZ         0.02480  -0.06644  -0.32363   0.17257  -0.01302
  17 5   C  1S          0.08824   0.05068   0.00299  -0.00322  -0.12647
  18        1PX         0.00603  -0.34337   0.01266  -0.01156  -0.33310
  19        1PY         0.51200  -0.34186   0.01246  -0.00415   0.23840
  20        1PZ        -0.00651  -0.00006   0.63171  -0.64521   0.00950
  21 6   H  1S          0.39599  -0.24736   0.00723   0.00601  -0.11237
  22 7   H  1S         -0.05352   0.07941  -0.00416   0.00792   0.68380
  23 8   H  1S         -0.00161   0.14973   0.00026  -0.00372  -0.06889
  24 9   H  1S         -0.35844  -0.33346  -0.00022   0.00090  -0.13381
                          16        17        18        19        20
                           V         V         V         V         V
     Eigenvalues --     0.19613   0.25796   0.27529   0.30461   0.36111
   1 1   C  1S         -0.08619   0.04078  -0.10012   0.19096   0.31203
   2        1PX        -0.00983   0.52390   0.19083  -0.00966  -0.23202
   3        1PY         0.42797  -0.03690  -0.07307   0.43856  -0.27915
   4        1PZ         0.01312  -0.00515  -0.00591   0.00545  -0.00492
   5 2   C  1S         -0.02584   0.00739  -0.22415   0.40957  -0.33568
   6        1PX         0.14093  -0.05587   0.08448  -0.18467   0.19852
   7        1PY         0.50715  -0.05949   0.07106   0.00580  -0.13313
   8        1PZ        -0.00212   0.00032   0.00004   0.00178  -0.00097
   9 3   O  1S          0.00891  -0.00181  -0.01478  -0.00547  -0.03375
  10        1PX        -0.00874   0.00665  -0.01717  -0.03010   0.09615
  11        1PY         0.06829  -0.00723  -0.01235  -0.06234  -0.16054
  12        1PZ        -0.00057   0.00106   0.00201  -0.00109  -0.00468
  13 4   C  1S          0.01349  -0.05378  -0.42944  -0.30586  -0.23995
  14        1PX        -0.02363  -0.06908  -0.07827  -0.02966   0.01568
  15        1PY         0.04421  -0.03748  -0.18012  -0.19991  -0.20880
  16        1PZ         0.00128  -0.00064  -0.00332   0.00054   0.00201
  17 5   C  1S         -0.09272  -0.03203  -0.08667   0.02104   0.48469
  18        1PX         0.12727   0.29520   0.17780   0.42114   0.17651
  19        1PY         0.16256   0.38582  -0.38109  -0.10223   0.04839
  20        1PZ        -0.00804  -0.00797   0.00416  -0.00594  -0.00340
  21 6   H  1S         -0.20476  -0.45281   0.44553  -0.00912  -0.32172
  22 7   H  1S          0.00320   0.08303   0.33627   0.18921   0.10046
  23 8   H  1S          0.63206  -0.06873   0.25504  -0.33650   0.17086
  24 9   H  1S         -0.17656   0.50284   0.31795  -0.30425  -0.22850
                          21        22        23        24
                           V         V         V         V
     Eigenvalues --     0.41052   0.45634   0.53336   0.57055
   1 1   C  1S          0.63568   0.00498   0.07335   0.00623
   2        1PX         0.15086  -0.00342  -0.04156  -0.01190
   3        1PY        -0.01274  -0.00090  -0.01366  -0.00940
   4        1PZ        -0.01002   0.01124  -0.00110  -0.00044
   5 2   C  1S         -0.26037  -0.00123  -0.17255   0.14871
   6        1PX         0.08387   0.00325  -0.16205   0.14343
   7        1PY        -0.18570  -0.00376  -0.07349  -0.09260
   8        1PZ        -0.00113  -0.14946  -0.00111   0.00324
   9 3   O  1S         -0.00214  -0.00044   0.10750   0.02770
  10        1PX         0.03468  -0.01230  -0.55074   0.74826
  11        1PY         0.00488   0.01664   0.74250   0.54819
  12        1PZ        -0.00223   0.96989  -0.02094   0.00001
  13 4   C  1S          0.15361  -0.00038  -0.14470  -0.22099
  14        1PX        -0.08334   0.00226   0.17346   0.03414
  15        1PY         0.11797  -0.00437   0.02225   0.19250
  16        1PZ        -0.00024  -0.19012   0.00189  -0.00263
  17 5   C  1S         -0.54394   0.00288   0.08254   0.00845
  18        1PX         0.15443   0.00200   0.03878  -0.00717
  19        1PY         0.09471   0.00209   0.03151   0.00436
  20        1PZ         0.00094   0.01221  -0.00129   0.00000
  21 6   H  1S          0.19211  -0.00242  -0.04514  -0.00867
  22 7   H  1S         -0.03108   0.00059  -0.00575   0.00129
  23 8   H  1S          0.06981   0.00037  -0.00469  -0.00240
  24 9   H  1S         -0.21551  -0.00334  -0.04147   0.00053
     Density Matrix:
                           1         2         3         4         5
   1 1   C  1S          0.86472
   2        1PX        -0.06441   1.17741
   3        1PY         0.07839  -0.06200   1.07053
   4        1PZ         0.00498  -0.00105  -0.00023   1.00212
   5 2   C  1S          0.35762  -0.00285  -0.56540  -0.01159   1.09784
   6        1PX        -0.09915   0.06809   0.15472   0.00305   0.27561
   7        1PY         0.43319   0.02650  -0.51821  -0.01050  -0.12976
   8        1PZ         0.00617   0.00206  -0.00705   0.33406  -0.00567
   9 3   O  1S          0.00955   0.00439  -0.01961  -0.00096   0.00343
  10        1PX        -0.03640  -0.01546   0.07673   0.00046  -0.31366
  11        1PY         0.01793   0.02404  -0.05958  -0.00006   0.03718
  12        1PZ        -0.00058   0.00066  -0.00010  -0.01868  -0.00741
  13 4   C  1S          0.00643   0.01993   0.04330   0.00215  -0.00584
  14        1PX        -0.00331   0.00295  -0.02082   0.00169   0.00560
  15        1PY         0.04731   0.02360   0.01826  -0.00407  -0.04241
  16        1PZ        -0.00421  -0.00431   0.00199  -0.23950   0.00119
  17 5   C  1S          0.32002   0.42412   0.28901  -0.00113   0.00765
  18        1PX        -0.48695  -0.42615  -0.36944   0.01703  -0.04882
  19        1PY        -0.16187  -0.19069  -0.01640   0.00557   0.00707
  20        1PZ         0.01386   0.01579  -0.00714   0.91102   0.00103
  21 6   H  1S          0.04147   0.05579   0.02485  -0.00226   0.07434
  22 7   H  1S          0.06417   0.04531   0.02812  -0.00533   0.04395
  23 8   H  1S          0.08969   0.01814  -0.12544  -0.00257   0.57376
  24 9   H  1S          0.51196  -0.74147   0.35054   0.00848   0.09504
                           6         7         8         9        10
   6        1PX         1.68033
   7        1PY        -0.07425   1.33538
   8        1PZ         0.00132  -0.00177   1.84558
   9 3   O  1S          0.03915   0.00430   0.00007   1.97229
  10        1PX        -0.44872   0.10622  -0.00882   0.08397   0.24019
  11        1PY         0.10937   0.10358   0.00287  -0.20375   0.03150
  12        1PZ        -0.01160   0.00247   0.28880   0.00514   0.00141
  13 4   C  1S          0.02931  -0.02675   0.00072   0.01234   0.16535
  14        1PX         0.00758   0.01614   0.00064  -0.03349   0.07032
  15        1PY        -0.03029   0.01068  -0.00097  -0.03976  -0.22769
  16        1PZ         0.00120  -0.00060   0.02407  -0.00034  -0.00113
  17 5   C  1S         -0.04413   0.03893  -0.00080   0.01330   0.00248
  18        1PX         0.00910  -0.02633  -0.00398   0.01832  -0.00745
  19        1PY         0.02076  -0.00242  -0.00097  -0.02082   0.02381
  20        1PZ        -0.00100  -0.00088  -0.29861   0.00057   0.00148
  21 6   H  1S          0.00103   0.06444   0.00167   0.00606   0.01337
  22 7   H  1S          0.05049  -0.00646   0.00082   0.00977   0.09102
  23 8   H  1S         -0.44025  -0.61360   0.00300   0.00636  -0.04832
  24 9   H  1S          0.04026   0.04601  -0.00114   0.00559  -0.02334
                          11        12        13        14        15
  11        1PY         0.22298
  12        1PZ        -0.00242   0.11764
  13 4   C  1S          0.33305  -0.00610   1.12701
  14        1PX        -0.24993   0.00016  -0.06018   1.40738
  15        1PY        -0.36118   0.00927  -0.30680   0.11255   1.61227
  16        1PZ         0.00817   0.36962  -0.00290  -0.01178   0.00203
  17 5   C  1S          0.05259  -0.00040   0.34784  -0.28158   0.34521
  18        1PX         0.07786  -0.00216   0.43923  -0.22335   0.38275
  19        1PY        -0.09637   0.00017  -0.31563   0.23452  -0.24110
  20        1PZ        -0.00082  -0.02667  -0.00616   0.00379  -0.00163
  21 6   H  1S          0.01243  -0.00104   0.08857  -0.05597   0.00072
  22 7   H  1S          0.01338   0.00227   0.56179   0.74675   0.04432
  23 8   H  1S         -0.05328  -0.00030   0.03763  -0.01989  -0.02677
  24 9   H  1S          0.00269  -0.00233   0.07267  -0.05413   0.04382
                          16        17        18        19        20
  16        1PZ         1.86776
  17 5   C  1S         -0.00396   0.85745
  18        1PX        -0.00397  -0.03812   1.04008
  19        1PY         0.00585   0.10422   0.06246   1.19972
  20        1PZ         0.22764   0.00168   0.00265   0.00102   1.16653
  21 6   H  1S         -0.00150   0.51072   0.15161   0.80499  -0.00703
  22 7   H  1S          0.01704   0.09898   0.10155  -0.09959  -0.00124
  23 8   H  1S         -0.00067   0.06486  -0.05509  -0.02350   0.00045
  24 9   H  1S         -0.00056   0.02746  -0.04739  -0.02112   0.00145
                          21        22        23        24
  21 6   H  1S          0.79853
  22 7   H  1S          0.01000   0.73095
  23 8   H  1S          0.03042   0.02741   0.75728
  24 9   H  1S         -0.00384   0.03395   0.01473   0.80806
    Full Mulliken population analysis:
                           1         2         3         4         5
   1 1   C  1S          0.86472
   2        1PX         0.00000   1.17741
   3        1PY         0.00000   0.00000   1.07053
   4        1PZ         0.00000   0.00000   0.00000   1.00212
   5 2   C  1S          0.00000   0.00000   0.00000   0.00000   1.09784
   6        1PX         0.00000   0.00000   0.00000   0.00000   0.00000
   7        1PY         0.00000   0.00000   0.00000   0.00000   0.00000
   8        1PZ         0.00000   0.00000   0.00000   0.00000   0.00000
   9 3   O  1S          0.00000   0.00000   0.00000   0.00000   0.00000
  10        1PX         0.00000   0.00000   0.00000   0.00000   0.00000
  11        1PY         0.00000   0.00000   0.00000   0.00000   0.00000
  12        1PZ         0.00000   0.00000   0.00000   0.00000   0.00000
  13 4   C  1S          0.00000   0.00000   0.00000   0.00000   0.00000
  14        1PX         0.00000   0.00000   0.00000   0.00000   0.00000
  15        1PY         0.00000   0.00000   0.00000   0.00000   0.00000
  16        1PZ         0.00000   0.00000   0.00000   0.00000   0.00000
  17 5   C  1S          0.00000   0.00000   0.00000   0.00000   0.00000
  18        1PX         0.00000   0.00000   0.00000   0.00000   0.00000
  19        1PY         0.00000   0.00000   0.00000   0.00000   0.00000
  20        1PZ         0.00000   0.00000   0.00000   0.00000   0.00000
  21 6   H  1S          0.00000   0.00000   0.00000   0.00000   0.00000
  22 7   H  1S          0.00000   0.00000   0.00000   0.00000   0.00000
  23 8   H  1S          0.00000   0.00000   0.00000   0.00000   0.00000
  24 9   H  1S          0.00000   0.00000   0.00000   0.00000   0.00000
                           6         7         8         9        10
   6        1PX         1.68033
   7        1PY         0.00000   1.33538
   8        1PZ         0.00000   0.00000   1.84558
   9 3   O  1S          0.00000   0.00000   0.00000   1.97229
  10        1PX         0.00000   0.00000   0.00000   0.00000   0.24019
  11        1PY         0.00000   0.00000   0.00000   0.00000   0.00000
  12        1PZ         0.00000   0.00000   0.00000   0.00000   0.00000
  13 4   C  1S          0.00000   0.00000   0.00000   0.00000   0.00000
  14        1PX         0.00000   0.00000   0.00000   0.00000   0.00000
  15        1PY         0.00000   0.00000   0.00000   0.00000   0.00000
  16        1PZ         0.00000   0.00000   0.00000   0.00000   0.00000
  17 5   C  1S          0.00000   0.00000   0.00000   0.00000   0.00000
  18        1PX         0.00000   0.00000   0.00000   0.00000   0.00000
  19        1PY         0.00000   0.00000   0.00000   0.00000   0.00000
  20        1PZ         0.00000   0.00000   0.00000   0.00000   0.00000
  21 6   H  1S          0.00000   0.00000   0.00000   0.00000   0.00000
  22 7   H  1S          0.00000   0.00000   0.00000   0.00000   0.00000
  23 8   H  1S          0.00000   0.00000   0.00000   0.00000   0.00000
  24 9   H  1S          0.00000   0.00000   0.00000   0.00000   0.00000
                          11        12        13        14        15
  11        1PY         0.22298
  12        1PZ         0.00000   0.11764
  13 4   C  1S          0.00000   0.00000   1.12701
  14        1PX         0.00000   0.00000   0.00000   1.40738
  15        1PY         0.00000   0.00000   0.00000   0.00000   1.61227
  16        1PZ         0.00000   0.00000   0.00000   0.00000   0.00000
  17 5   C  1S          0.00000   0.00000   0.00000   0.00000   0.00000
  18        1PX         0.00000   0.00000   0.00000   0.00000   0.00000
  19        1PY         0.00000   0.00000   0.00000   0.00000   0.00000
  20        1PZ         0.00000   0.00000   0.00000   0.00000   0.00000
  21 6   H  1S          0.00000   0.00000   0.00000   0.00000   0.00000
  22 7   H  1S          0.00000   0.00000   0.00000   0.00000   0.00000
  23 8   H  1S          0.00000   0.00000   0.00000   0.00000   0.00000
  24 9   H  1S          0.00000   0.00000   0.00000   0.00000   0.00000
                          16        17        18        19        20
  16        1PZ         1.86776
  17 5   C  1S          0.00000   0.85745
  18        1PX         0.00000   0.00000   1.04008
  19        1PY         0.00000   0.00000   0.00000   1.19972
  20        1PZ         0.00000   0.00000   0.00000   0.00000   1.16653
  21 6   H  1S          0.00000   0.00000   0.00000   0.00000   0.00000
  22 7   H  1S          0.00000   0.00000   0.00000   0.00000   0.00000
  23 8   H  1S          0.00000   0.00000   0.00000   0.00000   0.00000
  24 9   H  1S          0.00000   0.00000   0.00000   0.00000   0.00000
                          21        22        23        24
  21 6   H  1S          0.79853
  22 7   H  1S          0.00000   0.73095
  23 8   H  1S          0.00000   0.00000   0.75728
  24 9   H  1S          0.00000   0.00000   0.00000   0.80806
     Gross orbital populations:
                           1
   1 1   C  1S          0.86472
   2        1PX         1.17741
   3        1PY         1.07053
   4        1PZ         1.00212
   5 2   C  1S          1.09784
   6        1PX         1.68033
   7        1PY         1.33538
   8        1PZ         1.84558
   9 3   O  1S          1.97229
  10        1PX         0.24019
  11        1PY         0.22298
  12        1PZ         0.11764
  13 4   C  1S          1.12701
  14        1PX         1.40738
  15        1PY         1.61227
  16        1PZ         1.86776
  17 5   C  1S          0.85745
  18        1PX         1.04008
  19        1PY         1.19972
  20        1PZ         1.16653
  21 6   H  1S          0.79853
  22 7   H  1S          0.73095
  23 8   H  1S          0.75728
  24 9   H  1S          0.80806
          Condensed to atoms (all electrons):
               1          2          3          4          5          6
     1  C    4.114783   0.000000   0.000000   0.000000   0.000000   0.000000
     2  C    0.000000   5.959120   0.000000   0.000000   0.000000   0.000000
     3  O    0.000000   0.000000   2.553105   0.000000   0.000000   0.000000
     4  C    0.000000   0.000000   0.000000   6.014411   0.000000   0.000000
     5  C    0.000000   0.000000   0.000000   0.000000   4.263775   0.000000
     6  H    0.000000   0.000000   0.000000   0.000000   0.000000   0.798525
     7  H    0.000000   0.000000   0.000000   0.000000   0.000000   0.000000
     8  H    0.000000   0.000000   0.000000   0.000000   0.000000   0.000000
     9  H    0.000000   0.000000   0.000000   0.000000   0.000000   0.000000
               7          8          9
     1  C    0.000000   0.000000   0.000000
     2  C    0.000000   0.000000   0.000000
     3  O    0.000000   0.000000   0.000000
     4  C    0.000000   0.000000   0.000000
     5  C    0.000000   0.000000   0.000000
     6  H    0.000000   0.000000   0.000000
     7  H    0.730946   0.000000   0.000000
     8  H    0.000000   0.757276   0.000000
     9  H    0.000000   0.000000   0.808060
 Mulliken charges:
               1
     1  C   -0.114783
     2  C   -1.959120
     3  O    3.446895
     4  C   -2.014411
     5  C   -0.263775
     6  H    0.201475
     7  H    0.269054
     8  H    0.242724
     9  H    0.191940
 Sum of Mulliken charges =   0.00000
 Mulliken charges with hydrogens summed into heavy atoms:
               1
     1  C    0.077157
     2  C   -1.716396
     3  O    3.446895
     4  C   -1.745357
     5  C   -0.062300
 Charge=              0.0000 electrons
 Dipole moment (field-independent basis, Debye):
    X=              6.0773    Y=            -10.3135    Z=              0.3789  Tot=             11.9769
 N-N= 1.032161710577D+02 E-N=-1.683257213060D+02  KE=-1.429808623038D+01
 Orbital energies and kinetic energies (alpha):
                                 1                 2
   1         O                -1.832498         -1.205508
   2         O                -1.118305         -0.967330
   3         O                -0.863237         -0.781974
   4         O                -0.782121         -0.537783
   5         O                -0.745662         -0.618426
   6         O                -0.660360         -0.542141
   7         O                -0.619350         -0.490870
   8         O                -0.556248         -0.374129
   9         O                -0.543972         -0.332147
  10         O                -0.438910         -0.317610
  11         O                -0.426369         -0.400792
  12         O                -0.421162         -0.321825
  13         O                -0.296676         -0.258509
  14         V                 0.101228         -0.171129
  15         V                 0.163960         -0.168584
  16         V                 0.196134         -0.161447
  17         V                 0.257958         -0.156544
  18         V                 0.275291         -0.144135
  19         V                 0.304610         -0.084162
  20         V                 0.361111         -0.045320
  21         V                 0.410519         -0.034509
  22         V                 0.456335          0.686034
  23         V                 0.533365          0.695386
  24         V                 0.570555          0.754462
 Total kinetic energy from orbitals=-1.429808623038D+01
 Leave Link  601 at Tue Dec 15 17:07:44 2015, MaxMem=    33554432 cpu:         0.0
 (Enter /home/Applications/g09/g09/l701.exe)
 Compute integral first derivatives.
 ... and contract with generalized density number  6.
 Leave Link  701 at Tue Dec 15 17:07:44 2015, MaxMem=    33554432 cpu:         0.1
 (Enter /home/Applications/g09/g09/l702.exe)
 L702 exits ... SP integral derivatives will be done elsewhere.
 Leave Link  702 at Tue Dec 15 17:07:44 2015, MaxMem=    33554432 cpu:         0.0
 (Enter /home/Applications/g09/g09/l703.exe)
 Compute integral first derivatives, UseDBF=F ICtDFT=           0.
 Integral derivatives from FoFJK, PRISM(SPDF).
 Calling FoFJK, ICntrl=  10005127 FMM=F ISym2X=0 I1Cent= 0 IOpClX= 0 NMat=1 NMatS=1 NMatT=0.
 FoFJK:  IHMeth= 8 ICntrl=10005127 DoSepK=F KAlg= 0 I1Cent=   0 FoldK=F
 IRaf=         0 NMat=   1 IRICut=       1 DoRegI=T DoRafI=F ISym2E= 0.
 FoFCou: FMM=F IPFlag=           0 FMFlag=      100000 FMFlg1=         800
         NFxFlg=           0 DoJE=F BraDBF=F KetDBF=F FulRan=T
         wScrn=  0.000000 ICntrl=10005127 IOpCl=  0 I1Cent=           0 NGrid=           0
         NMat0=    1 NMatS0=      1 NMatT0=    0 NMatD0=    1 NMtDS0=    0 NMtDT0=    0
 Symmetry not used in FoFCou.
 Leave Link  703 at Tue Dec 15 17:07:44 2015, MaxMem=    33554432 cpu:         0.0
 (Enter /home/Applications/g09/g09/l716.exe)
 Dipole        = 2.57527980D+00-4.50499806D+00 1.36273890D-01
 ***** Axes restored to original set *****
 -------------------------------------------------------------------
 Center     Atomic                   Forces (Hartrees/Bohr)
 Number     Number              X              Y              Z
 -------------------------------------------------------------------
      1        6           0.047070004   -0.036024189   -0.000627829
      2        6          -0.194869204    0.054128749   -0.003133186
      3        8           0.210469865   -0.082117062    0.007417512
      4        6          -0.144299401    0.012232984   -0.005555460
      5        6           0.039914898    0.034870887    0.000629972
      6        1           0.022468461    0.018028315    0.001425025
      7        1          -0.001734018    0.070117620   -0.000246309
      8        1          -0.004644245   -0.057992461    0.001470095
      9        1           0.025623640   -0.013244843   -0.001379819
 -------------------------------------------------------------------
 Cartesian Forces:  Max     0.210469865 RMS     0.069203899
 Z-matrix is all fixed cartesians, so copy forces.
 Force constants in Cartesian coordinates: 
                1             2             3             4             5 
      1  0.870685D+00
      2 -0.195600D-02  0.867438D+00
      3 -0.141407D-01 -0.894213D-03  0.217383D+00
      4 -0.490471D+00 -0.123269D+00  0.134107D-01  0.848407D+00
      5 -0.100401D+00 -0.225069D+00  0.495879D-02  0.122039D+00  0.777260D+00
      6  0.120650D-01  0.439404D-02 -0.103103D+00 -0.630852D-02 -0.599826D-02
      7 -0.943269D-02  0.260782D-01 -0.804918D-03 -0.211292D+00  0.927311D-01
      8 -0.711119D-02  0.196741D-01 -0.395887D-03  0.134008D+00 -0.248220D+00
      9  0.604951D-03 -0.106037D-02  0.378114D-02 -0.510814D-02  0.559176D-02
     10  0.107939D-01  0.311358D-03 -0.218508D-03  0.224040D-01  0.169352D-01
     11  0.349276D-01  0.100544D-02 -0.825721D-03 -0.169383D-01 -0.128041D-01
     12  0.311629D-03 -0.447004D-04  0.165527D-02  0.490949D-03  0.493485D-03
     13 -0.180016D+00  0.222932D-01  0.971607D-03  0.126088D-01 -0.349803D-01
     14 -0.269889D-02 -0.484620D+00 -0.192987D-02  0.364641D-03 -0.101352D-02
     15  0.875939D-03 -0.408353D-02 -0.951216D-01 -0.537730D-03  0.174856D-02
     16  0.179884D-01  0.515092D-03  0.640418D-05 -0.183892D-05  0.000000D+00
     17 -0.226798D-01 -0.646469D-03 -0.446429D-03 -0.124662D-05  0.000000D+00
     18 -0.281853D-03 -0.154851D-03  0.217301D-01  0.176760D-03 -0.326796D-04
     19  0.000000D+00 -0.101011D-05  0.151860D-03  0.362704D-05 -0.170683D-05
     20  0.134151D-05 -0.248007D-05  0.372851D-03 -0.226320D-05  0.106503D-05
     21  0.233318D-04 -0.431340D-04  0.648473D-02 -0.917192D-04  0.431616D-04
     22  0.916059D-02 -0.254244D-01 -0.433969D-03 -0.175334D+00 -0.113872D+00
     23 -0.501472D-02  0.138815D-01 -0.206632D-03 -0.108502D+00 -0.311506D+00
     24  0.388321D-03  0.144370D-02  0.307952D-01 -0.332592D-02 -0.525905D-02
     25 -0.228708D+00  0.101452D+00  0.105751D-02 -0.632351D-02  0.175496D-01
     26  0.104933D+00 -0.191662D+00 -0.632892D-03 -0.769934D-02  0.213510D-01
     27  0.153367D-03  0.443063D-03 -0.836049D-01  0.129360D-02 -0.154577D-02
                6             7             8             9            10 
      6  0.189845D+00
      7 -0.350182D-02  0.495310D+00
      8  0.470718D-02  0.991229D-01  0.622937D+00
      9 -0.381755D-01  0.683215D-02 -0.356309D-02  0.432883D-01
     10  0.494450D-03 -0.307599D+00 -0.230977D+00 -0.439183D-02  0.909286D+00
     11 -0.360818D-03 -0.189907D+00 -0.399200D+00 -0.190455D-02  0.187256D-02
     12 -0.342263D-02 -0.323696D-02 -0.116984D-02 -0.401387D-01  0.631528D-02
     13 -0.442933D-03 -0.888522D-02  0.670943D-02  0.751506D-04 -0.457234D+00
     14  0.789145D-05 -0.287432D-01  0.217264D-01  0.437900D-03  0.988927D-01
     15 -0.247727D-02 -0.444416D-03  0.797952D-04  0.881683D-02  0.390511D-02
     16 -0.581290D-04  0.000000D+00  0.000000D+00 -0.231336D-05 -0.531253D-02
     17 -0.394061D-04  0.000000D+00  0.000000D+00 -0.108963D-03  0.669064D-02
     18  0.558747D-02  0.181691D-04 -0.426709D-04  0.554616D-02  0.451019D-03
     19 -0.198356D-03  0.221076D-01 -0.167183D-01  0.131709D-02 -0.172339D+00
     20  0.123770D-03  0.115459D-01 -0.873246D-02  0.901895D-03  0.106274D+00
     21  0.501595D-02  0.477742D-03 -0.385937D-03  0.475430D-02 -0.655158D-02
     22 -0.234102D-02  0.197898D-01  0.149611D-01  0.550885D-03  0.000000D+00
     23 -0.298193D-02 -0.108295D-01 -0.818927D-02 -0.398208D-03  0.000000D+00
     24 -0.781940D-01  0.569080D-03  0.580676D-03  0.672729D-02 -0.249735D-04
     25  0.291308D-03  0.205603D-05  0.428917D-05  0.122053D-03  0.000000D+00
     26  0.147542D-03  0.174561D-05  0.364160D-05  0.103626D-03  0.000000D+00
     27  0.249238D-01  0.909695D-04  0.189776D-03  0.540029D-02  0.210264D-04
               11            12            13            14            15 
     11  0.916041D+00
     12 -0.965653D-02  0.184477D+00
     13  0.742523D-01  0.243187D-02  0.842355D+00
     14 -0.209396D+00 -0.275600D-03  0.888255D-02  0.846783D+00
     15 -0.118591D-02 -0.976974D-01 -0.633337D-03  0.538865D-02  0.208802D+00
     16 -0.171871D-01 -0.388557D-03 -0.235121D+00 -0.102906D+00 -0.222282D-02
     17  0.216536D-01  0.486475D-04 -0.103591D+00 -0.187476D+00 -0.201613D-02
     18  0.105942D-02  0.218797D-01 -0.271025D-02 -0.267879D-02 -0.783995D-01
     19  0.112980D+00 -0.589315D-02  0.792813D-02  0.256851D-01 -0.138956D-02
     20 -0.317300D+00  0.106424D-01  0.412875D-02  0.133550D-01  0.429440D-03
     21  0.129012D-01 -0.739632D-01 -0.892091D-04 -0.754853D-03  0.254760D-01
     22  0.000000D+00 -0.386309D-04  0.108054D-04 -0.199771D-05  0.341563D-03
     23  0.000000D+00  0.143570D-05 -0.950909D-05  0.175804D-05 -0.300586D-03
     24  0.117521D-04  0.136575D-02  0.249769D-03 -0.461775D-04  0.789531D-02
     25  0.000000D+00  0.756450D-05  0.183539D-01  0.524893D-03  0.105252D-03
     26  0.000000D+00 -0.392575D-04  0.223149D-01  0.639442D-03 -0.602896D-04
     27 -0.388720D-04  0.584399D-02  0.147336D-03 -0.149150D-03  0.227057D-01
               16            17            18            19            20 
     16  0.222447D+00
     17  0.119578D+00  0.166458D+00
     18  0.257270D-02  0.232125D-02  0.414014D-01
     19  0.000000D+00  0.423352D-05 -0.215484D-03  0.142299D+00
     20  0.000000D+00  0.103943D-04 -0.529064D-03 -0.121948D+00  0.312669D+00
     21  0.383809D-05  0.180780D-03 -0.920163D-02  0.622760D-02 -0.119412D-01
     22  0.000000D+00  0.000000D+00  0.000000D+00  0.000000D+00  0.000000D+00
     23  0.000000D+00  0.000000D+00  0.000000D+00  0.000000D+00  0.000000D+00
     24  0.000000D+00  0.000000D+00  0.000000D+00  0.000000D+00  0.000000D+00
     25  0.000000D+00  0.000000D+00 -0.110589D-04  0.000000D+00  0.000000D+00
     26  0.000000D+00  0.000000D+00  0.573925D-04  0.000000D+00  0.000000D+00
     27  0.888832D-04  0.602546D-04 -0.854361D-02  0.000000D+00  0.000000D+00
               21            22            23            24            25 
     21  0.414338D-01
     22  0.000000D+00  0.146383D+00
     23  0.000000D+00  0.124346D+00  0.305804D+00
     24  0.000000D+00  0.238719D-02  0.347581D-02  0.421826D-01
     25  0.000000D+00 -0.105327D-04  0.926908D-05 -0.243465D-03  0.216686D+00
     26  0.000000D+00 -0.894245D-05  0.786964D-05 -0.206707D-03 -0.119541D+00
     27  0.000000D+00 -0.466021D-03  0.410113D-03 -0.107722D-01 -0.132916D-02
               26            27 
     26  0.169660D+00
     27  0.630586D-03  0.440469D-01
 Leave Link  716 at Tue Dec 15 17:07:44 2015, MaxMem=    33554432 cpu:         0.0
 (Enter /home/Applications/g09/g09/l103.exe)

 GradGradGradGradGradGradGradGradGradGradGradGradGradGradGradGradGradGrad
 Berny optimization.
 Search for a local minimum.
 Step number   1 out of a maximum of    2
 All quantities printed in internal units (Hartrees-Bohrs-Radians)
 Second derivative matrix not updated -- first step.
 ITU=  0
     Eigenvalues ---    0.01967   0.02634   0.06793   0.07452   0.07493
     Eigenvalues ---    0.07644   0.12880   0.14956   0.15994   0.23190
     Eigenvalues ---    0.24219   0.29750   0.40175   0.43558   0.60417
     Eigenvalues ---    0.75765   0.98402   1.27019   1.43349   1.53601
     Eigenvalues ---    1.57193
 Quadratic step=8.761D-01 exceeds max=3.000D-01 adjusted using Lamda=-4.781D-01.
 Angle between NR and scaled steps=  26.18 degrees.
 Angle between quadratic step and forces=  23.24 degrees.
 Linear search not attempted -- first point.
 TrRot=  0.004021 -0.004600  0.000134  0.000499  0.000172  0.000499
 MatCor failed.
 Variable       Old X    -DE/DX   Delta X   Delta X   Delta X     New X
                                 (Linear)    (Quad)   (Total)
    X1        1.83351   0.04707   0.00000  -0.00584  -0.00052   1.83299
    Y1       -1.26972  -0.03602   0.00000  -0.02979  -0.03257  -1.30229
    Z1        0.02024  -0.00063   0.00000   0.00067   0.00049   0.02073
    X2       -0.58106  -0.19487   0.00000  -0.12960  -0.12344  -0.70450
    Y2       -2.14093   0.05413   0.00000   0.00427  -0.00103  -2.14196
    Z2        0.09153  -0.00313   0.00000  -0.00439  -0.00414   0.08739
    X3       -2.26823   0.21047   0.00000   0.17424   0.17824  -2.08999
    Y3        0.09262  -0.08212   0.00000  -0.07016  -0.07685   0.01578
    Z3        0.04145   0.00742   0.00000   0.00764   0.00813   0.04959
    X4       -0.73939  -0.14430   0.00000  -0.08804  -0.08617  -0.82556
    Y4        2.11513   0.01223   0.00000   0.04714   0.04171   2.15684
    Z4        0.05201  -0.00556   0.00000  -0.00764  -0.00737   0.04464
    X5        1.75868   0.03991   0.00000   0.00698   0.00962   1.76830
    Y5        1.34329   0.03487   0.00000   0.04229   0.03945   1.38274
    Z5        0.03789   0.00063   0.00000   0.00087   0.00070   0.03858
    X6        3.41452   0.02247   0.00000   0.03501   0.03636   3.45088
    Y6        2.65628   0.01803   0.00000   0.03420   0.03304   2.68933
    Z6        0.06437   0.00143   0.00000   0.00369   0.00323   0.06760
    X7       -1.67024  -0.00173   0.00000  -0.02318  -0.02316  -1.69340
    Y7        3.90081   0.07012   0.00000   0.11424   0.10795   4.00876
    Z7       -0.02887  -0.00025   0.00000  -0.00102  -0.00060  -0.02946
    X8       -1.54998  -0.00464   0.00000  -0.03618  -0.02817  -1.57815
    Y8       -3.91286  -0.05799   0.00000  -0.07998  -0.08616  -3.99903
    Z8        0.06598   0.00147   0.00000   0.00130   0.00170   0.06768
    X9        3.46904   0.02562   0.00000   0.03058   0.03724   3.50627
    Y9       -2.61487  -0.01324   0.00000  -0.02443  -0.02554  -2.64041
    Z9        0.00908  -0.00138   0.00000  -0.00169  -0.00216   0.00693
         Item               Value     Threshold  Converged?
 Maximum Force            0.210470     0.000450     NO 
 RMS     Force            0.069204     0.000300     NO 
 Maximum Displacement     0.178243     0.001800     NO 
 RMS     Displacement     0.057673     0.001200     NO 
 Predicted change in Energy=-7.118509D-02
 GradGradGradGradGradGradGradGradGradGradGradGradGradGradGradGradGradGrad

 Leave Link  103 at Tue Dec 15 17:07:44 2015, MaxMem=    33554432 cpu:         0.0
 (Enter /home/Applications/g09/g09/l9999.exe)
 1\1\GINC-DUSTIN-DESKTOP\Force\RAM1-FC\STO-3G\C4H4O1\DUSTIN\15-Dec-2015
 \0\\#P AM1(Input,print) CIS(Singlets,NStates=15) pop(full) force\\AM1-
 Reparam Input\\0,1\C,0.970251,-0.671909,0.010708\C,-0.307486,-1.132931
 ,0.048433\O,-1.200297,0.049015,0.021937\C,-0.39127,1.119277,0.027521\C
 ,0.930653,0.71084,0.020048\H,1.806884,1.405644,0.034064\H,-0.883853,2.
 064222,-0.015275\H,-0.820213,-2.070597,0.034916\H,1.835736,-1.383728,0
 .004806\\Version=ES64L-G09RevD.01\State=1-A\HF=2.5993974\RMSD=6.941e-0
 9\RMSF=6.920e-02\Dipole=-5.1864969,0.180011,-0.1161471\PG=C01 [X(C4H4O
 1)]\\@


     SCHOPENHAUER'S LAW OF ENTROPY
 IF YOU PUT A SPOONFUL OF WINE IN A BARREL FULL
 OF SEWAGE, YOU GET SEWAGE.
 IF YOU PUT A SPOONFUL OF SEWAGE IN A BARREL FULL
 OF WINE, YOU GET SEWAGE.
 Job cpu time:       0 days  0 hours  0 minutes  0.7 seconds.
 File lengths (MBytes):  RWF=      7 Int=      0 D2E=      0 Chk=      2 Scr=      1
 Normal termination of Gaussian 09 at Tue Dec 15 17:07:44 2015.
