 Entering Gaussian System, Link 0=g09
 Input=FuranAM1_72.com
 Output=FuranAM1_72.log
 Initial command:
 /home/Applications/g09/g09/l1.exe "/home/Applications/g09/scratch/Gau-6193.inp" -scrdir="/home/Applications/g09/scratch/"
 Entering Link 1 = /home/Applications/g09/g09/l1.exe PID=      6195.
  
 Copyright (c) 1988,1990,1992,1993,1995,1998,2003,2009,2013,
            Gaussian, Inc.  All Rights Reserved.
  
 This is part of the Gaussian(R) 09 program.  It is based on
 the Gaussian(R) 03 system (copyright 2003, Gaussian, Inc.),
 the Gaussian(R) 98 system (copyright 1998, Gaussian, Inc.),
 the Gaussian(R) 94 system (copyright 1995, Gaussian, Inc.),
 the Gaussian 92(TM) system (copyright 1992, Gaussian, Inc.),
 the Gaussian 90(TM) system (copyright 1990, Gaussian, Inc.),
 the Gaussian 88(TM) system (copyright 1988, Gaussian, Inc.),
 the Gaussian 86(TM) system (copyright 1986, Carnegie Mellon
 University), and the Gaussian 82(TM) system (copyright 1983,
 Carnegie Mellon University). Gaussian is a federally registered
 trademark of Gaussian, Inc.
  
 This software contains proprietary and confidential information,
 including trade secrets, belonging to Gaussian, Inc.
  
 This software is provided under written license and may be
 used, copied, transmitted, or stored only in accord with that
 written license.
  
 The following legend is applicable only to US Government
 contracts under FAR:
  
                    RESTRICTED RIGHTS LEGEND
  
 Use, reproduction and disclosure by the US Government is
 subject to restrictions as set forth in subparagraphs (a)
 and (c) of the Commercial Computer Software - Restricted
 Rights clause in FAR 52.227-19.
  
 Gaussian, Inc.
 340 Quinnipiac St., Bldg. 40, Wallingford CT 06492
  
  
 ---------------------------------------------------------------
 Warning -- This program may not be used in any manner that
 competes with the business of Gaussian, Inc. or will provide
 assistance to any competitor of Gaussian, Inc.  The licensee
 of this program is prohibited from giving any competitor of
 Gaussian, Inc. access to this program.  By using this program,
 the user acknowledges that Gaussian, Inc. is engaged in the
 business of creating and licensing software in the field of
 computational chemistry and represents and warrants to the
 licensee that it is not a competitor of Gaussian, Inc. and that
 it will not use this program in any manner prohibited above.
 ---------------------------------------------------------------
  

 Cite this work as:
 Gaussian 09, Revision D.01,
 M. J. Frisch, G. W. Trucks, H. B. Schlegel, G. E. Scuseria, 
 M. A. Robb, J. R. Cheeseman, G. Scalmani, V. Barone, B. Mennucci, 
 G. A. Petersson, H. Nakatsuji, M. Caricato, X. Li, H. P. Hratchian, 
 A. F. Izmaylov, J. Bloino, G. Zheng, J. L. Sonnenberg, M. Hada, 
 M. Ehara, K. Toyota, R. Fukuda, J. Hasegawa, M. Ishida, T. Nakajima, 
 Y. Honda, O. Kitao, H. Nakai, T. Vreven, J. A. Montgomery, Jr., 
 J. E. Peralta, F. Ogliaro, M. Bearpark, J. J. Heyd, E. Brothers, 
 K. N. Kudin, V. N. Staroverov, T. Keith, R. Kobayashi, J. Normand, 
 K. Raghavachari, A. Rendell, J. C. Burant, S. S. Iyengar, J. Tomasi, 
 M. Cossi, N. Rega, J. M. Millam, M. Klene, J. E. Knox, J. B. Cross, 
 V. Bakken, C. Adamo, J. Jaramillo, R. Gomperts, R. E. Stratmann, 
 O. Yazyev, A. J. Austin, R. Cammi, C. Pomelli, J. W. Ochterski, 
 R. L. Martin, K. Morokuma, V. G. Zakrzewski, G. A. Voth, 
 P. Salvador, J. J. Dannenberg, S. Dapprich, A. D. Daniels, 
 O. Farkas, J. B. Foresman, J. V. Ortiz, J. Cioslowski, 
 and D. J. Fox, Gaussian, Inc., Wallingford CT, 2013.
 
 ******************************************
 Gaussian 09:  ES64L-G09RevD.01 24-Apr-2013
                15-Dec-2015 
 ******************************************
 ------------------------------------------------------------
 #P AM1(Input,print) CIS(Singlets,NStates=15) pop(full) force
 ------------------------------------------------------------
 1/10=7,30=1,38=1/1,3;
 2/12=2,17=6,18=5,40=1/2;
 3/5=2,16=1,25=1,41=700000,71=1,135=100,136=1/1,2,8,3;
 4/35=1/1;
 5/5=2,35=1,38=5/2;
 8/6=1,10=1,108=15/1;
 9/15=2,41=15,42=1,48=1,49=10/14;
 10/5=4/2;
 6/7=3,18=1/1;
 7/12=6,13=5,29=1/1,2,3,16;
 1/10=7,30=1/3;
 99//99;
 Leave Link    1 at Tue Dec 15 16:25:37 2015, MaxMem=           0 cpu:         0.0
 (Enter /home/Applications/g09/g09/l101.exe)
 -----------------
 AM1-Reparam Input
 -----------------
 Symbolic Z-matrix:
 Charge =  0 Multiplicity = 1
 6                     1.00499  -0.72719   0.04162 
 6                    -0.30349  -1.11707   0.01472 
 8                    -1.12769  -0.03902   0.04488 
 6                    -0.3443    1.1376   -0.00706 
 6                     0.98009   0.71665   0.00172 
 1                     1.8481    1.37501  -0.03381 
 1                    -0.88952   2.09345   0.04368 
 1                    -0.85401  -2.01747   0.04082 
 1                     1.80766  -1.38273  -0.02148 
 
 NAtoms=      9 NQM=        9 NQMF=       0 NMMI=      0 NMMIF=      0
                NMic=       0 NMicF=      0.
                    Isotopes and Nuclear Properties:
 (Nuclear quadrupole moments (NQMom) in fm**2, nuclear magnetic moments (NMagM)
  in nuclear magnetons)

  Atom         1           2           3           4           5           6           7           8           9
 IAtWgt=          12          12          16          12          12           1           1           1           1
 AtmWgt=  12.0000000  12.0000000  15.9949146  12.0000000  12.0000000   1.0078250   1.0078250   1.0078250   1.0078250
 NucSpn=           0           0           0           0           0           1           1           1           1
 AtZEff=   0.0000000   0.0000000   0.0000000   0.0000000   0.0000000   0.0000000   0.0000000   0.0000000   0.0000000
 NQMom=    0.0000000   0.0000000   0.0000000   0.0000000   0.0000000   0.0000000   0.0000000   0.0000000   0.0000000
 NMagM=    0.0000000   0.0000000   0.0000000   0.0000000   0.0000000   2.7928460   2.7928460   2.7928460   2.7928460
 AtZNuc=   6.0000000   6.0000000   8.0000000   6.0000000   6.0000000   1.0000000   1.0000000   1.0000000   1.0000000
 Leave Link  101 at Tue Dec 15 16:25:37 2015, MaxMem=    33554432 cpu:         0.0
 (Enter /home/Applications/g09/g09/l103.exe)

 GradGradGradGradGradGradGradGradGradGradGradGradGradGradGradGradGradGrad
 Berny optimization.
 Initialization pass.
 Trust Radius=3.00D-01 FncErr=1.00D-07 GrdErr=1.00D-07
 Number of steps in this run=      2 maximum allowed number of steps=      2.
 GradGradGradGradGradGradGradGradGradGradGradGradGradGradGradGradGradGrad

 Leave Link  103 at Tue Dec 15 16:25:37 2015, MaxMem=    33554432 cpu:         0.0
 (Enter /home/Applications/g09/g09/l202.exe)
                          Input orientation:                          
 ---------------------------------------------------------------------
 Center     Atomic      Atomic             Coordinates (Angstroms)
 Number     Number       Type             X           Y           Z
 ---------------------------------------------------------------------
      1          6           0        1.004989   -0.727185    0.041619
      2          6           0       -0.303488   -1.117066    0.014716
      3          8           0       -1.127692   -0.039024    0.044884
      4          6           0       -0.344296    1.137604   -0.007059
      5          6           0        0.980092    0.716651    0.001724
      6          1           0        1.848098    1.375014   -0.033814
      7          1           0       -0.889519    2.093449    0.043675
      8          1           0       -0.854009   -2.017467    0.040816
      9          1           0        1.807657   -1.382728   -0.021476
 ---------------------------------------------------------------------
                    Distance matrix (angstroms):
                    1          2          3          4          5
     1  C    0.000000
     2  C    1.365593   0.000000
     3  O    2.240961   1.357349   0.000000
     4  C    2.302255   2.255144   1.414518   0.000000
     5  C    1.444602   2.238362   2.239567   1.389706   0.000000
     6  H    2.266222   3.292741   3.295607   2.205373   1.090018
     7  H    3.397814   3.263691   2.145733   1.101581   2.322236
     8  H    2.262897   1.055688   1.997287   3.196337   3.292546
     9  H    1.038265   2.128102   3.228965   3.314089   2.256722
                    6          7          8          9
     6  H    0.000000
     7  H    2.831378   0.000000
     8  H    4.337727   4.111070   0.000000
     9  H    2.758066   4.400319   2.737013   0.000000
 Stoichiometry    C4H4O
 Framework group  C1[X(C4H4O)]
 Deg. of freedom    21
 Full point group                 C1      NOp   1
 Largest Abelian subgroup         C1      NOp   1
 Largest concise Abelian subgroup C1      NOp   1
                         Standard orientation:                         
 ---------------------------------------------------------------------
 Center     Atomic      Atomic             Coordinates (Angstroms)
 Number     Number       Type             X           Y           Z
 ---------------------------------------------------------------------
      1          6           0        0.811789    0.906537    0.025962
      2          6           0        1.075719   -0.432537   -0.019495
      3          8           0       -0.075229   -1.151355    0.012376
      4          6           0       -1.172783   -0.259584   -0.018905
      5          6           0       -0.628214    1.018835    0.000406
      6          1           0       -1.201693    1.945600   -0.018772
      7          1           0       -2.175478   -0.712502    0.035409
      8          1           0        1.920125   -1.066049   -0.008658
      9          1           0        1.539818    1.644287   -0.034797
 ---------------------------------------------------------------------
 Rotational constants (GHZ):      9.2492098      9.0921468      4.5868173
 Leave Link  202 at Tue Dec 15 16:25:37 2015, MaxMem=    33554432 cpu:         0.0
 (Enter /home/Applications/g09/g09/l301.exe)

 Semi-emprical parameters in input format:
 Method=8 CoreType=1 PeptideFC=0.0114510000 RIJScale=0.5291770000
 ****
 H       
 PQN=1 NValence=1 F0ss=0.4721550000 ZetaOverlap=1.1880780000 U=-0.4188110000
 Beta=-0.2268830000 CoreKO=1.0589200000 KON=0,0,0,1.0589200000 KON=1,0,1,1.0589200000
 KON=0,1,1,1.0589200000 KON=2,1,1,1.0589200000 EISol=-0.4188110042 EHeat=0.0830298228
 Alpha=1.5252600000
 GCore=0.0085280000,1.4001430000,2.2676710000
 GCore=0.0003530000,1.4001430000,3.4015070000
 GCore=-0.0012730000,0.5600570000,3.9684250000
 ****
 C       
 PQN=2,2 NValence=4 F0ss=0.4494440000 F0sp=0.4215150000 F0pp=0.3768030000 F2pp=0.1898720000
 G1sp=0.2679030000
 ZetaOverlap=1.8086650000,1.6851160000
 U=-1.9120180000,-1.4557970000
 Beta=-0.5775440000,-0.2836780000 DDN=0,1,0.8236740000 DDN=1,1,0.7268010000
 CoreKO=1.1124280000 KON=0,0,0,1.1124280000 KON=1,0,1,0.8219700000 KON=0,1,1,1.1124280000
 KON=2,1,1,0.7783930000 EISol=-4.4398989268 EHeat=0.2723305520 Alpha=1.4014060000
 DipHyp=1.6472532266
 GCore=0.0007890000,1.4001430000,3.0235620000
 GCore=0.0031890000,1.4001430000,3.4959930000
 GCore=-0.0013930000,1.4001430000,3.8739390000
 GCore=-0.0000880000,1.4001430000,5.0077740000
 ****
 O       
 PQN=2,2 NValence=6 F0ss=0.5666750000 F0sp=0.5321300000 F0pp=0.4958710000 F2pp=0.2358080000
 G1sp=0.4343770000
 ZetaOverlap=3.1080320000,2.5240390000
 U=-3.5951870000,-2.8760900000
 Beta=-1.0757550000,-1.0757550000 DDN=0,1,0.4988900000 DDN=1,1,0.4852320000
 CoreKO=0.8822960000 KON=0,0,0,0.8822960000 KON=1,0,1,0.5019540000 KON=0,1,1,0.8822960000
 KON=2,1,1,0.5515580000 EISol=-11.6164441184 EHeat=0.0949133088 Alpha=2.3576810000
 DipHyp=0.9977225968
 GCore=0.0195120000,1.4001430000,1.6023330000
 GCore=0.0056550000,1.9602000000,2.7307880000
 ****
 
 Standard basis: VSTO-6G (5D, 7F)
 Ernie: Thresh=  0.10000D-02 Tol=  0.10000D-05 Strict=F.
  NNHCO=     0 NNPyr=     0 NCTC=     0               EPep=         0.000000000
    EC=        68.249357594  ECS=         1.759777641   EG=         0.343298880
   EHC=         0.000000000  EAt=       -31.051283842  AtH=         1.516354808
 EPDDG=         0.000000000  ECC=        70.352434115 EAtT=        32.567638650
 There are    24 symmetry adapted cartesian basis functions of A   symmetry.
 There are    24 symmetry adapted basis functions of A   symmetry.
    24 basis functions,   144 primitive gaussians,    24 cartesian basis functions
    13 alpha electrons       13 beta electrons
       nuclear repulsion energy       102.9200727657 Hartrees.
 IExCor=    0 DFT=F Ex=HF Corr=None ExCW=0 ScaHFX=  1.000000
 ScaDFX=  1.000000  1.000000  1.000000  1.000000 ScalE2=  1.000000  1.000000
 IRadAn=      0 IRanWt=     -1 IRanGd=            0 ICorTp=0 IEmpDi=  4
 Integral buffers will be    131072 words long.
 Regular integral format.
 Two-electron integral symmetry is turned off.
 Leave Link  301 at Tue Dec 15 16:25:37 2015, MaxMem=    33554432 cpu:         0.0
 (Enter /home/Applications/g09/g09/l302.exe)
 Do NDO integrals.
 NPDir=0 NMtPBC=     1 NCelOv=     1 NCel=       1 NClECP=     1 NCelD=      1
         NCelK=      1 NCelE2=     1 NClLst=     1 CellRange=     0.0.
 One-electron integrals computed using PRISM.
 NBasis=    24 RedAO= F EigKep=  0.00D+00  NBF=    24
 NBsUse=    24 1.00D-04 EigRej=  0.00D+00 NBFU=    24
 Leave Link  302 at Tue Dec 15 16:25:37 2015, MaxMem=    33554432 cpu:         0.0
 (Enter /home/Applications/g09/g09/l308.exe)
 Leave Link  308 at Tue Dec 15 16:25:37 2015, MaxMem=    33554432 cpu:         0.0
 (Enter /home/Applications/g09/g09/l303.exe)
 DipDrv:  MaxL=1.
 Leave Link  303 at Tue Dec 15 16:25:37 2015, MaxMem=    33554432 cpu:         0.0
 (Enter /home/Applications/g09/g09/l401.exe)
 Simple Huckel Guess.
 JPrj=0 DoOrth=F DoCkMO=F.
 Leave Link  401 at Tue Dec 15 16:25:37 2015, MaxMem=    33554432 cpu:         0.0
 (Enter /home/Applications/g09/g09/l502.exe)
 Closed shell SCF:
 Using DIIS extrapolation, IDIIS=  1040.
 Overlap will be assumed to be unity.
 Two-electron integral symmetry not used.
 Keep J ints in memory in canonical form, NReq=888082.
 IVT=       79475 IEndB=       79475 NGot=    33554432 MDV=    33473473
 LenX=    33473473 LenY=    33472456
 Requested convergence on RMS density matrix=1.00D-08 within 128 cycles.
 Requested convergence on MAX density matrix=1.00D-06.
 Requested convergence on             energy=1.00D-06.
 No special actions if energy rises.
 FoFCou: FMM=F IPFlag=           0 FMFlag=           0 FMFlg1=           0
         NFxFlg=           0 DoJE=F BraDBF=F KetDBF=F FulRan=T
         wScrn=  0.000000 ICntrl=     600 IOpCl=  2 I1Cent=           0 NGrid=           0
         NMat0=    1 NMatS0=     54 NMatT0=    0 NMatD0=    1 NMtDS0=    0 NMtDT0=    0
 Symmetry not used in FoFCou.

 Cycle   1  Pass 1  IDiag  1:
 E= 0.323981663351475    
 DIIS: error= 6.08D-02 at cycle   1 NSaved=   1.
 NSaved= 1 IEnMin= 1 EnMin= 0.323981663351475     IErMin= 1 ErrMin= 6.08D-02
 ErrMax= 6.08D-02  0.00D+00 EMaxC= 1.00D-01 BMatC= 1.10D-01 BMatP= 1.10D-01
 IDIUse=3 WtCom= 3.92D-01 WtEn= 6.08D-01
 Coeff-Com:  0.100D+01
 Coeff-En:   0.100D+01
 Coeff:      0.100D+01
 GapD=    2.000 DampG=2.000 DampE=0.500 DampFc=1.0000 IDamp=-1.
 RMSDP=1.94D-02 MaxDP=1.61D-01              OVMax= 0.00D+00

 Cycle   2  Pass 1  IDiag  1:
 E= 0.458275614432182E-01 Delta-E=       -0.278154101908 Rises=F Damp=F
 DIIS: error= 1.99D-02 at cycle   2 NSaved=   2.
 NSaved= 2 IEnMin= 2 EnMin= 0.458275614432182E-01 IErMin= 2 ErrMin= 1.99D-02
 ErrMax= 1.99D-02  0.00D+00 EMaxC= 1.00D-01 BMatC= 9.55D-03 BMatP= 1.10D-01
 IDIUse=3 WtCom= 8.01D-01 WtEn= 1.99D-01
 Coeff-Com: -0.360D+00 0.136D+01
 Coeff-En:   0.000D+00 0.100D+01
 Coeff:     -0.288D+00 0.129D+01
 RMSDP=8.22D-03 MaxDP=7.55D-02 DE=-2.78D-01 OVMax= 0.00D+00

 Cycle   3  Pass 1  IDiag  3:
 E= 0.152125482866552E-01 Delta-E=       -0.030615013157 Rises=F Damp=F
 DIIS: error= 3.72D-03 at cycle   3 NSaved=   3.
 NSaved= 3 IEnMin= 3 EnMin= 0.152125482866552E-01 IErMin= 3 ErrMin= 3.72D-03
 ErrMax= 3.72D-03  0.00D+00 EMaxC= 1.00D-01 BMatC= 3.74D-04 BMatP= 9.55D-03
 IDIUse=3 WtCom= 9.63D-01 WtEn= 3.72D-02
 Coeff-Com:  0.131D+00-0.589D+00 0.146D+01
 Coeff-En:   0.000D+00 0.000D+00 0.100D+01
 Coeff:      0.126D+00-0.567D+00 0.144D+01
 Gap=     0.370 Goal=   None    Shift=    0.000
 RMSDP=2.56D-03 MaxDP=3.08D-02 DE=-3.06D-02 OVMax= 3.40D-02

 Cycle   4  Pass 1  IDiag  3:
 E= 0.131435925339787E-01 Delta-E=       -0.002068955753 Rises=F Damp=F
 DIIS: error= 1.21D-03 at cycle   4 NSaved=   4.
 NSaved= 4 IEnMin= 4 EnMin= 0.131435925339787E-01 IErMin= 4 ErrMin= 1.21D-03
 ErrMax= 1.21D-03  0.00D+00 EMaxC= 1.00D-01 BMatC= 2.95D-05 BMatP= 3.74D-04
 IDIUse=3 WtCom= 9.88D-01 WtEn= 1.21D-02
 Coeff-Com:  0.186D-01-0.647D-01-0.183D+00 0.123D+01
 Coeff-En:   0.000D+00 0.000D+00 0.000D+00 0.100D+01
 Coeff:      0.184D-01-0.639D-01-0.180D+00 0.123D+01
 Gap=     0.370 Goal=   None    Shift=    0.000
 RMSDP=8.58D-04 MaxDP=1.09D-02 DE=-2.07D-03 OVMax= 1.17D-02

 Cycle   5  Pass 1  IDiag  3:
 E= 0.129586017003902E-01 Delta-E=       -0.000184990834 Rises=F Damp=F
 DIIS: error= 2.16D-04 at cycle   5 NSaved=   5.
 NSaved= 5 IEnMin= 5 EnMin= 0.129586017003902E-01 IErMin= 5 ErrMin= 2.16D-04
 ErrMax= 2.16D-04  0.00D+00 EMaxC= 1.00D-01 BMatC= 1.96D-06 BMatP= 2.95D-05
 IDIUse=3 WtCom= 9.98D-01 WtEn= 2.16D-03
 Coeff-Com: -0.893D-02 0.352D-01 0.222D-01-0.493D+00 0.144D+01
 Coeff-En:   0.000D+00 0.000D+00 0.000D+00 0.000D+00 0.100D+01
 Coeff:     -0.892D-02 0.352D-01 0.222D-01-0.492D+00 0.144D+01
 Gap=     0.370 Goal=   None    Shift=    0.000
 RMSDP=2.58D-04 MaxDP=2.19D-03 DE=-1.85D-04 OVMax= 2.68D-03

 Cycle   6  Pass 1  IDiag  3:
 E= 0.129439757188692E-01 Delta-E=       -0.000014625982 Rises=F Damp=F
 DIIS: error= 9.68D-05 at cycle   6 NSaved=   6.
 NSaved= 6 IEnMin= 6 EnMin= 0.129439757188692E-01 IErMin= 6 ErrMin= 9.68D-05
 ErrMax= 9.68D-05  0.00D+00 EMaxC= 1.00D-01 BMatC= 1.89D-07 BMatP= 1.96D-06
 IDIUse=1 WtCom= 1.00D+00 WtEn= 0.00D+00
 Coeff-Com:  0.329D-02-0.128D-01 0.390D-02 0.144D+00-0.667D+00 0.153D+01
 Coeff:      0.329D-02-0.128D-01 0.390D-02 0.144D+00-0.667D+00 0.153D+01
 Gap=     0.370 Goal=   None    Shift=    0.000
 RMSDP=9.65D-05 MaxDP=8.00D-04 DE=-1.46D-05 OVMax= 1.25D-03

 Cycle   7  Pass 1  IDiag  3:
 E= 0.129422390706821E-01 Delta-E=       -0.000001736648 Rises=F Damp=F
 DIIS: error= 3.74D-05 at cycle   7 NSaved=   7.
 NSaved= 7 IEnMin= 7 EnMin= 0.129422390706821E-01 IErMin= 7 ErrMin= 3.74D-05
 ErrMax= 3.74D-05  0.00D+00 EMaxC= 1.00D-01 BMatC= 1.82D-08 BMatP= 1.89D-07
 IDIUse=1 WtCom= 1.00D+00 WtEn= 0.00D+00
 Coeff-Com: -0.474D-03 0.123D-02 0.113D-02-0.324D-01 0.178D+00-0.709D+00
 Coeff-Com:  0.156D+01
 Coeff:     -0.474D-03 0.123D-02 0.113D-02-0.324D-01 0.178D+00-0.709D+00
 Coeff:      0.156D+01
 Gap=     0.370 Goal=   None    Shift=    0.000
 RMSDP=3.69D-05 MaxDP=3.45D-04 DE=-1.74D-06 OVMax= 4.44D-04

 Cycle   8  Pass 1  IDiag  3:
 E= 0.129420544696472E-01 Delta-E=       -0.000000184601 Rises=F Damp=F
 DIIS: error= 7.88D-06 at cycle   8 NSaved=   8.
 NSaved= 8 IEnMin= 8 EnMin= 0.129420544696472E-01 IErMin= 8 ErrMin= 7.88D-06
 ErrMax= 7.88D-06  0.00D+00 EMaxC= 1.00D-01 BMatC= 8.31D-10 BMatP= 1.82D-08
 IDIUse=1 WtCom= 1.00D+00 WtEn= 0.00D+00
 Coeff-Com:  0.363D-04 0.244D-03-0.157D-02 0.109D-01-0.558D-01 0.260D+00
 Coeff-Com: -0.746D+00 0.153D+01
 Coeff:      0.363D-04 0.244D-03-0.157D-02 0.109D-01-0.558D-01 0.260D+00
 Coeff:     -0.746D+00 0.153D+01
 Gap=     0.370 Goal=   None    Shift=    0.000
 RMSDP=7.33D-06 MaxDP=7.15D-05 DE=-1.85D-07 OVMax= 8.64D-05

 Cycle   9  Pass 1  IDiag  3:
 E= 0.129420470648540E-01 Delta-E=       -0.000000007405 Rises=F Damp=F
 DIIS: error= 1.19D-06 at cycle   9 NSaved=   9.
 NSaved= 9 IEnMin= 9 EnMin= 0.129420470648540E-01 IErMin= 9 ErrMin= 1.19D-06
 ErrMax= 1.19D-06  0.00D+00 EMaxC= 1.00D-01 BMatC= 3.48D-11 BMatP= 8.31D-10
 IDIUse=1 WtCom= 1.00D+00 WtEn= 0.00D+00
 Coeff-Com:  0.293D-04-0.249D-03 0.570D-03-0.199D-02 0.110D-01-0.652D-01
 Coeff-Com:  0.216D+00-0.593D+00 0.143D+01
 Coeff:      0.293D-04-0.249D-03 0.570D-03-0.199D-02 0.110D-01-0.652D-01
 Coeff:      0.216D+00-0.593D+00 0.143D+01
 Gap=     0.370 Goal=   None    Shift=    0.000
 RMSDP=1.16D-06 MaxDP=1.02D-05 DE=-7.40D-09 OVMax= 1.47D-05

 Cycle  10  Pass 1  IDiag  3:
 E= 0.129420468373809E-01 Delta-E=       -0.000000000227 Rises=F Damp=F
 DIIS: error= 1.81D-07 at cycle  10 NSaved=  10.
 NSaved=10 IEnMin=10 EnMin= 0.129420468373809E-01 IErMin=10 ErrMin= 1.81D-07
 ErrMax= 1.81D-07  0.00D+00 EMaxC= 1.00D-01 BMatC= 1.46D-12 BMatP= 3.48D-11
 IDIUse=1 WtCom= 1.00D+00 WtEn= 0.00D+00
 Coeff-Com: -0.133D-04 0.103D-03-0.224D-03 0.696D-03-0.363D-02 0.219D-01
 Coeff-Com: -0.739D-01 0.212D+00-0.628D+00 0.147D+01
 Coeff:     -0.133D-04 0.103D-03-0.224D-03 0.696D-03-0.363D-02 0.219D-01
 Coeff:     -0.739D-01 0.212D+00-0.628D+00 0.147D+01
 Gap=     0.370 Goal=   None    Shift=    0.000
 RMSDP=1.94D-07 MaxDP=1.22D-06 DE=-2.27D-10 OVMax= 1.99D-06

 Cycle  11  Pass 1  IDiag  3:
 E= 0.129420468294228E-01 Delta-E=       -0.000000000008 Rises=F Damp=F
 DIIS: error= 3.41D-08 at cycle  11 NSaved=  11.
 NSaved=11 IEnMin=11 EnMin= 0.129420468294228E-01 IErMin=11 ErrMin= 3.41D-08
 ErrMax= 3.41D-08  0.00D+00 EMaxC= 1.00D-01 BMatC= 5.47D-14 BMatP= 1.46D-12
 IDIUse=1 WtCom= 1.00D+00 WtEn= 0.00D+00
 Coeff-Com:  0.379D-05-0.308D-04 0.653D-04-0.213D-03 0.111D-02-0.672D-02
 Coeff-Com:  0.224D-01-0.637D-01 0.193D+00-0.569D+00 0.142D+01
 Coeff:      0.379D-05-0.308D-04 0.653D-04-0.213D-03 0.111D-02-0.672D-02
 Coeff:      0.224D-01-0.637D-01 0.193D+00-0.569D+00 0.142D+01
 Gap=     0.370 Goal=   None    Shift=    0.000
 RMSDP=3.75D-08 MaxDP=1.90D-07 DE=-7.96D-12 OVMax= 2.78D-07

 Cycle  12  Pass 1  IDiag  3:
 E= 0.129420468289680E-01 Delta-E=        0.000000000000 Rises=F Damp=F
 DIIS: error= 5.44D-09 at cycle  12 NSaved=  12.
 NSaved=12 IEnMin=12 EnMin= 0.129420468289680E-01 IErMin=12 ErrMin= 5.44D-09
 ErrMax= 5.44D-09  0.00D+00 EMaxC= 1.00D-01 BMatC= 2.85D-15 BMatP= 5.47D-14
 IDIUse=1 WtCom= 1.00D+00 WtEn= 0.00D+00
 Coeff-Com: -0.985D-06 0.794D-05-0.159D-04 0.515D-04-0.258D-03 0.162D-02
 Coeff-Com: -0.541D-02 0.151D-01-0.474D-01 0.156D+00-0.555D+00 0.144D+01
 Coeff:     -0.985D-06 0.794D-05-0.159D-04 0.515D-04-0.258D-03 0.162D-02
 Coeff:     -0.541D-02 0.151D-01-0.474D-01 0.156D+00-0.555D+00 0.144D+01
 Gap=     0.370 Goal=   None    Shift=    0.000
 RMSDP=9.21D-09 MaxDP=4.32D-08 DE=-4.55D-13 OVMax= 7.59D-08

 Cycle  13  Pass 2  IDiag  1:
 SCF Done:  E(RAM1) =  0.129420468290E-01 A.U. after   13 cycles
            NFock= 12  Conv=0.92D-08     -V/T= 1.0008
 KE=-1.648742192232D+01 PE=-1.701950655502D+02 EE= 8.377535675373D+01
 Leave Link  502 at Tue Dec 15 16:25:37 2015, MaxMem=    33554432 cpu:         0.0
 (Enter /home/Applications/g09/g09/l801.exe)
 Range of M.O.s used for correlation:     1    24
 NBasis=    24 NAE=    13 NBE=    13 NFC=     0 NFV=     0
 NROrb=     24 NOA=    13 NOB=    13 NVA=    11 NVB=    11
 Leave Link  801 at Tue Dec 15 16:25:37 2015, MaxMem=    33554432 cpu:         0.0
 (Enter /home/Applications/g09/g09/l914.exe)
 RHF ground state
 MDV=    33554432 DFT=F DoStab=F Mixed=F DoRPA=F DoScal=F NonHer=F
 Making orbital integer symmetry assigments:
 Orbital symmetries:
       Occupied  (A) (A) (A) (A) (A) (A) (A) (A) (A) (A) (A) (A)
                 (A)
       Virtual   (A) (A) (A) (A) (A) (A) (A) (A) (A) (A) (A)
    60 initial guesses have been made.
 Convergence on wavefunction:    0.000001000000000
 Davidson Disk Diagonalization:  ConvIn= 1.00D-06 SkipCon=T Conv= 1.00D-06.
 Max sub-space:   240 roots to seek:    60 dimension of matrix:          286
 Iteration     1 Dimension    60 NMult     0 NNew     60
 CISAX will form    60 AO SS matrices at one time.
 NMat=    60 NSing=    60 JSym2X= 0.
 FoFJK:  IHMeth= 8 ICntrl=       0 DoSepK=F KAlg= 0 I1Cent=   0 FoldK=F
 IRaf=         1 NMat= 120 IRICut=       1 DoRegI=T DoRafI=F ISym2E= 0.
 FoFCou: FMM=F IPFlag=           0 FMFlag=      100000 FMFlg1=           0
         NFxFlg=           0 DoJE=F BraDBF=F KetDBF=F FulRan=T
         wScrn=  0.000000 ICntrl=       0 IOpCl=  0 I1Cent=           0 NGrid=           0
         NMat0=  120 NMatS0=     60 NMatT0=    0 NMatD0=  120 NMtDS0=    0 NMtDT0=    0
 Symmetry not used in FoFCou.
 New state      2 was old state      4
 New state      3 was old state      2
 New state      4 was old state      7
 New state      5 was old state      6
 New state      6 was old state      8
 New state      7 was old state      3
 New state      8 was old state      5
 New state     10 was old state     11
 New state     11 was old state     12
 New state     12 was old state     15
 New state     13 was old state     14
 New state     14 was old state     17
 New state     15 was old state     13
 Excitation Energies [eV] at current iteration:
 Root      1 :     4.452083594960591
 Root      2 :     4.910198131294096
 Root      3 :     4.986331666115619
 Root      4 :     5.910293768403521
 Root      5 :     5.939394917629648
 Root      6 :     6.083395739236207
 Root      7 :     6.241105544247397
 Root      8 :     6.367744051343572
 Root      9 :     6.517278146046031
 Root     10 :     6.993321770427880
 Root     11 :     7.075612230677127
 Root     12 :     7.439418373278409
 Root     13 :     7.507387700328792
 Root     14 :     7.515300080445525
 Root     15 :     7.656383427315040
 Root     16 :     7.811542638507473
 Root     17 :     7.850534282811163
 Root     18 :     8.090153914799233
 Root     19 :     8.201949304215246
 Root     20 :     8.350065103248374
 Root     21 :     8.566719189638807
 Root     22 :     8.700233875262105
 Root     23 :     8.738906385335612
 Root     24 :     9.040671335164385
 Root     25 :     9.348077598827231
 Root     26 :     9.530425850705974
 Root     27 :     9.545472712153112
 Root     28 :     9.720423684388606
 Root     29 :     9.734309368756200
 Root     30 :     9.742711325290319
 Root     31 :     9.876000565468818
 Root     32 :     9.913677152232488
 Root     33 :    10.015950535573540
 Root     34 :    10.054803038377230
 Root     35 :    10.327084049634760
 Root     36 :    10.363200510177470
 Root     37 :    10.496108952822210
 Root     38 :    10.628975450490700
 Root     39 :    10.807681408396310
 Root     40 :    10.863365901115760
 Root     41 :    10.980422895247140
 Root     42 :    10.997743700141860
 Root     43 :    11.238839730403590
 Root     44 :    11.306221800740980
 Root     45 :    11.436371685782010
 Root     46 :    11.531942551260760
 Root     47 :    11.686367494428330
 Root     48 :    11.840716285353870
 Root     49 :    11.945296611064550
 Root     50 :    12.116322886537300
 Root     51 :    12.287226246607920
 Root     52 :    12.562708031219840
 Root     53 :    12.703706294014830
 Root     54 :    12.853259994334830
 Root     55 :    13.132959512138480
 Root     56 :    13.221753392233200
 Root     57 :    13.454116323157350
 Root     58 :    13.514774999044520
 Root     59 :    13.586092035663960
 Root     60 :    13.818331812085030
 Iteration     2 Dimension   120 NMult    60 NNew     60
 CISAX will form    60 AO SS matrices at one time.
 NMat=    60 NSing=    60 JSym2X= 0.
 Root      1 not converged, maximum delta is    0.049987447472878
 Root      2 not converged, maximum delta is    0.036399727163760
 Root      3 not converged, maximum delta is    0.023725108894400
 Root      4 not converged, maximum delta is    0.193811175337608
 Root      5 not converged, maximum delta is    0.155228092520871
 Root      6 not converged, maximum delta is    0.076763221353238
 Root      7 not converged, maximum delta is    0.182765337576309
 Root      8 not converged, maximum delta is    0.149308147056075
 Root      9 not converged, maximum delta is    0.043897827336655
 Root     10 not converged, maximum delta is    0.159923931125125
 Root     11 not converged, maximum delta is    0.240760846988716
 Root     12 not converged, maximum delta is    0.231651032534801
 Root     13 not converged, maximum delta is    0.150274856267848
 Root     14 not converged, maximum delta is    0.101446985646773
 Root     15 not converged, maximum delta is    0.160802856441865
 Excitation Energies [eV] at current iteration:
 Root      1 :     4.357611384093168   Change is   -0.094472210867423
 Root      2 :     4.880814710794604   Change is   -0.029383420499491
 Root      3 :     4.968661506136288   Change is   -0.017670159979331
 Root      4 :     5.804075573527466   Change is   -0.106218194876056
 Root      5 :     5.865499348144710   Change is   -0.073895569484938
 Root      6 :     5.951427905628575   Change is   -0.131967833607633
 Root      7 :     6.082752332617867   Change is   -0.158353211629531
 Root      8 :     6.296047415634898   Change is   -0.071696635708674
 Root      9 :     6.459922935181204   Change is   -0.057355210864827
 Root     10 :     6.952260341136239   Change is   -0.041061429291641
 Root     11 :     6.967529914832323   Change is   -0.108082315844804
 Root     12 :     7.336066844222639   Change is   -0.103351529055770
 Root     13 :     7.364608757728837   Change is   -0.142778942599956
 Root     14 :     7.456647978509651   Change is   -0.058652101935873
 Root     15 :     7.546505697279327   Change is   -0.109877730035713
 Root     16 :     7.714672529509784   Change is   -0.096870108997689
 Root     17 :     7.788304680190538   Change is   -0.062229602620624
 Root     18 :     8.002383151447582   Change is   -0.087770763351651
 Root     19 :     8.036783863737197   Change is   -0.165165440478050
 Root     20 :     8.191072357663877   Change is   -0.158992745584497
 Root     21 :     8.276124841334282   Change is   -0.290594348304525
 Root     22 :     8.662508812927838   Change is   -0.037725062334268
 Root     23 :     8.702566396388240   Change is   -0.036339988947373
 Root     24 :     8.922432826936767   Change is   -0.118238508227617
 Root     25 :     9.105861342471643   Change is   -0.424564508234330
 Root     26 :     9.166024041652761   Change is   -0.182053557174469
 Root     27 :     9.302936821331977   Change is   -0.431372547424223
 Root     28 :     9.430409483347958   Change is   -0.115063228805154
 Root     29 :     9.438947400937231   Change is   -0.474729751295258
 Root     30 :     9.574364624965437   Change is   -0.146059059423171
 Root     31 :     9.632715325522602   Change is   -0.109995999767717
 Root     32 :     9.667884577367593   Change is   -0.386918461009638
 Root     33 :     9.715090575687519   Change is   -0.160909989781298
 Root     34 :     9.735192779296090   Change is   -0.591891270338671
 Root     35 :     9.839317320263543   Change is   -0.176633215309992
 Root     36 :     9.965825470176508   Change is   -0.530283482645698
 Root     37 :    10.134676252672950   Change is   -0.228524257504519
 Root     38 :    10.202278531953980   Change is   -0.426696918536718
 Root     39 :    10.355898394553610   Change is   -0.507467506562145
 Root     40 :    10.475342110048930   Change is   -0.332339298347379
 Root     41 :    10.547029312257040   Change is   -0.450714387884821
 Root     42 :    10.708147337790490   Change is   -0.530692392613099
 Root     43 :    10.854968873210570   Change is   -0.581402812571436
 Root     44 :    10.889216829739880   Change is   -0.091206065507259
 Root     45 :    10.929149665035760   Change is   -0.377072135705220
 Root     46 :    11.187978887991180   Change is   -0.498388606437158
 Root     47 :    11.383443583855130   Change is   -0.148498967405638
 Root     48 :    11.415649475353200   Change is   -0.425066810000668
 Root     49 :    11.654758496661010   Change is   -0.461564389876293
 Root     50 :    11.768609499081740   Change is   -0.176687111982808
 Root     51 :    11.907305408605190   Change is   -0.379920838002732
 Root     52 :    12.002356514450600   Change is   -0.560351516769244
 Root     53 :    12.244713480971080   Change is   -0.977039911262118
 Root     54 :    12.336000714520050   Change is   -0.367705579494780
 Root     55 :    12.578474372409130
 Root     56 :    12.804312881112420   Change is   -0.048947113222409
 Root     57 :    12.942056436947020   Change is   -0.190903075191457
 Root     58 :    12.969806943841880   Change is   -0.484309379315466
 Root     59 :    13.138445650369390   Change is   -0.376329348675136
 Root     60 :    13.239174040837660   Change is   -0.346917994826301
 Iteration     3 Dimension   135 NMult   120 NNew     15
 CISAX will form    15 AO SS matrices at one time.
 NMat=    15 NSing=    15 JSym2X= 0.
 Root      1 not converged, maximum delta is    0.002095319847306
 Root      2 not converged, maximum delta is    0.000103707637835
 Root      3 not converged, maximum delta is    0.000431748682798
 Root      4 not converged, maximum delta is    0.000164660875096
 Root      5 not converged, maximum delta is    0.000078114320049
 Root      6 not converged, maximum delta is    0.000161602823228
 Root      7 not converged, maximum delta is    0.001647725364469
 Root      8 not converged, maximum delta is    0.001438539559044
 Root      9 not converged, maximum delta is    0.000138603081805
 Root     10 not converged, maximum delta is    0.000186053928973
 Root     11 not converged, maximum delta is    0.000121420299153
 Root     12 not converged, maximum delta is    0.000747710084258
 Root     13 not converged, maximum delta is    0.000558850391195
 Root     14 not converged, maximum delta is    0.000120393428122
 Root     15 not converged, maximum delta is    0.000141972463097
 Excitation Energies [eV] at current iteration:
 Root      1 :     4.357115767978583   Change is   -0.000495616114585
 Root      2 :     4.880811385554467   Change is   -0.000003325240138
 Root      3 :     4.968628128958239   Change is   -0.000033377178050
 Root      4 :     5.804071635187132   Change is   -0.000003938340334
 Root      5 :     5.865496871552747   Change is   -0.000002476591964
 Root      6 :     5.951421894422137   Change is   -0.000006011206437
 Root      7 :     6.082078633743488   Change is   -0.000673698874379
 Root      8 :     6.295740767272148   Change is   -0.000306648362749
 Root      9 :     6.459918555265038   Change is   -0.000004379916166
 Root     10 :     6.952252534221310   Change is   -0.000007806914930
 Root     11 :     6.967524789200206   Change is   -0.000005125632118
 Root     12 :     7.335990143104833   Change is   -0.000076701117806
 Root     13 :     7.364552320256545   Change is   -0.000056437472292
 Root     14 :     7.456643672355303   Change is   -0.000004306154349
 Root     15 :     7.546500393568325   Change is   -0.000005303711003
 Iteration     4 Dimension   143 NMult   135 NNew      8
 CISAX will form     8 AO SS matrices at one time.
 NMat=     8 NSing=     8 JSym2X= 0.
 Root      1 not converged, maximum delta is    0.000075359556686
 Root      2 not converged, maximum delta is    0.000006626622718
 Root      3 not converged, maximum delta is    0.000012115940237
 Root      4 not converged, maximum delta is    0.000006172448984
 Root      5 not converged, maximum delta is    0.000003931413842
 Root      6 not converged, maximum delta is    0.000007656467140
 Root      7 not converged, maximum delta is    0.000052564691901
 Root      8 not converged, maximum delta is    0.000051953253910
 Root      9 not converged, maximum delta is    0.000007996014807
 Root     10 not converged, maximum delta is    0.000009720034337
 Root     11 not converged, maximum delta is    0.000008879883064
 Root     12 not converged, maximum delta is    0.000030543046505
 Root     13 not converged, maximum delta is    0.000027795335481
 Root     14 not converged, maximum delta is    0.000007901637092
 Root     15 not converged, maximum delta is    0.000004609942921
 Excitation Energies [eV] at current iteration:
 Root      1 :     4.357113977576456   Change is   -0.000001790402127
 Root      2 :     4.880811377501241   Change is   -0.000000008053225
 Root      3 :     4.968628090033800   Change is   -0.000000038924439
 Root      4 :     5.804071622798295   Change is   -0.000000012388836
 Root      5 :     5.865496867515877   Change is   -0.000000004036869
 Root      6 :     5.951421864641662   Change is   -0.000000029780474
 Root      7 :     6.082077684433076   Change is   -0.000000949310412
 Root      8 :     6.295739724799227   Change is   -0.000001042472921
 Root      9 :     6.459918533911363   Change is   -0.000000021353675
 Root     10 :     6.952252514900040   Change is   -0.000000019321268
 Root     11 :     6.967524769965467   Change is   -0.000000019234739
 Root     12 :     7.335989765014332   Change is   -0.000000378090500
 Root     13 :     7.364551978619320   Change is   -0.000000341637225
 Root     14 :     7.456643652206811   Change is   -0.000000020148492
 Root     15 :     7.546500384211562   Change is   -0.000000009356763
 Convergence achieved on expansion vectors.
 ***********************************************************************
 Excited states from <AA,BB:AA,BB> singles matrix:
 ***********************************************************************
 
 1PDM for each excited state written to RWF  633
 Ground to excited state transition densities written to RWF  633
 Ground to excited state transition electric dipole moments (Au):
       state          X           Y           Z        Dip. S.      Osc.
         1         0.9195     -0.0571     -0.0207      0.8491      0.0906
         2         0.0323      0.0337      0.0467      0.0044      0.0005
         3         0.0060      0.2024      0.0425      0.0428      0.0052
         4        -0.0025      0.0539      0.0929      0.0116      0.0016
         5        -0.0454     -0.0965      0.0560      0.0145      0.0021
         6         0.0113      0.0050     -0.0626      0.0041      0.0006
         7         0.0646      1.5840      0.0707      2.5182      0.3752
         8        -0.9160     -0.1786     -0.0365      0.8723      0.1345
         9        -0.0969     -0.0352     -0.0823      0.0174      0.0028
        10         0.0571      0.1019     -0.1019      0.0240      0.0041
        11        -0.0435      0.0088     -0.0078      0.0020      0.0003
        12         0.0205      0.0097      0.0399      0.0021      0.0004
        13        -0.0232     -0.0251     -0.0583      0.0046      0.0008
        14         0.0021     -0.0365      0.0785      0.0075      0.0014
        15        -0.0262     -0.0003     -0.1834      0.0343      0.0063
 Ground to excited state transition velocity dipole moments (Au):
       state          X           Y           Z        Dip. S.      Osc.
         1        -0.0497      0.0027      0.0083      0.0025      0.0106
         2         0.0024     -0.0003     -0.0065      0.0000      0.0002
         3        -0.0104     -0.0068     -0.0064      0.0002      0.0007
         4        -0.0023     -0.0132     -0.0239      0.0007      0.0023
         5         0.0077      0.0190     -0.0767      0.0063      0.0195
         6        -0.0024     -0.0018      0.0159      0.0003      0.0008
         7        -0.0137     -0.3141     -0.0083      0.0989      0.2949
         8         0.1590      0.0412     -0.0049      0.0270      0.0778
         9         0.0160      0.0099      0.1738      0.0306      0.0859
        10        -0.0089     -0.0237      0.0035      0.0007      0.0017
        11         0.0046      0.0005      0.0073      0.0001      0.0002
        12        -0.0006     -0.0046     -0.0533      0.0029      0.0071
        13        -0.0018      0.0057      0.0182      0.0004      0.0009
        14         0.0022      0.0079      0.0435      0.0020      0.0048
        15         0.0024     -0.0080      0.0409      0.0017      0.0042
 Ground to excited state transition magnetic dipole moments (Au):
       state          X           Y           Z
         1         0.0214     -0.0232      0.6863
         2        -0.1449     -0.6550      0.0001
         3        -0.0188      0.1043     -0.0166
         4         0.3304     -0.0243     -0.0150
         5         0.0019     -0.0264      0.0049
         6        -0.2644     -0.0524     -0.0100
         7         0.0966     -0.0089     -0.0422
         8        -0.0565     -0.0850     -0.0569
         9         0.1145     -0.0452     -0.0211
        10        -1.6146     -0.2808      0.0275
        11        -0.6541      0.7471     -0.0065
        12        -0.2942     -0.0320      0.0140
        13         0.0729     -0.6877      0.0006
        14         0.5013     -0.0543      0.0109
        15         0.2492     -0.0235      0.0242
 Ground to excited state transition velocity quadrupole moments (Au):
       state          XX          YY          ZZ          XY          XZ          YZ
         1         0.0930     -0.0843      0.0120      0.4696      0.0251     -0.0024
         2         0.0078     -0.0164      0.0159     -0.0017     -0.1570      0.0066
         3         0.0612     -0.1160      0.0692     -0.0858      0.0255     -0.0033
         4         0.0162     -0.0060      0.0129     -0.0239      0.0947      0.2090
         5        -0.0317      0.0292     -0.0097      0.0350     -0.0389      0.0779
         6        -0.0084      0.0195     -0.0268     -0.0306      0.0699     -0.2181
         7         0.4843     -0.2878     -0.0428      0.0238     -0.0298     -0.0168
         8         0.0400     -0.0555      0.0082      0.5267      0.0193      0.0144
         9        -0.0011     -0.0006      0.0044      0.0314     -0.0249     -0.1104
        10         0.0407     -0.0096      0.0058     -0.0068      0.1355      0.0793
        11         0.0150     -0.0135      0.0011      0.0200     -0.2921      0.0772
        12        -0.0093      0.0022      0.0169     -0.0098      0.0201     -0.0587
        13        -0.0120     -0.0050     -0.0067     -0.0198     -0.1627      0.1070
        14         0.0082     -0.0123      0.0071      0.0030      0.1116      0.2751
        15         0.0250     -0.0016     -0.0081      0.0180      0.0897      0.2453
 <0|del|b> * <b|rxdel|0> + <0|del|b> * <b|delr+rdel|0>
 Rotatory Strengths (R) in cgs (10**-40 erg-esu-cm/Gauss)
       state          XX          YY          ZZ    R(velocity)    E-M Angle
         1        20.9885      1.9091     -2.5999      6.7659       82.39
         2         0.2664     -0.6834     -0.3211     -0.2460       92.29
         3         0.2263     -0.4047     -1.3906     -0.5230      105.68
         4         4.1475     -2.3678     -1.9989     -0.0731       90.00
         5        -4.6259      4.7939     -2.9848     -0.9389      113.73
         6        -0.6943      2.4172      0.1317      0.6182       82.43
         7       -10.1365     -0.8639     16.7901      1.9299       86.85
         8       -10.0727     -5.8581    -21.3727    -12.4345      129.47
         9         2.3647    -13.5074      4.3456     -2.2657       96.00
        10        13.7598     19.0358     25.5866     19.4607       59.77
        11         0.8403     -3.9058     -4.3053     -2.4570      108.22
        12         0.0226     -1.3898      0.2541     -0.3710       91.53
        13        -4.3825      0.0608     -6.2769     -3.5329      107.82
        14        -0.9194      2.6612      1.2321      0.9913       87.04
        15         3.3506      1.8388     -0.6642      1.5084       80.26
 1/2[<0|r|b>*<b|rxdel|0> + (<0|rxdel|b>*<b|r|0>)*]
 Rotatory Strengths (R) in cgs (10**-40 erg-esu-cm/Gauss)
       state          XX          YY          ZZ     R(length)
         1       -13.8825     -0.9363     10.0697     -1.5830
         2         3.3137     15.6054     -0.0043      6.3049
         3         0.0801    -14.9305      0.4989     -4.7838
         4         0.5934      0.9253      0.9886      0.8358
         5         0.0603     -1.7991     -0.1925     -0.6438
         6         2.1174      0.1862     -0.4415      0.6207
         7        -4.4101     10.0007      2.1103      2.5670
         8       -36.5901    -10.7308     -1.4661    -16.2623
         9         7.8451     -1.1256     -1.2297      1.8299
        10        65.1572     20.2344      1.9799     29.1238
        11       -20.1249     -4.6525     -0.0360     -8.2712
        12         4.2561      0.2198     -0.3940      1.3606
        13         1.1948    -12.1980      0.0234     -3.6600
        14        -0.7298     -1.4026     -0.6048     -0.9124
        15         4.6203     -0.0048      3.1330      2.5828
  1/2[<0|del|b>*<b|r|0> + (<0|r|b>*<b|del|0>)*] (Au)
       state          X           Y           Z        Dip. S.   Osc.(frdel)
         1        -0.0457     -0.0002     -0.0002      0.0460      0.0307
         2         0.0001      0.0000     -0.0003      0.0002      0.0002
         3        -0.0001     -0.0014     -0.0003      0.0017      0.0011
         4         0.0000     -0.0007     -0.0022      0.0029      0.0020
         5        -0.0003     -0.0018     -0.0043      0.0065      0.0043
         6         0.0000      0.0000     -0.0010      0.0010      0.0007
         7        -0.0009     -0.4975     -0.0006      0.4989      0.3326
         8        -0.1457     -0.0074      0.0002      0.1529      0.1019
         9        -0.0016     -0.0003     -0.0143      0.0162      0.0108
        10        -0.0005     -0.0024     -0.0004      0.0033      0.0022
        11        -0.0002      0.0000     -0.0001      0.0003      0.0002
        12         0.0000      0.0000     -0.0021      0.0022      0.0015
        13         0.0000     -0.0001     -0.0011      0.0012      0.0008
        14         0.0000     -0.0003      0.0034     -0.0031     -0.0021
        15        -0.0001      0.0000     -0.0075      0.0076      0.0050

 Excitation energies and oscillator strengths:
 
 Excited State   1:      Singlet-A      4.3571 eV  284.56 nm  f=0.0906  <S**2>=0.000
      12 -> 15         0.20370
      13 -> 14         0.66814
 This state for optimization and/or second-order correction.
 Total Energy, E(CIS) =  0.173063046184    
 Copying the excited state density for this state as the 1-particle RhoCI density.
 
 Excited State   2:      Singlet-A      4.8808 eV  254.02 nm  f=0.0005  <S**2>=0.000
      13 -> 15         0.10142
      13 -> 16         0.67770
 
 Excited State   3:      Singlet-A      4.9686 eV  249.53 nm  f=0.0052  <S**2>=0.000
      12 -> 14        -0.43056
      13 -> 15         0.54177
      13 -> 16        -0.12071
 
 Excited State   4:      Singlet-A      5.8041 eV  213.62 nm  f=0.0016  <S**2>=0.000
      12 -> 16         0.26617
      12 -> 17         0.13230
      12 -> 19        -0.12579
      12 -> 22        -0.15258
      13 -> 17         0.39153
      13 -> 18         0.18974
      13 -> 19        -0.27212
      13 -> 22        -0.19992
      13 -> 23         0.17152
 
 Excited State   5:      Singlet-A      5.8655 eV  211.38 nm  f=0.0021  <S**2>=0.000
       7 -> 16        -0.18576
      12 -> 16         0.59327
      12 -> 17        -0.12084
      13 -> 17        -0.16913
 
 Excited State   6:      Singlet-A      5.9514 eV  208.33 nm  f=0.0006  <S**2>=0.000
      12 -> 18        -0.20252
      12 -> 19        -0.10202
      12 -> 20         0.10959
      12 -> 22         0.10344
      12 -> 23         0.10466
      13 -> 17        -0.13083
      13 -> 18         0.45145
      13 -> 19         0.21114
      13 -> 20        -0.16235
      13 -> 22        -0.22201
      13 -> 23        -0.19771
 
 Excited State   7:      Singlet-A      6.0821 eV  203.85 nm  f=0.3752  <S**2>=0.000
      11 -> 16        -0.11921
      12 -> 14         0.51155
      13 -> 15         0.41638
 
 Excited State   8:      Singlet-A      6.2957 eV  196.93 nm  f=0.1345  <S**2>=0.000
      12 -> 15         0.65730
      13 -> 14        -0.18860
 
 Excited State   9:      Singlet-A      6.4599 eV  191.93 nm  f=0.0028  <S**2>=0.000
      13 -> 17         0.42784
      13 -> 19         0.51405
 
 Excited State  10:      Singlet-A      6.9523 eV  178.34 nm  f=0.0041  <S**2>=0.000
       9 -> 15        -0.19142
      10 -> 15        -0.14930
      11 -> 14         0.56543
      12 -> 17        -0.18351
      12 -> 19        -0.16900
 
 Excited State  11:      Singlet-A      6.9675 eV  177.95 nm  f=0.0003  <S**2>=0.000
      11 -> 14         0.27664
      12 -> 17         0.35653
      12 -> 19         0.36934
      12 -> 20        -0.19887
      12 -> 23         0.10729
      13 -> 18         0.15744
      13 -> 22         0.18192
 
 Excited State  12:      Singlet-A      7.3360 eV  169.01 nm  f=0.0004  <S**2>=0.000
       9 -> 14         0.21852
      10 -> 14         0.24067
      11 -> 15        -0.19262
      12 -> 17        -0.24602
      12 -> 19         0.23534
      12 -> 20         0.17982
      12 -> 21        -0.13423
      12 -> 23        -0.10616
      13 -> 17         0.10238
      13 -> 18         0.27365
      13 -> 19        -0.13256
      13 -> 21         0.13499
      13 -> 22         0.13904
 
 Excited State  13:      Singlet-A      7.3646 eV  168.35 nm  f=0.0008  <S**2>=0.000
       9 -> 14         0.34304
      10 -> 14         0.30522
      10 -> 15        -0.22883
      11 -> 15        -0.22579
      12 -> 17         0.13972
      12 -> 20        -0.11725
      12 -> 21         0.11175
      12 -> 23         0.13012
      13 -> 18        -0.11424
      13 -> 22        -0.22074
 
 Excited State  14:      Singlet-A      7.4566 eV  166.27 nm  f=0.0014  <S**2>=0.000
      11 -> 14         0.10346
      12 -> 18         0.39773
      12 -> 22        -0.21184
      13 -> 17        -0.16225
      13 -> 18         0.19359
      13 -> 19         0.18770
      13 -> 20         0.29204
      13 -> 24         0.22581
 
 Excited State  15:      Singlet-A      7.5465 eV  164.29 nm  f=0.0063  <S**2>=0.000
       9 -> 14        -0.14901
      12 -> 17        -0.12750
      12 -> 19         0.29928
      13 -> 20        -0.18832
      13 -> 21         0.37967
      13 -> 22        -0.26652
      13 -> 23         0.21117
 SavETr:  write IOETrn=   770 NScale= 10 NData=  16 NLR=1 NState=   15 LETran=     280.
 The selected state is a singlet
 CISAX will form     1 AO SS matrices at one time.
 NMat=     1 NSing=     1 JSym2X= 0.
 Leave Link  914 at Tue Dec 15 16:25:37 2015, MaxMem=    33554432 cpu:         0.1
 (Enter /home/Applications/g09/g09/l1002.exe)
 Minotr:  Closed shell wavefunction.
          Computing CIS/TD-HF/TD-KS derivatives.
          Using Z-Vector for PSCF gradient.
          Skipping F1 and S1 gradient terms here.
          IDoAtm=111111111
          Direct CPHF calculation.
          Differentiating once with respect to electric field.
                with respect to dipole field.
          Differentiating once with respect to nuclear coordinates.
          Electric field/nuclear overlap derivatives assumed to be zero.
          Requested convergence is 1.0D-10 RMS, and 1.0D-09 maximum.
          NewPWx=T KeepS1=F KeepF1=F KeepIn=T MapXYZ=F SortEE=F KeepMc=T.
          MDV=      33495423 using IRadAn=       0.
 Keep J ints in memory in canonical form, NReq=871704.
 FoFCou: FMM=F IPFlag=           0 FMFlag=           0 FMFlg1=           0
         NFxFlg=           0 DoJE=F BraDBF=F KetDBF=F FulRan=T
         wScrn=  0.000000 ICntrl=     600 IOpCl=  2 I1Cent=           0 NGrid=           0
         NMat0=    1 NMatS0=     54 NMatT0=    0 NMatD0=    1 NMtDS0=    0 NMtDT0=    0
 Symmetry not used in FoFCou.
          Solving linear equations separately, MaxMat=       0.
          There are     1 degrees of freedom in the 1st order CPHF.  IDoFFX=0 NUNeed=     1.
 LinEq1:  Iter=  0 NonCon=     1 RMS=1.15D-02 Max=8.62D-02 NDo=     1
 AX will form     1 AO Fock derivatives at one time.
 LinEq1:  Iter=  1 NonCon=     1 RMS=2.36D-03 Max=1.75D-02 NDo=     1
 LinEq1:  Iter=  2 NonCon=     1 RMS=3.81D-04 Max=2.67D-03 NDo=     1
 LinEq1:  Iter=  3 NonCon=     1 RMS=4.90D-05 Max=2.78D-04 NDo=     1
 LinEq1:  Iter=  4 NonCon=     1 RMS=4.93D-06 Max=2.10D-05 NDo=     1
 LinEq1:  Iter=  5 NonCon=     1 RMS=6.81D-07 Max=3.34D-06 NDo=     1
 LinEq1:  Iter=  6 NonCon=     1 RMS=1.17D-07 Max=9.64D-07 NDo=     1
 LinEq1:  Iter=  7 NonCon=     1 RMS=1.70D-08 Max=8.03D-08 NDo=     1
 LinEq1:  Iter=  8 NonCon=     1 RMS=2.55D-09 Max=1.18D-08 NDo=     1
 LinEq1:  Iter=  9 NonCon=     1 RMS=2.78D-10 Max=8.89D-10 NDo=     1
 LinEq1:  Iter= 10 NonCon=     0 RMS=2.80D-11 Max=1.36D-10 NDo=     1
 Linear equations converged to 1.000D-10 1.000D-09 after    10 iterations.
 End of Minotr F.D. properties file   721 does not exist.
 End of Minotr F.D. properties file   722 does not exist.
 End of Minotr F.D. properties file   788 does not exist.
 Leave Link 1002 at Tue Dec 15 16:25:37 2015, MaxMem=    33554432 cpu:         0.0
 (Enter /home/Applications/g09/g09/l601.exe)
 Copying SCF densities to generalized density rwf, IOpCl= 0 IROHF=0.

 **********************************************************************

            Population analysis using the SCF density.

 **********************************************************************

 Orbital symmetries:
       Occupied  (A) (A) (A) (A) (A) (A) (A) (A) (A) (A) (A) (A)
                 (A)
       Virtual   (A) (A) (A) (A) (A) (A) (A) (A) (A) (A) (A)
 The electronic state is 1-A.
 Alpha  occ. eigenvalues --   -1.53853  -1.22285  -1.09437  -0.82109  -0.81098
 Alpha  occ. eigenvalues --   -0.67915  -0.59012  -0.56498  -0.50986  -0.50136
 Alpha  occ. eigenvalues --   -0.49838  -0.39099  -0.34323
 Alpha virt. eigenvalues --    0.02719   0.06145   0.09557   0.13511   0.14739
 Alpha virt. eigenvalues --    0.15384   0.17704   0.18430   0.19144   0.20825
 Alpha virt. eigenvalues --    0.22207
     Molecular Orbital Coefficients:
                           1         2         3         4         5
                           O         O         O         O         O
     Eigenvalues --    -1.53853  -1.22285  -1.09437  -0.82109  -0.81098
   1 1   C  1S          0.28887  -0.48452  -0.27855  -0.41482  -0.04783
   2        1PX        -0.07026   0.08518  -0.14653  -0.09880   0.24530
   3        1PY        -0.10798   0.02725   0.12927  -0.14340  -0.24550
   4        1PZ        -0.00469   0.00793   0.00498   0.00660  -0.00232
   5 2   C  1S          0.38597  -0.12139  -0.50190   0.29730   0.28436
   6        1PX        -0.18541  -0.07509  -0.02256  -0.02007   0.16733
   7        1PY        -0.00164  -0.23945  -0.02020  -0.31996   0.14954
   8        1PZ         0.00607  -0.00034  -0.00697   0.00143  -0.00068
   9 3   O  1S          0.64925   0.58645   0.02460  -0.17638  -0.24347
  10        1PX         0.03306   0.01115  -0.32516   0.43733  -0.22488
  11        1PY         0.19151  -0.02972   0.02813   0.05898   0.16718
  12        1PZ        -0.00531  -0.00263   0.00016  -0.00567  -0.00402
  13 4   C  1S          0.33606  -0.12219   0.52836   0.09193   0.42168
  14        1PX         0.17309   0.02535   0.01718  -0.10919  -0.09288
  15        1PY        -0.01827  -0.21285   0.03300   0.31194  -0.17471
  16        1PZ         0.00477   0.00033   0.00695  -0.00476   0.00563
  17 5   C  1S          0.27750  -0.46359   0.31085   0.20112  -0.38853
  18        1PX         0.05716  -0.09042  -0.15976  -0.26015  -0.10073
  19        1PY        -0.11079   0.03609  -0.11175  -0.07678  -0.25083
  20        1PZ        -0.00013   0.00033  -0.00159  -0.00503  -0.00117
  21 6   H  1S          0.05966  -0.14687   0.11798   0.12464  -0.25782
  22 7   H  1S          0.06980  -0.02499   0.19503   0.02771   0.27336
  23 8   H  1S          0.09176  -0.01996  -0.20696   0.23017   0.15899
  24 9   H  1S          0.06757  -0.16329  -0.11909  -0.28193  -0.02713
                           6         7         8         9        10
                           O         O         O         O         O
     Eigenvalues --    -0.67915  -0.59012  -0.56498  -0.50986  -0.50136
   1 1   C  1S         -0.08283   0.01051   0.16109   0.00063   0.04028
   2        1PX        -0.21754  -0.00545   0.06911   0.39088  -0.40413
   3        1PY        -0.23245  -0.02248   0.17563   0.31939   0.29297
   4        1PZ         0.00281   0.23188  -0.00782  -0.00561   0.01739
   5 2   C  1S         -0.06665  -0.01160  -0.14466  -0.08790  -0.03639
   6        1PX        -0.35829  -0.00473  -0.42453   0.10269   0.20388
   7        1PY         0.14953   0.01507  -0.07157  -0.16685  -0.38535
   8        1PZ         0.00302   0.40421  -0.00422   0.00824  -0.00365
   9 3   O  1S         -0.17802   0.01052  -0.02534   0.00514  -0.06140
  10        1PX         0.02468   0.01795   0.47645   0.02075  -0.00949
  11        1PY         0.46944  -0.00039   0.03088   0.12788  -0.07683
  12        1PZ        -0.00966   0.77909  -0.02702   0.03161  -0.00168
  13 4   C  1S         -0.10435  -0.00644   0.14751   0.05713   0.07499
  14        1PX         0.35705  -0.02800  -0.38976   0.33080   0.04094
  15        1PY         0.06357   0.01372   0.08175   0.33759  -0.05634
  16        1PZ        -0.00384   0.35415  -0.01113   0.00211   0.01225
  17 5   C  1S         -0.07716  -0.00268  -0.16482  -0.03199   0.00687
  18        1PX         0.17035  -0.00102   0.05381  -0.26982   0.49526
  19        1PY        -0.23997  -0.00947  -0.11882  -0.31238  -0.24057
  20        1PZ         0.00172   0.21671  -0.00449  -0.01059   0.02620
  21 6   H  1S         -0.21894  -0.00905  -0.18769  -0.12247  -0.36991
  22 7   H  1S         -0.26449   0.01985   0.31541  -0.31553   0.04551
  23 8   H  1S         -0.26943  -0.01356  -0.30573   0.08293   0.30619
  24 9   H  1S         -0.24157  -0.01554   0.22334   0.40194  -0.02424
                          11        12        13        14        15
                           O         O         O         V         V
     Eigenvalues --    -0.49838  -0.39099  -0.34323   0.02719   0.06145
   1 1   C  1S         -0.05338   0.01976  -0.01634  -0.00857   0.02434
   2        1PX         0.02713   0.02326  -0.00341   0.00503   0.01372
   3        1PY         0.30038  -0.00686   0.00402  -0.01387   0.01030
   4        1PZ         0.01174   0.57900  -0.39676  -0.28549   0.60742
   5 2   C  1S          0.06080  -0.00558   0.01560  -0.01726   0.00286
   6        1PX        -0.09706  -0.00091  -0.00952   0.00650   0.00098
   7        1PY        -0.26944  -0.00102   0.01205  -0.00715  -0.00236
   8        1PZ         0.01118   0.15466  -0.57502   0.55364  -0.41691
   9 3   O  1S         -0.19785  -0.00092   0.00326  -0.00168   0.00588
  10        1PX        -0.01763  -0.00234  -0.00284  -0.00100  -0.00794
  11        1PY         0.60763  -0.01190  -0.00004  -0.00338   0.01283
  12        1PZ         0.01421  -0.50448   0.03571  -0.36495   0.03479
  13 4   C  1S          0.02814  -0.00432  -0.02065  -0.02291  -0.02044
  14        1PX         0.07315   0.00928  -0.00356   0.01162  -0.00008
  15        1PY        -0.36475   0.00754   0.01288   0.00347   0.02314
  16        1PZ         0.02295   0.19402   0.60902   0.58297   0.34993
  17 5   C  1S         -0.02764   0.00156   0.00530   0.00951  -0.00511
  18        1PX         0.01716  -0.03286  -0.01181   0.01046   0.00535
  19        1PY         0.39834  -0.00591  -0.00851  -0.00859  -0.00411
  20        1PZ         0.01542   0.58832   0.37135  -0.36955  -0.57461
  21 6   H  1S          0.25632   0.00454  -0.00426  -0.00114   0.00285
  22 7   H  1S          0.09273  -0.00901   0.00792   0.02398   0.02379
  23 8   H  1S          0.10830  -0.00535  -0.00798   0.01004  -0.00277
  24 9   H  1S          0.16007  -0.00009   0.00863   0.00774  -0.02496
                          16        17        18        19        20
                           V         V         V         V         V
     Eigenvalues --     0.09557   0.13511   0.14739   0.15384   0.17704
   1 1   C  1S          0.02004  -0.29600   0.18421   0.08499   0.10669
   2        1PX        -0.00859   0.20568   0.05402   0.35346  -0.34994
   3        1PY         0.05110  -0.06473  -0.36079  -0.07198   0.31234
   4        1PZ        -0.01137   0.01588  -0.00668  -0.01690  -0.01078
   5 2   C  1S         -0.22090   0.20101  -0.41735  -0.16317   0.25261
   6        1PX         0.26312   0.11438  -0.21902   0.39109   0.08828
   7        1PY         0.27797  -0.07978  -0.16165  -0.03396   0.00960
   8        1PZ         0.00132  -0.00133  -0.02415  -0.01097   0.01971
   9 3   O  1S          0.23228  -0.03805  -0.04659   0.04450   0.00558
  10        1PX        -0.03761  -0.00973   0.07097   0.34573  -0.13181
  11        1PY         0.49165  -0.06424  -0.06234   0.05718  -0.01913
  12        1PZ        -0.01937   0.00985   0.01237  -0.00341  -0.00297
  13 4   C  1S         -0.32266  -0.33377  -0.17489   0.25137  -0.12880
  14        1PX        -0.23938   0.28951   0.19568   0.22418   0.12101
  15        1PY         0.37063  -0.13946  -0.16070   0.13762   0.20782
  16        1PZ        -0.03524  -0.02939  -0.01655   0.00614  -0.01173
  17 5   C  1S          0.07440   0.35096  -0.07575  -0.14592  -0.41283
  18        1PX        -0.02267   0.13370  -0.04414   0.45280  -0.12808
  19        1PY         0.02280  -0.15473  -0.32079   0.10980  -0.28705
  20        1PZ         0.01886   0.00981   0.00832   0.01862   0.00580
  21 6   H  1S         -0.15436  -0.11723   0.32963   0.26657   0.46361
  22 7   H  1S          0.32398   0.50224   0.25068   0.03534   0.24160
  23 8   H  1S          0.24493  -0.33322   0.43698  -0.18018  -0.23579
  24 9   H  1S         -0.09109   0.20585   0.06882  -0.28426  -0.07684
                          21        22        23        24
                           V         V         V         V
     Eigenvalues --     0.18430   0.19144   0.20825   0.22207
   1 1   C  1S         -0.39159  -0.27328  -0.12909  -0.07666
   2        1PX        -0.14760  -0.00174   0.34345  -0.30696
   3        1PY        -0.24651   0.17444   0.42565   0.11897
   4        1PZ         0.03262   0.01595  -0.00128   0.01619
   5 2   C  1S          0.00928   0.05368   0.09465  -0.10274
   6        1PX         0.09799  -0.36118  -0.19360   0.30367
   7        1PY         0.11947   0.36930   0.29111   0.44075
   8        1PZ        -0.00585   0.00733   0.01191  -0.00877
   9 3   O  1S          0.06729  -0.05823  -0.00241   0.02484
  10        1PX        -0.02566  -0.00323   0.00285   0.52750
  11        1PY         0.11173  -0.22614  -0.01026  -0.00337
  12        1PZ        -0.00745   0.00443  -0.00165  -0.00290
  13 4   C  1S          0.05537   0.13389  -0.09529   0.08365
  14        1PX        -0.30308   0.35212  -0.21733   0.21047
  15        1PY         0.07019   0.30184  -0.25593  -0.39658
  16        1PZ         0.00809  -0.00012   0.00022   0.01253
  17 5   C  1S         -0.06555  -0.13823   0.18751   0.01406
  18        1PX         0.36726   0.21283   0.19964  -0.26787
  19        1PY        -0.17021   0.31276  -0.40648  -0.07192
  20        1PZ        -0.00334   0.00707   0.00356  -0.01454
  21 6   H  1S          0.31925  -0.02413   0.20056  -0.05638
  22 7   H  1S         -0.21975   0.22593  -0.14231  -0.01920
  23 8   H  1S         -0.00696   0.33450   0.16326   0.05157
  24 9   H  1S          0.55044   0.10719  -0.32180   0.13120
     Density Matrix:
                           1         2         3         4         5
   1 1   C  1S          1.21643
   2        1PX         0.04126   0.94624
   3        1PY         0.06781   0.04432   0.94693
   4        1PZ         0.01945   0.00510  -0.00998   1.09426
   5 2   C  1S          0.30031   0.12568  -0.50466  -0.02913   1.24678
   6        1PX        -0.07148   0.11344   0.09806   0.01187   0.10670
   7        1PY         0.44305   0.19311  -0.58905  -0.02856  -0.00263
   8        1PZ         0.03666   0.01533  -0.02117   0.82286  -0.01582
   9 3   O  1S          0.00031   0.03354  -0.00990  -0.00395   0.10121
  10        1PX        -0.00092  -0.02644   0.04658   0.00303   0.33463
  11        1PY        -0.08035   0.02466   0.05979  -0.00359   0.24260
  12        1PZ        -0.00897  -0.00550  -0.00042  -0.25098  -0.01522
  13 4   C  1S         -0.03010   0.01721   0.02181   0.00756   0.01191
  14        1PX        -0.02359  -0.02800   0.02282   0.00607   0.00583
  15        1PY        -0.01395   0.08269  -0.04075  -0.00831  -0.04117
  16        1PZ        -0.00723  -0.00482   0.00589  -0.09331   0.01088
  17 5   C  1S          0.26968  -0.46064   0.07336  -0.00395  -0.02670
  18        1PX         0.46102  -0.65304   0.13375  -0.01490  -0.01030
  19        1PY        -0.01002   0.00629   0.11124   0.00117   0.01684
  20        1PZ         0.01915  -0.00656   0.00230   0.48851   0.00065
  21 6   H  1S         -0.04907   0.06770  -0.00438   0.00179   0.05390
  22 7   H  1S          0.04537  -0.06303   0.00569  -0.00665   0.04345
  23 8   H  1S         -0.05941  -0.02497   0.09745   0.00844   0.61151
  24 9   H  1S          0.59294   0.51857   0.57014  -0.02861  -0.05294
                           6         7         8         9        10
   6        1PX         0.87835
   7        1PY        -0.08549   0.91854
   8        1PZ         0.00412  -0.00715   1.03654
   9 3   O  1S         -0.24100  -0.14090   0.00669   1.86367
  10        1PX        -0.51059  -0.38987   0.01969  -0.02898   1.15511
  11        1PY        -0.49984  -0.15020   0.01678  -0.28539   0.00808
  12        1PZ         0.02701   0.01313   0.43366   0.01126   0.00109
  13 4   C  1S         -0.00583  -0.04167   0.01285   0.09095  -0.29808
  14        1PX         0.05036   0.00895  -0.00178   0.20050  -0.39733
  15        1PY        -0.03192  -0.01587  -0.00329  -0.16842   0.43337
  16        1PZ        -0.00218   0.00716  -0.35361   0.00829  -0.01430
  17 5   C  1S          0.01135  -0.01553  -0.00760  -0.00430  -0.00497
  18        1PX        -0.04794  -0.07200  -0.00214  -0.03267  -0.03791
  19        1PY        -0.00664  -0.01854   0.00568   0.00213  -0.03597
  20        1PZ        -0.00221  -0.00676  -0.06986  -0.00143  -0.00560
  21 6   H  1S         -0.00601   0.05735   0.00555   0.02256  -0.04817
  22 7   H  1S         -0.08341  -0.03530  -0.00571  -0.03881   0.04949
  23 8   H  1S          0.59608  -0.44154   0.00353  -0.04157  -0.04121
  24 9   H  1S          0.03212  -0.05110  -0.01365   0.02121   0.05567
                          11        12        13        14        15
  11        1PY         1.36544
  12        1PZ         0.02238   1.72974
  13 4   C  1S          0.26607  -0.01614   1.27222
  14        1PX         0.49998  -0.01621  -0.11113   0.89636
  15        1PY        -0.29783   0.01940   0.00429   0.09467   0.87176
  16        1PZ         0.02085   0.40095  -0.01617  -0.00697   0.00454
  17 5   C  1S         -0.08035   0.00264   0.30070   0.16037   0.43009
  18        1PX        -0.00630   0.00986  -0.21556   0.02901  -0.32211
  19        1PY         0.06488  -0.00213  -0.46083  -0.22335  -0.50385
  20        1PZ        -0.00199  -0.22944  -0.02507  -0.00051  -0.00045
  21 6   H  1S          0.08647  -0.00298  -0.05833  -0.04530  -0.05083
  22 7   H  1S         -0.06979   0.00813   0.61849  -0.65477  -0.32453
  23 8   H  1S         -0.06092   0.00789   0.05235   0.08626  -0.06289
  24 9   H  1S          0.07462   0.00266   0.05222   0.01920   0.05571
                          16        17        18        19        20
  16        1PZ         1.06984
  17 5   C  1S          0.00856   1.22992
  18        1PX        -0.01897  -0.03126   0.93261
  19        1PY        -0.00849   0.07040  -0.04299   0.96180
  20        1PZ         0.83552   0.00353  -0.01230  -0.00907   1.06415
  21 6   H  1S         -0.00377   0.57737  -0.40372   0.66857  -0.01083
  22 7   H  1S          0.02543  -0.06562   0.04343   0.09844   0.01050
  23 8   H  1S         -0.00212   0.04505   0.06656  -0.00105  -0.00072
  24 9   H  1S          0.00607  -0.04853  -0.06640   0.00784  -0.00496
                          21        22        23        24
  21 6   H  1S          0.84374
  22 7   H  1S          0.01571   0.79846
  23 8   H  1S         -0.01494  -0.02252   0.81720
  24 9   H  1S         -0.00469  -0.01728   0.01019   0.84391
    Full Mulliken population analysis:
                           1         2         3         4         5
   1 1   C  1S          1.21643
   2        1PX         0.00000   0.94624
   3        1PY         0.00000   0.00000   0.94693
   4        1PZ         0.00000   0.00000   0.00000   1.09426
   5 2   C  1S          0.00000   0.00000   0.00000   0.00000   1.24678
   6        1PX         0.00000   0.00000   0.00000   0.00000   0.00000
   7        1PY         0.00000   0.00000   0.00000   0.00000   0.00000
   8        1PZ         0.00000   0.00000   0.00000   0.00000   0.00000
   9 3   O  1S          0.00000   0.00000   0.00000   0.00000   0.00000
  10        1PX         0.00000   0.00000   0.00000   0.00000   0.00000
  11        1PY         0.00000   0.00000   0.00000   0.00000   0.00000
  12        1PZ         0.00000   0.00000   0.00000   0.00000   0.00000
  13 4   C  1S          0.00000   0.00000   0.00000   0.00000   0.00000
  14        1PX         0.00000   0.00000   0.00000   0.00000   0.00000
  15        1PY         0.00000   0.00000   0.00000   0.00000   0.00000
  16        1PZ         0.00000   0.00000   0.00000   0.00000   0.00000
  17 5   C  1S          0.00000   0.00000   0.00000   0.00000   0.00000
  18        1PX         0.00000   0.00000   0.00000   0.00000   0.00000
  19        1PY         0.00000   0.00000   0.00000   0.00000   0.00000
  20        1PZ         0.00000   0.00000   0.00000   0.00000   0.00000
  21 6   H  1S          0.00000   0.00000   0.00000   0.00000   0.00000
  22 7   H  1S          0.00000   0.00000   0.00000   0.00000   0.00000
  23 8   H  1S          0.00000   0.00000   0.00000   0.00000   0.00000
  24 9   H  1S          0.00000   0.00000   0.00000   0.00000   0.00000
                           6         7         8         9        10
   6        1PX         0.87835
   7        1PY         0.00000   0.91854
   8        1PZ         0.00000   0.00000   1.03654
   9 3   O  1S          0.00000   0.00000   0.00000   1.86367
  10        1PX         0.00000   0.00000   0.00000   0.00000   1.15511
  11        1PY         0.00000   0.00000   0.00000   0.00000   0.00000
  12        1PZ         0.00000   0.00000   0.00000   0.00000   0.00000
  13 4   C  1S          0.00000   0.00000   0.00000   0.00000   0.00000
  14        1PX         0.00000   0.00000   0.00000   0.00000   0.00000
  15        1PY         0.00000   0.00000   0.00000   0.00000   0.00000
  16        1PZ         0.00000   0.00000   0.00000   0.00000   0.00000
  17 5   C  1S          0.00000   0.00000   0.00000   0.00000   0.00000
  18        1PX         0.00000   0.00000   0.00000   0.00000   0.00000
  19        1PY         0.00000   0.00000   0.00000   0.00000   0.00000
  20        1PZ         0.00000   0.00000   0.00000   0.00000   0.00000
  21 6   H  1S          0.00000   0.00000   0.00000   0.00000   0.00000
  22 7   H  1S          0.00000   0.00000   0.00000   0.00000   0.00000
  23 8   H  1S          0.00000   0.00000   0.00000   0.00000   0.00000
  24 9   H  1S          0.00000   0.00000   0.00000   0.00000   0.00000
                          11        12        13        14        15
  11        1PY         1.36544
  12        1PZ         0.00000   1.72974
  13 4   C  1S          0.00000   0.00000   1.27222
  14        1PX         0.00000   0.00000   0.00000   0.89636
  15        1PY         0.00000   0.00000   0.00000   0.00000   0.87176
  16        1PZ         0.00000   0.00000   0.00000   0.00000   0.00000
  17 5   C  1S          0.00000   0.00000   0.00000   0.00000   0.00000
  18        1PX         0.00000   0.00000   0.00000   0.00000   0.00000
  19        1PY         0.00000   0.00000   0.00000   0.00000   0.00000
  20        1PZ         0.00000   0.00000   0.00000   0.00000   0.00000
  21 6   H  1S          0.00000   0.00000   0.00000   0.00000   0.00000
  22 7   H  1S          0.00000   0.00000   0.00000   0.00000   0.00000
  23 8   H  1S          0.00000   0.00000   0.00000   0.00000   0.00000
  24 9   H  1S          0.00000   0.00000   0.00000   0.00000   0.00000
                          16        17        18        19        20
  16        1PZ         1.06984
  17 5   C  1S          0.00000   1.22992
  18        1PX         0.00000   0.00000   0.93261
  19        1PY         0.00000   0.00000   0.00000   0.96180
  20        1PZ         0.00000   0.00000   0.00000   0.00000   1.06415
  21 6   H  1S          0.00000   0.00000   0.00000   0.00000   0.00000
  22 7   H  1S          0.00000   0.00000   0.00000   0.00000   0.00000
  23 8   H  1S          0.00000   0.00000   0.00000   0.00000   0.00000
  24 9   H  1S          0.00000   0.00000   0.00000   0.00000   0.00000
                          21        22        23        24
  21 6   H  1S          0.84374
  22 7   H  1S          0.00000   0.79846
  23 8   H  1S          0.00000   0.00000   0.81720
  24 9   H  1S          0.00000   0.00000   0.00000   0.84391
     Gross orbital populations:
                           1
   1 1   C  1S          1.21643
   2        1PX         0.94624
   3        1PY         0.94693
   4        1PZ         1.09426
   5 2   C  1S          1.24678
   6        1PX         0.87835
   7        1PY         0.91854
   8        1PZ         1.03654
   9 3   O  1S          1.86367
  10        1PX         1.15511
  11        1PY         1.36544
  12        1PZ         1.72974
  13 4   C  1S          1.27222
  14        1PX         0.89636
  15        1PY         0.87176
  16        1PZ         1.06984
  17 5   C  1S          1.22992
  18        1PX         0.93261
  19        1PY         0.96180
  20        1PZ         1.06415
  21 6   H  1S          0.84374
  22 7   H  1S          0.79846
  23 8   H  1S          0.81720
  24 9   H  1S          0.84391
          Condensed to atoms (all electrons):
               1          2          3          4          5          6
     1  C    4.203854   0.000000   0.000000   0.000000   0.000000   0.000000
     2  C    0.000000   4.080219   0.000000   0.000000   0.000000   0.000000
     3  O    0.000000   0.000000   6.113962   0.000000   0.000000   0.000000
     4  C    0.000000   0.000000   0.000000   4.110175   0.000000   0.000000
     5  C    0.000000   0.000000   0.000000   0.000000   4.188478   0.000000
     6  H    0.000000   0.000000   0.000000   0.000000   0.000000   0.843737
     7  H    0.000000   0.000000   0.000000   0.000000   0.000000   0.000000
     8  H    0.000000   0.000000   0.000000   0.000000   0.000000   0.000000
     9  H    0.000000   0.000000   0.000000   0.000000   0.000000   0.000000
               7          8          9
     1  C    0.000000   0.000000   0.000000
     2  C    0.000000   0.000000   0.000000
     3  O    0.000000   0.000000   0.000000
     4  C    0.000000   0.000000   0.000000
     5  C    0.000000   0.000000   0.000000
     6  H    0.000000   0.000000   0.000000
     7  H    0.798464   0.000000   0.000000
     8  H    0.000000   0.817205   0.000000
     9  H    0.000000   0.000000   0.843906
 Mulliken charges:
               1
     1  C   -0.203854
     2  C   -0.080219
     3  O   -0.113962
     4  C   -0.110175
     5  C   -0.188478
     6  H    0.156263
     7  H    0.201536
     8  H    0.182795
     9  H    0.156094
 Sum of Mulliken charges =   0.00000
 Mulliken charges with hydrogens summed into heavy atoms:
               1
     1  C   -0.047760
     2  C    0.102577
     3  O   -0.113962
     4  C    0.091361
     5  C   -0.032215
 Charge=              0.0000 electrons
 Dipole moment (field-independent basis, Debye):
    X=             -0.0961    Y=              0.3298    Z=             -0.0194  Tot=              0.3441
 N-N= 1.029200727657D+02 E-N=-1.701950654563D+02  KE=-1.648742192232D+01
 Orbital energies and kinetic energies (alpha):
                                 1                 2
   1         O                -1.538529         -1.293812
   2         O                -1.222850         -1.042984
   3         O                -1.094374         -0.959120
   4         O                -0.821090         -0.714236
   5         O                -0.810979         -0.720219
   6         O                -0.679148         -0.600568
   7         O                -0.590115         -0.480293
   8         O                -0.564977         -0.502846
   9         O                -0.509858         -0.441385
  10         O                -0.501364         -0.428854
  11         O                -0.498383         -0.405113
  12         O                -0.390990         -0.341264
  13         O                -0.343229         -0.313017
  14         V                 0.027192         -0.198564
  15         V                 0.061454         -0.193115
  16         V                 0.095565         -0.191529
  17         V                 0.135114         -0.238998
  18         V                 0.147387         -0.205013
  19         V                 0.153843         -0.151720
  20         V                 0.177038         -0.189006
  21         V                 0.184304         -0.198620
  22         V                 0.191443         -0.127657
  23         V                 0.208254         -0.127022
  24         V                 0.222068         -0.052465
 Total kinetic energy from orbitals=-1.648742192232D+01
 Leave Link  601 at Tue Dec 15 16:25:37 2015, MaxMem=    33554432 cpu:         0.0
 (Enter /home/Applications/g09/g09/l701.exe)
 Compute integral first derivatives.
 ... and contract with generalized density number  6.
 Leave Link  701 at Tue Dec 15 16:25:37 2015, MaxMem=    33554432 cpu:         0.0
 (Enter /home/Applications/g09/g09/l702.exe)
 L702 exits ... SP integral derivatives will be done elsewhere.
 Leave Link  702 at Tue Dec 15 16:25:37 2015, MaxMem=    33554432 cpu:         0.0
 (Enter /home/Applications/g09/g09/l703.exe)
 Compute integral first derivatives, UseDBF=F ICtDFT=           0.
 Integral derivatives from FoFJK, PRISM(SPDF).
 Calling FoFJK, ICntrl=  10005127 FMM=F ISym2X=0 I1Cent= 0 IOpClX= 0 NMat=1 NMatS=1 NMatT=0.
 FoFJK:  IHMeth= 8 ICntrl=10005127 DoSepK=F KAlg= 0 I1Cent=   0 FoldK=F
 IRaf=         0 NMat=   1 IRICut=       1 DoRegI=T DoRafI=F ISym2E= 0.
 FoFCou: FMM=F IPFlag=           0 FMFlag=      100000 FMFlg1=         800
         NFxFlg=           0 DoJE=F BraDBF=F KetDBF=F FulRan=T
         wScrn=  0.000000 ICntrl=10005127 IOpCl=  0 I1Cent=           0 NGrid=           0
         NMat0=    1 NMatS0=      1 NMatT0=    0 NMatD0=    1 NMtDS0=    0 NMtDT0=    0
 Symmetry not used in FoFCou.
 Leave Link  703 at Tue Dec 15 16:25:37 2015, MaxMem=    33554432 cpu:         0.0
 (Enter /home/Applications/g09/g09/l716.exe)
 Dipole        = 3.48134560D-02 2.19576865D-01 1.35057551D-03
 ***** Axes restored to original set *****
 -------------------------------------------------------------------
 Center     Atomic                   Forces (Hartrees/Bohr)
 Number     Number              X              Y              Z
 -------------------------------------------------------------------
      1        6           0.040208198    0.065949833   -0.008239585
      2        6          -0.036922120   -0.023479322    0.005390985
      3        8          -0.071885872    0.034789888   -0.000858572
      4        6          -0.023092923    0.007133687    0.005586302
      5        6           0.058564342   -0.020998515    0.000065025
      6        1          -0.000010192   -0.003057661    0.000752305
      7        1           0.005513899   -0.013945786   -0.002748960
      8        1          -0.007941100   -0.028122934   -0.001577387
      9        1           0.035565766   -0.018269189    0.001629886
 -------------------------------------------------------------------
 Cartesian Forces:  Max     0.071885872 RMS     0.028246575
 Z-matrix is all fixed cartesians, so copy forces.
 Force constants in Cartesian coordinates: 
                1             2             3             4             5 
      1  0.923367D+00
      2 -0.572752D-01  0.805673D+00
      3 -0.100515D-01  0.618663D-02  0.203484D+00
      4 -0.489217D+00 -0.104812D+00 -0.101305D-01  0.951327D+00
      5 -0.821789D-01 -0.215011D+00 -0.466674D-02  0.321738D-01  0.890726D+00
      6 -0.117906D-01 -0.337428D-02 -0.107007D+00 -0.424384D-02  0.476271D-02
      7 -0.858368D-02  0.287193D-01  0.124989D-02 -0.296995D+00  0.175420D+00
      8 -0.654215D-02  0.219077D-01  0.498868D-03  0.216007D+00 -0.374113D+00
      9 -0.745541D-03  0.155106D-02  0.874749D-02  0.106328D-01 -0.899932D-02
     10  0.105646D-01  0.197095D-03  0.115544D-03  0.240074D-01  0.183990D-01
     11  0.331996D-01  0.601151D-03  0.948556D-03 -0.160357D-01 -0.122948D-01
     12 -0.153797D-02  0.155437D-03 -0.183349D-02 -0.114484D-02 -0.103726D-02
     13 -0.166454D+00  0.153119D-01  0.169585D-02  0.100923D-01 -0.339623D-01
     14 -0.620211D-02 -0.389185D+00  0.785328D-02  0.182929D-03 -0.635925D-03
     15  0.178715D-02  0.129393D-01 -0.762939D-01  0.377159D-03 -0.180854D-02
     16  0.172189D-01  0.295226D-03 -0.611868D-04 -0.204726D-05  0.193940D-05
     17 -0.226218D-01 -0.362513D-03  0.997764D-03 -0.290295D-05  0.275001D-05
     18  0.148451D-02  0.495045D-03  0.169897D-01 -0.103783D-03  0.983150D-04
     19  0.000000D+00 -0.481821D-05 -0.174140D-03  0.130948D-04  0.274485D-05
     20  0.000000D+00 -0.116570D-04 -0.421307D-03 -0.136815D-05  0.000000D+00
     21  0.131188D-04  0.167841D-03  0.606613D-02  0.166503D-03  0.349011D-04
     22  0.752899D-02 -0.253258D-01  0.838153D-03 -0.193481D+00 -0.128979D+00
     23 -0.459970D-02  0.154077D-01  0.425362D-03 -0.120597D+00 -0.311863D+00
     24  0.126034D-03 -0.265545D-02  0.323531D-01  0.568982D-02  0.926355D-02
     25 -0.294425D+00  0.142894D+00  0.165180D-01 -0.574507D-02  0.191236D-01
     26  0.146221D+00 -0.239020D+00 -0.118224D-01 -0.691479D-02  0.231891D-01
     27  0.207148D-01 -0.154656D-01 -0.825060D-01 -0.124328D-02  0.235239D-02
                6             7             8             9            10 
      6  0.203904D+00
      7  0.912298D-02  0.505115D+00
      8 -0.883634D-02 -0.503316D-01  0.677798D+00
      9 -0.450544D-01 -0.203457D-01 -0.317559D-02  0.513964D-01
     10 -0.159969D-02 -0.232318D+00 -0.167478D+00  0.131481D-01  0.814064D+00
     11  0.106299D-02 -0.124477D+00 -0.326540D+00  0.120907D-01 -0.534515D-01
     12 -0.871369D-03  0.107005D-01  0.117696D-01 -0.410263D-01 -0.149792D-01
     13  0.127324D-02 -0.898332D-02  0.596631D-02 -0.108611D-03 -0.444950D+00
     14 -0.342108D-04 -0.282256D-01  0.187743D-01 -0.625889D-03  0.992168D-01
     15 -0.941645D-03  0.160952D-02 -0.503583D-03  0.498774D-02 -0.501790D-02
     16  0.714664D-04  0.000000D+00  0.152559D-05  0.380642D-04 -0.542099D-02
     17  0.101337D-03  0.138534D-05  0.909123D-05  0.226831D-03  0.711205D-02
     18  0.362287D-02  0.313423D-04  0.205683D-03  0.513188D-02 -0.651242D-03
     19  0.259671D-03  0.206292D-01 -0.138081D-01 -0.165857D-02 -0.165959D+00
     20 -0.271304D-04  0.118384D-01 -0.793588D-02 -0.122122D-02  0.960038D-01
     21  0.330176D-02 -0.134296D-02  0.112299D-02  0.518412D-02  0.873459D-02
     22  0.462523D-02  0.211356D-01  0.161870D-01 -0.999112D-03  0.998517D-05
     23  0.609021D-02 -0.129506D-01 -0.992164D-02  0.730931D-03  0.000000D+00
     24 -0.833322D-01 -0.960905D-03 -0.850551D-03  0.414173D-02  0.241160D-03
     25  0.228152D-02  0.000000D+00 -0.137434D-05  0.386109D-04  0.000000D+00
     26  0.254729D-03  0.574878D-05  0.205560D-04 -0.577503D-03  0.000000D+00
     27  0.263780D-01 -0.646181D-04 -0.231056D-03  0.649131D-02  0.861226D-05
               11            12            13            14            15 
     11  0.798882D+00
     12 -0.301885D-02  0.173494D+00
     13  0.759516D-01 -0.199163D-02  0.844042D+00
     14 -0.206751D+00  0.199352D-02  0.249550D-01  0.760622D+00
     15  0.380059D-02 -0.927930D-01 -0.639574D-02 -0.180165D-01  0.185037D+00
     16 -0.170341D-01  0.101853D-02 -0.260114D+00 -0.114404D+00  0.674806D-02
     17  0.223742D-01 -0.704597D-04 -0.115621D+00 -0.196895D+00  0.603243D-02
     18 -0.155710D-02  0.235720D-01  0.721196D-02  0.699615D-02 -0.715317D-01
     19  0.101833D+00  0.732793D-02  0.767316D-02  0.241760D-01  0.167749D-02
     20 -0.276276D+00 -0.992660D-02  0.436636D-02  0.137279D-01 -0.449645D-03
     21 -0.134876D-01 -0.693068D-01  0.197513D-03  0.117430D-02  0.264990D-01
     22  0.209302D-05  0.198006D-03  0.738570D-05 -0.699659D-05 -0.257822D-03
     23  0.000000D+00  0.175577D-04 -0.105123D-04  0.995850D-05  0.366968D-03
     24  0.505501D-04  0.478221D-02 -0.206871D-03  0.195972D-03  0.722152D-02
     25  0.113070D-04  0.408658D-03  0.186875D-01  0.307654D-03 -0.527920D-03
     26  0.323952D-05  0.117083D-03  0.230429D-01  0.332104D-03 -0.236107D-02
     27  0.110185D-03  0.398231D-02 -0.167571D-02  0.463357D-03  0.178151D-01
               16            17            18            19            20 
     16  0.248328D+00
     17  0.131138D+00  0.174847D+00
     18 -0.762825D-02 -0.670953D-02  0.374896D-01
     19  0.198274D-05  0.118155D-04  0.267317D-03  0.137642D+00
     20  0.479696D-05  0.285859D-04  0.646735D-03 -0.112211D+00  0.270467D+00
     21 -0.690684D-04 -0.411590D-03 -0.931193D-02 -0.769970D-02  0.113992D-01
     22  0.000000D+00  0.000000D+00  0.000000D+00  0.000000D+00  0.000000D+00
     23  0.000000D+00  0.000000D+00  0.000000D+00  0.000000D+00  0.000000D+00
     24  0.000000D+00  0.000000D+00  0.000000D+00  0.000000D+00  0.000000D+00
     25 -0.120697D-04 -0.171145D-04 -0.611855D-03  0.000000D+00  0.000000D+00
     26 -0.345805D-05 -0.490339D-05 -0.175300D-03  0.000000D+00  0.000000D+00
     27 -0.117618D-03 -0.166778D-03 -0.596244D-02  0.000000D+00  0.000000D+00
               21            22            23            24            25 
     21  0.375678D-01
     22  0.000000D+00  0.164796D+00
     23  0.000000D+00  0.138160D+00  0.306314D+00
     24  0.000000D+00 -0.482000D-02 -0.703956D-02  0.464729D-01
     25  0.000000D+00  0.247169D-05 -0.351805D-05 -0.692314D-04  0.281491D+00
     26  0.000000D+00 -0.369691D-04  0.526195D-04  0.103549D-02 -0.162315D+00
     27  0.000000D+00  0.415545D-03 -0.591460D-03 -0.116393D-01 -0.180377D-01
               26            27 
     26  0.215427D+00
     27  0.135290D-01  0.454410D-01
 Leave Link  716 at Tue Dec 15 16:25:37 2015, MaxMem=    33554432 cpu:         0.0
 (Enter /home/Applications/g09/g09/l103.exe)

 GradGradGradGradGradGradGradGradGradGradGradGradGradGradGradGradGradGrad
 Berny optimization.
 Search for a local minimum.
 Step number   1 out of a maximum of    2
 All quantities printed in internal units (Hartrees-Bohrs-Radians)
 Second derivative matrix not updated -- first step.
 ITU=  0
     Eigenvalues ---    0.01655   0.02925   0.07006   0.07486   0.07834
     Eigenvalues ---    0.08102   0.12688   0.13825   0.16231   0.23752
     Eigenvalues ---    0.25454   0.29767   0.37794   0.44751   0.62029
     Eigenvalues ---    0.84596   1.02746   1.29395   1.37349   1.45203
     Eigenvalues ---    1.59580
 Quadratic step=4.121D-01 exceeds max=3.000D-01 adjusted using Lamda=-7.255D-02.
 Angle between NR and scaled steps=  11.34 degrees.
 Angle between quadratic step and forces=  35.00 degrees.
 Linear search not attempted -- first point.
 TrRot= -0.016909  0.009414 -0.000321 -0.725600  0.000913  0.723310
 Variable       Old X    -DE/DX   Delta X   Delta X   Delta X     New X
                                 (Linear)    (Quad)   (Total)
    X1        1.89915   0.04021   0.00000   0.06560   0.04571   1.94486
    Y1       -1.37418   0.06595   0.00000   0.05674   0.06163  -1.31255
    Z1        0.07865  -0.00824   0.00000  -0.02763  -0.03009   0.04855
    X2       -0.57351  -0.03692   0.00000  -0.06641  -0.08810  -0.66161
    Y2       -2.11095  -0.02348   0.00000   0.00765   0.01850  -2.09244
    Z2        0.02781   0.00539   0.00000   0.01818   0.01703   0.04483
    X3       -2.13103  -0.07189   0.00000  -0.16676  -0.18369  -2.31472
    Y3       -0.07374   0.03479   0.00000   0.03686   0.05149  -0.02225
    Z3        0.08482  -0.00086   0.00000  -0.01017  -0.00894   0.07588
    X4       -0.65063  -0.02309   0.00000  -0.00297  -0.01503  -0.66566
    Y4        2.14976   0.00713   0.00000  -0.03576  -0.02485   2.12491
    Z4       -0.01334   0.00559   0.00000   0.01832   0.01973   0.00639
    X5        1.85211   0.05856   0.00000   0.09346   0.07964   1.93174
    Y5        1.35427  -0.02100   0.00000  -0.00701  -0.00206   1.35221
    Z5        0.00326   0.00007   0.00000   0.00013  -0.00070   0.00255
    X6        3.49240  -0.00001   0.00000   0.06984   0.05883   3.55123
    Y6        2.59840  -0.00306   0.00000  -0.00157  -0.00028   2.59812
    Z6       -0.06390   0.00075   0.00000   0.00559   0.00440  -0.05950
    X7       -1.68095   0.00551   0.00000   0.02842   0.02050  -1.66045
    Y7        3.95605  -0.01395   0.00000  -0.05454  -0.04139   3.91465
    Z7        0.08253  -0.00275   0.00000  -0.01212  -0.00896   0.07358
    X8       -1.61384  -0.00794   0.00000  -0.00728  -0.03307  -1.64692
    Y8       -3.81246  -0.02812   0.00000  -0.09438  -0.08129  -3.89375
    Z8        0.07713  -0.00158   0.00000   0.00504   0.00347   0.08060
    X9        3.41598   0.03557   0.00000   0.13811   0.11523   3.53120
    Y9       -2.61298  -0.01827   0.00000   0.01695   0.01826  -2.59472
    Z9       -0.04058   0.00163   0.00000   0.00840   0.00408  -0.03651
         Item               Value     Threshold  Converged?
 Maximum Force            0.071886     0.000450     NO 
 RMS     Force            0.028247     0.000300     NO 
 Maximum Displacement     0.183694     0.001800     NO 
 RMS     Displacement     0.056528     0.001200     NO 
 Predicted change in Energy=-2.130188D-02
 GradGradGradGradGradGradGradGradGradGradGradGradGradGradGradGradGradGrad

 Leave Link  103 at Tue Dec 15 16:25:37 2015, MaxMem=    33554432 cpu:         0.0
 (Enter /home/Applications/g09/g09/l9999.exe)
 1\1\GINC-DUSTIN-DESKTOP\Force\RAM1-FC\STO-3G\C4H4O1\DUSTIN\15-Dec-2015
 \0\\#P AM1(Input,print) CIS(Singlets,NStates=15) pop(full) force\\AM1-
 Reparam Input\\0,1\C,1.004989,-0.727185,0.041619\C,-0.303488,-1.117066
 ,0.014716\O,-1.127692,-0.039024,0.044884\C,-0.344296,1.137604,-0.00705
 9\C,0.980092,0.716651,0.001724\H,1.848098,1.375014,-0.033814\H,-0.8895
 19,2.093449,0.043675\H,-0.854009,-2.017467,0.040816\H,1.807657,-1.3827
 28,-0.021476\\Version=ES64L-G09RevD.01\State=1-A\HF=0.012942\RMSD=9.20
 7e-09\RMSF=2.825e-02\Dipole=0.2218885,-0.0138679,-0.000987\PG=C01 [X(C
 4H4O1)]\\@


 ... A MOLECULAR SYSTEM ... (PASSES) ... FROM ONE STATE OF EQUILIBRIUM 
 TO ANOTHER ... BY MEANS OF ALL POSSIBLE INTERMEDIATE PATHS, 
 BUT THE PATH MOST ECONOMICAL OF ENERGY WILL BE THE MORE OFTEN TRAVELED.

                      -- HENRY EYRING, 1945
 Job cpu time:       0 days  0 hours  0 minutes  0.6 seconds.
 File lengths (MBytes):  RWF=      7 Int=      0 D2E=      0 Chk=      2 Scr=      1
 Normal termination of Gaussian 09 at Tue Dec 15 16:25:37 2015.
