 Entering Gaussian System, Link 0=g09
 Input=FuranAM1_76P3.com
 Output=FuranAM1_76P3.log
 Initial command:
 /home/Applications/g09/g09/l1.exe "/home/Applications/g09/scratch/Gau-11784.inp" -scrdir="/home/Applications/g09/scratch/"
 Entering Link 1 = /home/Applications/g09/g09/l1.exe PID=     11790.
  
 Copyright (c) 1988,1990,1992,1993,1995,1998,2003,2009,2013,
            Gaussian, Inc.  All Rights Reserved.
  
 This is part of the Gaussian(R) 09 program.  It is based on
 the Gaussian(R) 03 system (copyright 2003, Gaussian, Inc.),
 the Gaussian(R) 98 system (copyright 1998, Gaussian, Inc.),
 the Gaussian(R) 94 system (copyright 1995, Gaussian, Inc.),
 the Gaussian 92(TM) system (copyright 1992, Gaussian, Inc.),
 the Gaussian 90(TM) system (copyright 1990, Gaussian, Inc.),
 the Gaussian 88(TM) system (copyright 1988, Gaussian, Inc.),
 the Gaussian 86(TM) system (copyright 1986, Carnegie Mellon
 University), and the Gaussian 82(TM) system (copyright 1983,
 Carnegie Mellon University). Gaussian is a federally registered
 trademark of Gaussian, Inc.
  
 This software contains proprietary and confidential information,
 including trade secrets, belonging to Gaussian, Inc.
  
 This software is provided under written license and may be
 used, copied, transmitted, or stored only in accord with that
 written license.
  
 The following legend is applicable only to US Government
 contracts under FAR:
  
                    RESTRICTED RIGHTS LEGEND
  
 Use, reproduction and disclosure by the US Government is
 subject to restrictions as set forth in subparagraphs (a)
 and (c) of the Commercial Computer Software - Restricted
 Rights clause in FAR 52.227-19.
  
 Gaussian, Inc.
 340 Quinnipiac St., Bldg. 40, Wallingford CT 06492
  
  
 ---------------------------------------------------------------
 Warning -- This program may not be used in any manner that
 competes with the business of Gaussian, Inc. or will provide
 assistance to any competitor of Gaussian, Inc.  The licensee
 of this program is prohibited from giving any competitor of
 Gaussian, Inc. access to this program.  By using this program,
 the user acknowledges that Gaussian, Inc. is engaged in the
 business of creating and licensing software in the field of
 computational chemistry and represents and warrants to the
 licensee that it is not a competitor of Gaussian, Inc. and that
 it will not use this program in any manner prohibited above.
 ---------------------------------------------------------------
  

 Cite this work as:
 Gaussian 09, Revision D.01,
 M. J. Frisch, G. W. Trucks, H. B. Schlegel, G. E. Scuseria, 
 M. A. Robb, J. R. Cheeseman, G. Scalmani, V. Barone, B. Mennucci, 
 G. A. Petersson, H. Nakatsuji, M. Caricato, X. Li, H. P. Hratchian, 
 A. F. Izmaylov, J. Bloino, G. Zheng, J. L. Sonnenberg, M. Hada, 
 M. Ehara, K. Toyota, R. Fukuda, J. Hasegawa, M. Ishida, T. Nakajima, 
 Y. Honda, O. Kitao, H. Nakai, T. Vreven, J. A. Montgomery, Jr., 
 J. E. Peralta, F. Ogliaro, M. Bearpark, J. J. Heyd, E. Brothers, 
 K. N. Kudin, V. N. Staroverov, T. Keith, R. Kobayashi, J. Normand, 
 K. Raghavachari, A. Rendell, J. C. Burant, S. S. Iyengar, J. Tomasi, 
 M. Cossi, N. Rega, J. M. Millam, M. Klene, J. E. Knox, J. B. Cross, 
 V. Bakken, C. Adamo, J. Jaramillo, R. Gomperts, R. E. Stratmann, 
 O. Yazyev, A. J. Austin, R. Cammi, C. Pomelli, J. W. Ochterski, 
 R. L. Martin, K. Morokuma, V. G. Zakrzewski, G. A. Voth, 
 P. Salvador, J. J. Dannenberg, S. Dapprich, A. D. Daniels, 
 O. Farkas, J. B. Foresman, J. V. Ortiz, J. Cioslowski, 
 and D. J. Fox, Gaussian, Inc., Wallingford CT, 2013.
 
 ******************************************
 Gaussian 09:  ES64L-G09RevD.01 24-Apr-2013
                15-Dec-2015 
 ******************************************
 ------------------------------------------------------------
 #P AM1(Input,print) CIS(Singlets,NStates=15) pop(full) force
 ------------------------------------------------------------
 1/10=7,30=1,38=1/1,3;
 2/12=2,17=6,18=5,40=1/2;
 3/5=2,16=1,25=1,41=700000,71=1,135=100,136=1/1,2,8,3;
 4/35=1/1;
 5/5=2,35=1,38=5/2;
 8/6=1,10=1,108=15/1;
 9/15=2,41=15,42=1,48=1,49=10/14;
 10/5=4/2;
 6/7=3,18=1/1;
 7/12=6,13=5,29=1/1,2,3,16;
 1/10=7,30=1/3;
 99//99;
 Leave Link    1 at Tue Dec 15 17:10:05 2015, MaxMem=           0 cpu:         0.0
 (Enter /home/Applications/g09/g09/l101.exe)
 -----------------
 AM1-Reparam Input
 -----------------
 Symbolic Z-matrix:
 Charge =  0 Multiplicity = 1
 6                     0.91092  -0.7173    0.0341 
 6                    -0.36884  -1.05804  -0.04128 
 8                    -1.13316   0.00124   0.04578 
 6                    -0.34275   1.08602  -0.04042 
 6                     0.99663   0.666    -0.02814 
 1                     1.82951   1.41273   0.01583 
 1                    -0.85048   2.03014   0.00382 
 1                    -0.79427  -2.08028   0.02945 
 1                     1.768    -1.39982  -0.02718 
 
 NAtoms=      9 NQM=        9 NQMF=       0 NMMI=      0 NMMIF=      0
                NMic=       0 NMicF=      0.
                    Isotopes and Nuclear Properties:
 (Nuclear quadrupole moments (NQMom) in fm**2, nuclear magnetic moments (NMagM)
  in nuclear magnetons)

  Atom         1           2           3           4           5           6           7           8           9
 IAtWgt=          12          12          16          12          12           1           1           1           1
 AtmWgt=  12.0000000  12.0000000  15.9949146  12.0000000  12.0000000   1.0078250   1.0078250   1.0078250   1.0078250
 NucSpn=           0           0           0           0           0           1           1           1           1
 AtZEff=   0.0000000   0.0000000   0.0000000   0.0000000   0.0000000   0.0000000   0.0000000   0.0000000   0.0000000
 NQMom=    0.0000000   0.0000000   0.0000000   0.0000000   0.0000000   0.0000000   0.0000000   0.0000000   0.0000000
 NMagM=    0.0000000   0.0000000   0.0000000   0.0000000   0.0000000   2.7928460   2.7928460   2.7928460   2.7928460
 AtZNuc=   6.0000000   6.0000000   8.0000000   6.0000000   6.0000000   1.0000000   1.0000000   1.0000000   1.0000000
 Leave Link  101 at Tue Dec 15 17:10:05 2015, MaxMem=    33554432 cpu:         0.0
 (Enter /home/Applications/g09/g09/l103.exe)

 GradGradGradGradGradGradGradGradGradGradGradGradGradGradGradGradGradGrad
 Berny optimization.
 Initialization pass.
 Trust Radius=3.00D-01 FncErr=1.00D-07 GrdErr=1.00D-07
 Number of steps in this run=      2 maximum allowed number of steps=      2.
 GradGradGradGradGradGradGradGradGradGradGradGradGradGradGradGradGradGrad

 Leave Link  103 at Tue Dec 15 17:10:05 2015, MaxMem=    33554432 cpu:         0.0
 (Enter /home/Applications/g09/g09/l202.exe)
                          Input orientation:                          
 ---------------------------------------------------------------------
 Center     Atomic      Atomic             Coordinates (Angstroms)
 Number     Number       Type             X           Y           Z
 ---------------------------------------------------------------------
      1          6           0        0.910916   -0.717304    0.034102
      2          6           0       -0.368838   -1.058036   -0.041280
      3          8           0       -1.133165    0.001242    0.045775
      4          6           0       -0.342753    1.086022   -0.040420
      5          6           0        0.996627    0.666001   -0.028135
      6          1           0        1.829514    1.412725    0.015832
      7          1           0       -0.850481    2.030136    0.003822
      8          1           0       -0.794274   -2.080281    0.029453
      9          1           0        1.767995   -1.399817   -0.027176
 ---------------------------------------------------------------------
                    Distance matrix (angstroms):
                    1          2          3          4          5
     1  C    0.000000
     2  C    1.326481   0.000000
     3  O    2.166728   1.309139   0.000000
     4  C    2.197550   2.144217   1.344964   0.000000
     5  C    1.387355   2.199311   2.232349   1.403748   0.000000
     6  H    2.319737   3.307669   3.281866   2.197417   1.119478
     7  H    3.263719   3.125831   2.048922   1.072892   2.296452
     8  H    2.182980   1.109497   2.108993   3.199098   3.279132
     9  H    1.097344   2.164040   3.222579   3.261108   2.205133
                    6          7          8          9
     6  H    0.000000
     7  H    2.750221   0.000000
     8  H    4.368700   4.110881   0.000000
     9  H    2.813543   4.315316   2.651690   0.000000
 Stoichiometry    C4H4O
 Framework group  C1[X(C4H4O)]
 Deg. of freedom    21
 Full point group                 C1      NOp   1
 Largest Abelian subgroup         C1      NOp   1
 Largest concise Abelian subgroup C1      NOp   1
                         Standard orientation:                         
 ---------------------------------------------------------------------
 Center     Atomic      Atomic             Coordinates (Angstroms)
 Number     Number       Type             X           Y           Z
 ---------------------------------------------------------------------
      1          6           0       -0.580822    0.998465   -0.038253
      2          6           0       -1.094022   -0.221458    0.050986
      3          8           0       -0.151048   -1.125212   -0.037750
      4          6           0        1.033067   -0.491337    0.032976
      5          6           0        0.801596    0.893040    0.012313
      6          1           0        1.655578    1.614624   -0.044816
      7          1           0        1.897739   -1.124745   -0.014281
      8          1           0       -2.165750   -0.502364   -0.007960
      9          1           0       -1.138090    1.941924    0.020924
 ---------------------------------------------------------------------
 Rotational constants (GHZ):      9.7925020      9.4534143      4.8181385
 Leave Link  202 at Tue Dec 15 17:10:05 2015, MaxMem=    33554432 cpu:         0.0
 (Enter /home/Applications/g09/g09/l301.exe)

 Semi-emprical parameters in input format:
 Method=8 CoreType=1 PeptideFC=0.0111590000 RIJScale=0.5404210000
 ****
 H       
 PQN=1 NValence=1 F0ss=0.4980120000 ZetaOverlap=1.0856700000 U=-0.4186260000
 Beta=-0.2131800000 CoreKO=1.0354420000 KON=0,0,0,1.0458670000 KON=1,0,1,1.0874690000
 KON=0,1,1,1.0589200000 KON=2,1,1,1.0697690000 EISol=-0.4188110042 EHeat=0.0830298228
 Alpha=1.5760740000
 GCore=0.0085280000,1.5127750000,2.2676710000
 GCore=0.0003530000,1.4650900000,3.4779940000
 GCore=-0.0013010000,0.5600570000,3.4989800000
 ****
 C       
 PQN=2,2 NValence=4 F0ss=0.4494440000 F0sp=0.4215150000 F0pp=0.3497590000 F2pp=0.1893390000
 G1sp=0.2701540000
 ZetaOverlap=1.8086650000,1.2572800000
 U=-1.7687090000,-1.4557970000
 Beta=-0.5485840000,-0.3063130000 DDN=0,1,0.7474020000 DDN=1,1,0.7268010000
 CoreKO=1.1124280000 KON=0,0,0,1.0105550000 KON=1,0,1,0.8646190000 KON=0,1,1,1.1012040000
 KON=2,1,1,0.8516400000 EISol=-4.4398989268 EHeat=0.2723305520 Alpha=1.2756240000
 DipHyp=1.4947180026
 GCore=0.0007890000,1.3361580000,2.6678360000
 GCore=0.0029040000,1.4001430000,3.2840710000
 GCore=-0.0015090000,1.2510850000,3.8739390000
 GCore=-0.0000850000,1.4001430000,4.6744780000
 ****
 O       
 PQN=2,2 NValence=6 F0ss=0.5596260000 F0sp=0.5321300000 F0pp=0.4845010000 F2pp=0.2543430000
 G1sp=0.4559390000
 ZetaOverlap=2.6354490000,2.4967270000
 U=-3.5951870000,-2.0345890000
 Beta=-1.1573400000,-1.2994290000 DDN=0,1,0.4953610000 DDN=1,1,0.4867620000
 CoreKO=0.8822960000 KON=0,0,0,0.8822960000 KON=1,0,1,0.5019540000 KON=0,1,1,0.8682050000
 KON=2,1,1,0.5515580000 EISol=-11.6164441184 EHeat=0.0949133088 Alpha=2.4031680000
 DipHyp=0.9906650029
 GCore=0.0205230000,1.4001430000,1.6023330000
 GCore=0.0056550000,1.9602000000,2.7307880000
 ****
 
 Standard basis: VSTO-6G (5D, 7F)
 Ernie: Thresh=  0.10000D-02 Tol=  0.10000D-05 Strict=F.
  NNHCO=     0 NNPyr=     0 NCTC=     0               EPep=         0.000000000
    EC=        69.335407860  ECS=         2.460101862   EG=         0.382239456
   EHC=         0.000000000  EAt=       -31.051283842  AtH=         1.516354808
 EPDDG=         0.000000000  ECC=        72.177749177 EAtT=        32.567638650
 There are    24 symmetry adapted cartesian basis functions of A   symmetry.
 There are    24 symmetry adapted basis functions of A   symmetry.
    24 basis functions,   144 primitive gaussians,    24 cartesian basis functions
    13 alpha electrons       13 beta electrons
       nuclear repulsion energy       104.7453878278 Hartrees.
 IExCor=    0 DFT=F Ex=HF Corr=None ExCW=0 ScaHFX=  1.000000
 ScaDFX=  1.000000  1.000000  1.000000  1.000000 ScalE2=  1.000000  1.000000
 IRadAn=      0 IRanWt=     -1 IRanGd=            0 ICorTp=0 IEmpDi=  4
 Integral buffers will be    131072 words long.
 Regular integral format.
 Two-electron integral symmetry is turned off.
 Leave Link  301 at Tue Dec 15 17:10:05 2015, MaxMem=    33554432 cpu:         0.0
 (Enter /home/Applications/g09/g09/l302.exe)
 Do NDO integrals.
 NPDir=0 NMtPBC=     1 NCelOv=     1 NCel=       1 NClECP=     1 NCelD=      1
         NCelK=      1 NCelE2=     1 NClLst=     1 CellRange=     0.0.
 One-electron integrals computed using PRISM.
 NBasis=    24 RedAO= F EigKep=  0.00D+00  NBF=    24
 NBsUse=    24 1.00D-04 EigRej=  0.00D+00 NBFU=    24
 Leave Link  302 at Tue Dec 15 17:10:05 2015, MaxMem=    33554432 cpu:         0.0
 (Enter /home/Applications/g09/g09/l308.exe)
 Leave Link  308 at Tue Dec 15 17:10:05 2015, MaxMem=    33554432 cpu:         0.0
 (Enter /home/Applications/g09/g09/l303.exe)
 DipDrv:  MaxL=1.
 Leave Link  303 at Tue Dec 15 17:10:05 2015, MaxMem=    33554432 cpu:         0.0
 (Enter /home/Applications/g09/g09/l401.exe)
 Simple Huckel Guess.
 JPrj=0 DoOrth=F DoCkMO=F.
 Leave Link  401 at Tue Dec 15 17:10:05 2015, MaxMem=    33554432 cpu:         0.0
 (Enter /home/Applications/g09/g09/l502.exe)
 Closed shell SCF:
 Using DIIS extrapolation, IDIIS=  1040.
 Overlap will be assumed to be unity.
 Two-electron integral symmetry not used.
 Keep J ints in memory in canonical form, NReq=888082.
 IVT=       79475 IEndB=       79475 NGot=    33554432 MDV=    33473473
 LenX=    33473473 LenY=    33472456
 Requested convergence on RMS density matrix=1.00D-08 within 128 cycles.
 Requested convergence on MAX density matrix=1.00D-06.
 Requested convergence on             energy=1.00D-06.
 No special actions if energy rises.
 FoFCou: FMM=F IPFlag=           0 FMFlag=           0 FMFlg1=           0
         NFxFlg=           0 DoJE=F BraDBF=F KetDBF=F FulRan=T
         wScrn=  0.000000 ICntrl=     600 IOpCl=  2 I1Cent=           0 NGrid=           0
         NMat0=    1 NMatS0=     54 NMatT0=    0 NMatD0=    1 NMtDS0=    0 NMtDT0=    0
 Symmetry not used in FoFCou.

 Cycle   1  Pass 1  IDiag  1:
 E=  4.00432695943560    
 DIIS: error= 1.15D-01 at cycle   1 NSaved=   1.
 NSaved= 1 IEnMin= 1 EnMin=  4.00432695943560     IErMin= 1 ErrMin= 1.15D-01
 ErrMax= 1.15D-01  0.00D+00 EMaxC= 1.00D-01 BMatC= 4.52D-01 BMatP= 4.52D-01
 IDIUse=3 WtCom= 0.00D+00 WtEn= 1.00D+00
 Coeff-Com:  0.100D+01
 Coeff-En:   0.100D+01
 Coeff:      0.100D+01
 GapD=    2.000 DampG=2.000 DampE=0.250 DampFc=0.5000 IDamp=-1.
 Damping current iteration by 5.00D-01
 RMSDP=6.13D-02 MaxDP=6.41D-01              OVMax= 0.00D+00

 Cycle   2  Pass 1  IDiag  1:
 E=  3.10967605375640     Delta-E=       -0.894650905679 Rises=F Damp=T
 DIIS: error= 6.96D-02 at cycle   2 NSaved=   2.
 NSaved= 2 IEnMin= 2 EnMin=  3.10967605375640     IErMin= 2 ErrMin= 6.96D-02
 ErrMax= 6.96D-02  0.00D+00 EMaxC= 1.00D-01 BMatC= 1.72D-01 BMatP= 4.52D-01
 IDIUse=3 WtCom= 3.04D-01 WtEn= 6.96D-01
 Coeff-Com: -0.129D+01 0.229D+01
 Coeff-En:   0.000D+00 0.100D+01
 Coeff:     -0.392D+00 0.139D+01
 RMSDP=3.72D-02 MaxDP=3.85D-01 DE=-8.95D-01 OVMax= 0.00D+00

 Cycle   3  Pass 1  IDiag  1:
 E=  1.89047788859332     Delta-E=       -1.219198165163 Rises=F Damp=F
 DIIS: error= 1.64D-02 at cycle   3 NSaved=   3.
 NSaved= 3 IEnMin= 3 EnMin=  1.89047788859332     IErMin= 3 ErrMin= 1.64D-02
 ErrMax= 1.64D-02  0.00D+00 EMaxC= 1.00D-01 BMatC= 1.27D-02 BMatP= 1.72D-01
 IDIUse=3 WtCom= 8.36D-01 WtEn= 1.64D-01
 Coeff-Com:  0.413D+00-0.907D+00 0.149D+01
 Coeff-En:   0.000D+00 0.000D+00 0.100D+01
 Coeff:      0.345D+00-0.758D+00 0.141D+01
 RMSDP=1.09D-02 MaxDP=5.74D-02 DE=-1.22D+00 OVMax= 0.00D+00

 Cycle   4  Pass 1  IDiag  3:
 E=  1.84023546817109     Delta-E=       -0.050242420422 Rises=F Damp=F
 DIIS: error= 3.90D-03 at cycle   4 NSaved=   4.
 NSaved= 4 IEnMin= 4 EnMin=  1.84023546817109     IErMin= 4 ErrMin= 3.90D-03
 ErrMax= 3.90D-03  0.00D+00 EMaxC= 1.00D-01 BMatC= 9.20D-04 BMatP= 1.27D-02
 IDIUse=3 WtCom= 9.61D-01 WtEn= 3.90D-02
 Coeff-Com: -0.761D-01 0.155D+00-0.458D+00 0.138D+01
 Coeff-En:   0.000D+00 0.000D+00 0.000D+00 0.100D+01
 Coeff:     -0.731D-01 0.149D+00-0.440D+00 0.136D+01
 Gap=     0.429 Goal=   None    Shift=    0.000
 RMSDP=3.66D-03 MaxDP=2.00D-02 DE=-5.02D-02 OVMax= 3.27D-02

 Cycle   5  Pass 1  IDiag  3:
 E=  1.83606339907351     Delta-E=       -0.004172069098 Rises=F Damp=F
 DIIS: error= 9.77D-04 at cycle   5 NSaved=   5.
 NSaved= 5 IEnMin= 5 EnMin=  1.83606339907351     IErMin= 5 ErrMin= 9.77D-04
 ErrMax= 9.77D-04  0.00D+00 EMaxC= 1.00D-01 BMatC= 3.59D-05 BMatP= 9.20D-04
 IDIUse=3 WtCom= 9.90D-01 WtEn= 9.77D-03
 Coeff-Com:  0.253D-01-0.488D-01 0.142D+00-0.556D+00 0.144D+01
 Coeff-En:   0.000D+00 0.000D+00 0.000D+00 0.000D+00 0.100D+01
 Coeff:      0.251D-01-0.483D-01 0.140D+00-0.551D+00 0.143D+01
 Gap=     0.430 Goal=   None    Shift=    0.000
 RMSDP=8.16D-04 MaxDP=4.86D-03 DE=-4.17D-03 OVMax= 5.42D-03

 Cycle   6  Pass 1  IDiag  3:
 E=  1.83587592013923     Delta-E=       -0.000187478934 Rises=F Damp=F
 DIIS: error= 1.99D-04 at cycle   6 NSaved=   6.
 NSaved= 6 IEnMin= 6 EnMin=  1.83587592013923     IErMin= 6 ErrMin= 1.99D-04
 ErrMax= 1.99D-04  0.00D+00 EMaxC= 1.00D-01 BMatC= 1.40D-06 BMatP= 3.59D-05
 IDIUse=3 WtCom= 9.98D-01 WtEn= 1.99D-03
 Coeff-Com: -0.204D-02 0.422D-02-0.190D-01 0.952D-01-0.429D+00 0.135D+01
 Coeff-En:   0.000D+00 0.000D+00 0.000D+00 0.000D+00 0.000D+00 0.100D+01
 Coeff:     -0.204D-02 0.421D-02-0.190D-01 0.950D-01-0.429D+00 0.135D+01
 Gap=     0.430 Goal=   None    Shift=    0.000
 RMSDP=1.65D-04 MaxDP=1.29D-03 DE=-1.87D-04 OVMax= 1.03D-03

 Cycle   7  Pass 1  IDiag  3:
 E=  1.83586908287757     Delta-E=       -0.000006837262 Rises=F Damp=F
 DIIS: error= 2.95D-05 at cycle   7 NSaved=   7.
 NSaved= 7 IEnMin= 7 EnMin=  1.83586908287757     IErMin= 7 ErrMin= 2.95D-05
 ErrMax= 2.95D-05  0.00D+00 EMaxC= 1.00D-01 BMatC= 3.76D-08 BMatP= 1.40D-06
 IDIUse=1 WtCom= 1.00D+00 WtEn= 0.00D+00
 Coeff-Com:  0.956D-04-0.295D-03 0.447D-02-0.272D-01 0.152D+00-0.581D+00
 Coeff-Com:  0.145D+01
 Coeff:      0.956D-04-0.295D-03 0.447D-02-0.272D-01 0.152D+00-0.581D+00
 Coeff:      0.145D+01
 Gap=     0.430 Goal=   None    Shift=    0.000
 RMSDP=2.46D-05 MaxDP=1.71D-04 DE=-6.84D-06 OVMax= 1.99D-04

 Cycle   8  Pass 1  IDiag  3:
 E=  1.83586890990721     Delta-E=       -0.000000172970 Rises=F Damp=F
 DIIS: error= 6.09D-06 at cycle   8 NSaved=   8.
 NSaved= 8 IEnMin= 8 EnMin=  1.83586890990721     IErMin= 8 ErrMin= 6.09D-06
 ErrMax= 6.09D-06  0.00D+00 EMaxC= 1.00D-01 BMatC= 1.12D-09 BMatP= 3.76D-08
 IDIUse=1 WtCom= 1.00D+00 WtEn= 0.00D+00
 Coeff-Com:  0.201D-05 0.256D-05-0.103D-02 0.743D-02-0.478D-01 0.195D+00
 Coeff-Com: -0.572D+00 0.142D+01
 Coeff:      0.201D-05 0.256D-05-0.103D-02 0.743D-02-0.478D-01 0.195D+00
 Coeff:     -0.572D+00 0.142D+01
 Gap=     0.430 Goal=   None    Shift=    0.000
 RMSDP=4.37D-06 MaxDP=3.41D-05 DE=-1.73D-07 OVMax= 2.95D-05

 Cycle   9  Pass 1  IDiag  3:
 E=  1.83586890417240     Delta-E=       -0.000000005735 Rises=F Damp=F
 DIIS: error= 1.77D-06 at cycle   9 NSaved=   9.
 NSaved= 9 IEnMin= 9 EnMin=  1.83586890417240     IErMin= 9 ErrMin= 1.77D-06
 ErrMax= 1.77D-06  0.00D+00 EMaxC= 1.00D-01 BMatC= 9.03D-11 BMatP= 1.12D-09
 IDIUse=1 WtCom= 1.00D+00 WtEn= 0.00D+00
 Coeff-Com:  0.944D-05-0.124D-04 0.371D-03-0.280D-02 0.194D-01-0.811D-01
 Coeff-Com:  0.243D+00-0.748D+00 0.157D+01
 Coeff:      0.944D-05-0.124D-04 0.371D-03-0.280D-02 0.194D-01-0.811D-01
 Coeff:      0.243D+00-0.748D+00 0.157D+01
 Gap=     0.430 Goal=   None    Shift=    0.000
 RMSDP=1.52D-06 MaxDP=1.17D-05 DE=-5.73D-09 OVMax= 1.36D-05

 Cycle  10  Pass 1  IDiag  3:
 E=  1.83586890358809     Delta-E=       -0.000000000584 Rises=F Damp=F
 DIIS: error= 4.47D-07 at cycle  10 NSaved=  10.
 NSaved=10 IEnMin=10 EnMin=  1.83586890358809     IErMin=10 ErrMin= 4.47D-07
 ErrMax= 4.47D-07  0.00D+00 EMaxC= 1.00D-01 BMatC= 7.65D-12 BMatP= 9.03D-11
 IDIUse=1 WtCom= 1.00D+00 WtEn= 0.00D+00
 Coeff-Com: -0.278D-05 0.240D-05-0.119D-03 0.927D-03-0.666D-02 0.278D-01
 Coeff-Com: -0.832D-01 0.263D+00-0.800D+00 0.160D+01
 Coeff:     -0.278D-05 0.240D-05-0.119D-03 0.927D-03-0.666D-02 0.278D-01
 Coeff:     -0.832D-01 0.263D+00-0.800D+00 0.160D+01
 Gap=     0.430 Goal=   None    Shift=    0.000
 RMSDP=5.42D-07 MaxDP=4.71D-06 DE=-5.84D-10 OVMax= 5.04D-06

 Cycle  11  Pass 1  IDiag  3:
 E=  1.83586890353496     Delta-E=       -0.000000000053 Rises=F Damp=F
 DIIS: error= 8.14D-08 at cycle  11 NSaved=  11.
 NSaved=11 IEnMin=11 EnMin=  1.83586890353496     IErMin=11 ErrMin= 8.14D-08
 ErrMax= 8.14D-08  0.00D+00 EMaxC= 1.00D-01 BMatC= 1.99D-13 BMatP= 7.65D-12
 IDIUse=1 WtCom= 1.00D+00 WtEn= 0.00D+00
 Coeff-Com: -0.661D-06 0.146D-05 0.151D-04-0.116D-03 0.838D-03-0.341D-02
 Coeff-Com:  0.101D-01-0.317D-01 0.130D+00-0.408D+00 0.130D+01
 Coeff:     -0.661D-06 0.146D-05 0.151D-04-0.116D-03 0.838D-03-0.341D-02
 Coeff:      0.101D-01-0.317D-01 0.130D+00-0.408D+00 0.130D+01
 Gap=     0.430 Goal=   None    Shift=    0.000
 RMSDP=6.97D-08 MaxDP=5.91D-07 DE=-5.31D-11 OVMax= 5.85D-07

 Cycle  12  Pass 1  IDiag  3:
 E=  1.83586890353386     Delta-E=       -0.000000000001 Rises=F Damp=F
 DIIS: error= 8.15D-09 at cycle  12 NSaved=  12.
 NSaved=12 IEnMin=12 EnMin=  1.83586890353386     IErMin=12 ErrMin= 8.15D-09
 ErrMax= 8.15D-09  0.00D+00 EMaxC= 1.00D-01 BMatC= 5.36D-15 BMatP= 1.99D-13
 IDIUse=1 WtCom= 1.00D+00 WtEn= 0.00D+00
 Coeff-Com: -0.566D-07 0.103D-06-0.202D-05 0.102D-04-0.625D-04 0.205D-03
 Coeff-Com: -0.537D-03 0.151D-02-0.158D-01 0.767D-01-0.369D+00 0.131D+01
 Coeff:     -0.566D-07 0.103D-06-0.202D-05 0.102D-04-0.625D-04 0.205D-03
 Coeff:     -0.537D-03 0.151D-02-0.158D-01 0.767D-01-0.369D+00 0.131D+01
 Gap=     0.430 Goal=   None    Shift=    0.000
 RMSDP=9.29D-09 MaxDP=4.65D-08 DE=-1.09D-12 OVMax= 5.43D-08

 Cycle  13  Pass 2  IDiag  1:
 SCF Done:  E(RAM1) =   1.83586890353     A.U. after   13 cycles
            NFock= 12  Conv=0.93D-08     -V/T= 1.1169
 KE=-1.570408248524D+01 PE=-1.707670480633D+02 EE= 8.356161162426D+01
 Leave Link  502 at Tue Dec 15 17:10:05 2015, MaxMem=    33554432 cpu:         0.0
 (Enter /home/Applications/g09/g09/l801.exe)
 Range of M.O.s used for correlation:     1    24
 NBasis=    24 NAE=    13 NBE=    13 NFC=     0 NFV=     0
 NROrb=     24 NOA=    13 NOB=    13 NVA=    11 NVB=    11
 Leave Link  801 at Tue Dec 15 17:10:05 2015, MaxMem=    33554432 cpu:         0.0
 (Enter /home/Applications/g09/g09/l914.exe)
 RHF ground state
 MDV=    33554432 DFT=F DoStab=F Mixed=F DoRPA=F DoScal=F NonHer=F
 Making orbital integer symmetry assigments:
 Orbital symmetries:
       Occupied  (A) (A) (A) (A) (A) (A) (A) (A) (A) (A) (A) (A)
                 (A)
       Virtual   (A) (A) (A) (A) (A) (A) (A) (A) (A) (A) (A)
    60 initial guesses have been made.
 Convergence on wavefunction:    0.000001000000000
 Davidson Disk Diagonalization:  ConvIn= 1.00D-06 SkipCon=T Conv= 1.00D-06.
 Max sub-space:   240 roots to seek:    60 dimension of matrix:          286
 Iteration     1 Dimension    60 NMult     0 NNew     60
 CISAX will form    60 AO SS matrices at one time.
 NMat=    60 NSing=    60 JSym2X= 0.
 FoFJK:  IHMeth= 8 ICntrl=       0 DoSepK=F KAlg= 0 I1Cent=   0 FoldK=F
 IRaf=         1 NMat= 120 IRICut=       1 DoRegI=T DoRafI=F ISym2E= 0.
 FoFCou: FMM=F IPFlag=           0 FMFlag=      100000 FMFlg1=           0
         NFxFlg=           0 DoJE=F BraDBF=F KetDBF=F FulRan=T
         wScrn=  0.000000 ICntrl=       0 IOpCl=  0 I1Cent=           0 NGrid=           0
         NMat0=  120 NMatS0=     60 NMatT0=    0 NMatD0=  120 NMtDS0=    0 NMtDT0=    0
 Symmetry not used in FoFCou.
 New state      3 was old state      4
 New state      4 was old state      3
 New state      5 was old state      6
 New state      6 was old state      5
 New state      7 was old state      9
 New state      8 was old state      7
 New state      9 was old state     12
 New state     10 was old state      8
 New state     12 was old state     14
 New state     13 was old state     18
 New state     14 was old state     15
 New state     15 was old state     13
 Excitation Energies [eV] at current iteration:
 Root      1 :     5.926058652561217
 Root      2 :     6.635984676814717
 Root      3 :     6.946260598846111
 Root      4 :     6.988761984747532
 Root      5 :     7.639792119317391
 Root      6 :     8.366817117950223
 Root      7 :     8.531214350970314
 Root      8 :     8.951044424716233
 Root      9 :     9.154604771831032
 Root     10 :     9.253189651376438
 Root     11 :     9.302138037254700
 Root     12 :     9.772997722902614
 Root     13 :     9.828314250210980
 Root     14 :    10.022378808495980
 Root     15 :    10.034683051454350
 Root     16 :    10.102467775084100
 Root     17 :    10.310842248374670
 Root     18 :    10.392613053120570
 Root     19 :    10.536318122450480
 Root     20 :    10.833693649370310
 Root     21 :    11.097035343848940
 Root     22 :    11.248843423377500
 Root     23 :    11.594830094951270
 Root     24 :    11.682536431268570
 Root     25 :    11.780849645365630
 Root     26 :    11.830174519493990
 Root     27 :    12.097254805052030
 Root     28 :    12.206137217455930
 Root     29 :    12.250749603739830
 Root     30 :    12.476867091545820
 Root     31 :    12.558634201001950
 Root     32 :    12.774044013925820
 Root     33 :    12.890659713203530
 Root     34 :    12.924689315618660
 Root     35 :    13.027068934615390
 Root     36 :    13.073622469604640
 Root     37 :    13.423071878240190
 Root     38 :    13.776802381327150
 Root     39 :    13.925263006658100
 Root     40 :    14.180065767755160
 Root     41 :    14.413841439042620
 Root     42 :    14.543158575283880
 Root     43 :    14.639831348146390
 Root     44 :    14.800017816483730
 Root     45 :    14.913434585301130
 Root     46 :    15.003150754407210
 Root     47 :    15.414592927561930
 Root     48 :    15.591356349674400
 Root     49 :    15.692932861543310
 Root     50 :    15.735644417832040
 Root     51 :    15.810668454195200
 Root     52 :    15.946196189558750
 Root     53 :    15.971795040725210
 Root     54 :    16.506206684331310
 Root     55 :    16.613955985468270
 Root     56 :    17.047230092111880
 Root     57 :    17.242468136787190
 Root     58 :    17.365012152490260
 Root     59 :    17.621401267214350
 Root     60 :    17.774646989878190
 Iteration     2 Dimension   120 NMult    60 NNew     60
 CISAX will form    60 AO SS matrices at one time.
 NMat=    60 NSing=    60 JSym2X= 0.
 Root      1 not converged, maximum delta is    0.021386829929088
 Root      2 not converged, maximum delta is    0.040210107152174
 Root      3 not converged, maximum delta is    0.149933467448021
 Root      4 not converged, maximum delta is    0.163785886177612
 Root      5 not converged, maximum delta is    0.018119263182860
 Root      6 not converged, maximum delta is    0.045426924726716
 Root      7 not converged, maximum delta is    0.035319514454782
 Root      8 not converged, maximum delta is    0.108686475574293
 New state      9 was old state     11
 Root      9 not converged, maximum delta is    0.336241620850910
 New state     10 was old state      9
 Root     10 not converged, maximum delta is    0.044780835417965
 New state     11 was old state     10
 Root     11 not converged, maximum delta is    0.166297268784597
 Root     12 not converged, maximum delta is    0.097267778937980
 Root     13 not converged, maximum delta is    0.134446842423289
 Root     14 not converged, maximum delta is    0.277541052929447
 New state     15 was old state     16
 Root     15 not converged, maximum delta is    0.251597550654599
 Excitation Energies [eV] at current iteration:
 Root      1 :     5.857714267686967   Change is   -0.068344384874250
 Root      2 :     6.576756403940904   Change is   -0.059228272873813
 Root      3 :     6.913157198286564   Change is   -0.033103400559547
 Root      4 :     6.934732259132054   Change is   -0.054029725615478
 Root      5 :     7.622885083614413   Change is   -0.016907035702978
 Root      6 :     8.296401439973968   Change is   -0.070415677976255
 Root      7 :     8.465033272867307   Change is   -0.066181078103006
 Root      8 :     8.898797647430813   Change is   -0.052246777285420
 Root      9 :     9.027904995332266   Change is   -0.274233041922436
 Root     10 :     9.085545329836371   Change is   -0.069059441994662
 Root     11 :     9.210942493788730   Change is   -0.042247157587709
 Root     12 :     9.686349099825087   Change is   -0.086648623077529
 Root     13 :     9.749681397731271   Change is   -0.078632852479709
 Root     14 :     9.841608623322720   Change is   -0.180770185173255
 Root     15 :     9.959018363408155   Change is   -0.143449411675940
 Root     16 :     9.963735756937389   Change is   -0.070947294516965
 Root     17 :    10.107088468793100   Change is   -0.203753779581560
 Root     18 :    10.243450671819560   Change is   -0.149162381301015
 Root     19 :    10.452457867216740   Change is   -0.083860255233738
 Root     20 :    10.621622641930310   Change is   -0.212071007439998
 Root     21 :    10.949169158491900   Change is   -0.147866185357041
 Root     22 :    11.073684269832980   Change is   -0.175159153544517
 Root     23 :    11.492353582101420   Change is   -0.102476512849843
 Root     24 :    11.611866333680050   Change is   -0.168983311685582
 Root     25 :    11.642876836160420   Change is   -0.039659595108145
 Root     26 :    11.706196606953010   Change is   -0.123977912540983
 Root     27 :    11.856221235641300   Change is   -0.241033569410734
 Root     28 :    12.026248539237120   Change is   -0.179888678218812
 Root     29 :    12.178919826619490   Change is   -0.071829777120342
 Root     30 :    12.369452095098950   Change is   -0.107414996446873
 Root     31 :    12.428473352183190   Change is   -0.130160848818755
 Root     32 :    12.664072951198620   Change is   -0.109971062727201
 Root     33 :    12.710680176884820   Change is   -0.214009138733837
 Root     34 :    12.720169441436500   Change is   -0.170490271767024
 Root     35 :    12.965269547921970   Change is   -0.061799386693417
 Root     36 :    12.977827658471410   Change is   -0.095794811133231
 Root     37 :    13.249965539155210   Change is   -0.173106339084978
 Root     38 :    13.668674595104710   Change is   -0.108127786222437
 Root     39 :    13.754677307693250   Change is   -0.170585698964849
 Root     40 :    14.050114965875410   Change is   -0.129950801879750
 Root     41 :    14.112018500154920   Change is   -0.431140075128965
 Root     42 :    14.355060365872900   Change is   -0.058781073169722
 Root     43 :    14.511705532612280   Change is   -0.128125815534103
 Root     44 :    14.634709884303710   Change is   -0.165307932180024
 Root     45 :    14.740180155941370   Change is   -0.173254429359754
 Root     46 :    14.906250322960070   Change is   -0.096900431447147
 Root     47 :    15.264439807876090   Change is   -0.150153119685837
 Root     48 :    15.450368330581590   Change is   -0.242564530961714
 Root     49 :    15.468663911450770   Change is   -0.122692438223630
 Root     50 :    15.583690609255040   Change is   -0.151953808576998
 Root     51 :    15.598268565245200   Change is   -0.212399888950003
 Root     52 :    15.759417125396830   Change is   -0.186779064161926
 Root     53 :    15.872633755476970   Change is   -0.099161285248238
 Root     54 :    16.371235720076190   Change is   -0.242720265392085
 Root     55 :    16.432642809683340   Change is   -0.073563874647971
 Root     56 :    16.473546449894990
 Root     57 :    16.846072092538740   Change is   -0.201157999573138
 Root     58 :    16.893338526529380   Change is   -0.349129610257810
 Root     59 :    16.978256271314290
 Root     60 :    17.218134879073510   Change is   -0.146877273416745
 Iteration     3 Dimension   135 NMult   120 NNew     15
 CISAX will form    15 AO SS matrices at one time.
 NMat=    15 NSing=    15 JSym2X= 0.
 Root      1 not converged, maximum delta is    0.001780646709876
 Root      2 not converged, maximum delta is    0.000135609097169
 Root      3 not converged, maximum delta is    0.000270196957233
 Root      4 not converged, maximum delta is    0.000167737303918
 Root      5 not converged, maximum delta is    0.000117837717743
 Root      6 not converged, maximum delta is    0.000391211171079
 Root      7 not converged, maximum delta is    0.000169608142776
 Root      8 not converged, maximum delta is    0.001722692781826
 Root      9 not converged, maximum delta is    0.003045013595099
 Root     10 not converged, maximum delta is    0.000134805106845
 Root     11 not converged, maximum delta is    0.001496496454709
 Root     12 not converged, maximum delta is    0.001741865151836
 Root     13 not converged, maximum delta is    0.000449721405454
 Root     14 not converged, maximum delta is    0.002662032562135
 Root     15 not converged, maximum delta is    0.001434050990452
 Excitation Energies [eV] at current iteration:
 Root      1 :     5.857148629788129   Change is   -0.000565637898838
 Root      2 :     6.576750976106789   Change is   -0.000005427834116
 Root      3 :     6.913148199427324   Change is   -0.000008998859239
 Root      4 :     6.934726882880756   Change is   -0.000005376251298
 Root      5 :     7.622879864440582   Change is   -0.000005219173831
 Root      6 :     8.296376938999050   Change is   -0.000024500974919
 Root      7 :     8.465026006210572   Change is   -0.000007266656737
 Root      8 :     8.898297006147384   Change is   -0.000500641283428
 Root      9 :     9.026833993557416   Change is   -0.001071001774849
 Root     10 :     9.085540770596239   Change is   -0.000004559240132
 Root     11 :     9.210619800497430   Change is   -0.000322693291299
 Root     12 :     9.685787737112882   Change is   -0.000561362712204
 Root     13 :     9.749641348212570   Change is   -0.000040049518701
 Root     14 :     9.840286998086661   Change is   -0.001321625236060
 Root     15 :     9.958733575411479   Change is   -0.000284787996677
 Iteration     4 Dimension   143 NMult   135 NNew      8
 CISAX will form     8 AO SS matrices at one time.
 NMat=     8 NSing=     8 JSym2X= 0.
 Root      1 not converged, maximum delta is    0.000055934089365
 Root      2 not converged, maximum delta is    0.000006309667319
 Root      3 not converged, maximum delta is    0.000004891771642
 Root      4 not converged, maximum delta is    0.000005393456577
 Root      5 not converged, maximum delta is    0.000006458408120
 Root      6 not converged, maximum delta is    0.000010254634087
 Root      7 not converged, maximum delta is    0.000009141798474
 Root      8 not converged, maximum delta is    0.000075988869081
 Root      9 not converged, maximum delta is    0.000191811666801
 Root     10 not converged, maximum delta is    0.000006503063200
 Root     11 not converged, maximum delta is    0.000114791515419
 Root     12 not converged, maximum delta is    0.000136740553388
 Root     13 not converged, maximum delta is    0.000017458283072
 Root     14 not converged, maximum delta is    0.000097180709856
 Root     15 not converged, maximum delta is    0.000052965306399
 Excitation Energies [eV] at current iteration:
 Root      1 :     5.857148129521839   Change is   -0.000000500266290
 Root      2 :     6.576750970745585   Change is   -0.000000005361204
 Root      3 :     6.913148193528587   Change is   -0.000000005898737
 Root      4 :     6.934726876787974   Change is   -0.000000006092782
 Root      5 :     7.622879858561554   Change is   -0.000000005879029
 Root      6 :     8.296376918746105   Change is   -0.000000020252944
 Root      7 :     8.465025991408538   Change is   -0.000000014802032
 Root      8 :     8.898295530636364   Change is   -0.000001475511021
 Root      9 :     9.026831600683908   Change is   -0.000002392873509
 Root     10 :     9.085540763493764   Change is   -0.000000007102475
 Root     11 :     9.210618517841342   Change is   -0.000001282656090
 Root     12 :     9.685785659686479   Change is   -0.000002077426403
 Root     13 :     9.749641291005950   Change is   -0.000000057206619
 Root     14 :     9.840283949098080   Change is   -0.000003048988581
 Root     15 :     9.958732941505495   Change is   -0.000000633905985
 Convergence achieved on expansion vectors.
 ***********************************************************************
 Excited states from <AA,BB:AA,BB> singles matrix:
 ***********************************************************************
 
 1PDM for each excited state written to RWF  633
 Ground to excited state transition densities written to RWF  633
 Ground to excited state transition electric dipole moments (Au):
       state          X           Y           Z        Dip. S.      Osc.
         1        -1.4337      0.0944     -0.0986      2.0741      0.2976
         2         0.0865      0.0015      0.1400      0.0271      0.0044
         3         0.0163     -0.0322     -0.0820      0.0080      0.0014
         4         0.0398     -0.0206      0.0675      0.0066      0.0011
         5         0.0083     -0.0352     -0.1448      0.0223      0.0042
         6        -0.0061      0.0478     -0.1973      0.0413      0.0084
         7         0.0189      0.0041     -0.1294      0.0171      0.0035
         8        -0.0722     -0.3468      0.0808      0.1320      0.0288
         9         0.2448     -0.4463      0.0034      0.2592      0.0573
        10        -0.0259     -0.0582      0.0158      0.0043      0.0010
        11         0.6748      0.2318     -0.0296      0.5100      0.1151
        12         0.6832     -0.0423      0.0209      0.4690      0.1113
        13        -0.1304      0.0263     -0.1595      0.0431      0.0103
        14        -0.0686      0.4969      0.0614      0.2553      0.0616
        15         0.1585     -0.2203      0.2266      0.1250      0.0305
 Ground to excited state transition velocity dipole moments (Au):
       state          X           Y           Z        Dip. S.      Osc.
         1         0.1845     -0.0092      0.0059      0.0342      0.1058
         2        -0.0143     -0.0136     -0.1403      0.0201      0.0554
         3        -0.0003      0.0075      0.0447      0.0021      0.0054
         4        -0.0061      0.0068     -0.0864      0.0076      0.0198
         5        -0.0079     -0.0001     -0.0213      0.0005      0.0012
         6         0.0080      0.0007      0.0224      0.0006      0.0012
         7        -0.0044      0.0042      0.0163      0.0003      0.0006
         8         0.0107      0.1492     -0.0135      0.0225      0.0460
         9         0.0107      0.1398      0.0060      0.0197      0.0396
        10         0.0097      0.0189      0.0217      0.0009      0.0018
        11        -0.0847     -0.0234      0.0043      0.0077      0.0152
        12        -0.0969     -0.0360     -0.0110      0.0108      0.0202
        13         0.0201     -0.0047     -0.0452      0.0025      0.0046
        14         0.0163     -0.0884     -0.0173      0.0084      0.0154
        15        -0.0305      0.0375     -0.0270      0.0031      0.0056
 Ground to excited state transition magnetic dipole moments (Au):
       state          X           Y           Z
         1         0.0336      0.0507     -0.5424
         2        -0.1655     -0.2268      0.0423
         3         0.2987      0.5484      0.0041
         4         0.0114      0.6809      0.0302
         5         0.8061     -0.2721     -0.0053
         6         0.5423      0.2326     -0.0241
         7         0.1201     -0.5724      0.0429
         8        -0.0391     -0.0085     -0.0534
         9        -0.0235     -0.0033      0.1072
        10        -0.0392     -0.1808     -0.0387
        11         0.0353      0.0155      0.0726
        12        -0.0507     -0.0419      0.1210
        13         0.0346     -0.1797     -0.0854
        14        -0.0154     -0.0797      0.0158
        15         0.0346     -0.2769     -0.0013
 Ground to excited state transition velocity quadrupole moments (Au):
       state          XX          YY          ZZ          XY          XZ          YZ
         1         0.0731     -0.0391     -0.0018      0.3089      0.0042      0.0218
         2         0.0073     -0.0188     -0.0064      0.0029      0.1412     -0.1050
         3         0.0199      0.0282      0.0122      0.0061      0.2877     -0.0409
         4        -0.0006      0.0328      0.0098     -0.0084     -0.0999     -0.0468
         5        -0.0115      0.0107      0.0088     -0.0164     -0.0807     -0.1647
         6        -0.0227     -0.0037     -0.0106      0.0122     -0.1886      0.2064
         7        -0.0156      0.0175      0.0084      0.0206      0.4406      0.0090
         8        -0.1258      0.2022     -0.0212      0.0828      0.0300     -0.0018
         9        -0.1332      0.2626     -0.0059     -0.0604     -0.0080      0.0142
        10        -0.0399      0.0361      0.0007      0.0381     -0.0745     -0.0003
        11         0.1571      0.1181      0.0408     -0.2408     -0.0266     -0.0124
        12        -0.2768     -0.0826     -0.0679     -0.1437      0.0505      0.0120
        13         0.1109      0.0404      0.0220      0.0521      0.1518      0.0243
        14         0.3418      0.0956      0.0028      0.0885      0.0471      0.0142
        15        -0.0488      0.0246     -0.0031     -0.0194      0.2352      0.0568
 <0|del|b> * <b|rxdel|0> + <0|del|b> * <b|delr+rdel|0>
 Rotatory Strengths (R) in cgs (10**-40 erg-esu-cm/Gauss)
       state          XX          YY          ZZ    R(velocity)    E-M Angle
         1        -2.9479      8.6065      2.7345      2.7977       88.55
         2        -1.9442     -2.4206      2.9775     -0.4624       90.68
         3         3.3639     -0.2356      8.5990      3.9091       81.43
         4         4.7591     -4.3207      4.9988      1.8124       88.10
         5         0.5978     -6.6806     -9.6345     -5.2391      108.81
         6         0.0263      5.9661      3.1345      3.0423       73.72
         7        -3.6224     -0.2337     -1.1800     -1.6787      102.56
         8        -6.6394      1.5234      3.0293     -0.6956       95.53
         9         1.0029      0.9729     -2.1098     -0.0447       90.00
        10        -2.1443     -2.1698     -5.5176     -3.2772      143.95
        11        -1.7909     -0.6015     -3.9503     -2.1142      114.84
        12         3.5545      0.8232      5.7223      3.3667       69.19
        13         3.0179      7.3026      0.3344      3.5516       57.46
        14         9.1853      1.2122      2.3410      4.2462       30.56
        15       -18.0004     -3.1637     -0.8564     -7.3401      137.55
 1/2[<0|r|b>*<b|rxdel|0> + (<0|rxdel|b>*<b|r|0>)*]
 Rotatory Strengths (R) in cgs (10**-40 erg-esu-cm/Gauss)
       state          XX          YY          ZZ     R(length)
         1        34.0555     -3.3856    -37.8346     -2.3883
         2        10.1212      0.2391     -4.1898      2.0568
         3        -3.4506     12.4840      0.2406      3.0913
         4        -0.3206      9.9425     -1.4405      2.7271
         5        -4.7193     -6.7644     -0.5433     -4.0090
         6         2.3251     -7.8644     -3.3668     -2.9687
         7        -1.6018      1.6634      3.9230      1.3282
         8        -1.9974     -2.0901      3.0484     -0.3464
         9         4.0716     -1.0339     -0.2575      0.9267
        10        -0.7182     -7.4472      0.4325     -2.5776
        11       -16.8428     -2.5451      1.5213     -5.9555
        12        24.4938     -1.2516     -1.7910      7.1504
        13         3.1936      3.3439     -9.6270     -1.0299
        14        -0.7468     27.9934     -0.6860      8.8535
        15        -3.8800    -43.1280      0.2065    -15.6005
  1/2[<0|del|b>*<b|r|0> + (<0|r|b>*<b|del|0>)*] (Au)
       state          X           Y           Z        Dip. S.   Osc.(frdel)
         1        -0.2646     -0.0009     -0.0006      0.2660      0.1773
         2        -0.0012      0.0000     -0.0196      0.0209      0.0139
         3         0.0000     -0.0002     -0.0037      0.0039      0.0026
         4        -0.0002     -0.0001     -0.0058      0.0062      0.0041
         5        -0.0001      0.0000      0.0031     -0.0030     -0.0020
         6         0.0000      0.0000     -0.0044      0.0044      0.0030
         7        -0.0001      0.0000     -0.0021      0.0022      0.0014
         8        -0.0008     -0.0517     -0.0011      0.0536      0.0357
         9         0.0026     -0.0624      0.0000      0.0598      0.0398
        10        -0.0003     -0.0011      0.0003      0.0010      0.0007
        11        -0.0571     -0.0054     -0.0001      0.0627      0.0418
        12        -0.0662      0.0015     -0.0002      0.0649      0.0433
        13        -0.0026     -0.0001      0.0072     -0.0045     -0.0030
        14        -0.0011     -0.0439     -0.0011      0.0461      0.0307
        15        -0.0048     -0.0083     -0.0061      0.0192      0.0128

 Excitation energies and oscillator strengths:
 
 Excited State   1:      Singlet-A      5.8571 eV  211.68 nm  f=0.2976  <S**2>=0.000
      11 -> 17        -0.12183
      13 -> 14         0.68422
 This state for optimization and/or second-order correction.
 Total Energy, E(CIS) =   2.05111514605    
 Copying the excited state density for this state as the 1-particle RhoCI density.
 
 Excited State   2:      Singlet-A      6.5768 eV  188.52 nm  f=0.0044  <S**2>=0.000
      10 -> 15         0.12922
      13 -> 15         0.65647
      13 -> 16         0.11693
      13 -> 17        -0.15049
 
 Excited State   3:      Singlet-A      6.9131 eV  179.35 nm  f=0.0014  <S**2>=0.000
      12 -> 14         0.61005
      13 -> 16        -0.30863
 
 Excited State   4:      Singlet-A      6.9347 eV  178.79 nm  f=0.0011  <S**2>=0.000
      10 -> 16        -0.11043
      12 -> 14         0.34181
      13 -> 15        -0.10350
      13 -> 16         0.55971
      13 -> 17        -0.13284
      13 -> 19         0.12473
 
 Excited State   5:      Singlet-A      7.6229 eV  162.65 nm  f=0.0042  <S**2>=0.000
      11 -> 14         0.69432
 
 Excited State   6:      Singlet-A      8.2964 eV  149.44 nm  f=0.0084  <S**2>=0.000
      10 -> 16        -0.15754
      13 -> 16         0.15006
      13 -> 17         0.62439
      13 -> 18        -0.17295
 
 Excited State   7:      Singlet-A      8.4650 eV  146.47 nm  f=0.0035  <S**2>=0.000
      10 -> 15         0.10429
      13 -> 17         0.19205
      13 -> 18         0.58898
      13 -> 19         0.11099
      13 -> 21        -0.28116
 
 Excited State   8:      Singlet-A      8.8983 eV  139.33 nm  f=0.0288  <S**2>=0.000
       8 -> 15        -0.10848
      10 -> 14         0.54010
      11 -> 15        -0.11465
      11 -> 16        -0.10419
      11 -> 17         0.12657
      12 -> 15         0.25382
      12 -> 17         0.12296
      12 -> 18        -0.16456
 
 Excited State   9:      Singlet-A      9.0268 eV  137.35 nm  f=0.0573  <S**2>=0.000
       8 -> 16         0.12067
       9 -> 15         0.12124
      10 -> 14         0.34052
      11 -> 15         0.26466
      11 -> 16         0.15099
      11 -> 17        -0.24813
      12 -> 16         0.27830
      12 -> 18         0.21344
      13 -> 14        -0.10485
 
 Excited State  10:      Singlet-A      9.0855 eV  136.46 nm  f=0.0010  <S**2>=0.000
      10 -> 16         0.11391
      13 -> 18        -0.17308
      13 -> 19         0.64926
 
 Excited State  11:      Singlet-A      9.2106 eV  134.61 nm  f=0.1151  <S**2>=0.000
       9 -> 15         0.10653
      10 -> 14        -0.20122
      11 -> 15         0.21147
      12 -> 15         0.58969
      12 -> 17        -0.13278
      12 -> 19        -0.10981
 
 Excited State  12:      Singlet-A      9.6858 eV  128.01 nm  f=0.1113  <S**2>=0.000
       9 -> 16        -0.13440
      10 -> 15         0.11415
      11 -> 16         0.50651
      11 -> 17        -0.13328
      11 -> 19         0.17616
      12 -> 16        -0.30925
      12 -> 17         0.18723
 
 Excited State  13:      Singlet-A      9.7496 eV  127.17 nm  f=0.0103  <S**2>=0.000
      10 -> 15         0.40641
      10 -> 16         0.12711
      12 -> 16         0.12018
      13 -> 15        -0.10754
      13 -> 18        -0.23208
      13 -> 19        -0.14617
      13 -> 20         0.18836
      13 -> 21        -0.37534
 
 Excited State  14:      Singlet-A      9.8403 eV  126.00 nm  f=0.0616  <S**2>=0.000
       8 -> 16         0.16374
       9 -> 15        -0.16133
      10 -> 14        -0.16827
      10 -> 15         0.13883
      11 -> 15        -0.19864
      11 -> 18        -0.16760
      11 -> 19         0.15565
      12 -> 15         0.13718
      12 -> 16         0.38248
      12 -> 17         0.12718
      12 -> 19         0.12409
      12 -> 20        -0.11432
      13 -> 21         0.20763
 
 Excited State  15:      Singlet-A      9.9587 eV  124.50 nm  f=0.0305  <S**2>=0.000
      10 -> 15         0.37918
      10 -> 16         0.21705
      13 -> 15        -0.10290
      13 -> 18         0.11123
      13 -> 20        -0.33867
      13 -> 21         0.29995
 SavETr:  write IOETrn=   770 NScale= 10 NData=  16 NLR=1 NState=   15 LETran=     280.
 The selected state is a singlet
 CISAX will form     1 AO SS matrices at one time.
 NMat=     1 NSing=     1 JSym2X= 0.
 Leave Link  914 at Tue Dec 15 17:10:05 2015, MaxMem=    33554432 cpu:         0.1
 (Enter /home/Applications/g09/g09/l1002.exe)
 Minotr:  Closed shell wavefunction.
          Computing CIS/TD-HF/TD-KS derivatives.
          Using Z-Vector for PSCF gradient.
          Skipping F1 and S1 gradient terms here.
          IDoAtm=111111111
          Direct CPHF calculation.
          Differentiating once with respect to electric field.
                with respect to dipole field.
          Differentiating once with respect to nuclear coordinates.
          Electric field/nuclear overlap derivatives assumed to be zero.
          Requested convergence is 1.0D-10 RMS, and 1.0D-09 maximum.
          NewPWx=T KeepS1=F KeepF1=F KeepIn=T MapXYZ=F SortEE=F KeepMc=T.
          MDV=      33495423 using IRadAn=       0.
 Keep J ints in memory in canonical form, NReq=871704.
 FoFCou: FMM=F IPFlag=           0 FMFlag=           0 FMFlg1=           0
         NFxFlg=           0 DoJE=F BraDBF=F KetDBF=F FulRan=T
         wScrn=  0.000000 ICntrl=     600 IOpCl=  2 I1Cent=           0 NGrid=           0
         NMat0=    1 NMatS0=     54 NMatT0=    0 NMatD0=    1 NMtDS0=    0 NMtDT0=    0
 Symmetry not used in FoFCou.
          Solving linear equations separately, MaxMat=       0.
          There are     1 degrees of freedom in the 1st order CPHF.  IDoFFX=0 NUNeed=     1.
 LinEq1:  Iter=  0 NonCon=     1 RMS=7.09D-03 Max=4.81D-02 NDo=     1
 AX will form     1 AO Fock derivatives at one time.
 LinEq1:  Iter=  1 NonCon=     1 RMS=5.90D-04 Max=1.92D-03 NDo=     1
 LinEq1:  Iter=  2 NonCon=     1 RMS=6.13D-05 Max=2.14D-04 NDo=     1
 LinEq1:  Iter=  3 NonCon=     1 RMS=8.03D-06 Max=3.77D-05 NDo=     1
 LinEq1:  Iter=  4 NonCon=     1 RMS=1.23D-06 Max=5.05D-06 NDo=     1
 LinEq1:  Iter=  5 NonCon=     1 RMS=1.69D-07 Max=6.96D-07 NDo=     1
 LinEq1:  Iter=  6 NonCon=     1 RMS=2.26D-08 Max=8.13D-08 NDo=     1
 LinEq1:  Iter=  7 NonCon=     1 RMS=3.07D-09 Max=1.02D-08 NDo=     1
 LinEq1:  Iter=  8 NonCon=     1 RMS=3.85D-10 Max=1.55D-09 NDo=     1
 LinEq1:  Iter=  9 NonCon=     0 RMS=6.08D-11 Max=2.58D-10 NDo=     1
 Linear equations converged to 1.000D-10 1.000D-09 after     9 iterations.
 End of Minotr F.D. properties file   721 does not exist.
 End of Minotr F.D. properties file   722 does not exist.
 End of Minotr F.D. properties file   788 does not exist.
 Leave Link 1002 at Tue Dec 15 17:10:05 2015, MaxMem=    33554432 cpu:         0.0
 (Enter /home/Applications/g09/g09/l601.exe)
 Copying SCF densities to generalized density rwf, IOpCl= 0 IROHF=0.

 **********************************************************************

            Population analysis using the SCF density.

 **********************************************************************

 Orbital symmetries:
       Occupied  (A) (A) (A) (A) (A) (A) (A) (A) (A) (A) (A) (A)
                 (A)
       Virtual   (A) (A) (A) (A) (A) (A) (A) (A) (A) (A) (A)
 The electronic state is 1-A.
 Alpha  occ. eigenvalues --   -1.96007  -1.22748  -0.98538  -0.81318  -0.79829
 Alpha  occ. eigenvalues --   -0.70490  -0.66352  -0.52503  -0.49247  -0.42099
 Alpha  occ. eigenvalues --   -0.40628  -0.38618  -0.29018
 Alpha virt. eigenvalues --    0.14002   0.18011   0.19840   0.25568   0.27711
 Alpha virt. eigenvalues --    0.29963   0.31642   0.34933   0.38654   0.47127
 Alpha virt. eigenvalues --    0.52135
     Molecular Orbital Coefficients:
                           1         2         3         4         5
                           O         O         O         O         O
     Eigenvalues --    -1.96007  -1.22748  -0.98538  -0.81318  -0.79829
   1 1   C  1S          0.09670   0.48991   0.22043   0.24893  -0.19029
   2        1PX         0.04690   0.14868  -0.27414  -0.23005  -0.19493
   3        1PY        -0.13521  -0.11354  -0.10339   0.09115  -0.34406
   4        1PZ         0.00141   0.01616   0.00498   0.01269   0.00623
   5 2   C  1S          0.26235   0.23994   0.51190  -0.16485   0.36789
   6        1PX         0.23072   0.16736  -0.12795  -0.09657  -0.10731
   7        1PY        -0.15001   0.30265  -0.01009   0.49213  -0.09013
   8        1PZ        -0.02083  -0.01002  -0.03683   0.02028  -0.00456
   9 3   O  1S          0.81322  -0.30857  -0.00030   0.02319  -0.28989
  10        1PX         0.00471   0.01894  -0.22880   0.29917   0.02404
  11        1PY         0.06716   0.16807   0.02577  -0.05482   0.14947
  12        1PZ         0.00426   0.00377  -0.00114  -0.00400   0.01742
  13 4   C  1S          0.24287   0.19725  -0.49309   0.17713   0.41516
  14        1PX        -0.25208  -0.09825  -0.06205  -0.16866   0.09882
  15        1PY        -0.08019   0.30279   0.00909  -0.47134  -0.11339
  16        1PZ        -0.01423  -0.00303   0.02197  -0.02006   0.00359
  17 5   C  1S          0.08746   0.45019  -0.26996  -0.26323  -0.17313
  18        1PX        -0.07338  -0.19420  -0.18826  -0.22270   0.14953
  19        1PY        -0.11205  -0.07880   0.13566  -0.01794  -0.36343
  20        1PZ        -0.00296  -0.00490   0.00528   0.00297   0.01636
  21 6   H  1S          0.00305   0.11999  -0.14014  -0.20516  -0.13363
  22 7   H  1S          0.04933   0.00683  -0.23679   0.11773   0.25832
  23 8   H  1S          0.04547   0.02734   0.26131  -0.06021   0.22077
  24 9   H  1S          0.00409   0.14685   0.11981   0.20807  -0.17921
                           6         7         8         9        10
                           O         O         O         O         O
     Eigenvalues --    -0.70490  -0.66352  -0.52503  -0.49247  -0.42099
   1 1   C  1S         -0.04750  -0.15990   0.15879  -0.02725   0.00449
   2        1PX         0.03075   0.12733  -0.00571  -0.31204  -0.00023
   3        1PY        -0.02523  -0.22007   0.06395  -0.25981   0.06494
   4        1PZ         0.40287  -0.10528  -0.01169   0.02898  -0.18911
   5 2   C  1S         -0.00259  -0.11512   0.11590  -0.10931  -0.05451
   6        1PX         0.11776   0.42734   0.55924   0.08413  -0.05035
   7        1PY        -0.02068  -0.01269  -0.12690   0.51576  -0.04071
   8        1PZ         0.56901  -0.13336  -0.05509  -0.03574  -0.63800
   9 3   O  1S         -0.03974  -0.19658  -0.05206   0.27295  -0.01216
  10        1PX         0.00475   0.03457  -0.18114  -0.03932   0.00513
  11        1PY         0.03444   0.20643   0.03664  -0.10022   0.00410
  12        1PZ         0.25440  -0.04292   0.00954  -0.03538   0.00676
  13 4   C  1S         -0.02268  -0.13003  -0.06214  -0.13988   0.05809
  14        1PX        -0.11031  -0.39366   0.54491   0.28366  -0.06281
  15        1PY         0.00488   0.03555  -0.21556   0.41729   0.00965
  16        1PZ         0.50425  -0.11349   0.04984   0.04536   0.69216
  17 5   C  1S         -0.04187  -0.22450  -0.12653  -0.08001   0.01204
  18        1PX        -0.05417  -0.20174  -0.10187   0.25927  -0.01369
  19        1PY        -0.02913  -0.17150   0.09020  -0.26448  -0.03516
  20        1PZ         0.37540  -0.08739   0.00849   0.05625   0.23322
  21 6   H  1S         -0.06324  -0.27054  -0.07341  -0.02847  -0.02646
  22 7   H  1S         -0.06976  -0.26980   0.33153  -0.05322  -0.02016
  23 8   H  1S         -0.06789  -0.28860  -0.27230  -0.17174   0.02206
  24 9   H  1S         -0.03689  -0.23907   0.12029  -0.06165   0.03872
                          11        12        13        14        15
                           O         O         O         V         V
     Eigenvalues --    -0.40628  -0.38618  -0.29018   0.14002   0.18011
   1 1   C  1S         -0.07370   0.04241  -0.03599   0.04299  -0.12949
   2        1PX        -0.00129   0.46459   0.02558  -0.02219   0.13611
   3        1PY        -0.35479  -0.31625   0.02304  -0.02114   0.22864
   4        1PZ        -0.00474   0.00321   0.57861  -0.66953  -0.02447
   5 2   C  1S          0.14762  -0.07895  -0.00130  -0.00046  -0.14730
   6        1PX         0.13863  -0.26050   0.00129  -0.00241   0.43297
   7        1PY         0.26897   0.14048  -0.01710  -0.01591   0.24389
   8        1PZ        -0.06174  -0.00536  -0.36362   0.21485   0.00931
   9 3   O  1S         -0.04628   0.11908  -0.01571  -0.00004   0.01756
  10        1PX         0.08455  -0.01176   0.00074   0.00341   0.05594
  11        1PY         0.03991  -0.17498   0.02139  -0.00331   0.11729
  12        1PZ         0.01002  -0.01744  -0.23270   0.00636   0.00295
  13 4   C  1S         -0.10403  -0.14554   0.00597   0.00100  -0.02726
  14        1PX        -0.10638   0.28895  -0.01023  -0.00829   0.04818
  15        1PY        -0.36741  -0.08535  -0.00957   0.02066   0.05349
  16        1PZ         0.07360   0.05164  -0.37302  -0.20855   0.00037
  17 5   C  1S          0.07418   0.08532   0.00797   0.00325  -0.10004
  18        1PX         0.27222  -0.43052  -0.02185  -0.00280   0.09252
  19        1PY         0.46645  -0.00636   0.03978   0.04340   0.05474
  20        1PZ         0.01181   0.00980   0.57762   0.67466   0.00486
  21 6   H  1S          0.44556  -0.21383  -0.01140  -0.00645  -0.08395
  22 7   H  1S         -0.00278   0.13891   0.00749   0.02501   0.00909
  23 8   H  1S         -0.04763   0.13002   0.00532  -0.00972   0.76771
  24 9   H  1S         -0.28257  -0.39234   0.00018  -0.02528  -0.04339
                          16        17        18        19        20
                           V         V         V         V         V
     Eigenvalues --     0.19840   0.25568   0.27711   0.29963   0.31642
   1 1   C  1S         -0.09943   0.01095   0.12691  -0.01195   0.32904
   2        1PX        -0.11638   0.05214  -0.39339  -0.32201  -0.32499
   3        1PY         0.06886  -0.38784   0.23539  -0.45551  -0.02545
   4        1PZ         0.01446   0.00514   0.01785   0.02157   0.03749
   5 2   C  1S          0.00162  -0.30594  -0.11229  -0.35389  -0.19447
   6        1PX        -0.06229   0.03544   0.06464   0.05948   0.11453
   7        1PY         0.04615  -0.15546  -0.08804  -0.20823  -0.20097
   8        1PZ        -0.00376   0.00686  -0.00396   0.00608  -0.02111
   9 3   O  1S          0.01896  -0.03751  -0.00549  -0.00188  -0.06286
  10        1PX        -0.02818   0.00014  -0.02463  -0.03198  -0.02524
  11        1PY         0.11481   0.00518  -0.01143   0.00728  -0.20246
  12        1PZ         0.00233  -0.01083   0.00849   0.00614   0.06009
  13 4   C  1S         -0.12877  -0.35121   0.06548   0.32866  -0.22154
  14        1PX        -0.34030  -0.12500   0.05396   0.11444  -0.14947
  15        1PY         0.38516  -0.12105   0.03367   0.16619  -0.19823
  16        1PZ         0.02202  -0.00252  -0.00571   0.00405  -0.02293
  17 5   C  1S         -0.09476  -0.04028  -0.09159   0.02637   0.45312
  18        1PX        -0.10166  -0.06527  -0.43590  -0.23236   0.27857
  19        1PY         0.29503  -0.37770  -0.18307   0.46707  -0.09855
  20        1PZ        -0.03920   0.02650   0.00098  -0.03000  -0.00847
  21 6   H  1S         -0.07419   0.38885   0.50811  -0.11959  -0.36356
  22 7   H  1S          0.73494   0.26010  -0.05103  -0.16092   0.11171
  23 8   H  1S         -0.06531   0.17517   0.07390   0.14723   0.10863
  24 9   H  1S         -0.11062   0.41673  -0.49142   0.17481  -0.28758
                          21        22        23        24
                           V         V         V         V
     Eigenvalues --     0.34933   0.38654   0.47127   0.52135
   1 1   C  1S          0.61155  -0.04386   0.10977   0.02113
   2        1PX         0.27179   0.02946  -0.05560  -0.03739
   3        1PY        -0.08253  -0.00704   0.02767  -0.03320
   4        1PZ         0.04577   0.03268   0.00916   0.00450
   5 2   C  1S         -0.15895   0.01044  -0.16468   0.18957
   6        1PX        -0.06027  -0.00806  -0.22364   0.09202
   7        1PY        -0.16814   0.04086  -0.03515  -0.22370
   8        1PZ        -0.00536  -0.24805  -0.00104  -0.01830
   9 3   O  1S         -0.00585   0.00611   0.13628  -0.00513
  10        1PX        -0.01118   0.00128   0.13143   0.88921
  11        1PY        -0.02705  -0.07293   0.87263  -0.13297
  12        1PZ         0.01592   0.93058   0.08305  -0.01125
  13 4   C  1S          0.13704   0.00327  -0.16202  -0.17853
  14        1PX        -0.04589   0.01214   0.20989   0.15127
  15        1PY         0.15679   0.03315  -0.08194   0.18894
  16        1PZ        -0.00201  -0.23659  -0.00413   0.01806
  17 5   C  1S         -0.53275  -0.02699   0.10012  -0.01953
  18        1PX         0.34346  -0.02773   0.06041  -0.03178
  19        1PY         0.06526   0.00055  -0.00004   0.03783
  20        1PZ        -0.00164   0.03409   0.00404  -0.00327
  21 6   H  1S          0.07011   0.02275  -0.06031  -0.00427
  22 7   H  1S         -0.00061  -0.00071  -0.03431  -0.00605
  23 8   H  1S          0.02260  -0.00460  -0.03764   0.00126
  24 9   H  1S         -0.16716   0.03096  -0.06679   0.00674
     Density Matrix:
                           1         2         3         4         5
   1 1   C  1S          0.91691
   2        1PX         0.00285   1.04287
   3        1PY         0.12498  -0.08553   1.03968
   4        1PZ        -0.03002   0.00663   0.00583   1.09087
   5 2   C  1S          0.34040  -0.28865  -0.45401   0.04431   1.24121
   6        1PX         0.12705   0.04269  -0.12402   0.01525   0.12305
   7        1PY         0.45314  -0.30579  -0.43772   0.03346  -0.24982
   8        1PZ        -0.01612   0.00854   0.01146   0.30654   0.01243
   9 3   O  1S          0.02985  -0.02526  -0.05082   0.00332  -0.00001
  10        1PX        -0.02196   0.00909   0.00968   0.00279  -0.31875
  11        1PY         0.03043  -0.03569  -0.12647   0.00567   0.29195
  12        1PZ         0.00376  -0.00426   0.00525  -0.06007   0.04111
  13 4   C  1S         -0.01225   0.02725   0.03491  -0.00074  -0.00353
  14        1PX         0.04038  -0.00178  -0.01020   0.00493  -0.02928
  15        1PY         0.03834   0.01114  -0.00163   0.01015  -0.06092
  16        1PZ         0.02094  -0.00483  -0.01100  -0.26255  -0.01293
  17 5   C  1S          0.30963   0.54981   0.02273   0.01964  -0.00790
  18        1PX        -0.50726  -0.53442  -0.02050  -0.02136  -0.02465
  19        1PY         0.11851   0.15512   0.16318   0.04357   0.04162
  20        1PZ        -0.05627  -0.00824   0.02381   0.90428  -0.00458
  21 6   H  1S         -0.00737   0.00471  -0.00175  -0.00708   0.10507
  22 7   H  1S          0.08472   0.06751  -0.01806   0.01118   0.06838
  23 8   H  1S          0.07628  -0.03542  -0.09589   0.00642   0.49102
  24 9   H  1S          0.49952  -0.43739   0.71023   0.00895   0.06572
                           6         7         8         9        10
   6        1PX         1.44876
   7        1PY        -0.10648   1.48249
   8        1PZ        -0.00509   0.00833   1.78260
   9 3   O  1S          0.06644  -0.04418   0.00074   1.95054
  10        1PX        -0.14537   0.35087   0.02975  -0.03130   0.37139
  11        1PY         0.36969  -0.14795  -0.04823  -0.27226  -0.01026
  12        1PZ         0.03908  -0.04650   0.46150  -0.02726  -0.00025
  13 4   C  1S          0.01260  -0.07007  -0.01268  -0.00251   0.37208
  14        1PX        -0.00094   0.03187   0.00606  -0.07227  -0.34729
  15        1PY        -0.02036   0.02563   0.00943  -0.02379  -0.29317
  16        1PZ        -0.00212   0.00828  -0.02799   0.00019  -0.02902
  17 5   C  1S         -0.03367   0.04345  -0.00122   0.02675   0.02246
  18        1PX         0.00584  -0.00989  -0.00036   0.01264   0.01008
  19        1PY         0.00791  -0.00849  -0.02120  -0.05293  -0.03963
  20        1PZ         0.00042   0.01072  -0.27385   0.00063  -0.00502
  21 6   H  1S          0.05030   0.07760   0.00032   0.01129   0.02913
  22 7   H  1S          0.05121  -0.02697  -0.00335   0.01349   0.05276
  23 8   H  1S         -0.75175  -0.19041  -0.01170   0.01426  -0.06285
  24 9   H  1S          0.05197  -0.02959   0.00064   0.01202  -0.02711
                          11        12        13        14        15
  11        1PY         0.29328
  12        1PZ         0.01202   0.24572
  13 4   C  1S          0.18980   0.02707   1.24205
  14        1PX        -0.31967  -0.03826  -0.18680   1.51729
  15        1PY         0.02505  -0.03261  -0.18672   0.11695   1.39512
  16        1PZ        -0.03857   0.44678  -0.00053   0.00553  -0.01023
  17 5   C  1S          0.01396  -0.00299   0.30893  -0.00992   0.44350
  18        1PX         0.00918   0.00526   0.18054   0.10549   0.18580
  19        1PY        -0.11354  -0.00346  -0.51753  -0.02025  -0.54315
  20        1PZ         0.00605  -0.07062   0.02364  -0.00678   0.01492
  21 6   H  1S          0.01004   0.01123   0.06002  -0.04895  -0.00983
  22 7   H  1S         -0.06888  -0.00183   0.52128   0.65669  -0.40706
  23 8   H  1S         -0.05688  -0.00231   0.07186  -0.06638  -0.01328
  24 9   H  1S          0.01470   0.00983   0.11032  -0.03038   0.08964
                          16        17        18        19        20
  16        1PZ         1.79824
  17 5   C  1S          0.01154   0.94004
  18        1PX         0.00249   0.02509   1.06368
  19        1PY        -0.00807   0.13834   0.07076   0.99670
  20        1PZ         0.29940  -0.00011  -0.00769   0.01120   1.08082
  21 6   H  1S          0.00340   0.51722   0.60124   0.56450  -0.03209
  22 7   H  1S         -0.01519   0.06574   0.00446  -0.08615   0.00261
  23 8   H  1S          0.00133   0.09414  -0.07134  -0.00445   0.00248
  24 9   H  1S         -0.01058   0.00268  -0.02213   0.00837   0.00827
                          21        22        23        24
  21 6   H  1S          0.84491
  22 7   H  1S         -0.00086   0.69862
  23 8   H  1S          0.01446   0.01950   0.66939
  24 9   H  1S         -0.00199   0.01356  -0.00790   0.84682
    Full Mulliken population analysis:
                           1         2         3         4         5
   1 1   C  1S          0.91691
   2        1PX         0.00000   1.04287
   3        1PY         0.00000   0.00000   1.03968
   4        1PZ         0.00000   0.00000   0.00000   1.09087
   5 2   C  1S          0.00000   0.00000   0.00000   0.00000   1.24121
   6        1PX         0.00000   0.00000   0.00000   0.00000   0.00000
   7        1PY         0.00000   0.00000   0.00000   0.00000   0.00000
   8        1PZ         0.00000   0.00000   0.00000   0.00000   0.00000
   9 3   O  1S          0.00000   0.00000   0.00000   0.00000   0.00000
  10        1PX         0.00000   0.00000   0.00000   0.00000   0.00000
  11        1PY         0.00000   0.00000   0.00000   0.00000   0.00000
  12        1PZ         0.00000   0.00000   0.00000   0.00000   0.00000
  13 4   C  1S          0.00000   0.00000   0.00000   0.00000   0.00000
  14        1PX         0.00000   0.00000   0.00000   0.00000   0.00000
  15        1PY         0.00000   0.00000   0.00000   0.00000   0.00000
  16        1PZ         0.00000   0.00000   0.00000   0.00000   0.00000
  17 5   C  1S          0.00000   0.00000   0.00000   0.00000   0.00000
  18        1PX         0.00000   0.00000   0.00000   0.00000   0.00000
  19        1PY         0.00000   0.00000   0.00000   0.00000   0.00000
  20        1PZ         0.00000   0.00000   0.00000   0.00000   0.00000
  21 6   H  1S          0.00000   0.00000   0.00000   0.00000   0.00000
  22 7   H  1S          0.00000   0.00000   0.00000   0.00000   0.00000
  23 8   H  1S          0.00000   0.00000   0.00000   0.00000   0.00000
  24 9   H  1S          0.00000   0.00000   0.00000   0.00000   0.00000
                           6         7         8         9        10
   6        1PX         1.44876
   7        1PY         0.00000   1.48249
   8        1PZ         0.00000   0.00000   1.78260
   9 3   O  1S          0.00000   0.00000   0.00000   1.95054
  10        1PX         0.00000   0.00000   0.00000   0.00000   0.37139
  11        1PY         0.00000   0.00000   0.00000   0.00000   0.00000
  12        1PZ         0.00000   0.00000   0.00000   0.00000   0.00000
  13 4   C  1S          0.00000   0.00000   0.00000   0.00000   0.00000
  14        1PX         0.00000   0.00000   0.00000   0.00000   0.00000
  15        1PY         0.00000   0.00000   0.00000   0.00000   0.00000
  16        1PZ         0.00000   0.00000   0.00000   0.00000   0.00000
  17 5   C  1S          0.00000   0.00000   0.00000   0.00000   0.00000
  18        1PX         0.00000   0.00000   0.00000   0.00000   0.00000
  19        1PY         0.00000   0.00000   0.00000   0.00000   0.00000
  20        1PZ         0.00000   0.00000   0.00000   0.00000   0.00000
  21 6   H  1S          0.00000   0.00000   0.00000   0.00000   0.00000
  22 7   H  1S          0.00000   0.00000   0.00000   0.00000   0.00000
  23 8   H  1S          0.00000   0.00000   0.00000   0.00000   0.00000
  24 9   H  1S          0.00000   0.00000   0.00000   0.00000   0.00000
                          11        12        13        14        15
  11        1PY         0.29328
  12        1PZ         0.00000   0.24572
  13 4   C  1S          0.00000   0.00000   1.24205
  14        1PX         0.00000   0.00000   0.00000   1.51729
  15        1PY         0.00000   0.00000   0.00000   0.00000   1.39512
  16        1PZ         0.00000   0.00000   0.00000   0.00000   0.00000
  17 5   C  1S          0.00000   0.00000   0.00000   0.00000   0.00000
  18        1PX         0.00000   0.00000   0.00000   0.00000   0.00000
  19        1PY         0.00000   0.00000   0.00000   0.00000   0.00000
  20        1PZ         0.00000   0.00000   0.00000   0.00000   0.00000
  21 6   H  1S          0.00000   0.00000   0.00000   0.00000   0.00000
  22 7   H  1S          0.00000   0.00000   0.00000   0.00000   0.00000
  23 8   H  1S          0.00000   0.00000   0.00000   0.00000   0.00000
  24 9   H  1S          0.00000   0.00000   0.00000   0.00000   0.00000
                          16        17        18        19        20
  16        1PZ         1.79824
  17 5   C  1S          0.00000   0.94004
  18        1PX         0.00000   0.00000   1.06368
  19        1PY         0.00000   0.00000   0.00000   0.99670
  20        1PZ         0.00000   0.00000   0.00000   0.00000   1.08082
  21 6   H  1S          0.00000   0.00000   0.00000   0.00000   0.00000
  22 7   H  1S          0.00000   0.00000   0.00000   0.00000   0.00000
  23 8   H  1S          0.00000   0.00000   0.00000   0.00000   0.00000
  24 9   H  1S          0.00000   0.00000   0.00000   0.00000   0.00000
                          21        22        23        24
  21 6   H  1S          0.84491
  22 7   H  1S          0.00000   0.69862
  23 8   H  1S          0.00000   0.00000   0.66939
  24 9   H  1S          0.00000   0.00000   0.00000   0.84682
     Gross orbital populations:
                           1
   1 1   C  1S          0.91691
   2        1PX         1.04287
   3        1PY         1.03968
   4        1PZ         1.09087
   5 2   C  1S          1.24121
   6        1PX         1.44876
   7        1PY         1.48249
   8        1PZ         1.78260
   9 3   O  1S          1.95054
  10        1PX         0.37139
  11        1PY         0.29328
  12        1PZ         0.24572
  13 4   C  1S          1.24205
  14        1PX         1.51729
  15        1PY         1.39512
  16        1PZ         1.79824
  17 5   C  1S          0.94004
  18        1PX         1.06368
  19        1PY         0.99670
  20        1PZ         1.08082
  21 6   H  1S          0.84491
  22 7   H  1S          0.69862
  23 8   H  1S          0.66939
  24 9   H  1S          0.84682
          Condensed to atoms (all electrons):
               1          2          3          4          5          6
     1  C    4.090328   0.000000   0.000000   0.000000   0.000000   0.000000
     2  C    0.000000   5.955060   0.000000   0.000000   0.000000   0.000000
     3  O    0.000000   0.000000   2.860931   0.000000   0.000000   0.000000
     4  C    0.000000   0.000000   0.000000   5.952701   0.000000   0.000000
     5  C    0.000000   0.000000   0.000000   0.000000   4.081230   0.000000
     6  H    0.000000   0.000000   0.000000   0.000000   0.000000   0.844913
     7  H    0.000000   0.000000   0.000000   0.000000   0.000000   0.000000
     8  H    0.000000   0.000000   0.000000   0.000000   0.000000   0.000000
     9  H    0.000000   0.000000   0.000000   0.000000   0.000000   0.000000
               7          8          9
     1  C    0.000000   0.000000   0.000000
     2  C    0.000000   0.000000   0.000000
     3  O    0.000000   0.000000   0.000000
     4  C    0.000000   0.000000   0.000000
     5  C    0.000000   0.000000   0.000000
     6  H    0.000000   0.000000   0.000000
     7  H    0.698625   0.000000   0.000000
     8  H    0.000000   0.669393   0.000000
     9  H    0.000000   0.000000   0.846818
 Mulliken charges:
               1
     1  C   -0.090328
     2  C   -1.955060
     3  O    3.139069
     4  C   -1.952701
     5  C   -0.081230
     6  H    0.155087
     7  H    0.301375
     8  H    0.330607
     9  H    0.153182
 Sum of Mulliken charges =   0.00000
 Mulliken charges with hydrogens summed into heavy atoms:
               1
     1  C    0.062854
     2  C   -1.624453
     3  O    3.139069
     4  C   -1.651326
     5  C    0.073856
 Charge=              0.0000 electrons
 Dipole moment (field-independent basis, Debye):
    X=             -1.8354    Y=             -9.5098    Z=             -1.2588  Tot=              9.7668
 N-N= 1.047453878278D+02 E-N=-1.707670481698D+02  KE=-1.570408248524D+01
 Orbital energies and kinetic energies (alpha):
                                 1                 2
   1         O                -1.960068         -1.451894
   2         O                -1.227479         -1.086852
   3         O                -0.985384         -0.906717
   4         O                -0.813185         -0.610564
   5         O                -0.798292         -0.693738
   6         O                -0.704897         -0.584097
   7         O                -0.663521         -0.579157
   8         O                -0.525030         -0.368067
   9         O                -0.492466         -0.287790
  10         O                -0.420994         -0.312012
  11         O                -0.406280         -0.387501
  12         O                -0.386175         -0.324952
  13         O                -0.290184         -0.258700
  14         V                 0.140019         -0.149547
  15         V                 0.180108         -0.204187
  16         V                 0.198403         -0.190685
  17         V                 0.255685         -0.167624
  18         V                 0.277112         -0.178513
  19         V                 0.299627         -0.072695
  20         V                 0.316416         -0.099054
  21         V                 0.349326         -0.086888
  22         V                 0.386543          0.467627
  23         V                 0.471266          0.487798
  24         V                 0.521348          0.569461
 Total kinetic energy from orbitals=-1.570408248524D+01
 Leave Link  601 at Tue Dec 15 17:10:05 2015, MaxMem=    33554432 cpu:         0.0
 (Enter /home/Applications/g09/g09/l701.exe)
 Compute integral first derivatives.
 ... and contract with generalized density number  6.
 Leave Link  701 at Tue Dec 15 17:10:05 2015, MaxMem=    33554432 cpu:         0.0
 (Enter /home/Applications/g09/g09/l702.exe)
 L702 exits ... SP integral derivatives will be done elsewhere.
 Leave Link  702 at Tue Dec 15 17:10:05 2015, MaxMem=    33554432 cpu:         0.0
 (Enter /home/Applications/g09/g09/l703.exe)
 Compute integral first derivatives, UseDBF=F ICtDFT=           0.
 Integral derivatives from FoFJK, PRISM(SPDF).
 Calling FoFJK, ICntrl=  10005127 FMM=F ISym2X=0 I1Cent= 0 IOpClX= 0 NMat=1 NMatS=1 NMatT=0.
 FoFJK:  IHMeth= 8 ICntrl=10005127 DoSepK=F KAlg= 0 I1Cent=   0 FoldK=F
 IRaf=         0 NMat=   1 IRICut=       1 DoRegI=T DoRafI=F ISym2E= 0.
 FoFCou: FMM=F IPFlag=           0 FMFlag=      100000 FMFlg1=         800
         NFxFlg=           0 DoJE=F BraDBF=F KetDBF=F FulRan=T
         wScrn=  0.000000 ICntrl=10005127 IOpCl=  0 I1Cent=           0 NGrid=           0
         NMat0=    1 NMatS0=      1 NMatT0=    0 NMatD0=    1 NMtDS0=    0 NMtDT0=    0
 Symmetry not used in FoFCou.
 Leave Link  703 at Tue Dec 15 17:10:05 2015, MaxMem=    33554432 cpu:         0.0
 (Enter /home/Applications/g09/g09/l716.exe)
 Dipole        =-7.52928601D-01-4.16182499D+00-4.74078504D-01
 ***** Axes restored to original set *****
 -------------------------------------------------------------------
 Center     Atomic                   Forces (Hartrees/Bohr)
 Number     Number              X              Y              Z
 -------------------------------------------------------------------
      1        6           0.269331561   -0.100619961    0.006630450
      2        6          -0.303598047   -0.214213469    0.006488377
      3        8           0.016286214    0.040705667   -0.013020192
      4        6          -0.211453912    0.126888171    0.005017514
      5        6           0.163555336    0.142800755    0.003142139
      6        1           0.027908928    0.015112047   -0.001419970
      7        1          -0.003380603    0.066855181   -0.002569751
      8        1           0.000643380   -0.042071764   -0.005423496
      9        1           0.040707144   -0.035456626    0.001154930
 -------------------------------------------------------------------
 Cartesian Forces:  Max     0.303598047 RMS     0.112398766
 Z-matrix is all fixed cartesians, so copy forces.
 Force constants in Cartesian coordinates: 
                1             2             3             4             5 
      1  0.971717D+00
      2  0.740995D-02  0.860003D+00
      3  0.179387D-01 -0.156224D-02  0.230578D+00
      4 -0.573393D+00 -0.115235D+00 -0.345729D-01  0.101296D+01
      5 -0.903136D-01 -0.218735D+00 -0.109827D-01 -0.453875D-01  0.962024D+00
      6 -0.333873D-01 -0.909086D-02 -0.107882D+00 -0.547148D-02  0.249522D-01
      7 -0.856918D-02  0.313045D-01  0.392518D-02 -0.330421D+00  0.214486D+00
      8 -0.603365D-02  0.222791D-01  0.143112D-02  0.263325D+00 -0.462196D+00
      9 -0.184687D-02  0.349958D-02  0.112799D-01  0.346594D-01 -0.331163D-01
     10  0.107529D-01 -0.595060D-03 -0.306805D-03  0.254618D-01  0.186302D-01
     11  0.341499D-01 -0.207720D-02  0.891424D-03 -0.188544D-01 -0.138188D-01
     12 -0.270427D-02  0.814110D-03 -0.258058D-02 -0.369617D-02 -0.314340D-02
     13 -0.177315D+00 -0.668857D-02 -0.195974D-03  0.948482D-02 -0.363856D-01
     14 -0.333527D-01 -0.475321D+00  0.194552D-01 -0.570999D-03  0.204289D-02
     15 -0.884082D-03  0.237607D-01 -0.979473D-01  0.631046D-03 -0.470716D-02
     16  0.188758D-01 -0.117290D-02 -0.740725D-04  0.447141D-04 -0.306839D-04
     17 -0.212597D-01  0.125677D-02 -0.134476D-02 -0.231731D-04  0.159019D-04
     18  0.349643D-02  0.874056D-03  0.242423D-01 -0.453475D-03  0.311185D-03
     19  0.000000D+00 -0.722221D-05 -0.161602D-03  0.616622D-04  0.000000D+00
     20 -0.169829D-05 -0.156726D-04 -0.350684D-03  0.419160D-05  0.000000D+00
     21  0.272598D-04  0.251566D-03  0.562894D-02  0.618197D-03 -0.974574D-05
     22  0.700439D-02 -0.267884D-01  0.217250D-02 -0.139187D+00 -0.793660D-01
     23 -0.292694D-02  0.108053D-01  0.849571D-03 -0.772098D-01 -0.291979D+00
     24 -0.171451D-03 -0.496326D-02  0.253450D-01  0.109791D-01  0.220193D-01
     25 -0.249073D+00  0.111772D+00  0.112749D-01 -0.500969D-02  0.183682D-01
     26  0.112328D+00 -0.198196D+00 -0.838685D-02 -0.604917D-02  0.226463D-01
     27  0.175315D-01 -0.135837D-01 -0.886638D-01 -0.269368D-02  0.467659D-02
                6             7             8             9            10 
      6  0.206492D+00
      7  0.282330D-01  0.602169D+00
      8 -0.323697D-01 -0.376424D-01  0.833583D+00
      9 -0.578330D-01 -0.547315D-01  0.539485D-02  0.695093D-01
     10 -0.318007D-02 -0.298537D+00 -0.226663D+00  0.276826D-01  0.864289D+00
     11  0.224190D-02 -0.181936D+00 -0.398760D+00  0.250721D-01  0.398398D-02
     12 -0.238645D-02  0.249877D-01  0.270891D-01 -0.502000D-01 -0.266787D-01
     13  0.329299D-02 -0.897338D-02  0.648352D-02  0.295610D-03 -0.424052D+00
     14 -0.359309D-03 -0.284804D-01  0.207935D-01 -0.152867D-03  0.931379D-01
     15 -0.111777D-02  0.319499D-02 -0.646265D-03  0.748931D-02 -0.726373D-02
     16 -0.620414D-03 -0.121716D-05 -0.665892D-05 -0.949652D-04 -0.567382D-02
     17  0.321529D-03 -0.214260D-05 -0.117219D-04 -0.167170D-03  0.635540D-02
     18  0.629202D-02  0.594466D-04  0.325225D-03  0.463814D-02 -0.456610D-03
     19  0.553211D-03  0.217887D-01 -0.160450D-01 -0.212591D-02 -0.172341D+00
     20  0.376055D-04  0.118301D-01 -0.872513D-02 -0.132497D-02  0.105140D+00
     21  0.554624D-02 -0.240082D-02  0.205742D-02  0.387733D-02  0.944687D-02
     22  0.855640D-02  0.225377D-01  0.165608D-01 -0.363401D-02  0.973479D-04
     23  0.139333D-01 -0.958906D-02 -0.706293D-02  0.175095D-02  0.101119D-04
     24 -0.737024D-01 -0.302604D-02 -0.246679D-02  0.344766D-02  0.731655D-03
     25  0.202362D-02  0.634680D-05  0.213750D-04 -0.204366D-03  0.252771D-05
     26  0.333272D-03  0.296952D-04  0.100009D-03 -0.956180D-03  0.000000D+00
     27  0.245918D-01 -0.241974D-03 -0.814929D-03  0.779151D-02  0.247142D-04
               11            12            13            14            15 
     11  0.900459D+00
     12 -0.167899D-01  0.181823D+00
     13  0.685255D-01  0.590943D-03  0.795187D+00
     14 -0.198450D+00  0.126455D-02  0.475765D-01  0.840776D+00
     15  0.349546D-02 -0.878923D-01  0.106697D-01 -0.149103D-01  0.207172D+00
     16 -0.181342D-01 -0.141283D-02 -0.220130D+00 -0.102158D+00 -0.743911D-02
     17  0.202797D-01  0.457123D-03 -0.106496D+00 -0.201796D+00 -0.557398D-02
     18 -0.900326D-03  0.190003D-01 -0.105907D-01 -0.723339D-02 -0.805786D-01
     19  0.112244D+00  0.751795D-02  0.782100D-02  0.249909D-01  0.174229D-02
     20 -0.307641D+00 -0.997959D-02  0.421071D-02  0.134227D-01 -0.156035D-03
     21 -0.142272D-01 -0.694310D-01 -0.100686D-03  0.361140D-03  0.233246D-01
     22 -0.153467D-05  0.873370D-03  0.454740D-04 -0.312054D-04 -0.630958D-03
     23  0.000000D+00  0.907207D-04 -0.551079D-04  0.378164D-04  0.764630D-03
     24 -0.115344D-04  0.656415D-02 -0.522917D-03  0.358839D-03  0.725555D-02
     25  0.233268D-04  0.521952D-03  0.179331D-01 -0.111206D-02 -0.201934D-04
     26  0.881600D-05  0.197264D-03  0.228286D-01 -0.150568D-02 -0.202707D-02
     27  0.228073D-03  0.510328D-02 -0.343898D-02  0.121617D-02  0.222950D-01
               16            17            18            19            20 
     16  0.206801D+00
     17  0.121479D+00  0.180291D+00
     18  0.861554D-02  0.647138D-02  0.430517D-01
     19 -0.463074D-05 -0.815163D-05  0.226167D-03  0.142675D+00
     20 -0.100489D-04 -0.176894D-04  0.490794D-03 -0.121173D+00  0.302977D+00
     21  0.161299D-03  0.283939D-03 -0.787791D-02 -0.775212D-02  0.112829D-01
     22  0.000000D+00  0.000000D+00  0.000000D+00  0.000000D+00  0.000000D+00
     23  0.000000D+00  0.000000D+00  0.000000D+00  0.000000D+00  0.000000D+00
     24  0.000000D+00  0.000000D+00  0.000000D+00  0.000000D+00  0.000000D+00
     25  0.884243D-04 -0.458258D-04 -0.896768D-03  0.000000D+00  0.000000D+00
     26  0.334186D-04 -0.173192D-04 -0.338920D-03  0.000000D+00  0.000000D+00
     27  0.864551D-03 -0.448053D-03 -0.876798D-02  0.000000D+00  0.000000D+00
               21            22            23            24            25 
     21  0.389318D-01
     22  0.000000D+00  0.109527D+00
     23  0.000000D+00  0.897410D-01  0.288060D+00
     24  0.000000D+00 -0.827235D-02 -0.162561D-01  0.418424D-01
     25  0.000000D+00 -0.245257D-04  0.297216D-04  0.282027D-03  0.236076D+00
     26  0.000000D+00 -0.114750D-03  0.139060D-03  0.131954D-02 -0.129057D+00
     27  0.000000D+00  0.935049D-03 -0.113314D-02 -0.107524D-01 -0.129812D-01
               26            27 
     26  0.176825D+00
     27  0.985895D-02  0.484025D-01
 Leave Link  716 at Tue Dec 15 17:10:05 2015, MaxMem=    33554432 cpu:         0.0
 (Enter /home/Applications/g09/g09/l103.exe)

 GradGradGradGradGradGradGradGradGradGradGradGradGradGradGradGradGradGrad
 Berny optimization.
 Search for a local minimum.
 Step number   1 out of a maximum of    2
 All quantities printed in internal units (Hartrees-Bohrs-Radians)
 Second derivative matrix not updated -- first step.
 ITU=  0
     Eigenvalues ---    0.01991   0.03430   0.06804   0.07205   0.07747
     Eigenvalues ---    0.08817   0.13052   0.15561   0.16230   0.23705
     Eigenvalues ---    0.25728   0.30037   0.40274   0.44047   0.61691
     Eigenvalues ---    0.80540   1.14472   1.40219   1.43626   1.57409
     Eigenvalues ---    1.77718
 Quadratic step=1.481D+00 exceeds max=3.000D-01 adjusted using Lamda=-1.054D+00.
 Angle between NR and scaled steps=  32.26 degrees.
 Angle between quadratic step and forces=  18.32 degrees.
 Linear search not attempted -- first point.
 TrRot= -0.003484  0.000617 -0.000021  0.000054 -0.000094  0.000054
 MatCor failed.
 Variable       Old X    -DE/DX   Delta X   Delta X   Delta X     New X
                                 (Linear)    (Quad)   (Total)
    X1        1.72138   0.26933   0.00000   0.11187   0.10853   1.82991
    Y1       -1.35551  -0.10062   0.00000  -0.06253  -0.06171  -1.41722
    Z1        0.06444   0.00663   0.00000  -0.00186  -0.00171   0.06273
    X2       -0.69700  -0.30360   0.00000  -0.12408  -0.12732  -0.82433
    Y2       -1.99940  -0.21421   0.00000  -0.11427  -0.11374  -2.11314
    Z2       -0.07801   0.00649   0.00000   0.00932   0.00923  -0.06878
    X3       -2.14137   0.01629   0.00000  -0.00202  -0.00552  -2.14689
    Y3        0.00235   0.04071   0.00000   0.01661   0.01700   0.01934
    Z3        0.08650  -0.01302   0.00000  -0.00936  -0.00958   0.07693
    X4       -0.64771  -0.21145   0.00000  -0.09551  -0.09922  -0.74693
    Y4        2.05228   0.12689   0.00000   0.08160   0.08214   2.13442
    Z4       -0.07638   0.00502   0.00000   0.00306   0.00297  -0.07341
    X5        1.88335   0.16356   0.00000   0.07930   0.07568   1.95903
    Y5        1.25856   0.14280   0.00000   0.07709   0.07792   1.33648
    Z5       -0.05317   0.00314   0.00000   0.00321   0.00337  -0.04979
    X6        3.45728   0.02791   0.00000   0.04060   0.03682   3.49410
    Y6        2.66966   0.01511   0.00000   0.02824   0.02923   2.69890
    Z6        0.02992  -0.00142   0.00000  -0.00074  -0.00044   0.02948
    X7       -1.60718  -0.00338   0.00000  -0.01656  -0.02047  -1.62764
    Y7        3.83640   0.06686   0.00000   0.07267   0.07311   3.90951
    Z7        0.00722  -0.00257   0.00000  -0.00095  -0.00113   0.00610
    X8       -1.50096   0.00064   0.00000  -0.01813  -0.02118  -1.52215
    Y8       -3.93116  -0.04207   0.00000  -0.06164  -0.06119  -3.99235
    Z8        0.05566  -0.00542   0.00000  -0.00197  -0.00213   0.05353
    X9        3.34103   0.04071   0.00000   0.05587   0.05268   3.39371
    Y9       -2.64527  -0.03546   0.00000  -0.04375  -0.04276  -2.68803
    Z9       -0.05136   0.00115   0.00000  -0.00089  -0.00059  -0.05195
         Item               Value     Threshold  Converged?
 Maximum Force            0.303598     0.000450     NO 
 RMS     Force            0.112399     0.000300     NO 
 Maximum Displacement     0.127324     0.001800     NO 
 RMS     Displacement     0.057871     0.001200     NO 
 Predicted change in Energy=-1.311083D-01
 GradGradGradGradGradGradGradGradGradGradGradGradGradGradGradGradGradGrad

 Leave Link  103 at Tue Dec 15 17:10:05 2015, MaxMem=    33554432 cpu:         0.0
 (Enter /home/Applications/g09/g09/l9999.exe)
 1\1\GINC-DUSTIN-DESKTOP\Force\RAM1-FC\STO-3G\C4H4O1\DUSTIN\15-Dec-2015
 \0\\#P AM1(Input,print) CIS(Singlets,NStates=15) pop(full) force\\AM1-
 Reparam Input\\0,1\C,0.910916,-0.717304,0.034102\C,-0.368838,-1.058036
 ,-0.04128\O,-1.133165,0.001242,0.045775\C,-0.342753,1.086022,-0.04042\
 C,0.996627,0.666001,-0.028135\H,1.829514,1.412725,0.015832\H,-0.850481
 ,2.030136,0.003822\H,-0.794274,-2.080281,0.029453\H,1.767995,-1.399817
 ,-0.027176\\Version=ES64L-G09RevD.01\State=1-A\HF=1.8358689\RMSD=9.295
 e-09\RMSF=1.124e-01\Dipole=-4.2215846,-0.1679711,0.512297\PG=C01 [X(C4
 H4O1)]\\@


 OLD AGE AND TREACHERY WILL ALWAYS PREVAIL OVER YOUTH AND SKILL.
 Job cpu time:       0 days  0 hours  0 minutes  0.7 seconds.
 File lengths (MBytes):  RWF=      7 Int=      0 D2E=      0 Chk=      2 Scr=      1
 Normal termination of Gaussian 09 at Tue Dec 15 17:10:05 2015.
