 Entering Gaussian System, Link 0=g09
 Input=FuranAM1_62P5.com
 Output=FuranAM1_62P5.log
 Initial command:
 /home/Applications/g09/g09/l1.exe "/home/Applications/g09/scratch/Gau-7931.inp" -scrdir="/home/Applications/g09/scratch/"
 Entering Link 1 = /home/Applications/g09/g09/l1.exe PID=      7934.
  
 Copyright (c) 1988,1990,1992,1993,1995,1998,2003,2009,2013,
            Gaussian, Inc.  All Rights Reserved.
  
 This is part of the Gaussian(R) 09 program.  It is based on
 the Gaussian(R) 03 system (copyright 2003, Gaussian, Inc.),
 the Gaussian(R) 98 system (copyright 1998, Gaussian, Inc.),
 the Gaussian(R) 94 system (copyright 1995, Gaussian, Inc.),
 the Gaussian 92(TM) system (copyright 1992, Gaussian, Inc.),
 the Gaussian 90(TM) system (copyright 1990, Gaussian, Inc.),
 the Gaussian 88(TM) system (copyright 1988, Gaussian, Inc.),
 the Gaussian 86(TM) system (copyright 1986, Carnegie Mellon
 University), and the Gaussian 82(TM) system (copyright 1983,
 Carnegie Mellon University). Gaussian is a federally registered
 trademark of Gaussian, Inc.
  
 This software contains proprietary and confidential information,
 including trade secrets, belonging to Gaussian, Inc.
  
 This software is provided under written license and may be
 used, copied, transmitted, or stored only in accord with that
 written license.
  
 The following legend is applicable only to US Government
 contracts under FAR:
  
                    RESTRICTED RIGHTS LEGEND
  
 Use, reproduction and disclosure by the US Government is
 subject to restrictions as set forth in subparagraphs (a)
 and (c) of the Commercial Computer Software - Restricted
 Rights clause in FAR 52.227-19.
  
 Gaussian, Inc.
 340 Quinnipiac St., Bldg. 40, Wallingford CT 06492
  
  
 ---------------------------------------------------------------
 Warning -- This program may not be used in any manner that
 competes with the business of Gaussian, Inc. or will provide
 assistance to any competitor of Gaussian, Inc.  The licensee
 of this program is prohibited from giving any competitor of
 Gaussian, Inc. access to this program.  By using this program,
 the user acknowledges that Gaussian, Inc. is engaged in the
 business of creating and licensing software in the field of
 computational chemistry and represents and warrants to the
 licensee that it is not a competitor of Gaussian, Inc. and that
 it will not use this program in any manner prohibited above.
 ---------------------------------------------------------------
  

 Cite this work as:
 Gaussian 09, Revision D.01,
 M. J. Frisch, G. W. Trucks, H. B. Schlegel, G. E. Scuseria, 
 M. A. Robb, J. R. Cheeseman, G. Scalmani, V. Barone, B. Mennucci, 
 G. A. Petersson, H. Nakatsuji, M. Caricato, X. Li, H. P. Hratchian, 
 A. F. Izmaylov, J. Bloino, G. Zheng, J. L. Sonnenberg, M. Hada, 
 M. Ehara, K. Toyota, R. Fukuda, J. Hasegawa, M. Ishida, T. Nakajima, 
 Y. Honda, O. Kitao, H. Nakai, T. Vreven, J. A. Montgomery, Jr., 
 J. E. Peralta, F. Ogliaro, M. Bearpark, J. J. Heyd, E. Brothers, 
 K. N. Kudin, V. N. Staroverov, T. Keith, R. Kobayashi, J. Normand, 
 K. Raghavachari, A. Rendell, J. C. Burant, S. S. Iyengar, J. Tomasi, 
 M. Cossi, N. Rega, J. M. Millam, M. Klene, J. E. Knox, J. B. Cross, 
 V. Bakken, C. Adamo, J. Jaramillo, R. Gomperts, R. E. Stratmann, 
 O. Yazyev, A. J. Austin, R. Cammi, C. Pomelli, J. W. Ochterski, 
 R. L. Martin, K. Morokuma, V. G. Zakrzewski, G. A. Voth, 
 P. Salvador, J. J. Dannenberg, S. Dapprich, A. D. Daniels, 
 O. Farkas, J. B. Foresman, J. V. Ortiz, J. Cioslowski, 
 and D. J. Fox, Gaussian, Inc., Wallingford CT, 2013.
 
 ******************************************
 Gaussian 09:  ES64L-G09RevD.01 24-Apr-2013
                15-Dec-2015 
 ******************************************
 ------------------------------------------------------------
 #P AM1(Input,print) CIS(Singlets,NStates=15) pop(full) force
 ------------------------------------------------------------
 1/10=7,30=1,38=1/1,3;
 2/12=2,17=6,18=5,40=1/2;
 3/5=2,16=1,25=1,41=700000,71=1,135=100,136=1/1,2,8,3;
 4/35=1/1;
 5/5=2,35=1,38=5/2;
 8/6=1,10=1,108=15/1;
 9/15=2,41=15,42=1,48=1,49=10/14;
 10/5=4/2;
 6/7=3,18=1/1;
 7/12=6,13=5,29=1/1,2,3,16;
 1/10=7,30=1/3;
 99//99;
 Leave Link    1 at Tue Dec 15 17:06:00 2015, MaxMem=           0 cpu:         0.0
 (Enter /home/Applications/g09/g09/l101.exe)
 -----------------
 AM1-Reparam Input
 -----------------
 Symbolic Z-matrix:
 Charge =  0 Multiplicity = 1
 6                     0.95908  -0.70681   0.03754 
 6                    -0.38261  -1.13498  -0.01595 
 8                    -1.20553  -0.01753  -0.04293 
 6                    -0.35672   1.05928  -0.0175 
 6                     0.98429   0.67029   0.04085 
 1                     1.80986   1.41716   0.03358 
 1                    -0.8009    2.04082  -0.00078 
 1                    -0.83067  -1.9993   -0.04297 
 1                     1.79131  -1.41465  -0.03036 
 
 NAtoms=      9 NQM=        9 NQMF=       0 NMMI=      0 NMMIF=      0
                NMic=       0 NMicF=      0.
                    Isotopes and Nuclear Properties:
 (Nuclear quadrupole moments (NQMom) in fm**2, nuclear magnetic moments (NMagM)
  in nuclear magnetons)

  Atom         1           2           3           4           5           6           7           8           9
 IAtWgt=          12          12          16          12          12           1           1           1           1
 AtmWgt=  12.0000000  12.0000000  15.9949146  12.0000000  12.0000000   1.0078250   1.0078250   1.0078250   1.0078250
 NucSpn=           0           0           0           0           0           1           1           1           1
 AtZEff=   0.0000000   0.0000000   0.0000000   0.0000000   0.0000000   0.0000000   0.0000000   0.0000000   0.0000000
 NQMom=    0.0000000   0.0000000   0.0000000   0.0000000   0.0000000   0.0000000   0.0000000   0.0000000   0.0000000
 NMagM=    0.0000000   0.0000000   0.0000000   0.0000000   0.0000000   2.7928460   2.7928460   2.7928460   2.7928460
 AtZNuc=   6.0000000   6.0000000   8.0000000   6.0000000   6.0000000   1.0000000   1.0000000   1.0000000   1.0000000
 Leave Link  101 at Tue Dec 15 17:06:00 2015, MaxMem=    33554432 cpu:         0.0
 (Enter /home/Applications/g09/g09/l103.exe)

 GradGradGradGradGradGradGradGradGradGradGradGradGradGradGradGradGradGrad
 Berny optimization.
 Initialization pass.
 Trust Radius=3.00D-01 FncErr=1.00D-07 GrdErr=1.00D-07
 Number of steps in this run=      2 maximum allowed number of steps=      2.
 GradGradGradGradGradGradGradGradGradGradGradGradGradGradGradGradGradGrad

 Leave Link  103 at Tue Dec 15 17:06:00 2015, MaxMem=    33554432 cpu:         0.0
 (Enter /home/Applications/g09/g09/l202.exe)
                          Input orientation:                          
 ---------------------------------------------------------------------
 Center     Atomic      Atomic             Coordinates (Angstroms)
 Number     Number       Type             X           Y           Z
 ---------------------------------------------------------------------
      1          6           0        0.959084   -0.706808    0.037541
      2          6           0       -0.382606   -1.134975   -0.015953
      3          8           0       -1.205527   -0.017532   -0.042927
      4          6           0       -0.356718    1.059280   -0.017501
      5          6           0        0.984290    0.670291    0.040849
      6          1           0        1.809862    1.417162    0.033576
      7          1           0       -0.800899    2.040817   -0.000781
      8          1           0       -0.830671   -1.999299   -0.042974
      9          1           0        1.791310   -1.414652   -0.030356
 ---------------------------------------------------------------------
                    Distance matrix (angstroms):
                    1          2          3          4          5
     1  C    0.000000
     2  C    1.409369   0.000000
     3  O    2.273129   1.388022   0.000000
     4  C    2.203050   2.194408   1.371367   0.000000
     5  C    1.377334   2.265086   2.296828   1.397505   0.000000
     6  H    2.288031   3.364933   3.340175   2.196533   1.113301
     7  H    3.263197   3.203257   2.098166   1.077493   2.250994
     8  H    2.209126   0.973934   2.016908   3.095188   3.229214
     9  H    1.094648   2.191880   3.306529   3.276359   2.236814
                    6          7          8          9
     6  H    0.000000
     7  H    2.684436   0.000000
     8  H    4.318620   4.040446   0.000000
     9  H    2.832596   4.319802   2.686402   0.000000
 Stoichiometry    C4H4O
 Framework group  C1[X(C4H4O)]
 Deg. of freedom    21
 Full point group                 C1      NOp   1
 Largest Abelian subgroup         C1      NOp   1
 Largest concise Abelian subgroup C1      NOp   1
                         Standard orientation:                         
 ---------------------------------------------------------------------
 Center     Atomic      Atomic             Coordinates (Angstroms)
 Number     Number       Type             X           Y           Z
 ---------------------------------------------------------------------
      1          6           0        0.284427    1.155142   -0.014745
      2          6           0       -1.009958    0.597668   -0.004234
      3          8           0       -0.898506   -0.785851    0.003526
      4          6           0        0.448782   -1.041636    0.009463
      5          6           0        1.206793    0.132270   -0.010155
      6          1           0        2.319277    0.109767    0.026051
      7          1           0        0.757952   -2.073515   -0.015654
      8          1           0       -1.915603    0.955824    0.004693
      9          1           0        0.446161    2.234072    0.074725
 ---------------------------------------------------------------------
 Rotational constants (GHZ):      9.6411629      8.8409141      4.6127765
 Leave Link  202 at Tue Dec 15 17:06:00 2015, MaxMem=    33554432 cpu:         0.0
 (Enter /home/Applications/g09/g09/l301.exe)

 Semi-emprical parameters in input format:
 Method=8 CoreType=1 PeptideFC=0.0111590000 RIJScale=0.5404210000
 ****
 H       
 PQN=1 NValence=1 F0ss=0.4980120000 ZetaOverlap=1.0856700000 U=-0.4186260000
 Beta=-0.2268830000 CoreKO=1.0354420000 KON=0,0,0,1.0458670000 KON=1,0,1,1.0879310000
 KON=0,1,1,1.0589200000 KON=2,1,1,1.0697690000 EISol=-0.4188110042 EHeat=0.0830298228
 Alpha=1.4609850000
 GCore=0.0085280000,1.5127750000,2.2676710000
 GCore=0.0003530000,1.4551640000,3.4779940000
 GCore=-0.0013010000,0.5600570000,3.5861320000
 ****
 C       
 PQN=2,2 NValence=4 F0ss=0.4494440000 F0sp=0.4215150000 F0pp=0.3497590000 F2pp=0.1898720000
 G1sp=0.2701540000
 ZetaOverlap=1.8086650000,1.3781170000
 U=-1.7687090000,-1.4557970000
 Beta=-0.5012330000,-0.3063130000 DDN=0,1,0.7474020000 DDN=1,1,0.7268010000
 CoreKO=1.1356210000 KON=0,0,0,1.0966100000 KON=1,0,1,0.8998210000 KON=0,1,1,1.1124280000
 KON=2,1,1,0.7957910000 EISol=-4.4398989268 EHeat=0.2723305520 Alpha=1.2756240000
 DipHyp=1.4947180026
 GCore=0.0007890000,1.4001430000,2.6678360000
 GCore=0.0028980000,1.4001430000,3.2840710000
 GCore=-0.0013930000,1.3017660000,3.7634120000
 GCore=-0.0000850000,1.4001430000,4.6744780000
 ****
 O       
 PQN=2,2 NValence=6 F0ss=0.5596260000 F0sp=0.5321300000 F0pp=0.4958710000 F2pp=0.2543430000
 G1sp=0.4216980000
 ZetaOverlap=2.6354490000,2.4967270000
 U=-3.3169990000,-2.0345890000
 Beta=-1.1573400000,-1.1944970000 DDN=0,1,0.4953610000 DDN=1,1,0.5082060000
 CoreKO=0.8822960000 KON=0,0,0,0.8822960000 KON=1,0,1,0.5019540000 KON=0,1,1,0.7875880000
 KON=2,1,1,0.5515580000 EISol=-11.6164441184 EHeat=0.0949133088 Alpha=2.3677360000
 DipHyp=0.9906650029
 GCore=0.0205230000,1.2640290000,1.6023330000
 GCore=0.0056550000,1.9602000000,2.7307880000
 ****
 
 Standard basis: VSTO-6G (5D, 7F)
 Ernie: Thresh=  0.10000D-02 Tol=  0.10000D-05 Strict=F.
  NNHCO=     0 NNPyr=     0 NCTC=     0               EPep=         0.000000000
    EC=        68.154444845  ECS=         2.405333287   EG=         0.370085605
   EHC=         0.000000000  EAt=       -31.051283842  AtH=         1.516354808
 EPDDG=         0.000000000  ECC=        70.929863738 EAtT=        32.567638650
 There are    24 symmetry adapted cartesian basis functions of A   symmetry.
 There are    24 symmetry adapted basis functions of A   symmetry.
    24 basis functions,   144 primitive gaussians,    24 cartesian basis functions
    13 alpha electrons       13 beta electrons
       nuclear repulsion energy       103.4975023882 Hartrees.
 IExCor=    0 DFT=F Ex=HF Corr=None ExCW=0 ScaHFX=  1.000000
 ScaDFX=  1.000000  1.000000  1.000000  1.000000 ScalE2=  1.000000  1.000000
 IRadAn=      0 IRanWt=     -1 IRanGd=            0 ICorTp=0 IEmpDi=  4
 Integral buffers will be    131072 words long.
 Regular integral format.
 Two-electron integral symmetry is turned off.
 Leave Link  301 at Tue Dec 15 17:06:00 2015, MaxMem=    33554432 cpu:         0.0
 (Enter /home/Applications/g09/g09/l302.exe)
 Do NDO integrals.
 NPDir=0 NMtPBC=     1 NCelOv=     1 NCel=       1 NClECP=     1 NCelD=      1
         NCelK=      1 NCelE2=     1 NClLst=     1 CellRange=     0.0.
 One-electron integrals computed using PRISM.
 NBasis=    24 RedAO= F EigKep=  0.00D+00  NBF=    24
 NBsUse=    24 1.00D-04 EigRej=  0.00D+00 NBFU=    24
 Leave Link  302 at Tue Dec 15 17:06:00 2015, MaxMem=    33554432 cpu:         0.0
 (Enter /home/Applications/g09/g09/l308.exe)
 Leave Link  308 at Tue Dec 15 17:06:00 2015, MaxMem=    33554432 cpu:         0.0
 (Enter /home/Applications/g09/g09/l303.exe)
 DipDrv:  MaxL=1.
 Leave Link  303 at Tue Dec 15 17:06:00 2015, MaxMem=    33554432 cpu:         0.0
 (Enter /home/Applications/g09/g09/l401.exe)
 Simple Huckel Guess.
 JPrj=0 DoOrth=F DoCkMO=F.
 Leave Link  401 at Tue Dec 15 17:06:00 2015, MaxMem=    33554432 cpu:         0.0
 (Enter /home/Applications/g09/g09/l502.exe)
 Closed shell SCF:
 Using DIIS extrapolation, IDIIS=  1040.
 Overlap will be assumed to be unity.
 Two-electron integral symmetry not used.
 Keep J ints in memory in canonical form, NReq=888082.
 IVT=       79475 IEndB=       79475 NGot=    33554432 MDV=    33473473
 LenX=    33473473 LenY=    33472456
 Requested convergence on RMS density matrix=1.00D-08 within 128 cycles.
 Requested convergence on MAX density matrix=1.00D-06.
 Requested convergence on             energy=1.00D-06.
 No special actions if energy rises.
 FoFCou: FMM=F IPFlag=           0 FMFlag=           0 FMFlg1=           0
         NFxFlg=           0 DoJE=F BraDBF=F KetDBF=F FulRan=T
         wScrn=  0.000000 ICntrl=     600 IOpCl=  2 I1Cent=           0 NGrid=           0
         NMat0=    1 NMatS0=     54 NMatT0=    0 NMatD0=    1 NMtDS0=    0 NMtDT0=    0
 Symmetry not used in FoFCou.

 Cycle   1  Pass 1  IDiag  1:
 E=  4.94736699036575    
 DIIS: error= 1.47D-01 at cycle   1 NSaved=   1.
 NSaved= 1 IEnMin= 1 EnMin=  4.94736699036575     IErMin= 1 ErrMin= 1.47D-01
 ErrMax= 1.47D-01  0.00D+00 EMaxC= 1.00D-01 BMatC= 4.31D-01 BMatP= 4.31D-01
 IDIUse=3 WtCom= 0.00D+00 WtEn= 1.00D+00
 Coeff-Com:  0.100D+01
 Coeff-En:   0.100D+01
 Coeff:      0.100D+01
 GapD=    2.000 DampG=2.000 DampE=0.250 DampFc=0.5000 IDamp=-1.
 Damping current iteration by 5.00D-01
 RMSDP=6.30D-02 MaxDP=7.02D-01              OVMax= 0.00D+00

 Cycle   2  Pass 1  IDiag  1:
 E=  4.04350813411068     Delta-E=       -0.903858856255 Rises=F Damp=T
 DIIS: error= 8.85D-02 at cycle   2 NSaved=   2.
 NSaved= 2 IEnMin= 2 EnMin=  4.04350813411068     IErMin= 2 ErrMin= 8.85D-02
 ErrMax= 8.85D-02  0.00D+00 EMaxC= 1.00D-01 BMatC= 1.52D-01 BMatP= 4.31D-01
 IDIUse=3 WtCom= 1.15D-01 WtEn= 8.85D-01
 Coeff-Com: -0.113D+01 0.213D+01
 Coeff-En:   0.000D+00 0.100D+01
 Coeff:     -0.130D+00 0.113D+01
 RMSDP=3.59D-02 MaxDP=3.61D-01 DE=-9.04D-01 OVMax= 0.00D+00

 Cycle   3  Pass 1  IDiag  1:
 E=  2.87594490581695     Delta-E=       -1.167563228294 Rises=F Damp=F
 DIIS: error= 2.34D-02 at cycle   3 NSaved=   3.
 NSaved= 3 IEnMin= 3 EnMin=  2.87594490581695     IErMin= 3 ErrMin= 2.34D-02
 ErrMax= 2.34D-02  0.00D+00 EMaxC= 1.00D-01 BMatC= 1.54D-02 BMatP= 1.52D-01
 IDIUse=3 WtCom= 7.66D-01 WtEn= 2.34D-01
 Coeff-Com:  0.449D+00-0.103D+01 0.158D+01
 Coeff-En:   0.000D+00 0.000D+00 0.100D+01
 Coeff:      0.344D+00-0.791D+00 0.145D+01
 RMSDP=1.22D-02 MaxDP=5.64D-02 DE=-1.17D+00 OVMax= 0.00D+00

 Cycle   4  Pass 1  IDiag  1:
 E=  2.81307039245685     Delta-E=       -0.062874513360 Rises=F Damp=F
 DIIS: error= 6.17D-03 at cycle   4 NSaved=   4.
 NSaved= 4 IEnMin= 4 EnMin=  2.81307039245685     IErMin= 4 ErrMin= 6.17D-03
 ErrMax= 6.17D-03  0.00D+00 EMaxC= 1.00D-01 BMatC= 1.15D-03 BMatP= 1.54D-02
 IDIUse=3 WtCom= 9.38D-01 WtEn= 6.17D-02
 Coeff-Com: -0.804D-01 0.157D+00-0.430D+00 0.135D+01
 Coeff-En:   0.000D+00 0.000D+00 0.000D+00 0.100D+01
 Coeff:     -0.755D-01 0.148D+00-0.404D+00 0.133D+01
 RMSDP=4.04D-03 MaxDP=2.26D-02 DE=-6.29D-02 OVMax= 0.00D+00

 Cycle   5  Pass 1  IDiag  3:
 E=  2.80792173175874     Delta-E=       -0.005148660698 Rises=F Damp=F
 DIIS: error= 1.16D-03 at cycle   5 NSaved=   5.
 NSaved= 5 IEnMin= 5 EnMin=  2.80792173175874     IErMin= 5 ErrMin= 1.16D-03
 ErrMax= 1.16D-03  0.00D+00 EMaxC= 1.00D-01 BMatC= 4.12D-05 BMatP= 1.15D-03
 IDIUse=3 WtCom= 9.88D-01 WtEn= 1.16D-02
 Coeff-Com:  0.155D-01-0.272D-01 0.971D-01-0.473D+00 0.139D+01
 Coeff-En:   0.000D+00 0.000D+00 0.000D+00 0.000D+00 0.100D+01
 Coeff:      0.153D-01-0.268D-01 0.960D-01-0.468D+00 0.138D+01
 Gap=     0.419 Goal=   None    Shift=    0.000
 RMSDP=8.39D-04 MaxDP=5.39D-03 DE=-5.15D-03 OVMax= 6.21D-03

 Cycle   6  Pass 1  IDiag  3:
 E=  2.80771745534487     Delta-E=       -0.000204276414 Rises=F Damp=F
 DIIS: error= 2.12D-04 at cycle   6 NSaved=   6.
 NSaved= 6 IEnMin= 6 EnMin=  2.80771745534487     IErMin= 6 ErrMin= 2.12D-04
 ErrMax= 2.12D-04  0.00D+00 EMaxC= 1.00D-01 BMatC= 1.64D-06 BMatP= 4.12D-05
 IDIUse=3 WtCom= 9.98D-01 WtEn= 2.12D-03
 Coeff-Com: -0.146D-02 0.259D-02-0.224D-01 0.137D+00-0.568D+00 0.145D+01
 Coeff-En:   0.000D+00 0.000D+00 0.000D+00 0.000D+00 0.000D+00 0.100D+01
 Coeff:     -0.145D-02 0.258D-02-0.223D-01 0.136D+00-0.567D+00 0.145D+01
 Gap=     0.420 Goal=   None    Shift=    0.000
 RMSDP=1.73D-04 MaxDP=1.14D-03 DE=-2.04D-04 OVMax= 1.08D-03

 Cycle   7  Pass 1  IDiag  3:
 E=  2.80770983834955     Delta-E=       -0.000007616995 Rises=F Damp=F
 DIIS: error= 2.27D-05 at cycle   7 NSaved=   7.
 NSaved= 7 IEnMin= 7 EnMin=  2.80770983834955     IErMin= 7 ErrMin= 2.27D-05
 ErrMax= 2.27D-05  0.00D+00 EMaxC= 1.00D-01 BMatC= 2.77D-08 BMatP= 1.64D-06
 IDIUse=1 WtCom= 1.00D+00 WtEn= 0.00D+00
 Coeff-Com:  0.966D-04-0.868D-04 0.750D-02-0.505D-01 0.220D+00-0.612D+00
 Coeff-Com:  0.144D+01
 Coeff:      0.966D-04-0.868D-04 0.750D-02-0.505D-01 0.220D+00-0.612D+00
 Coeff:      0.144D+01
 Gap=     0.420 Goal=   None    Shift=    0.000
 RMSDP=2.00D-05 MaxDP=1.06D-04 DE=-7.62D-06 OVMax= 1.56D-04

 Cycle   8  Pass 1  IDiag  3:
 E=  2.80770972006468     Delta-E=       -0.000000118285 Rises=F Damp=F
 DIIS: error= 4.38D-06 at cycle   8 NSaved=   8.
 NSaved= 8 IEnMin= 8 EnMin=  2.80770972006468     IErMin= 8 ErrMin= 4.38D-06
 ErrMax= 4.38D-06  0.00D+00 EMaxC= 1.00D-01 BMatC= 5.70D-10 BMatP= 2.77D-08
 IDIUse=1 WtCom= 1.00D+00 WtEn= 0.00D+00
 Coeff-Com:  0.594D-06-0.476D-04-0.862D-03 0.650D-02-0.299D-01 0.831D-01
 Coeff-Com: -0.246D+00 0.119D+01
 Coeff:      0.594D-06-0.476D-04-0.862D-03 0.650D-02-0.299D-01 0.831D-01
 Coeff:     -0.246D+00 0.119D+01
 Gap=     0.420 Goal=   None    Shift=    0.000
 RMSDP=2.49D-06 MaxDP=1.66D-05 DE=-1.18D-07 OVMax= 1.66D-05

 Cycle   9  Pass 1  IDiag  3:
 E=  2.80770971779762     Delta-E=       -0.000000002267 Rises=F Damp=F
 DIIS: error= 1.30D-06 at cycle   9 NSaved=   9.
 NSaved= 9 IEnMin= 9 EnMin=  2.80770971779762     IErMin= 9 ErrMin= 1.30D-06
 ErrMax= 1.30D-06  0.00D+00 EMaxC= 1.00D-01 BMatC= 3.46D-11 BMatP= 5.70D-10
 IDIUse=1 WtCom= 1.00D+00 WtEn= 0.00D+00
 Coeff-Com:  0.110D-05 0.580D-05-0.204D-04 0.772D-04-0.486D-04 0.121D-02
 Coeff-Com:  0.456D-02-0.314D+00 0.131D+01
 Coeff:      0.110D-05 0.580D-05-0.204D-04 0.772D-04-0.486D-04 0.121D-02
 Coeff:      0.456D-02-0.314D+00 0.131D+01
 Gap=     0.420 Goal=   None    Shift=    0.000
 RMSDP=7.61D-07 MaxDP=5.34D-06 DE=-2.27D-09 OVMax= 5.18D-06

 Cycle  10  Pass 1  IDiag  3:
 E=  2.80770971763135     Delta-E=       -0.000000000166 Rises=F Damp=F
 DIIS: error= 2.74D-07 at cycle  10 NSaved=  10.
 NSaved=10 IEnMin=10 EnMin=  2.80770971763135     IErMin=10 ErrMin= 2.74D-07
 ErrMax= 2.74D-07  0.00D+00 EMaxC= 1.00D-01 BMatC= 1.79D-12 BMatP= 3.46D-11
 IDIUse=1 WtCom= 1.00D+00 WtEn= 0.00D+00
 Coeff-Com:  0.151D-05-0.390D-05 0.591D-05-0.510D-04 0.202D-03-0.117D-02
 Coeff-Com:  0.345D-03 0.114D+00-0.572D+00 0.146D+01
 Coeff:      0.151D-05-0.390D-05 0.591D-05-0.510D-04 0.202D-03-0.117D-02
 Coeff:      0.345D-03 0.114D+00-0.572D+00 0.146D+01
 Gap=     0.420 Goal=   None    Shift=    0.000
 RMSDP=1.88D-07 MaxDP=1.46D-06 DE=-1.66D-10 OVMax= 1.69D-06

 Cycle  11  Pass 1  IDiag  3:
 E=  2.80770971762165     Delta-E=       -0.000000000010 Rises=F Damp=F
 DIIS: error= 8.32D-08 at cycle  11 NSaved=  11.
 NSaved=11 IEnMin=11 EnMin=  2.80770971762165     IErMin=11 ErrMin= 8.32D-08
 ErrMax= 8.32D-08  0.00D+00 EMaxC= 1.00D-01 BMatC= 1.41D-13 BMatP= 1.79D-12
 IDIUse=1 WtCom= 1.00D+00 WtEn= 0.00D+00
 Coeff-Com: -0.638D-06 0.116D-05-0.346D-05 0.460D-04-0.228D-03 0.103D-02
 Coeff-Com: -0.136D-02-0.548D-01 0.294D+00-0.940D+00 0.170D+01
 Coeff:     -0.638D-06 0.116D-05-0.346D-05 0.460D-04-0.228D-03 0.103D-02
 Coeff:     -0.136D-02-0.548D-01 0.294D+00-0.940D+00 0.170D+01
 Gap=     0.420 Goal=   None    Shift=    0.000
 RMSDP=6.94D-08 MaxDP=6.23D-07 DE=-9.71D-12 OVMax= 7.17D-07

 Cycle  12  Pass 1  IDiag  3:
 E=  2.80770971762044     Delta-E=       -0.000000000001 Rises=F Damp=F
 DIIS: error= 1.30D-08 at cycle  12 NSaved=  12.
 NSaved=12 IEnMin=12 EnMin=  2.80770971762044     IErMin=12 ErrMin= 1.30D-08
 ErrMax= 1.30D-08  0.00D+00 EMaxC= 1.00D-01 BMatC= 5.71D-15 BMatP= 1.41D-13
 IDIUse=1 WtCom= 1.00D+00 WtEn= 0.00D+00
 Coeff-Com: -0.202D-07 0.579D-07 0.125D-06-0.142D-04 0.799D-04-0.409D-03
 Coeff-Com:  0.596D-03 0.235D-01-0.127D+00 0.417D+00-0.874D+00 0.156D+01
 Coeff:     -0.202D-07 0.579D-07 0.125D-06-0.142D-04 0.799D-04-0.409D-03
 Coeff:      0.596D-03 0.235D-01-0.127D+00 0.417D+00-0.874D+00 0.156D+01
 Gap=     0.420 Goal=   None    Shift=    0.000
 RMSDP=1.30D-08 MaxDP=1.17D-07 DE=-1.21D-12 OVMax= 1.28D-07

 Cycle  13  Pass 1  IDiag  3:
 E=  2.80770971762044     Delta-E=        0.000000000000 Rises=F Damp=F
 DIIS: error= 1.40D-09 at cycle  13 NSaved=  13.
 NSaved=13 IEnMin=12 EnMin=  2.80770971762044     IErMin=13 ErrMin= 1.40D-09
 ErrMax= 1.40D-09  0.00D+00 EMaxC= 1.00D-01 BMatC= 1.27D-16 BMatP= 5.71D-15
 IDIUse=1 WtCom= 1.00D+00 WtEn= 0.00D+00
 Coeff-Com:  0.696D-08-0.100D-07-0.183D-06 0.518D-05-0.271D-04 0.134D-03
 Coeff-Com: -0.205D-03-0.745D-02 0.405D-01-0.133D+00 0.280D+00-0.569D+00
 Coeff-Com:  0.139D+01
 Coeff:      0.696D-08-0.100D-07-0.183D-06 0.518D-05-0.271D-04 0.134D-03
 Coeff:     -0.205D-03-0.745D-02 0.405D-01-0.133D+00 0.280D+00-0.569D+00
 Coeff:      0.139D+01
 Gap=     0.420 Goal=   None    Shift=    0.000
 RMSDP=1.53D-09 MaxDP=9.39D-09 DE= 0.00D+00 OVMax= 1.01D-08

 Cycle  14  Pass 2  IDiag  1:
 SCF Done:  E(RAM1) =   2.80770971762     A.U. after   14 cycles
            NFock= 13  Conv=0.15D-08     -V/T= 1.1904
 KE=-1.474902616468D+01 PE=-1.683579208467D+02 EE= 8.241715434079D+01
 Leave Link  502 at Tue Dec 15 17:06:01 2015, MaxMem=    33554432 cpu:         0.0
 (Enter /home/Applications/g09/g09/l801.exe)
 Range of M.O.s used for correlation:     1    24
 NBasis=    24 NAE=    13 NBE=    13 NFC=     0 NFV=     0
 NROrb=     24 NOA=    13 NOB=    13 NVA=    11 NVB=    11
 Leave Link  801 at Tue Dec 15 17:06:01 2015, MaxMem=    33554432 cpu:         0.0
 (Enter /home/Applications/g09/g09/l914.exe)
 RHF ground state
 MDV=    33554432 DFT=F DoStab=F Mixed=F DoRPA=F DoScal=F NonHer=F
 Making orbital integer symmetry assigments:
 Orbital symmetries:
       Occupied  (A) (A) (A) (A) (A) (A) (A) (A) (A) (A) (A) (A)
                 (A)
       Virtual   (A) (A) (A) (A) (A) (A) (A) (A) (A) (A) (A)
    60 initial guesses have been made.
 Convergence on wavefunction:    0.000001000000000
 Davidson Disk Diagonalization:  ConvIn= 1.00D-06 SkipCon=T Conv= 1.00D-06.
 Max sub-space:   240 roots to seek:    60 dimension of matrix:          286
 Iteration     1 Dimension    60 NMult     0 NNew     60
 CISAX will form    60 AO SS matrices at one time.
 NMat=    60 NSing=    60 JSym2X= 0.
 FoFJK:  IHMeth= 8 ICntrl=       0 DoSepK=F KAlg= 0 I1Cent=   0 FoldK=F
 IRaf=         1 NMat= 120 IRICut=       1 DoRegI=T DoRafI=F ISym2E= 0.
 FoFCou: FMM=F IPFlag=           0 FMFlag=      100000 FMFlg1=           0
         NFxFlg=           0 DoJE=F BraDBF=F KetDBF=F FulRan=T
         wScrn=  0.000000 ICntrl=       0 IOpCl=  0 I1Cent=           0 NGrid=           0
         NMat0=  120 NMatS0=     60 NMatT0=    0 NMatD0=  120 NMtDS0=    0 NMtDT0=    0
 Symmetry not used in FoFCou.
 New state      3 was old state      4
 New state      4 was old state      3
 New state      5 was old state      7
 New state      7 was old state     13
 New state      8 was old state      5
 New state     10 was old state      8
 New state     12 was old state     10
 New state     13 was old state     12
 Excitation Energies [eV] at current iteration:
 Root      1 :     5.703001541677824
 Root      2 :     6.823952466495400
 Root      3 :     7.209424899494056
 Root      4 :     7.284086152532372
 Root      5 :     7.714571914492780
 Root      6 :     8.275935971303550
 Root      7 :     8.561872896321889
 Root      8 :     8.627139085472525
 Root      9 :     9.031388770989167
 Root     10 :     9.292319852346202
 Root     11 :     9.728594526642524
 Root     12 :     9.751105347355821
 Root     13 :     9.931312371129856
 Root     14 :    10.038441572807300
 Root     15 :    10.166822346123460
 Root     16 :    10.369387392008020
 Root     17 :    10.457936144716890
 Root     18 :    10.523575441391700
 Root     19 :    11.110725317353070
 Root     20 :    11.182505519611470
 Root     21 :    11.299395298743030
 Root     22 :    11.461854445694240
 Root     23 :    11.517720629058020
 Root     24 :    11.762722159457240
 Root     25 :    11.876784756237920
 Root     26 :    11.948720870049390
 Root     27 :    11.984243766733610
 Root     28 :    12.068710523891220
 Root     29 :    12.414793808922720
 Root     30 :    12.624655526328960
 Root     31 :    12.728308041601690
 Root     32 :    12.888476828479430
 Root     33 :    12.919232154785170
 Root     34 :    12.991810732710570
 Root     35 :    13.249855345803400
 Root     36 :    13.297360706202620
 Root     37 :    13.637113207875100
 Root     38 :    13.690198866844930
 Root     39 :    13.778031602523280
 Root     40 :    13.813751750725850
 Root     41 :    13.914080423734500
 Root     42 :    13.980744997031130
 Root     43 :    14.114317212294780
 Root     44 :    14.230046491648580
 Root     45 :    14.611622595240390
 Root     46 :    14.863609409982160
 Root     47 :    14.910957136176170
 Root     48 :    14.974677596276750
 Root     49 :    15.039598550299870
 Root     50 :    15.464559506880430
 Root     51 :    15.638417862668490
 Root     52 :    15.648123489836150
 Root     53 :    15.761292628803340
 Root     54 :    16.022506323338390
 Root     55 :    16.088061662346730
 Root     56 :    16.559925823861650
 Root     57 :    16.681940678625510
 Root     58 :    16.907483670173640
 Root     59 :    17.014102419198020
 Root     60 :    17.542007568595700
 Iteration     2 Dimension   120 NMult    60 NNew     60
 CISAX will form    60 AO SS matrices at one time.
 NMat=    60 NSing=    60 JSym2X= 0.
 Root      1 not converged, maximum delta is    0.022188997601138
 Root      2 not converged, maximum delta is    0.037753331653284
 Root      3 not converged, maximum delta is    0.066128385710533
 Root      4 not converged, maximum delta is    0.074608510360332
 Root      5 not converged, maximum delta is    0.016583906823492
 Root      6 not converged, maximum delta is    0.035574633638690
 Root      7 not converged, maximum delta is    0.036915599937246
 Root      8 not converged, maximum delta is    0.018376961860283
 Root      9 not converged, maximum delta is    0.069624470390234
 Root     10 not converged, maximum delta is    0.086696400399860
 Root     11 not converged, maximum delta is    0.171150578473063
 Root     12 not converged, maximum delta is    0.092554958109721
 Root     13 not converged, maximum delta is    0.059362736878246
 Root     14 not converged, maximum delta is    0.050300061286185
 Root     15 not converged, maximum delta is    0.067723706173713
 Excitation Energies [eV] at current iteration:
 Root      1 :     5.637619187321426   Change is   -0.065382354356398
 Root      2 :     6.783114101337073   Change is   -0.040838365158327
 Root      3 :     7.167442514775217   Change is   -0.041982384718838
 Root      4 :     7.238678660935694   Change is   -0.045407491596677
 Root      5 :     7.696180864418150   Change is   -0.018391050074629
 Root      6 :     8.238403279640973   Change is   -0.037532691662577
 Root      7 :     8.524979333873961   Change is   -0.036893562447928
 Root      8 :     8.604938517506532   Change is   -0.022200567965993
 Root      9 :     9.002684509982402   Change is   -0.028704261006767
 Root     10 :     9.226983701055694   Change is   -0.065336151290508
 Root     11 :     9.421026427572578   Change is   -0.307568099069948
 Root     12 :     9.682290921331981   Change is   -0.068814426023841
 Root     13 :     9.875980316989708   Change is   -0.055332054140149
 Root     14 :     9.969963897537545   Change is   -0.068477675269756
 Root     15 :    10.068662404365610   Change is   -0.098159941757844
 Root     16 :    10.245575364605910   Change is   -0.278000076785790
 Root     17 :    10.276151819541600   Change is   -0.093235572466425
 Root     18 :    10.431087630899630   Change is   -0.026848513817269
 Root     19 :    10.717682772260760   Change is   -0.393042545092311
 Root     20 :    10.871239582660590   Change is   -0.311265936950878
 Root     21 :    11.087767564676890   Change is   -0.211627734066139
 Root     22 :    11.311331078346160   Change is   -0.150523367348087
 Root     23 :    11.481776277444180   Change is   -0.035944351613843
 Root     24 :    11.622732947869770   Change is   -0.139989211587471
 Root     25 :    11.690272775343930   Change is   -0.186511980893992
 Root     26 :    11.792516475398700   Change is   -0.191727291334904
 Root     27 :    11.833428471585420   Change is   -0.115292398463975
 Root     28 :    11.927178737270140   Change is   -0.141531786621075
 Root     29 :    12.118113800918540   Change is   -0.296680008004183
 Root     30 :    12.288771553537530   Change is   -0.335883972791433
 Root     31 :    12.616732464831140   Change is   -0.111575576770553
 Root     32 :    12.667517537970230   Change is   -0.220959290509205
 Root     33 :    12.819578669535760   Change is   -0.172232063174808
 Root     34 :    12.883383869265190   Change is   -0.035848285519981
 Root     35 :    13.110355380746040   Change is   -0.187005325456582
 Root     36 :    13.151814901908950   Change is   -0.098040443894452
 Root     37 :    13.474454576213710   Change is   -0.162658631661390
 Root     38 :    13.520524838491990   Change is   -0.169674028352943
 Root     39 :    13.649951577573260   Change is   -0.128080024950015
 Root     40 :    13.662528710457760   Change is   -0.251551713276742
 Root     41 :    13.694292993499910   Change is   -0.286452003531219
 Root     42 :    13.799375069352520   Change is   -0.014376681373327
 Root     43 :    13.962924278282280   Change is   -0.151392934012499
 Root     44 :    14.112467201713820   Change is   -0.117579289934755
 Root     45 :    14.447675781936460   Change is   -0.163946813303928
 Root     46 :    14.616223095707700   Change is   -0.247386314274459
 Root     47 :    14.702951385911840   Change is   -0.208005750264327
 Root     48 :    14.739537990869740   Change is   -0.235139605407004
 Root     49 :    14.921595586251230   Change is   -0.118002964048639
 Root     50 :    15.187951739483470   Change is   -0.276607767396954
 Root     51 :    15.442468640619260   Change is   -0.195949222049233
 Root     52 :    15.457306502292110   Change is   -0.190816987544041
 Root     53 :    15.521071632208620   Change is   -0.240220996594715
 Root     54 :    15.807079824097690   Change is   -0.280981838249035
 Root     55 :    15.911650358090640   Change is   -0.110855965247750
 Root     56 :    15.967356175390740   Change is   -0.714584503234766
 Root     57 :    16.445267718433760   Change is   -0.114658105427892
 Root     58 :    16.610033822274770
 Root     59 :    16.782723038029140   Change is   -0.124760632144497
 Root     60 :    16.861850998061720   Change is   -0.152251421136298
 Iteration     3 Dimension   135 NMult   120 NNew     15
 CISAX will form    15 AO SS matrices at one time.
 NMat=    15 NSing=    15 JSym2X= 0.
 Root      1 not converged, maximum delta is    0.001604426263624
 Root      2 not converged, maximum delta is    0.000137644184233
 Root      3 not converged, maximum delta is    0.000257560222589
 Root      4 not converged, maximum delta is    0.000095724772018
 Root      5 not converged, maximum delta is    0.000074594164047
 Root      6 not converged, maximum delta is    0.000179033948267
 Root      7 not converged, maximum delta is    0.000129823716077
 Root      8 not converged, maximum delta is    0.000716163885490
 Root      9 not converged, maximum delta is    0.000164382821902
 Root     10 not converged, maximum delta is    0.000197598712538
 Root     11 not converged, maximum delta is    0.003699456102324
 Root     12 not converged, maximum delta is    0.000203146784229
 Root     13 not converged, maximum delta is    0.000783585127136
 Root     14 not converged, maximum delta is    0.001896596255478
 Root     15 not converged, maximum delta is    0.002025326351020
 Excitation Energies [eV] at current iteration:
 Root      1 :     5.637185877090158   Change is   -0.000433310231267
 Root      2 :     6.783112028954387   Change is   -0.000002072382686
 Root      3 :     7.167433027998689   Change is   -0.000009486776529
 Root      4 :     7.238676870269122   Change is   -0.000001790666572
 Root      5 :     7.696179511818509   Change is   -0.000001352599642
 Root      6 :     8.238399808999993   Change is   -0.000003470640980
 Root      7 :     8.524976706472430   Change is   -0.000002627401532
 Root      8 :     8.604841620242730   Change is   -0.000096897263801
 Root      9 :     9.002680277223977   Change is   -0.000004232758425
 Root     10 :     9.226975235275914   Change is   -0.000008465779779
 Root     11 :     9.419951343187135   Change is   -0.001075084385442
 Root     12 :     9.682280729320821   Change is   -0.000010192011160
 Root     13 :     9.875863546425510   Change is   -0.000116770564198
 Root     14 :     9.969619474906390   Change is   -0.000344422631155
 Root     15 :    10.067597393907020   Change is   -0.001065010458594
 Iteration     4 Dimension   143 NMult   135 NNew      8
 CISAX will form     8 AO SS matrices at one time.
 NMat=     8 NSing=     8 JSym2X= 0.
 Root      1 not converged, maximum delta is    0.000065532083766
 Root      2 not converged, maximum delta is    0.000003192607267
 Root      3 not converged, maximum delta is    0.000006800254112
 Root      4 not converged, maximum delta is    0.000005888116399
 Root      5 not converged, maximum delta is    0.000006677116315
 Root      6 not converged, maximum delta is    0.000008432852018
 Root      7 not converged, maximum delta is    0.000003259125763
 Root      8 not converged, maximum delta is    0.000032815159673
 Root      9 not converged, maximum delta is    0.000013769753709
 Root     10 not converged, maximum delta is    0.000015370372319
 Root     11 not converged, maximum delta is    0.000173488205356
 Root     12 not converged, maximum delta is    0.000017424745135
 Root     13 not converged, maximum delta is    0.000040520300090
 Root     14 not converged, maximum delta is    0.000079988931661
 Root     15 not converged, maximum delta is    0.000165672615175
 Excitation Energies [eV] at current iteration:
 Root      1 :     5.637184748857503   Change is   -0.000001128232656
 Root      2 :     6.783112026422183   Change is   -0.000000002532205
 Root      3 :     7.167433016304769   Change is   -0.000000011693919
 Root      4 :     7.238676866512623   Change is   -0.000000003756499
 Root      5 :     7.696179506081858   Change is   -0.000000005736650
 Root      6 :     8.238399802273246   Change is   -0.000000006726747
 Root      7 :     8.524976703708685   Change is   -0.000000002763745
 Root      8 :     8.604841415417026   Change is   -0.000000204825705
 Root      9 :     9.002680251818482   Change is   -0.000000025405494
 Root     10 :     9.226975195707281   Change is   -0.000000039568634
 Root     11 :     9.419945792529369   Change is   -0.000005550657767
 Root     12 :     9.682280703834479   Change is   -0.000000025486341
 Root     13 :     9.875863091192356   Change is   -0.000000455233153
 Root     14 :     9.969618408446351   Change is   -0.000001066460039
 Root     15 :    10.067593600674930   Change is   -0.000003793232087
 Convergence achieved on expansion vectors.
 ***********************************************************************
 Excited states from <AA,BB:AA,BB> singles matrix:
 ***********************************************************************
 
 1PDM for each excited state written to RWF  633
 Ground to excited state transition densities written to RWF  633
 Ground to excited state transition electric dipole moments (Au):
       state          X           Y           Z        Dip. S.      Osc.
         1         0.9961     -1.1075      0.0140      2.2190      0.3065
         2         0.0348     -0.0478      0.2050      0.0455      0.0076
         3         0.0616     -0.0722     -0.0895      0.0170      0.0030
         4         0.0404     -0.0406      0.1126      0.0160      0.0028
         5        -0.0485      0.0067      0.1471      0.0240      0.0045
         6        -0.0319      0.0316     -0.1878      0.0373      0.0075
         7         0.0246      0.0002      0.1304      0.0176      0.0037
         8        -0.5691     -0.4187      0.0223      0.4997      0.1053
         9         0.0327     -0.0413      0.0113      0.0029      0.0006
        10        -0.0230      0.0034      0.0974      0.0100      0.0023
        11        -0.3425      0.4275     -0.0098      0.3002      0.0693
        12         0.0094      0.0102      0.6245      0.3902      0.0926
        13         0.1071     -0.2148     -0.0173      0.0579      0.0140
        14        -0.1595     -0.1335      0.0809      0.0498      0.0122
        15        -0.4084      0.7608      0.0493      0.7481      0.1845
 Ground to excited state transition velocity dipole moments (Au):
       state          X           Y           Z        Dip. S.      Osc.
         1        -0.1309      0.1461      0.0052      0.0385      0.1240
         2        -0.0086      0.0035     -0.1766      0.0313      0.0836
         3        -0.0125      0.0177      0.0134      0.0006      0.0016
         4        -0.0094      0.0104     -0.0783      0.0063      0.0159
         5         0.0087      0.0005      0.0182      0.0004      0.0010
         6         0.0045     -0.0045     -0.0074      0.0001      0.0002
         7        -0.0040     -0.0041      0.0138      0.0002      0.0005
         8         0.1750      0.1377     -0.0038      0.0496      0.1046
         9        -0.0076      0.0111      0.0139      0.0004      0.0008
        10        -0.0039      0.0083     -0.0068      0.0001      0.0003
        11         0.0244     -0.0368     -0.0042      0.0020      0.0038
        12         0.0007      0.0004      0.0631      0.0040      0.0075
        13        -0.0164      0.0351     -0.0464      0.0037      0.0067
        14        -0.0142     -0.0230     -0.0219      0.0012      0.0022
        15         0.0714     -0.1083     -0.0219      0.0173      0.0312
 Ground to excited state transition magnetic dipole moments (Au):
       state          X           Y           Z
         1        -0.0414     -0.0170      0.5930
         2        -0.0990      0.2923      0.0181
         3         0.8520      0.3074      0.0663
         4        -0.0621      0.0839      0.0483
         5        -0.2983      0.7990     -0.0081
         6         0.5933      0.0203     -0.0115
         7         0.2010      0.6294     -0.0010
         8         0.0242     -0.0208     -0.0119
         9         0.0666      0.2773      0.0488
        10        -0.1744     -0.1460      0.0177
        11         0.0138      0.0045     -0.3040
        12         0.1017      0.0316      0.0109
        13         0.2465      0.1044      0.0484
        14         0.0380      0.0168     -0.0100
        15         0.0537     -0.0073     -0.2472
 Ground to excited state transition velocity quadrupole moments (Au):
       state          XX          YY          ZZ          XY          XZ          YZ
         1        -0.3483      0.3293      0.0010      0.0426     -0.0006      0.0168
         2        -0.0114      0.0319     -0.0013     -0.0002     -0.1644      0.0115
         3        -0.0205      0.0625      0.0031      0.0099      0.0347     -0.1079
         4        -0.0012      0.0305      0.0009     -0.0070      0.1441     -0.2839
         5        -0.0105     -0.0297     -0.0029      0.0057      0.1734      0.0416
         6        -0.0069     -0.0242      0.0051      0.0046     -0.0476      0.2653
         7         0.0017      0.0073     -0.0051     -0.0144     -0.3639      0.2421
         8         0.0659      0.0002     -0.0165      0.2770     -0.0184     -0.0188
         9        -0.0211      0.0478      0.0010     -0.0022     -0.0273     -0.0546
        10        -0.0109      0.0285     -0.0027      0.0075      0.1690     -0.1773
        11         0.0300     -0.2274     -0.0105     -0.0083     -0.0003     -0.0104
        12        -0.0022     -0.0221      0.0096     -0.0082      0.0080      0.0820
        13        -0.0904      0.0220     -0.0054      0.0239     -0.1096      0.2609
        14        -0.2554     -0.2391     -0.0704      0.1547      0.0351      0.0179
        15         0.2810     -0.1245     -0.0057     -0.0344     -0.0145      0.0819
 <0|del|b> * <b|rxdel|0> + <0|del|b> * <b|delr+rdel|0>
 Rotatory Strengths (R) in cgs (10**-40 erg-esu-cm/Gauss)
       state          XX          YY          ZZ    R(velocity)    E-M Angle
         1         1.5288     10.3719      8.5997      6.8335       87.05
         2        -2.2321     -3.5195      1.9793     -1.2574       91.39
         3         7.8349    -11.4884     -8.0164     -3.8900      100.84
         4        -5.1337     -1.4501      0.3955     -2.0628      104.74
         5         0.3458     -3.1117     -3.0856     -1.9505       97.82
         6        -0.2995      4.6620      1.8727      2.0784       62.64
         7        -4.8398     -1.8154     -1.0412     -2.5655      110.17
         8        -1.4816      2.2785      2.3660      1.0543       79.25
         9         4.2971      0.6580      1.9761      2.3104       54.49
        10        -2.8953      1.3589      0.1866     -0.4499      104.44
        11         1.1454      1.3418      0.4426      0.9766       83.91
        12         0.1783      1.3320      0.0293      0.5132       83.42
        13         4.0557     -9.2278      0.0510     -1.7070       99.19
        14        -2.6533      2.7137     -1.4285     -0.4560      118.45
        15         5.1471     13.7144      0.3259      6.3958       72.45
 1/2[<0|r|b>*<b|rxdel|0> + (<0|rxdel|b>*<b|r|0>)*]
 Rotatory Strengths (R) in cgs (10**-40 erg-esu-cm/Gauss)
       state          XX          YY          ZZ     R(length)
         1        29.1902    -13.3390     -5.8691      3.3273
         2         2.4342      9.8756     -2.6291      3.2269
         3       -37.1196     15.6894      4.1983     -5.7439
         4         1.7754      2.4086     -3.8445      0.1132
         5       -10.2293     -3.7851      0.8381     -4.3921
         6        13.3665     -0.4533     -1.5338      3.7932
         7        -3.4921     -0.0915      0.0951     -1.1629
         8         9.7327     -6.1567      0.1872      1.2544
         9        -1.5401      8.1018     -0.3892      2.0575
        10        -2.8343      0.3505     -1.2195     -1.2344
        11         3.3418     -1.3716     -2.1153     -0.0484
        12        -0.6775     -0.2287     -4.8042     -1.9035
        13       -18.6752     15.8589      0.5912     -0.7417
        14         4.2878      1.5868      0.5704      2.1484
        15        15.5149      3.9015      8.6165      9.3443
  1/2[<0|del|b>*<b|r|0> + (<0|r|b>*<b|del|0>)*] (Au)
       state          X           Y           Z        Dip. S.   Osc.(frdel)
         1        -0.1304     -0.1618      0.0001      0.2922      0.1948
         2        -0.0003     -0.0002     -0.0362      0.0367      0.0244
         3        -0.0008     -0.0013     -0.0012      0.0032      0.0022
         4        -0.0004     -0.0004     -0.0088      0.0096      0.0064
         5        -0.0004      0.0000      0.0027     -0.0023     -0.0015
         6        -0.0001     -0.0001      0.0014     -0.0011     -0.0007
         7        -0.0001      0.0000      0.0018     -0.0017     -0.0011
         8        -0.0996     -0.0576     -0.0001      0.1573      0.1049
         9        -0.0002     -0.0005      0.0002      0.0005      0.0004
        10         0.0001      0.0000     -0.0007      0.0005      0.0004
        11        -0.0084     -0.0157      0.0000      0.0241      0.0160
        12         0.0000      0.0000      0.0394     -0.0394     -0.0263
        13        -0.0018     -0.0075      0.0008      0.0085      0.0057
        14         0.0023      0.0031     -0.0018     -0.0036     -0.0024
        15        -0.0292     -0.0824     -0.0011      0.1127      0.0751

 Excitation energies and oscillator strengths:
 
 Excited State   1:      Singlet-A      5.6372 eV  219.94 nm  f=0.3065  <S**2>=0.000
      13 -> 14         0.69008
 This state for optimization and/or second-order correction.
 Total Energy, E(CIS) =   3.01487245428    
 Copying the excited state density for this state as the 1-particle RhoCI density.
 
 Excited State   2:      Singlet-A      6.7831 eV  182.78 nm  f=0.0076  <S**2>=0.000
      11 -> 15         0.10927
      13 -> 15         0.62430
      13 -> 16         0.17521
      13 -> 17        -0.21720
 
 Excited State   3:      Singlet-A      7.1674 eV  172.98 nm  f=0.0030  <S**2>=0.000
       9 -> 14         0.11415
      12 -> 14         0.64316
      13 -> 16        -0.20299
 
 Excited State   4:      Singlet-A      7.2387 eV  171.28 nm  f=0.0028  <S**2>=0.000
      12 -> 14         0.23664
      13 -> 15        -0.13110
      13 -> 16         0.59036
      13 -> 18        -0.14693
      13 -> 19         0.14935
 
 Excited State   5:      Singlet-A      7.6962 eV  161.10 nm  f=0.0045  <S**2>=0.000
      10 -> 14         0.64254
      11 -> 14         0.25988
 
 Excited State   6:      Singlet-A      8.2384 eV  150.50 nm  f=0.0075  <S**2>=0.000
      11 -> 15         0.14785
      13 -> 15         0.17627
      13 -> 17         0.51247
      13 -> 18        -0.23404
      13 -> 21         0.31740
 
 Excited State   7:      Singlet-A      8.5250 eV  145.44 nm  f=0.0037  <S**2>=0.000
      11 -> 16         0.15444
      13 -> 17        -0.37327
      13 -> 18        -0.27354
      13 -> 19        -0.13006
      13 -> 21         0.46802
 
 Excited State   8:      Singlet-A      8.6048 eV  144.09 nm  f=0.1053  <S**2>=0.000
      10 -> 14        -0.26338
      11 -> 14         0.63912
 
 Excited State   9:      Singlet-A      9.0027 eV  137.72 nm  f=0.0006  <S**2>=0.000
      11 -> 15         0.10398
      11 -> 16         0.12180
      13 -> 16        -0.13324
      13 -> 17        -0.11296
      13 -> 18        -0.12111
      13 -> 19         0.63184
 
 Excited State  10:      Singlet-A      9.2270 eV  134.37 nm  f=0.0023  <S**2>=0.000
      13 -> 18         0.55682
      13 -> 19         0.17089
      13 -> 21         0.37751
 
 Excited State  11:      Singlet-A      9.4199 eV  131.62 nm  f=0.0693  <S**2>=0.000
       8 -> 15        -0.11744
       9 -> 15         0.11748
       9 -> 16        -0.10452
      10 -> 15        -0.26392
      10 -> 16        -0.25763
      10 -> 17         0.25614
      11 -> 16        -0.10750
      12 -> 15         0.29254
      12 -> 17        -0.15422
      12 -> 18         0.16464
      12 -> 21        -0.12212
      13 -> 14        -0.10657
 
 Excited State  12:      Singlet-A      9.6823 eV  128.05 nm  f=0.0926  <S**2>=0.000
      11 -> 16         0.10740
      13 -> 20         0.67785
 
 Excited State  13:      Singlet-A      9.8759 eV  125.54 nm  f=0.0140  <S**2>=0.000
      10 -> 15        -0.11035
      11 -> 15         0.56793
      11 -> 16         0.16080
      11 -> 17        -0.10576
      11 -> 20         0.10314
      12 -> 16        -0.15173
      13 -> 15        -0.15027
      13 -> 16         0.13606
 
 Excited State  14:      Singlet-A      9.9696 eV  124.36 nm  f=0.0122  <S**2>=0.000
       9 -> 15        -0.11936
      10 -> 15         0.32830
      10 -> 16        -0.10493
      10 -> 17        -0.13206
      10 -> 18         0.10183
      10 -> 19        -0.11754
      11 -> 15         0.17422
      12 -> 15         0.27530
      12 -> 16         0.38894
      12 -> 17        -0.15669
 
 Excited State  15:      Singlet-A     10.0676 eV  123.15 nm  f=0.1845  <S**2>=0.000
       8 -> 15         0.14904
      10 -> 15        -0.31387
      10 -> 16        -0.10023
      12 -> 15        -0.35134
      12 -> 16         0.38385
      12 -> 19         0.17235
 SavETr:  write IOETrn=   770 NScale= 10 NData=  16 NLR=1 NState=   15 LETran=     280.
 The selected state is a singlet
 CISAX will form     1 AO SS matrices at one time.
 NMat=     1 NSing=     1 JSym2X= 0.
 Leave Link  914 at Tue Dec 15 17:06:01 2015, MaxMem=    33554432 cpu:         0.1
 (Enter /home/Applications/g09/g09/l1002.exe)
 Minotr:  Closed shell wavefunction.
          Computing CIS/TD-HF/TD-KS derivatives.
          Using Z-Vector for PSCF gradient.
          Skipping F1 and S1 gradient terms here.
          IDoAtm=111111111
          Direct CPHF calculation.
          Differentiating once with respect to electric field.
                with respect to dipole field.
          Differentiating once with respect to nuclear coordinates.
          Electric field/nuclear overlap derivatives assumed to be zero.
          Requested convergence is 1.0D-10 RMS, and 1.0D-09 maximum.
          NewPWx=T KeepS1=F KeepF1=F KeepIn=T MapXYZ=F SortEE=F KeepMc=T.
          MDV=      33495423 using IRadAn=       0.
 Keep J ints in memory in canonical form, NReq=871704.
 FoFCou: FMM=F IPFlag=           0 FMFlag=           0 FMFlg1=           0
         NFxFlg=           0 DoJE=F BraDBF=F KetDBF=F FulRan=T
         wScrn=  0.000000 ICntrl=     600 IOpCl=  2 I1Cent=           0 NGrid=           0
         NMat0=    1 NMatS0=     54 NMatT0=    0 NMatD0=    1 NMtDS0=    0 NMtDT0=    0
 Symmetry not used in FoFCou.
          Solving linear equations separately, MaxMat=       0.
          There are     1 degrees of freedom in the 1st order CPHF.  IDoFFX=0 NUNeed=     1.
 LinEq1:  Iter=  0 NonCon=     1 RMS=6.99D-03 Max=4.71D-02 NDo=     1
 AX will form     1 AO Fock derivatives at one time.
 LinEq1:  Iter=  1 NonCon=     1 RMS=5.50D-04 Max=1.96D-03 NDo=     1
 LinEq1:  Iter=  2 NonCon=     1 RMS=5.16D-05 Max=1.62D-04 NDo=     1
 LinEq1:  Iter=  3 NonCon=     1 RMS=4.86D-06 Max=1.90D-05 NDo=     1
 LinEq1:  Iter=  4 NonCon=     1 RMS=7.82D-07 Max=5.08D-06 NDo=     1
 LinEq1:  Iter=  5 NonCon=     1 RMS=1.03D-07 Max=5.00D-07 NDo=     1
 LinEq1:  Iter=  6 NonCon=     1 RMS=1.79D-08 Max=1.08D-07 NDo=     1
 LinEq1:  Iter=  7 NonCon=     1 RMS=2.36D-09 Max=8.64D-09 NDo=     1
 LinEq1:  Iter=  8 NonCon=     1 RMS=2.83D-10 Max=1.05D-09 NDo=     1
 LinEq1:  Iter=  9 NonCon=     0 RMS=3.12D-11 Max=1.52D-10 NDo=     1
 Linear equations converged to 1.000D-10 1.000D-09 after     9 iterations.
 End of Minotr F.D. properties file   721 does not exist.
 End of Minotr F.D. properties file   722 does not exist.
 End of Minotr F.D. properties file   788 does not exist.
 Leave Link 1002 at Tue Dec 15 17:06:01 2015, MaxMem=    33554432 cpu:         0.0
 (Enter /home/Applications/g09/g09/l601.exe)
 Copying SCF densities to generalized density rwf, IOpCl= 0 IROHF=0.

 **********************************************************************

            Population analysis using the SCF density.

 **********************************************************************

 Orbital symmetries:
       Occupied  (A) (A) (A) (A) (A) (A) (A) (A) (A) (A) (A) (A)
                 (A)
       Virtual   (A) (A) (A) (A) (A) (A) (A) (A) (A) (A) (A)
 The electronic state is 1-A.
 Alpha  occ. eigenvalues --   -1.69974  -1.11430  -0.91300  -0.78462  -0.75483
 Alpha  occ. eigenvalues --   -0.66417  -0.62386  -0.53213  -0.49929  -0.42596
 Alpha  occ. eigenvalues --   -0.41874  -0.40885  -0.29682
 Alpha virt. eigenvalues --    0.12313   0.18872   0.21176   0.24617   0.27369
 Alpha virt. eigenvalues --    0.28234   0.29578   0.31175   0.36301   0.45583
 Alpha virt. eigenvalues --    0.49123
     Molecular Orbital Coefficients:
                           1         2         3         4         5
                           O         O         O         O         O
     Eigenvalues --    -1.69974  -1.11430  -0.91300  -0.78462  -0.75483
   1 1   C  1S          0.09914   0.48730   0.22309  -0.29341  -0.12466
   2        1PX        -0.04944   0.04426  -0.22829   0.09934  -0.37363
   3        1PY        -0.12174  -0.19317   0.07981  -0.19666  -0.03530
   4        1PZ         0.00123   0.00566   0.00497  -0.00789  -0.00661
   5 2   C  1S          0.26512   0.19777   0.53241   0.17055   0.36868
   6        1PX         0.07067   0.29652  -0.09175  -0.30757  -0.12756
   7        1PY        -0.27395   0.10809   0.01517  -0.40158   0.14849
   8        1PZ         0.00153  -0.00032   0.00335  -0.00102  -0.00568
   9 3   O  1S          0.79256  -0.30040  -0.01362  -0.01478  -0.25603
  10        1PX         0.05412   0.10335  -0.15170  -0.17866   0.11765
  11        1PY         0.04696   0.09495   0.17464   0.20453   0.04081
  12        1PZ        -0.00025  -0.00058   0.00054  -0.00277  -0.00317
  13 4   C  1S          0.26957   0.20679  -0.50180  -0.07271   0.43648
  14        1PX        -0.27096   0.15956  -0.00141   0.46833   0.00621
  15        1PY         0.10296   0.29147   0.08478   0.18694  -0.20541
  16        1PZ        -0.00228  -0.00312   0.00732  -0.00320  -0.01201
  17 5   C  1S          0.09389   0.48894  -0.22861   0.26323  -0.17402
  18        1PX        -0.12585  -0.19192  -0.04213   0.16779  -0.11725
  19        1PY        -0.02959   0.06105   0.21882  -0.20900  -0.34277
  20        1PZ         0.00067   0.00329  -0.00003   0.00092  -0.00514
  21 6   H  1S          0.00454   0.14062  -0.12342   0.20386  -0.12966
  22 7   H  1S          0.05380   0.01811  -0.25790  -0.02428   0.30037
  23 8   H  1S          0.06414   0.01961   0.29686   0.11925   0.27813
  24 9   H  1S          0.00655   0.14584   0.12274  -0.22204  -0.09698
                           6         7         8         9        10
                           O         O         O         O         O
     Eigenvalues --    -0.66417  -0.62386  -0.53213  -0.49929  -0.42596
   1 1   C  1S         -0.21563  -0.02899   0.14295  -0.05207  -0.08854
   2        1PX        -0.14781  -0.01412  -0.12730  -0.38846  -0.25345
   3        1PY        -0.29301  -0.01233   0.05213   0.09562  -0.20830
   4        1PZ        -0.03712   0.39924   0.01143  -0.00076  -0.07619
   5 2   C  1S         -0.05423  -0.00269   0.07413  -0.11947   0.16775
   6        1PX         0.29923   0.01425   0.45690   0.24235   0.28078
   7        1PY        -0.26613  -0.01911  -0.36041   0.45507   0.06571
   8        1PZ        -0.03895   0.54340   0.00813  -0.01123  -0.21491
   9 3   O  1S         -0.21830  -0.02173   0.04432   0.31993  -0.06762
  10        1PX         0.15122   0.01651  -0.13976  -0.10211   0.09866
  11        1PY         0.15321   0.01422   0.12427  -0.12675   0.00257
  12        1PZ        -0.01478   0.22824   0.00013  -0.00183   0.00266
  13 4   C  1S         -0.06939   0.01299  -0.09625  -0.10935  -0.08701
  14        1PX        -0.19407  -0.01653   0.41128   0.36049  -0.29199
  15        1PY         0.34247   0.03526  -0.42806   0.30256  -0.16410
  16        1PZ        -0.03265   0.56959   0.00437  -0.00040   0.21779
  17 5   C  1S         -0.21239  -0.01824  -0.15045  -0.01055   0.08168
  18        1PX        -0.29129  -0.01630  -0.00828   0.06888   0.51893
  19        1PY        -0.10511  -0.02199  -0.00019  -0.40359   0.11831
  20        1PZ        -0.03044   0.40312   0.00533   0.00522   0.06337
  21 6   H  1S         -0.27359  -0.01265  -0.07828   0.04438   0.43387
  22 7   H  1S         -0.25197  -0.02101   0.29313  -0.14602  -0.02868
  23 8   H  1S         -0.24739  -0.01234  -0.30712  -0.06042  -0.04588
  24 9   H  1S         -0.28824  -0.00778   0.09262  -0.00137  -0.23364
                          11        12        13        14        15
                           O         O         O         V         V
     Eigenvalues --    -0.41874  -0.40885  -0.29682   0.12313   0.18872
   1 1   C  1S         -0.03988  -0.01493  -0.01251  -0.01650  -0.13101
   2        1PX        -0.09368  -0.04493  -0.00227  -0.00451   0.04474
   3        1PY         0.00463   0.56864  -0.03779  -0.03413   0.12154
   4        1PZ         0.19202  -0.00696   0.57762   0.67789   0.01378
   5 2   C  1S          0.06109   0.04985  -0.00315  -0.00016  -0.01290
   6        1PX         0.10369   0.02387  -0.00521  -0.00091   0.09902
   7        1PY        -0.01875  -0.33203   0.00899   0.00213   0.07359
   8        1PZ         0.64443  -0.12084  -0.37530  -0.20132  -0.00620
   9 3   O  1S         -0.04467  -0.16054   0.00232  -0.00040   0.02322
  10        1PX         0.05288   0.13094  -0.00224  -0.00061   0.07602
  11        1PY         0.02302   0.15239  -0.00611  -0.00332   0.10599
  12        1PZ        -0.00076  -0.01425  -0.20760   0.00327   0.00170
  13 4   C  1S         -0.01577   0.16876  -0.01209  -0.00452  -0.13093
  14        1PX        -0.12345  -0.15782  -0.00198  -0.00483   0.01007
  15        1PY        -0.01261   0.26141  -0.00987  -0.01240   0.51056
  16        1PZ        -0.62936   0.05887  -0.37537   0.19448   0.00630
  17 5   C  1S          0.01749  -0.07581  -0.00303   0.01322  -0.13989
  18        1PX         0.21135   0.23919  -0.01159   0.00940   0.13693
  19        1PY        -0.00307  -0.27257   0.01567  -0.01206   0.28984
  20        1PZ        -0.17665   0.03304   0.58224  -0.67769  -0.01354
  21 6   H  1S          0.16491   0.14019   0.00091  -0.00792  -0.06182
  22 7   H  1S         -0.02933  -0.12420   0.00432  -0.00970   0.71597
  23 8   H  1S         -0.03004  -0.10526   0.00275  -0.00001   0.09099
  24 9   H  1S         -0.01989   0.41282  -0.00861   0.02473  -0.08780
                          16        17        18        19        20
                           V         V         V         V         V
     Eigenvalues --     0.21176   0.24617   0.27369   0.28234   0.29578
   1 1   C  1S         -0.14441   0.02153   0.12118   0.08120  -0.38637
   2        1PX         0.41484  -0.10752  -0.25861   0.43155   0.22429
   3        1PY         0.09734  -0.25512   0.27578   0.29012  -0.27754
   4        1PZ         0.00358  -0.01961   0.02600   0.02210  -0.02187
   5 2   C  1S         -0.03109  -0.33202  -0.25082   0.32428   0.22753
   6        1PX         0.52112   0.04878  -0.01530   0.05811   0.04694
   7        1PY        -0.00490  -0.16481  -0.13991   0.15402   0.21113
   8        1PZ        -0.00504   0.00279  -0.00253  -0.00486   0.00221
   9 3   O  1S          0.02557  -0.03626   0.00517   0.00264   0.04614
  10        1PX         0.09193   0.02595  -0.01829   0.01300   0.07024
  11        1PY         0.03258   0.00487   0.04624  -0.02955   0.05950
  12        1PZ        -0.00469   0.00243  -0.00276   0.00043  -0.00367
  13 4   C  1S          0.09069  -0.37272   0.25065  -0.23354   0.16566
  14        1PX         0.11002  -0.19625   0.18016  -0.12907   0.18274
  15        1PY        -0.08617  -0.05973   0.03834  -0.04977   0.03972
  16        1PZ        -0.00136   0.00371   0.00075   0.00407  -0.00103
  17 5   C  1S         -0.07568  -0.03006  -0.23358  -0.07934  -0.36912
  18        1PX         0.14334  -0.27484  -0.30026  -0.30094  -0.15327
  19        1PY        -0.05531  -0.32322   0.35177  -0.34714   0.19485
  20        1PZ         0.00303   0.00388  -0.02317  -0.00956  -0.00314
  21 6   H  1S         -0.15704   0.34706   0.46642   0.31784   0.34413
  22 7   H  1S         -0.20211   0.23331  -0.14312   0.10647  -0.09576
  23 8   H  1S          0.62107   0.37295   0.19325  -0.20204  -0.16766
  24 9   H  1S         -0.08036   0.32370  -0.33962  -0.38059   0.44486
                          21        22        23        24
                           V         V         V         V
     Eigenvalues --     0.31175   0.36301   0.45583   0.49123
   1 1   C  1S          0.55445  -0.00227   0.06224  -0.02047
   2        1PX         0.19541   0.00145  -0.01158   0.04908
   3        1PY        -0.32687  -0.00072   0.02955  -0.00639
   4        1PZ         0.00599   0.02761   0.00127  -0.00024
   5 2   C  1S         -0.10329   0.00039  -0.14305  -0.15068
   6        1PX        -0.14809   0.00183  -0.15704   0.06495
   7        1PY        -0.03327  -0.00013   0.17690   0.23167
   8        1PZ         0.00042  -0.21304  -0.00120  -0.00085
   9 3   O  1S          0.00249   0.00030   0.16171  -0.00638
  10        1PX        -0.00278  -0.00381   0.65266  -0.62331
  11        1PY         0.00174   0.00591   0.61727   0.66020
  12        1PZ         0.00035   0.95092  -0.00088  -0.00666
  13 4   C  1S          0.13313   0.00154  -0.14331   0.16411
  14        1PX         0.06978   0.00164   0.14451  -0.24553
  15        1PY         0.14308  -0.00160  -0.17930  -0.03636
  16        1PZ        -0.00137  -0.22015   0.00103   0.00010
  17 5   C  1S         -0.53994  -0.00205   0.06263   0.02063
  18        1PX         0.35059  -0.00107   0.01880  -0.00312
  19        1PY        -0.21600   0.00174  -0.01866  -0.04971
  20        1PZ        -0.00224   0.03235   0.00065   0.00075
  21 6   H  1S          0.03253   0.00142  -0.03640   0.00373
  22 7   H  1S         -0.00379  -0.00257  -0.04408   0.01422
  23 8   H  1S         -0.01407   0.00108  -0.04891  -0.02033
  24 9   H  1S         -0.09136   0.00110  -0.04132  -0.00220
     Density Matrix:
                           1         2         3         4         5
   1 1   C  1S          0.95796
   2        1PX         0.08870   0.94035
   3        1PY         0.09992  -0.00101   1.12897
   4        1PZ        -0.00561  -0.00049  -0.00321   1.07488
   5 2   C  1S          0.31206  -0.50429  -0.14475  -0.00206   1.22991
   6        1PX         0.39130  -0.46200  -0.18662  -0.00093  -0.05533
   7        1PY         0.22143  -0.34359  -0.02513  -0.00157  -0.26044
   8        1PZ        -0.00806   0.00592  -0.00437   0.28546   0.00185
   9 3   O  1S          0.02584  -0.04800  -0.01593  -0.00053   0.00285
  10        1PX        -0.00176  -0.05228  -0.03001   0.00084  -0.02633
  11        1PY         0.02471  -0.06397  -0.03208   0.00144   0.39919
  12        1PZ         0.00062   0.00188   0.00276  -0.05690  -0.00156
  13 4   C  1S         -0.01009   0.04172   0.01050  -0.00223  -0.00747
  14        1PX         0.05580  -0.01165  -0.01342   0.00071  -0.05052
  15        1PY         0.00269   0.00133  -0.00521   0.00177  -0.03111
  16        1PZ         0.00627   0.00164   0.00927  -0.25178   0.00103
  17 5   C  1S          0.31926   0.39266  -0.35215  -0.00876  -0.01342
  18        1PX        -0.29860  -0.15327   0.28243  -0.01031   0.02111
  19        1PY         0.43499   0.43336  -0.25060   0.00417   0.03740
  20        1PZ        -0.01789  -0.00818  -0.02644   0.91902  -0.00187
  21 6   H  1S         -0.00689   0.00900  -0.00506   0.00356   0.08777
  22 7   H  1S          0.07252   0.02983  -0.05200   0.00287   0.05445
  23 8   H  1S          0.06445  -0.08733  -0.04173  -0.00055   0.56986
  24 9   H  1S          0.53491   0.13259   0.80163   0.03725   0.05036
                           6         7         8         9        10
   6        1PX         1.31925
   7        1PY        -0.01977   1.58690
   8        1PZ         0.00676   0.00329   1.82795
   9 3   O  1S          0.02016  -0.08806   0.00093   1.93826
  10        1PX         0.16307   0.01720   0.00008  -0.23173   0.33033
  11        1PY         0.05245  -0.54092   0.00508  -0.20328  -0.01093
  12        1PZ         0.00175   0.00480   0.40644   0.00034   0.00098
  13 4   C  1S         -0.03987  -0.04703  -0.00170   0.00554   0.40694
  14        1PX         0.00378   0.01522  -0.00020  -0.08859  -0.52162
  15        1PY        -0.01148   0.00347  -0.00095   0.02937   0.12793
  16        1PZ         0.00051  -0.00171  -0.01540   0.00007  -0.00350
  17 5   C  1S          0.00334   0.05718   0.00243   0.02778   0.02308
  18        1PX         0.00064  -0.01786   0.00399  -0.02265  -0.04101
  19        1PY         0.00118  -0.01134  -0.00167  -0.04739  -0.06141
  20        1PZ        -0.00207   0.00325  -0.25943   0.00058   0.00063
  21 6   H  1S          0.08478   0.02260  -0.00305   0.00947   0.03306
  22 7   H  1S          0.02151  -0.05407   0.00120   0.01821  -0.00315
  23 8   H  1S         -0.67347   0.32851   0.00538   0.02123  -0.07309
  24 9   H  1S          0.02194  -0.03735  -0.00068   0.00994  -0.00297
                          11        12        13        14        15
  11        1PY         0.32840
  12        1PZ        -0.00071   0.19129
  13 4   C  1S         -0.07149   0.00484   1.25137
  14        1PX         0.09208  -0.00176  -0.27138   1.56140
  15        1PY         0.15556   0.00051  -0.02848  -0.04206   1.33742
  16        1PZ         0.00151   0.41737   0.00959   0.00533  -0.00091
  17 5   C  1S         -0.00686   0.00055   0.31208   0.27378   0.34434
  18        1PX        -0.02771   0.00141  -0.22113  -0.11146  -0.23629
  19        1PY        -0.04159  -0.00004  -0.48969  -0.39710  -0.36990
  20        1PZ        -0.00208  -0.05717   0.00130   0.00199   0.00011
  21 6   H  1S         -0.00552  -0.00080   0.05123  -0.03203   0.02378
  22 7   H  1S         -0.07435  -0.00199   0.53490   0.25585  -0.72281
  23 8   H  1S          0.01401   0.00132   0.04990  -0.04651   0.02209
  24 9   H  1S          0.03106  -0.00259   0.09141   0.03189   0.07908
                          16        17        18        19        20
  16        1PZ         1.82727
  17 5   C  1S         -0.00564   0.96126
  18        1PX         0.00008   0.11844   1.11516
  19        1PY         0.00621   0.07784  -0.02708   0.95324
  20        1PZ         0.27808  -0.00224  -0.00129   0.00425   1.07768
  21 6   H  1S         -0.00093   0.54193   0.80835   0.01410   0.01579
  22 7   H  1S         -0.00943   0.06418  -0.05653  -0.07673   0.00064
  23 8   H  1S         -0.00068   0.06810  -0.04333   0.03623  -0.00020
  24 9   H  1S         -0.00628  -0.00194  -0.00651   0.01196   0.00846
                          21        22        23        24
  21 6   H  1S          0.82320
  22 7   H  1S         -0.00838   0.69770
  23 8   H  1S          0.00850   0.00913   0.71524
  24 9   H  1S         -0.00488   0.00744  -0.00570   0.82458
    Full Mulliken population analysis:
                           1         2         3         4         5
   1 1   C  1S          0.95796
   2        1PX         0.00000   0.94035
   3        1PY         0.00000   0.00000   1.12897
   4        1PZ         0.00000   0.00000   0.00000   1.07488
   5 2   C  1S          0.00000   0.00000   0.00000   0.00000   1.22991
   6        1PX         0.00000   0.00000   0.00000   0.00000   0.00000
   7        1PY         0.00000   0.00000   0.00000   0.00000   0.00000
   8        1PZ         0.00000   0.00000   0.00000   0.00000   0.00000
   9 3   O  1S          0.00000   0.00000   0.00000   0.00000   0.00000
  10        1PX         0.00000   0.00000   0.00000   0.00000   0.00000
  11        1PY         0.00000   0.00000   0.00000   0.00000   0.00000
  12        1PZ         0.00000   0.00000   0.00000   0.00000   0.00000
  13 4   C  1S          0.00000   0.00000   0.00000   0.00000   0.00000
  14        1PX         0.00000   0.00000   0.00000   0.00000   0.00000
  15        1PY         0.00000   0.00000   0.00000   0.00000   0.00000
  16        1PZ         0.00000   0.00000   0.00000   0.00000   0.00000
  17 5   C  1S          0.00000   0.00000   0.00000   0.00000   0.00000
  18        1PX         0.00000   0.00000   0.00000   0.00000   0.00000
  19        1PY         0.00000   0.00000   0.00000   0.00000   0.00000
  20        1PZ         0.00000   0.00000   0.00000   0.00000   0.00000
  21 6   H  1S          0.00000   0.00000   0.00000   0.00000   0.00000
  22 7   H  1S          0.00000   0.00000   0.00000   0.00000   0.00000
  23 8   H  1S          0.00000   0.00000   0.00000   0.00000   0.00000
  24 9   H  1S          0.00000   0.00000   0.00000   0.00000   0.00000
                           6         7         8         9        10
   6        1PX         1.31925
   7        1PY         0.00000   1.58690
   8        1PZ         0.00000   0.00000   1.82795
   9 3   O  1S          0.00000   0.00000   0.00000   1.93826
  10        1PX         0.00000   0.00000   0.00000   0.00000   0.33033
  11        1PY         0.00000   0.00000   0.00000   0.00000   0.00000
  12        1PZ         0.00000   0.00000   0.00000   0.00000   0.00000
  13 4   C  1S          0.00000   0.00000   0.00000   0.00000   0.00000
  14        1PX         0.00000   0.00000   0.00000   0.00000   0.00000
  15        1PY         0.00000   0.00000   0.00000   0.00000   0.00000
  16        1PZ         0.00000   0.00000   0.00000   0.00000   0.00000
  17 5   C  1S          0.00000   0.00000   0.00000   0.00000   0.00000
  18        1PX         0.00000   0.00000   0.00000   0.00000   0.00000
  19        1PY         0.00000   0.00000   0.00000   0.00000   0.00000
  20        1PZ         0.00000   0.00000   0.00000   0.00000   0.00000
  21 6   H  1S          0.00000   0.00000   0.00000   0.00000   0.00000
  22 7   H  1S          0.00000   0.00000   0.00000   0.00000   0.00000
  23 8   H  1S          0.00000   0.00000   0.00000   0.00000   0.00000
  24 9   H  1S          0.00000   0.00000   0.00000   0.00000   0.00000
                          11        12        13        14        15
  11        1PY         0.32840
  12        1PZ         0.00000   0.19129
  13 4   C  1S          0.00000   0.00000   1.25137
  14        1PX         0.00000   0.00000   0.00000   1.56140
  15        1PY         0.00000   0.00000   0.00000   0.00000   1.33742
  16        1PZ         0.00000   0.00000   0.00000   0.00000   0.00000
  17 5   C  1S          0.00000   0.00000   0.00000   0.00000   0.00000
  18        1PX         0.00000   0.00000   0.00000   0.00000   0.00000
  19        1PY         0.00000   0.00000   0.00000   0.00000   0.00000
  20        1PZ         0.00000   0.00000   0.00000   0.00000   0.00000
  21 6   H  1S          0.00000   0.00000   0.00000   0.00000   0.00000
  22 7   H  1S          0.00000   0.00000   0.00000   0.00000   0.00000
  23 8   H  1S          0.00000   0.00000   0.00000   0.00000   0.00000
  24 9   H  1S          0.00000   0.00000   0.00000   0.00000   0.00000
                          16        17        18        19        20
  16        1PZ         1.82727
  17 5   C  1S          0.00000   0.96126
  18        1PX         0.00000   0.00000   1.11516
  19        1PY         0.00000   0.00000   0.00000   0.95324
  20        1PZ         0.00000   0.00000   0.00000   0.00000   1.07768
  21 6   H  1S          0.00000   0.00000   0.00000   0.00000   0.00000
  22 7   H  1S          0.00000   0.00000   0.00000   0.00000   0.00000
  23 8   H  1S          0.00000   0.00000   0.00000   0.00000   0.00000
  24 9   H  1S          0.00000   0.00000   0.00000   0.00000   0.00000
                          21        22        23        24
  21 6   H  1S          0.82320
  22 7   H  1S          0.00000   0.69770
  23 8   H  1S          0.00000   0.00000   0.71524
  24 9   H  1S          0.00000   0.00000   0.00000   0.82458
     Gross orbital populations:
                           1
   1 1   C  1S          0.95796
   2        1PX         0.94035
   3        1PY         1.12897
   4        1PZ         1.07488
   5 2   C  1S          1.22991
   6        1PX         1.31925
   7        1PY         1.58690
   8        1PZ         1.82795
   9 3   O  1S          1.93826
  10        1PX         0.33033
  11        1PY         0.32840
  12        1PZ         0.19129
  13 4   C  1S          1.25137
  14        1PX         1.56140
  15        1PY         1.33742
  16        1PZ         1.82727
  17 5   C  1S          0.96126
  18        1PX         1.11516
  19        1PY         0.95324
  20        1PZ         1.07768
  21 6   H  1S          0.82320
  22 7   H  1S          0.69770
  23 8   H  1S          0.71524
  24 9   H  1S          0.82458
          Condensed to atoms (all electrons):
               1          2          3          4          5          6
     1  C    4.102164   0.000000   0.000000   0.000000   0.000000   0.000000
     2  C    0.000000   5.964008   0.000000   0.000000   0.000000   0.000000
     3  O    0.000000   0.000000   2.788285   0.000000   0.000000   0.000000
     4  C    0.000000   0.000000   0.000000   5.977468   0.000000   0.000000
     5  C    0.000000   0.000000   0.000000   0.000000   4.107350   0.000000
     6  H    0.000000   0.000000   0.000000   0.000000   0.000000   0.823201
     7  H    0.000000   0.000000   0.000000   0.000000   0.000000   0.000000
     8  H    0.000000   0.000000   0.000000   0.000000   0.000000   0.000000
     9  H    0.000000   0.000000   0.000000   0.000000   0.000000   0.000000
               7          8          9
     1  C    0.000000   0.000000   0.000000
     2  C    0.000000   0.000000   0.000000
     3  O    0.000000   0.000000   0.000000
     4  C    0.000000   0.000000   0.000000
     5  C    0.000000   0.000000   0.000000
     6  H    0.000000   0.000000   0.000000
     7  H    0.697704   0.000000   0.000000
     8  H    0.000000   0.715244   0.000000
     9  H    0.000000   0.000000   0.824575
 Mulliken charges:
               1
     1  C   -0.102164
     2  C   -1.964008
     3  O    3.211715
     4  C   -1.977468
     5  C   -0.107350
     6  H    0.176799
     7  H    0.302296
     8  H    0.284756
     9  H    0.175425
 Sum of Mulliken charges =   0.00000
 Mulliken charges with hydrogens summed into heavy atoms:
               1
     1  C    0.073261
     2  C   -1.679252
     3  O    3.211715
     4  C   -1.675173
     5  C    0.069449
 Charge=              0.0000 electrons
 Dipole moment (field-independent basis, Debye):
    X=             -7.4941    Y=             -7.2960    Z=              0.0712  Tot=             10.4594
 N-N= 1.034975023882D+02 E-N=-1.683579208426D+02  KE=-1.474902616468D+01
 Orbital energies and kinetic energies (alpha):
                                 1                 2
   1         O                -1.699741         -1.185777
   2         O                -1.114299         -0.992193
   3         O                -0.913002         -0.841873
   4         O                -0.784622         -0.607367
   5         O                -0.754830         -0.673370
   6         O                -0.664175         -0.574039
   7         O                -0.623857         -0.516714
   8         O                -0.532131         -0.379202
   9         O                -0.499290         -0.279321
  10         O                -0.425958         -0.399579
  11         O                -0.418745         -0.323323
  12         O                -0.408846         -0.328828
  13         O                -0.296822         -0.272928
  14         V                 0.123133         -0.172167
  15         V                 0.188719         -0.189781
  16         V                 0.211760         -0.166485
  17         V                 0.246169         -0.181068
  18         V                 0.273687         -0.169960
  19         V                 0.282340         -0.134792
  20         V                 0.295779         -0.158747
  21         V                 0.311746         -0.103799
  22         V                 0.363013          0.487149
  23         V                 0.455831          0.515924
  24         V                 0.491230          0.572284
 Total kinetic energy from orbitals=-1.474902616468D+01
 Leave Link  601 at Tue Dec 15 17:06:01 2015, MaxMem=    33554432 cpu:         0.0
 (Enter /home/Applications/g09/g09/l701.exe)
 Compute integral first derivatives.
 ... and contract with generalized density number  6.
 Leave Link  701 at Tue Dec 15 17:06:01 2015, MaxMem=    33554432 cpu:         0.0
 (Enter /home/Applications/g09/g09/l702.exe)
 L702 exits ... SP integral derivatives will be done elsewhere.
 Leave Link  702 at Tue Dec 15 17:06:01 2015, MaxMem=    33554432 cpu:         0.0
 (Enter /home/Applications/g09/g09/l703.exe)
 Compute integral first derivatives, UseDBF=F ICtDFT=           0.
 Integral derivatives from FoFJK, PRISM(SPDF).
 Calling FoFJK, ICntrl=  10005127 FMM=F ISym2X=0 I1Cent= 0 IOpClX= 0 NMat=1 NMatS=1 NMatT=0.
 FoFJK:  IHMeth= 8 ICntrl=10005127 DoSepK=F KAlg= 0 I1Cent=   0 FoldK=F
 IRaf=         0 NMat=   1 IRICut=       1 DoRegI=T DoRafI=F ISym2E= 0.
 FoFCou: FMM=F IPFlag=           0 FMFlag=      100000 FMFlg1=         800
         NFxFlg=           0 DoJE=F BraDBF=F KetDBF=F FulRan=T
         wScrn=  0.000000 ICntrl=10005127 IOpCl=  0 I1Cent=           0 NGrid=           0
         NMat0=    1 NMatS0=      1 NMatT0=    0 NMatD0=    1 NMtDS0=    0 NMtDT0=    0
 Symmetry not used in FoFCou.
 Leave Link  703 at Tue Dec 15 17:06:01 2015, MaxMem=    33554432 cpu:         0.0
 (Enter /home/Applications/g09/g09/l716.exe)
 Dipole        =-3.27711025D+00-3.17326567D+00 4.56093852D-02
 ***** Axes restored to original set *****
 -------------------------------------------------------------------
 Center     Atomic                   Forces (Hartrees/Bohr)
 Number     Number              X              Y              Z
 -------------------------------------------------------------------
      1        6           0.121955184   -0.126026427    0.004786459
      2        6          -0.175344164    0.053231529   -0.000413624
      3        8           0.123911744   -0.009722209    0.003131099
      4        6          -0.230209043    0.066460446   -0.010596659
      5        6           0.132590152    0.125576077    0.008932872
      6        1           0.036878724    0.025724532    0.001768738
      7        1          -0.006145201    0.074646527    0.000189066
      8        1          -0.051552795   -0.171432134   -0.004148555
      9        1           0.047915399   -0.038458342   -0.003649395
 -------------------------------------------------------------------
 Cartesian Forces:  Max     0.230209043 RMS     0.089081351
 Z-matrix is all fixed cartesians, so copy forces.
 Force constants in Cartesian coordinates: 
                1             2             3             4             5 
      1  0.809661D+00
      2 -0.319601D-01  0.870044D+00
      3  0.231882D-02  0.179185D-01  0.204955D+00
      4 -0.415691D+00 -0.870732D-01 -0.120611D-01  0.873255D+00
      5 -0.666186D-01 -0.201497D+00 -0.512510D-02  0.824638D-01  0.973287D+00
      6 -0.154780D-01 -0.610983D-02 -0.886681D-01  0.277655D-01  0.105862D-01
      7 -0.872610D-02  0.274028D-01 -0.488665D-03 -0.267796D+00  0.149462D+00
      8 -0.644397D-02  0.202219D-01 -0.230917D-03  0.189063D+00 -0.340335D+00
      9 -0.831341D-03  0.172054D-02  0.748597D-02 -0.794484D-02  0.457403D-02
     10  0.101373D-01 -0.187098D-03  0.547440D-03  0.232247D-01  0.171202D-01
     11  0.348757D-01 -0.643200D-03  0.202042D-02 -0.183313D-01 -0.135092D-01
     12 -0.448868D-03  0.154279D-04  0.873341D-04  0.947577D-03  0.591519D-03
     13 -0.180846D+00  0.542301D-02 -0.734930D-03  0.109479D-01 -0.343311D-01
     14 -0.195242D-01 -0.495778D+00 -0.317069D-02 -0.200624D-03  0.632003D-03
     15 -0.137967D-02  0.288589D-02 -0.993542D-01  0.549268D-03 -0.152108D-02
     16  0.196163D-01 -0.358745D-03 -0.126917D-03 -0.270945D-05  0.000000D+00
     17 -0.216726D-01  0.395749D-03  0.391132D-03  0.000000D+00  0.000000D+00
     18  0.110215D-02 -0.820506D-04  0.257591D-01 -0.242614D-03 -0.103759D-04
     19  0.133159D-04  0.000000D+00 -0.302804D-03  0.000000D+00  0.000000D+00
     20  0.100928D-04  0.000000D+00 -0.229511D-03  0.275455D-05  0.000000D+00
     21 -0.238744D-03 -0.867149D-05  0.542905D-02 -0.141742D-03  0.486514D-05
     22  0.882544D-02 -0.275352D-01 -0.959896D-03 -0.218160D+00 -0.165957D+00
     23 -0.456697D-02  0.143445D-01 -0.269197D-03 -0.159246D+00 -0.439454D+00
     24 -0.260171D-03 -0.224919D-02  0.245279D-01 -0.766352D-02 -0.103761D-01
     25 -0.242990D+00  0.114288D+00  0.118081D-01 -0.577917D-02  0.178611D-01
     26  0.115901D+00 -0.207088D+00 -0.113047D-01 -0.667876D-02  0.208772D-01
     27  0.152159D-01 -0.140906D-01 -0.802225D-01 -0.120849D-02  0.127597D-02
                6             7             8             9            10 
      6  0.181669D+00
      7 -0.772938D-02  0.530944D+00
      8  0.581396D-02  0.157928D-01  0.666017D+00
      9 -0.413410D-01  0.152449D-01  0.437937D-03  0.475888D-01
     10  0.674415D-03 -0.291812D+00 -0.205047D+00 -0.594831D-02  0.856073D+00
     11 -0.392134D-03 -0.162699D+00 -0.350839D+00 -0.390495D-02  0.674770D-03
     12 -0.392078D-02 -0.722973D-02 -0.641834D-02 -0.429657D-01  0.220812D-01
     13  0.231313D-03 -0.796420D-02  0.629719D-02 -0.877206D-03 -0.437328D+00
     14 -0.331732D-04 -0.275066D-01  0.217206D-01 -0.161871D-02  0.873544D-01
     15 -0.234683D-02 -0.324812D-03  0.781041D-04  0.902546D-02 -0.167139D-01
     16  0.688835D-04  0.621559D-05 -0.131894D-05 -0.151640D-03 -0.537926D-02
     17 -0.160775D-04 -0.883516D-05  0.187480D-05  0.215549D-03  0.593372D-02
     18  0.616809D-02 -0.201747D-03  0.428103D-04  0.492197D-02 -0.127068D-02
     19 -0.239925D-04  0.217020D-01 -0.170967D-01 -0.427276D-03 -0.154903D+00
     20 -0.879523D-04  0.981656D-02 -0.773143D-02 -0.278884D-03  0.941492D-01
     21  0.452580D-02  0.255748D-03 -0.320147D-03  0.502073D-02  0.102616D-02
     22 -0.749645D-02  0.236449D-01  0.174362D-01  0.965761D-03  0.618902D-05
     23 -0.101703D-01 -0.122777D-01 -0.905816D-02 -0.681961D-03  0.117399D-05
     24 -0.761835D-01  0.645645D-03  0.615471D-03  0.579962D-02 -0.140180D-03
     25  0.198778D-02  0.115791D-05  0.000000D+00 -0.300593D-04 -0.200633D-04
     26  0.409307D-03  0.178563D-04  0.196038D-05 -0.463548D-03  0.000000D+00
     27  0.200974D-01 -0.171964D-03 -0.188793D-04  0.446417D-02 -0.256163D-03
               11            12            13            14            15 
     11  0.860160D+00
     12  0.661299D-02  0.168003D+00
     13  0.655018D-01 -0.163744D-01  0.812575D+00
     14 -0.197305D+00  0.419133D-02  0.399023D-01  0.865160D+00
     15  0.385166D-02 -0.862868D-01  0.167508D-01 -0.441666D-02  0.207991D+00
     16 -0.185103D-01  0.228521D-03 -0.224098D+00 -0.105634D+00  0.668062D-03
     17  0.204448D-01 -0.745512D-04 -0.108787D+00 -0.205735D+00  0.160837D-02
     18 -0.163785D-02  0.182842D-01  0.176045D-02  0.314474D-02 -0.815327D-01
     19  0.984888D-01  0.537135D-03  0.750505D-02  0.259598D-01  0.578510D-03
     20 -0.318308D+00 -0.485855D-02  0.340226D-02  0.117142D-01 -0.989647D-04
     21 -0.654564D-02 -0.635019D-01 -0.349788D-03  0.197097D-02  0.211783D-01
     22  0.000000D+00 -0.197615D-03  0.863578D-05  0.000000D+00 -0.219551D-03
     23  0.000000D+00 -0.374854D-04  0.306031D-05  0.000000D+00 -0.778036D-04
     24  0.481151D-05  0.447592D-02 -0.241090D-03 -0.103108D-04  0.612933D-02
     25  0.000000D+00  0.456240D-03  0.191993D-01 -0.351637D-03  0.913019D-04
     26  0.000000D+00 -0.223438D-04  0.225888D-01 -0.407911D-03 -0.230951D-02
     27 -0.930417D-05  0.582516D-02 -0.165078D-03 -0.575039D-04  0.251964D-01
               16            17            18            19            20 
     16  0.209879D+00
     17  0.124514D+00  0.184878D+00
     18 -0.813243D-03 -0.181628D-02  0.437023D-01
     19 -0.130818D-04  0.185952D-04  0.424613D-03  0.125695D+00
     20 -0.991541D-05  0.140943D-04  0.321836D-03 -0.107371D+00  0.314311D+00
     21  0.234548D-03 -0.333398D-03 -0.761300D-02 -0.786186D-03  0.523202D-02
     22  0.000000D+00  0.000000D+00  0.000000D+00  0.000000D+00  0.000000D+00
     23  0.000000D+00  0.000000D+00  0.000000D+00  0.000000D+00  0.000000D+00
     24  0.000000D+00  0.000000D+00  0.000000D+00  0.000000D+00  0.000000D+00
     25 -0.847557D-05  0.197821D-05 -0.758934D-03  0.000000D+00  0.000000D+00
     26  0.000000D+00  0.000000D+00  0.371679D-04  0.000000D+00  0.000000D+00
     27 -0.108214D-03  0.252573D-04 -0.968988D-02  0.000000D+00  0.000000D+00
               21            22            23            24            25 
     21  0.349610D-01
     22  0.000000D+00  0.185677D+00
     23  0.000000D+00  0.176088D+00  0.434179D+00
     24  0.000000D+00  0.760180D-02  0.111284D-01  0.437920D-01
     25  0.000000D+00 -0.206009D-05  0.000000D+00  0.575127D-04  0.229600D+00
     26  0.000000D+00 -0.317689D-04 -0.112581D-04  0.886911D-03 -0.131798D+00
     27  0.000000D+00  0.305949D-03  0.108421D-03 -0.854134D-02 -0.136119D-01
               26            27 
     26  0.186628D+00
     27  0.127667D-01  0.428706D-01
 Leave Link  716 at Tue Dec 15 17:06:01 2015, MaxMem=    33554432 cpu:         0.0
 (Enter /home/Applications/g09/g09/l103.exe)

 GradGradGradGradGradGradGradGradGradGradGradGradGradGradGradGradGradGrad
 Berny optimization.
 Search for a local minimum.
 Step number   1 out of a maximum of    2
 All quantities printed in internal units (Hartrees-Bohrs-Radians)
 Second derivative matrix not updated -- first step.
 ITU=  0
     Eigenvalues ---    0.01853   0.02828   0.06894   0.07488   0.07532
     Eigenvalues ---    0.08479   0.12909   0.15066   0.16526   0.24104
     Eigenvalues ---    0.25057   0.27465   0.38418   0.46363   0.63250
     Eigenvalues ---    0.82245   1.13856   1.33060   1.41536   1.47661
     Eigenvalues ---    1.58218
 Quadratic step=1.410D+00 exceeds max=3.000D-01 adjusted using Lamda=-8.598D-01.
 Angle between NR and scaled steps=  26.26 degrees.
 Angle between quadratic step and forces=  20.53 degrees.
 Linear search not attempted -- first point.
 TrRot= -0.000285  0.004119  0.000403 -0.372490 -0.000161  0.372560
 MatCor failed.
 Variable       Old X    -DE/DX   Delta X   Delta X   Delta X     New X
                                 (Linear)    (Quad)   (Total)
    X1        1.81241   0.12196   0.00000   0.06632   0.06612   1.87853
    Y1       -1.33567  -0.12603   0.00000  -0.07237  -0.06811  -1.40378
    Z1        0.07094   0.00479   0.00000   0.00254   0.00330   0.07425
    X2       -0.72302  -0.17534   0.00000  -0.09673  -0.09686  -0.81988
    Y2       -2.14479   0.05323   0.00000  -0.01605  -0.01199  -2.15678
    Z2       -0.03015  -0.00041   0.00000   0.00078   0.00118  -0.02896
    X3       -2.27812   0.12391   0.00000   0.05789   0.05762  -2.22049
    Y3       -0.03313  -0.00972   0.00000  -0.00360   0.00036  -0.03277
    Z3       -0.08112   0.00313   0.00000   0.00102   0.00109  -0.08003
    X4       -0.67410  -0.23021   0.00000  -0.11779  -0.11821  -0.79231
    Y4        2.00175   0.06646   0.00000   0.06119   0.06525   2.06700
    Z4       -0.03307  -0.01060   0.00000  -0.00599  -0.00583  -0.03890
    X5        1.86004   0.13259   0.00000   0.06175   0.06136   1.92139
    Y5        1.26667   0.12558   0.00000   0.06977   0.07403   1.34070
    Z5        0.07719   0.00893   0.00000   0.00539   0.00600   0.08320
    X6        3.42014   0.03688   0.00000   0.04960   0.04912   3.46926
    Y6        2.67805   0.02572   0.00000   0.03729   0.04166   2.71970
    Z6        0.06345   0.00177   0.00000   0.00189   0.00266   0.06611
    X7       -1.51348  -0.00615   0.00000  -0.02476  -0.02533  -1.53881
    Y7        3.85659   0.07465   0.00000   0.08420   0.08821   3.94480
    Z7       -0.00148   0.00019   0.00000  -0.00006  -0.00012  -0.00159
    X8       -1.56974  -0.05155   0.00000  -0.05192  -0.05192  -1.62166
    Y8       -3.77813  -0.17143   0.00000  -0.14274  -0.13874  -3.91687
    Z8       -0.08121  -0.00415   0.00000  -0.00426  -0.00387  -0.08508
    X9        3.38509   0.04792   0.00000   0.05818   0.05809   3.44318
    Y9       -2.67330  -0.03846   0.00000  -0.05503  -0.05068  -2.72398
    Z9       -0.05736  -0.00365   0.00000  -0.00550  -0.00443  -0.06179
         Item               Value     Threshold  Converged?
 Maximum Force            0.230209     0.000450     NO 
 RMS     Force            0.089081     0.000300     NO 
 Maximum Displacement     0.138738     0.001800     NO 
 RMS     Displacement     0.057708     0.001200     NO 
 Predicted change in Energy=-1.037720D-01
 GradGradGradGradGradGradGradGradGradGradGradGradGradGradGradGradGradGrad

 Leave Link  103 at Tue Dec 15 17:06:01 2015, MaxMem=    33554432 cpu:         0.0
 (Enter /home/Applications/g09/g09/l9999.exe)
 1\1\GINC-DUSTIN-DESKTOP\Force\RAM1-FC\STO-3G\C4H4O1\DUSTIN\15-Dec-2015
 \0\\#P AM1(Input,print) CIS(Singlets,NStates=15) pop(full) force\\AM1-
 Reparam Input\\0,1\C,0.959084,-0.706808,0.037541\C,-0.382606,-1.134975
 ,-0.015953\O,-1.205527,-0.017532,-0.042927\C,-0.356718,1.05928,-0.0175
 01\C,0.98429,0.670291,0.040849\H,1.809862,1.417162,0.033576\H,-0.80089
 9,2.040817,-0.000781\H,-0.830671,-1.999299,-0.042974\H,1.79131,-1.4146
 52,-0.030356\\Version=ES64L-G09RevD.01\State=1-A\HF=2.8077097\RMSD=1.5
 33e-09\RMSF=8.908e-02\Dipole=-4.5516264,0.2459459,-0.1826316\PG=C01 [X
 (C4H4O1)]\\@


 CHINESE FORTUNE COOKIE OF JAN 1 1967 SAY....
 ALL THINGS ARE DIFFICULT BEFORE THEY ARE EASY.
 WE LEARN SO LITTLE AND FORGET SO MUCH.
 YOU WILL OVERCOME OBSTACLES TO ACHIEVE SUCCESS.
 AH SO.
 Job cpu time:       0 days  0 hours  0 minutes  0.8 seconds.
 File lengths (MBytes):  RWF=      7 Int=      0 D2E=      0 Chk=      2 Scr=      1
 Normal termination of Gaussian 09 at Tue Dec 15 17:06:01 2015.
